                         Program Version 5.0.3 -  RELEASE  -
|  1> !RI-B2PLYP def2-TZVP def2-TZVP/C
|  2> !RIJCOSX VERYSLOWCONV
|  3>
|  4> %scf
|  5>   AutoTRAHIter 200
|  6>   maxiter 400
|  7> end
|  8>
|  9>
| 10> %pal nprocs 6 end
| 11>
| 12> *xyzfile 0 5 pbe.xyz
| 13>
| 14> $new_job
| 15>
| 16> !RI-B2PLYP def2-TZVP def2-TZVP/C
| 17> !RIJCOSX VERYSLOWCONV
| 18>
| 19> %scf
| 20>   AutoTRAHIter 200
| 21>   maxiter 400
| 22> end
| 23>
| 24>
| 25> %pal nprocs 6 end
| 26>
| 27> *xyzfile 0 3 pbe.xyz
| 28>
| 29>
| 30>
| 31>
| 32>
| 33>                          ****END OF INPUT****
 Total Charge           Charge          ....    0
 Multiplicity           Mult            ....    5
 Number of Electrons    NEL             ....  290
MP2 TOTAL ENERGY:    -2942.507897623 Eh
FINAL SINGLE POINT ENERGY     -2942.507897622919

CARTESIAN COORDINATES (ANGSTROEM)
---------------------------------
  Au     9.513202    6.507478    7.899486
  Au     7.728489    7.975505    9.574165
  Au    10.688125    8.274220    5.987570
  Au     7.877213   10.802665    8.853980
  Au     5.664341    9.126354    8.116392
  Au     6.601377    6.527542    7.390822
  Au    10.183516    9.091951    8.908622
  Au     9.642794   11.148453    6.619514
  Au     8.476865    6.762636    5.253573
  Au     4.420063   10.303679    5.954931
  Au     6.974726   11.164994    6.151823
  Au    12.100119   10.250593    7.295651
  Au     6.169039    8.306234    5.197828
  Au     8.638632    9.565747    4.445648
  Cr     8.182466    8.803935    7.024599

 Multiplicity           Mult            ....    3
 Number of Electrons    NEL             ....  290
 Basis Dimension        Dim             ....  605

ORBITAL ENERGIES
----------------
                 SPIN UP ORBITALS
  NO   OCC          E(Eh)            E(eV)
   0   1.0000    -217.708697     -5924.1548
   1   1.0000     -25.389847      -690.8928
   2   1.0000     -21.528590      -585.8227
   3   1.0000     -21.527252      -585.7863
   4   1.0000     -21.526952      -585.7781
   5   1.0000      -4.398405      -119.6867
   6   1.0000      -4.398149      -119.6797
   7   1.0000      -4.397763      -119.6692
   8   1.0000      -4.397748      -119.6688
   9   1.0000      -4.395631      -119.6112
  10   1.0000      -4.395622      -119.6110
  11   1.0000      -4.395592      -119.6101
  12   1.0000      -4.395587      -119.6100
  13   1.0000      -4.391734      -119.5052
  14   1.0000      -4.391715      -119.5046
  15   1.0000      -4.386851      -119.3723
  16   1.0000      -4.386779      -119.3703
  17   1.0000      -4.385624      -119.3389
  18   1.0000      -4.385593      -119.3381
  19   1.0000      -3.185357       -86.6780
  20   1.0000      -2.522443       -68.6392
  21   1.0000      -2.518780       -68.5395
  22   1.0000      -2.518733       -68.5382
  23   1.0000      -2.518410       -68.5294
  24   1.0000      -2.518260       -68.5253
  25   1.0000      -2.516561       -68.4791
  26   1.0000      -2.516058       -68.4654
  27   1.0000      -2.515554       -68.4517
  28   1.0000      -2.515519       -68.4508
  29   1.0000      -2.515443       -68.4487
  30   1.0000      -2.514634       -68.4267
  31   1.0000      -2.514491       -68.4228
  32   1.0000      -2.514234       -68.4158
  33   1.0000      -2.514203       -68.4150
  34   1.0000      -2.514072       -68.4114
  35   1.0000      -2.513391       -68.3928
  36   1.0000      -2.512997       -68.3821
  37   1.0000      -2.512596       -68.3712
  38   1.0000      -2.512513       -68.3690
  39   1.0000      -2.512422       -68.3665
  40   1.0000      -2.511796       -68.3494
  41   1.0000      -2.511686       -68.3465
  42   1.0000      -2.511662       -68.3458
  43   1.0000      -2.511043       -68.3290
  44   1.0000      -2.510847       -68.3236
  45   1.0000      -2.510258       -68.3076
  46   1.0000      -2.507994       -68.2460
  47   1.0000      -2.507507       -68.2327
  48   1.0000      -2.507470       -68.2317
  49   1.0000      -2.507188       -68.2241
  50   1.0000      -2.506291       -68.1996
  51   1.0000      -2.505997       -68.1916
  52   1.0000      -2.504109       -68.1403
  53   1.0000      -2.503895       -68.1344
  54   1.0000      -2.503421       -68.1216
  55   1.0000      -2.503292       -68.1180
  56   1.0000      -2.503089       -68.1125
  57   1.0000      -2.501618       -68.0725
  58   1.0000      -2.501197       -68.0610
  59   1.0000      -2.501123       -68.0590
  60   1.0000      -2.500160       -68.0328
  61   1.0000      -2.500127       -68.0319
  62   1.0000      -2.075344       -56.4730
  63   1.0000      -2.073877       -56.4331
  64   1.0000      -2.072118       -56.3852
  65   1.0000      -0.499130       -13.5820
  66   1.0000      -0.475206       -12.9310
  67   1.0000      -0.469939       -12.7877
  68   1.0000      -0.467970       -12.7341
  69   1.0000      -0.467245       -12.7144
  70   1.0000      -0.466298       -12.6886
  71   1.0000      -0.463898       -12.6233
  72   1.0000      -0.459283       -12.4977
  73   1.0000      -0.454930       -12.3793
  74   1.0000      -0.453349       -12.3363
  75   1.0000      -0.449833       -12.2406
  76   1.0000      -0.449357       -12.2276
  77   1.0000      -0.447083       -12.1657
  78   1.0000      -0.446752       -12.1567
  79   1.0000      -0.445766       -12.1299
  80   1.0000      -0.445492       -12.1225
  81   1.0000      -0.443560       -12.0699
  82   1.0000      -0.437576       -11.9071
  83   1.0000      -0.437412       -11.9026
  84   1.0000      -0.436957       -11.8902
  85   1.0000      -0.436691       -11.8830
  86   1.0000      -0.431188       -11.7332
  87   1.0000      -0.429519       -11.6878
  88   1.0000      -0.428945       -11.6722
  89   1.0000      -0.420940       -11.4544
  90   1.0000      -0.414101       -11.2683
  91   1.0000      -0.413551       -11.2533
  92   1.0000      -0.412203       -11.2166
  93   1.0000      -0.411920       -11.2089
  94   1.0000      -0.410890       -11.1809
  95   1.0000      -0.408937       -11.1277
  96   1.0000      -0.399991       -10.8843
  97   1.0000      -0.397312       -10.8114
  98   1.0000      -0.397187       -10.8080
  99   1.0000      -0.394995       -10.7484
 100   1.0000      -0.394308       -10.7297
 101   1.0000      -0.388218       -10.5639
 102   1.0000      -0.387109       -10.5338
 103   1.0000      -0.384205       -10.4548
 104   1.0000      -0.383623       -10.4389
 105   1.0000      -0.376099       -10.2342
 106   1.0000      -0.374010       -10.1773
 107   1.0000      -0.369048       -10.0423
 108   1.0000      -0.368801       -10.0356
 109   1.0000      -0.366302        -9.9676
 110   1.0000      -0.366139        -9.9632
 111   1.0000      -0.366073        -9.9613
 112   1.0000      -0.363939        -9.9033
 113   1.0000      -0.363703        -9.8968
 114   1.0000      -0.363091        -9.8802
 115   1.0000      -0.360957        -9.8222
 116   1.0000      -0.360549        -9.8110
 117   1.0000      -0.359933        -9.7943
 118   1.0000      -0.359057        -9.7704
 119   1.0000      -0.356715        -9.7067
 120   1.0000      -0.356176        -9.6921
 121   1.0000      -0.353954        -9.6316
 122   1.0000      -0.351267        -9.5585
 123   1.0000      -0.349264        -9.5040
 124   1.0000      -0.349211        -9.5025
 125   1.0000      -0.347636        -9.4597
 126   1.0000      -0.343045        -9.3347
 127   1.0000      -0.341488        -9.2924
 128   1.0000      -0.341076        -9.2811
 129   1.0000      -0.340952        -9.2778
 130   1.0000      -0.339559        -9.2399
 131   1.0000      -0.337555        -9.1853
 132   1.0000      -0.336260        -9.1501
 133   1.0000      -0.324698        -8.8355
 134   1.0000      -0.319103        -8.6832
 135   1.0000      -0.318685        -8.6719
 136   1.0000      -0.316034        -8.5997
 137   1.0000      -0.309002        -8.4084
 138   1.0000      -0.304213        -8.2781
 139   1.0000      -0.299006        -8.1364
 140   1.0000      -0.289208        -7.8698
 141   1.0000      -0.282885        -7.6977
 142   1.0000      -0.282711        -7.6930
 143   1.0000      -0.270928        -7.3723
 144   1.0000      -0.240963        -6.5569
 145   1.0000      -0.213377        -5.8063
 146   0.0000      -0.107463        -2.9242
 147   0.0000      -0.105069        -2.8591
 148   0.0000      -0.104160        -2.8343
 149   0.0000      -0.074047        -2.0149
 150   0.0000      -0.070175        -1.9096

                 SPIN DOWN ORBITALS
  NO   OCC          E(Eh)            E(eV)
   0   1.0000    -217.707453     -5924.1210
   1   1.0000     -25.318102      -688.9406
   2   1.0000     -21.465375      -584.1025
   3   1.0000     -21.460822      -583.9787
   4   1.0000     -21.458027      -583.9026
   5   1.0000      -4.398065      -119.6774
   6   1.0000      -4.397802      -119.6703
   7   1.0000      -4.397393      -119.6591
   8   1.0000      -4.397378      -119.6587
   9   1.0000      -4.395878      -119.6179
  10   1.0000      -4.395867      -119.6176
  11   1.0000      -4.395841      -119.6169
  12   1.0000      -4.395832      -119.6167
  13   1.0000      -4.392004      -119.5125
  14   1.0000      -4.391988      -119.5121
  15   1.0000      -4.387036      -119.3773
  16   1.0000      -4.386963      -119.3753
  17   1.0000      -4.385815      -119.3441
  18   1.0000      -4.385785      -119.3433
  19   1.0000      -2.961306       -80.5812
  20   1.0000      -2.521397       -68.6107
  21   1.0000      -2.517677       -68.5095
  22   1.0000      -2.517572       -68.5066
  23   1.0000      -2.517474       -68.5040
  24   1.0000      -2.517459       -68.5035
  25   1.0000      -2.515281       -68.4443
  26   1.0000      -2.514705       -68.4286
  27   1.0000      -2.514266       -68.4167
  28   1.0000      -2.514214       -68.4152
  29   1.0000      -2.514191       -68.4146
  30   1.0000      -2.514142       -68.4133
  31   1.0000      -2.513388       -68.3928
  32   1.0000      -2.513367       -68.3922
  33   1.0000      -2.513232       -68.3885
  34   1.0000      -2.513038       -68.3832
  35   1.0000      -2.512726       -68.3747
  36   1.0000      -2.512295       -68.3630
  37   1.0000      -2.512240       -68.3615
  38   1.0000      -2.511968       -68.3541
  39   1.0000      -2.511947       -68.3536
  40   1.0000      -2.511522       -68.3420
  41   1.0000      -2.511408       -68.3389
  42   1.0000      -2.511232       -68.3341
  43   1.0000      -2.511142       -68.3317
  44   1.0000      -2.510396       -68.3114
  45   1.0000      -2.510079       -68.3027
  46   1.0000      -2.507665       -68.2370
  47   1.0000      -2.507402       -68.2299
  48   1.0000      -2.507208       -68.2246
  49   1.0000      -2.507137       -68.2227
  50   1.0000      -2.505281       -68.1722
  51   1.0000      -2.505003       -68.1646
  52   1.0000      -2.504404       -68.1483
  53   1.0000      -2.504162       -68.1417
  54   1.0000      -2.503663       -68.1281
  55   1.0000      -2.503295       -68.1181
  56   1.0000      -2.503116       -68.1133
  57   1.0000      -2.501787       -68.0771
  58   1.0000      -2.501346       -68.0651
  59   1.0000      -2.501255       -68.0626
  60   1.0000      -2.501144       -68.0596
  61   1.0000      -2.501114       -68.0588
  62   1.0000      -1.824435       -49.6454
  63   1.0000      -1.814429       -49.3731
  64   1.0000      -1.808476       -49.2111
  65   1.0000      -0.494919       -13.4674
  66   1.0000      -0.472500       -12.8574
  67   1.0000      -0.467348       -12.7172
  68   1.0000      -0.462718       -12.5912
  69   1.0000      -0.461335       -12.5536
  70   1.0000      -0.461327       -12.5533
  71   1.0000      -0.458443       -12.4749
  72   1.0000      -0.457861       -12.4590
  73   1.0000      -0.456597       -12.4246
  74   1.0000      -0.451842       -12.2952
  75   1.0000      -0.451797       -12.2940
  76   1.0000      -0.450579       -12.2609
  77   1.0000      -0.445894       -12.1334
  78   1.0000      -0.445301       -12.1173
  79   1.0000      -0.444571       -12.0974
  80   1.0000      -0.444003       -12.0819
  81   1.0000      -0.442918       -12.0524
  82   1.0000      -0.440760       -11.9937
  83   1.0000      -0.438300       -11.9267
  84   1.0000      -0.437658       -11.9093
  85   1.0000      -0.437604       -11.9078
  86   1.0000      -0.433918       -11.8075
  87   1.0000      -0.431021       -11.7287
  88   1.0000      -0.429499       -11.6873
  89   1.0000      -0.421588       -11.4720
  90   1.0000      -0.416023       -11.3206
  91   1.0000      -0.415027       -11.2935
  92   1.0000      -0.414217       -11.2714
  93   1.0000      -0.411399       -11.1947
  94   1.0000      -0.411148       -11.1879
  95   1.0000      -0.410899       -11.1811
  96   1.0000      -0.398578       -10.8459
  97   1.0000      -0.397947       -10.8287
  98   1.0000      -0.396671       -10.7940
  99   1.0000      -0.396601       -10.7921
 100   1.0000      -0.389148       -10.5893
 101   1.0000      -0.386563       -10.5189
 102   1.0000      -0.380285       -10.3481
 103   1.0000      -0.376698       -10.2505
 104   1.0000      -0.376142       -10.2353
 105   1.0000      -0.374619       -10.1939
 106   1.0000      -0.372573       -10.1382
 107   1.0000      -0.370907       -10.0929
 108   1.0000      -0.369637       -10.0583
 109   1.0000      -0.367045        -9.9878
 110   1.0000      -0.366658        -9.9773
 111   1.0000      -0.366231        -9.9657
 112   1.0000      -0.365088        -9.9346
 113   1.0000      -0.364159        -9.9093
 114   1.0000      -0.363840        -9.9006
 115   1.0000      -0.362168        -9.8551
 116   1.0000      -0.362018        -9.8510
 117   1.0000      -0.360162        -9.8005
 118   1.0000      -0.358425        -9.7532
 119   1.0000      -0.357090        -9.7169
 120   1.0000      -0.355967        -9.6863
 121   1.0000      -0.355427        -9.6717
 122   1.0000      -0.354340        -9.6421
 123   1.0000      -0.350800        -9.5458
 124   1.0000      -0.350148        -9.5280
 125   1.0000      -0.349194        -9.5020
 126   1.0000      -0.345035        -9.3889
 127   1.0000      -0.342715        -9.3257
 128   1.0000      -0.341576        -9.2948
 129   1.0000      -0.341240        -9.2856
 130   1.0000      -0.341107        -9.2820
 131   1.0000      -0.338132        -9.2010
 132   1.0000      -0.337290        -9.1781
 133   1.0000      -0.325985        -8.8705
 134   1.0000      -0.323313        -8.7978
 135   1.0000      -0.318932        -8.6786
 136   1.0000      -0.316608        -8.6153
 137   1.0000      -0.313166        -8.5217
 138   1.0000      -0.311271        -8.4701
 139   1.0000      -0.255479        -6.9519
 140   1.0000      -0.229596        -6.2476
 141   1.0000      -0.215364        -5.8603
 142   1.0000      -0.214846        -5.8463
 143   1.0000      -0.211316        -5.7502
 144   0.0000      -0.081319        -2.2128
 145   0.0000      -0.071904        -1.9566
 146   0.0000      -0.051918        -1.4128
 147   0.0000      -0.048710        -1.3255
 148   0.0000      -0.044301        -1.2055

MULLIKEN ATOMIC CHARGES AND SPIN POPULATIONS
--------------------------------------------
   0 Au:    0.565556   -0.061865
   1 Au:    0.584279   -0.072688
   2 Au:    0.353135   -0.126377
   3 Au:    0.632789   -0.117339
   4 Au:    0.352084   -0.126271
   5 Au:    0.566339   -0.061472
   6 Au:    0.353608   -0.126506
   7 Au:    0.349218   -0.062740
   8 Au:    0.583943   -0.072549
   9 Au:    0.294666    0.107781
  10 Au:    0.348050   -0.062732
  11 Au:    0.293964    0.107709
  12 Au:    0.353111   -0.126772
  13 Au:    0.632987   -0.117683
  14 Cr:   -6.263729    2.919504
Sum of atomic charges         :   -0.0000000

LOEWDIN ATOMIC CHARGES AND SPIN POPULATIONS
-------------------------------------------
   0 Au:    0.131712   -0.137051
   1 Au:    0.127367   -0.180890
   2 Au:    0.046692   -0.115483
   3 Au:    0.165592   -0.194750
   4 Au:    0.046238   -0.115270
   5 Au:    0.131792   -0.136856
   6 Au:    0.046987   -0.115633
   7 Au:    0.043978   -0.110066
   8 Au:    0.127304   -0.180972
   9 Au:    0.166922    0.018160
  10 Au:    0.043805   -0.110058
  11 Au:    0.166505    0.018027
  12 Au:    0.046677   -0.115669
  13 Au:    0.165628   -0.194916
  14 Cr:   -1.457199    3.671429

  Mayer bond orders larger than 0.100000
B(  0-Au,  1-Au) :   0.1367 B(  0-Au,  2-Au) :   0.1531 B(  0-Au,  5-Au) :   0.1031
B(  0-Au,  6-Au) :   0.1539 B(  0-Au,  8-Au) :   0.1369 B(  0-Au, 14-Cr) :   0.4193
B(  1-Au,  4-Au) :   0.1875 B(  1-Au,  5-Au) :   0.1372 B(  1-Au,  6-Au) :   0.1867
B(  1-Au, 13-Au) :   0.1152 B(  1-Au, 14-Cr) :   0.4259 B(  2-Au,  6-Au) :   0.1065
B(  2-Au,  7-Au) :   0.1082 B(  2-Au,  8-Au) :   0.1872 B(  2-Au, 11-Au) :   0.2436
B(  2-Au, 13-Au) :   0.1183 B(  2-Au, 14-Cr) :   0.4323 B(  3-Au,  4-Au) :   0.1183
B(  3-Au,  6-Au) :   0.1183 B(  3-Au,  7-Au) :   0.1175 B(  3-Au,  8-Au) :   0.1155
B(  3-Au, 10-Au) :   0.1165 B(  3-Au, 14-Cr) :   0.4593 B(  4-Au,  5-Au) :   0.1533
B(  4-Au,  9-Au) :   0.2444 B(  4-Au, 10-Au) :   0.1087 B(  4-Au, 12-Au) :   0.1069
B(  4-Au, 14-Cr) :   0.4325 B(  5-Au,  8-Au) :   0.1368 B(  5-Au, 12-Au) :   0.1533
B(  5-Au, 14-Cr) :   0.4193 B(  6-Au,  7-Au) :   0.1079 B(  6-Au, 11-Au) :   0.2427
B(  6-Au, 14-Cr) :   0.4321 B(  7-Au, 10-Au) :   0.2628 B(  7-Au, 11-Au) :   0.3230
B(  7-Au, 13-Au) :   0.1169 B(  7-Au, 14-Cr) :   0.4299 B(  8-Au, 12-Au) :   0.1872
B(  8-Au, 14-Cr) :   0.4266 B(  9-Au, 10-Au) :   0.3234 B(  9-Au, 12-Au) :   0.2425
B(  9-Au, 14-Cr) :   0.4387 B( 10-Au, 12-Au) :   0.1083 B( 10-Au, 13-Au) :   0.1173
B( 10-Au, 14-Cr) :   0.4310 B( 11-Au, 14-Cr) :   0.4401 B( 12-Au, 13-Au) :   0.1182
B( 12-Au, 14-Cr) :   0.4322 B( 13-Au, 14-Cr) :   0.4590

MP2 TOTAL ENERGY:    -2942.526153657 Eh
FINAL SINGLE POINT ENERGY     -2942.526153657474

DIPOLE MOMENT
-------------
                                X             Y             Z
Electronic contribution:      0.31534       6.51265      -1.77169
Nuclear contribution   :     -0.31180      -6.42077       1.74638
                        -----------------------------------------
Total Dipole Moment    :      0.00354       0.09188      -0.02530
                        -----------------------------------------
Magnitude (a.u.)       :      0.09537
Magnitude (Debye)      :      0.24241

Rotational constants in cm-1:     0.001287     0.000950     0.000897
Rotational constants in MHz :    38.577487    28.493121    26.890241

                             ****ORCA TERMINATED NORMALLY****
TOTAL RUN TIME: 0 days 1 hours 35 minutes 45 seconds 14 msec
