                         Program Version 5.0.3 -  RELEASE  -
|  1> !PBE def2-TZVP VERYSLOWCONV
|  2>
|  3> %scf
|  4>   AutoTRAHIter 200
|  5>   maxiter 400
|  6> end
|  7>
|  8>
|  9> %pal nprocs 6 end
| 10>
| 11> *xyzfile 0 5 pbe.xyz
| 12>
| 13> $new_job
| 14>
| 15> !PBE def2-TZVP VERYSLOWCONV
| 16>
| 17> %scf
| 18>   AutoTRAHIter 200
| 19>   maxiter 400
| 20> end
| 21>
| 22>
| 23> %pal nprocs 6 end
| 24>
| 25> *xyzfile 0 3 pbe.xyz
| 26>
| 27>
| 28>
| 29>
| 30>
| 31>                          ****END OF INPUT****
 Total Charge           Charge          ....    0
 Multiplicity           Mult            ....    5
 Number of Electrons    NEL             ....  290
FINAL SINGLE POINT ENERGY     -2945.821009493695

CARTESIAN COORDINATES (ANGSTROEM)
---------------------------------
  Au     9.513202    6.507478    7.899486
  Au     7.728489    7.975505    9.574165
  Au    10.688125    8.274220    5.987570
  Au     7.877213   10.802665    8.853980
  Au     5.664341    9.126354    8.116392
  Au     6.601377    6.527542    7.390822
  Au    10.183516    9.091951    8.908622
  Au     9.642794   11.148453    6.619514
  Au     8.476865    6.762636    5.253573
  Au     4.420063   10.303679    5.954931
  Au     6.974726   11.164994    6.151823
  Au    12.100119   10.250593    7.295651
  Au     6.169039    8.306234    5.197828
  Au     8.638632    9.565747    4.445648
  Cr     8.182466    8.803935    7.024599

 Multiplicity           Mult            ....    3
 Number of Electrons    NEL             ....  290
 Basis Dimension        Dim             ....  605

ORBITAL ENERGIES
----------------
                 SPIN UP ORBITALS
  NO   OCC          E(Eh)            E(eV)
   0   1.0000    -214.502919     -5836.9212
   1   1.0000     -24.304538      -661.3601
   2   1.0000     -20.670665      -562.4774
   3   1.0000     -20.668330      -562.4139
   4   1.0000     -20.665755      -562.3438
   5   1.0000      -4.029639      -109.6521
   6   1.0000      -4.029442      -109.6467
   7   1.0000      -4.029173      -109.6394
   8   1.0000      -4.029167      -109.6392
   9   1.0000      -4.027117      -109.5834
  10   1.0000      -4.027072      -109.5822
  11   1.0000      -4.027057      -109.5818
  12   1.0000      -4.027032      -109.5811
  13   1.0000      -4.021749      -109.4373
  14   1.0000      -4.021730      -109.4368
  15   1.0000      -4.017654      -109.3259
  16   1.0000      -4.017589      -109.3241
  17   1.0000      -4.016993      -109.3079
  18   1.0000      -4.016966      -109.3072
  19   1.0000      -2.803243       -76.2801
  20   1.0000      -2.249544       -61.2132
  21   1.0000      -2.245238       -61.0960
  22   1.0000      -2.245168       -61.0941
  23   1.0000      -2.245093       -61.0921
  24   1.0000      -2.244857       -61.0857
  25   1.0000      -2.244814       -61.0845
  26   1.0000      -2.242626       -61.0250
  27   1.0000      -2.242492       -61.0213
  28   1.0000      -2.241810       -61.0027
  29   1.0000      -2.241561       -60.9960
  30   1.0000      -2.241223       -60.9868
  31   1.0000      -2.241103       -60.9835
  32   1.0000      -2.240334       -60.9626
  33   1.0000      -2.240180       -60.9584
  34   1.0000      -2.239848       -60.9494
  35   1.0000      -2.239803       -60.9482
  36   1.0000      -2.239713       -60.9457
  37   1.0000      -2.239111       -60.9293
  38   1.0000      -2.238995       -60.9262
  39   1.0000      -2.238412       -60.9103
  40   1.0000      -2.238358       -60.9088
  41   1.0000      -2.237794       -60.8935
  42   1.0000      -2.237316       -60.8805
  43   1.0000      -2.236837       -60.8674
  44   1.0000      -2.236812       -60.8668
  45   1.0000      -2.236420       -60.8561
  46   1.0000      -2.232949       -60.7616
  47   1.0000      -2.232851       -60.7590
  48   1.0000      -2.232738       -60.7559
  49   1.0000      -2.232651       -60.7535
  50   1.0000      -2.232625       -60.7528
  51   1.0000      -2.232458       -60.7483
  52   1.0000      -2.232448       -60.7480
  53   1.0000      -2.232359       -60.7456
  54   1.0000      -2.229728       -60.6740
  55   1.0000      -2.229693       -60.6730
  56   1.0000      -2.229478       -60.6672
  57   1.0000      -2.228784       -60.6483
  58   1.0000      -2.228761       -60.6477
  59   1.0000      -2.228153       -60.6311
  60   1.0000      -2.227466       -60.6124
  61   1.0000      -2.227439       -60.6117
  62   1.0000      -1.795615       -48.8612
  63   1.0000      -1.792726       -48.7826
  64   1.0000      -1.789774       -48.7022
  65   1.0000      -0.433695       -11.8014
  66   1.0000      -0.388693       -10.5769
  67   1.0000      -0.384748       -10.4695
  68   1.0000      -0.382396       -10.4055
  69   1.0000      -0.374287       -10.1849
  70   1.0000      -0.370301       -10.0764
  71   1.0000      -0.370054       -10.0697
  72   1.0000      -0.367032        -9.9875
  73   1.0000      -0.366130        -9.9629
  74   1.0000      -0.360687        -9.8148
  75   1.0000      -0.348602        -9.4860
  76   1.0000      -0.347013        -9.4427
  77   1.0000      -0.346315        -9.4237
  78   1.0000      -0.345000        -9.3879
  79   1.0000      -0.344297        -9.3688
  80   1.0000      -0.341588        -9.2951
  81   1.0000      -0.341164        -9.2836
  82   1.0000      -0.340330        -9.2609
  83   1.0000      -0.337866        -9.1938
  84   1.0000      -0.335290        -9.1237
  85   1.0000      -0.334682        -9.1071
  86   1.0000      -0.331417        -9.0183
  87   1.0000      -0.329152        -8.9567
  88   1.0000      -0.328440        -8.9373
  89   1.0000      -0.323012        -8.7896
  90   1.0000      -0.318233        -8.6596
  91   1.0000      -0.317345        -8.6354
  92   1.0000      -0.316965        -8.6250
  93   1.0000      -0.312904        -8.5145
  94   1.0000      -0.312264        -8.4971
  95   1.0000      -0.308668        -8.3993
  96   1.0000      -0.300247        -8.1701
  97   1.0000      -0.299231        -8.1425
  98   1.0000      -0.298287        -8.1168
  99   1.0000      -0.297722        -8.1014
 100   1.0000      -0.295469        -8.0401
 101   1.0000      -0.291053        -7.9199
 102   1.0000      -0.290130        -7.8948
 103   1.0000      -0.290041        -7.8924
 104   1.0000      -0.286989        -7.8094
 105   1.0000      -0.283112        -7.7039
 106   1.0000      -0.280406        -7.6302
 107   1.0000      -0.278791        -7.5863
 108   1.0000      -0.276351        -7.5199
 109   1.0000      -0.274863        -7.4794
 110   1.0000      -0.272408        -7.4126
 111   1.0000      -0.272156        -7.4057
 112   1.0000      -0.271273        -7.3817
 113   1.0000      -0.270580        -7.3628
 114   1.0000      -0.268024        -7.2933
 115   1.0000      -0.267588        -7.2814
 116   1.0000      -0.266697        -7.2572
 117   1.0000      -0.266438        -7.2501
 118   1.0000      -0.265341        -7.2203
 119   1.0000      -0.264282        -7.1915
 120   1.0000      -0.264247        -7.1905
 121   1.0000      -0.260835        -7.0977
 122   1.0000      -0.260016        -7.0754
 123   1.0000      -0.259274        -7.0552
 124   1.0000      -0.258715        -7.0400
 125   1.0000      -0.256462        -6.9787
 126   1.0000      -0.256314        -6.9747
 127   1.0000      -0.251700        -6.8491
 128   1.0000      -0.251577        -6.8457
 129   1.0000      -0.248996        -6.7755
 130   1.0000      -0.248899        -6.7729
 131   1.0000      -0.246683        -6.7126
 132   1.0000      -0.246168        -6.6986
 133   1.0000      -0.245044        -6.6680
 134   1.0000      -0.244078        -6.6417
 135   1.0000      -0.240824        -6.5531
 136   1.0000      -0.238851        -6.4995
 137   1.0000      -0.233131        -6.3438
 138   1.0000      -0.231207        -6.2915
 139   1.0000      -0.228575        -6.2198
 140   1.0000      -0.216316        -5.8863
 141   1.0000      -0.214370        -5.8333
 142   1.0000      -0.211217        -5.7475
 143   1.0000      -0.210747        -5.7347
 144   1.0000      -0.196356        -5.3431
 145   1.0000      -0.188417        -5.1271
 146   0.0000      -0.172285        -4.6881
 147   0.0000      -0.171067        -4.6550
 148   0.0000      -0.169554        -4.6138
 149   0.0000      -0.139627        -3.7994
 150   0.0000      -0.135657        -3.6914

                 SPIN DOWN ORBITALS
  NO   OCC          E(Eh)            E(eV)
   0   1.0000    -214.502523     -5836.9104
   1   1.0000     -24.261049      -660.1767
   2   1.0000     -20.640030      -561.6438
   3   1.0000     -20.635491      -561.5203
   4   1.0000     -20.629548      -561.3586
   5   1.0000      -4.029293      -109.6426
   6   1.0000      -4.029095      -109.6373
   7   1.0000      -4.028975      -109.6340
   8   1.0000      -4.028969      -109.6338
   9   1.0000      -4.026995      -109.5801
  10   1.0000      -4.026951      -109.5789
  11   1.0000      -4.026937      -109.5785
  12   1.0000      -4.026912      -109.5779
  13   1.0000      -4.021704      -109.4361
  14   1.0000      -4.021688      -109.4357
  15   1.0000      -4.017604      -109.3246
  16   1.0000      -4.017539      -109.3228
  17   1.0000      -4.017338      -109.3173
  18   1.0000      -4.017312      -109.3166
  19   1.0000      -2.686477       -73.1027
  20   1.0000      -2.249115       -61.2015
  21   1.0000      -2.244883       -61.0864
  22   1.0000      -2.244748       -61.0827
  23   1.0000      -2.244659       -61.0803
  24   1.0000      -2.244588       -61.0784
  25   1.0000      -2.244540       -61.0770
  26   1.0000      -2.242155       -61.0121
  27   1.0000      -2.242012       -61.0082
  28   1.0000      -2.241085       -60.9830
  29   1.0000      -2.241001       -60.9807
  30   1.0000      -2.240861       -60.9769
  31   1.0000      -2.240575       -60.9691
  32   1.0000      -2.240062       -60.9552
  33   1.0000      -2.240049       -60.9548
  34   1.0000      -2.239734       -60.9462
  35   1.0000      -2.239498       -60.9398
  36   1.0000      -2.239378       -60.9366
  37   1.0000      -2.238948       -60.9249
  38   1.0000      -2.238686       -60.9178
  39   1.0000      -2.238356       -60.9088
  40   1.0000      -2.238087       -60.9014
  41   1.0000      -2.237636       -60.8892
  42   1.0000      -2.237602       -60.8882
  43   1.0000      -2.237157       -60.8761
  44   1.0000      -2.236967       -60.8710
  45   1.0000      -2.236636       -60.8620
  46   1.0000      -2.232969       -60.7622
  47   1.0000      -2.232935       -60.7612
  48   1.0000      -2.232814       -60.7580
  49   1.0000      -2.232730       -60.7557
  50   1.0000      -2.232703       -60.7549
  51   1.0000      -2.232626       -60.7528
  52   1.0000      -2.232284       -60.7435
  53   1.0000      -2.232038       -60.7368
  54   1.0000      -2.229804       -60.6761
  55   1.0000      -2.229768       -60.6751
  56   1.0000      -2.229717       -60.6737
  57   1.0000      -2.229007       -60.6544
  58   1.0000      -2.228982       -60.6537
  59   1.0000      -2.228366       -60.6369
  60   1.0000      -2.228084       -60.6293
  61   1.0000      -2.228059       -60.6286
  62   1.0000      -1.689044       -45.9612
  63   1.0000      -1.678870       -45.6844
  64   1.0000      -1.665293       -45.3149
  65   1.0000      -0.428197       -11.6518
  66   1.0000      -0.387946       -10.5565
  67   1.0000      -0.384261       -10.4563
  68   1.0000      -0.382392       -10.4054
  69   1.0000      -0.372619       -10.1395
  70   1.0000      -0.367157        -9.9908
  71   1.0000      -0.366771        -9.9803
  72   1.0000      -0.363025        -9.8784
  73   1.0000      -0.362741        -9.8707
  74   1.0000      -0.356698        -9.7063
  75   1.0000      -0.349581        -9.5126
  76   1.0000      -0.346837        -9.4379
  77   1.0000      -0.346299        -9.4233
  78   1.0000      -0.344936        -9.3862
  79   1.0000      -0.343728        -9.3533
  80   1.0000      -0.341982        -9.3058
  81   1.0000      -0.341459        -9.2916
  82   1.0000      -0.340284        -9.2596
  83   1.0000      -0.338368        -9.2075
  84   1.0000      -0.335820        -9.1381
  85   1.0000      -0.335051        -9.1172
  86   1.0000      -0.332182        -9.0391
  87   1.0000      -0.329670        -8.9708
  88   1.0000      -0.329117        -8.9557
  89   1.0000      -0.322983        -8.7888
  90   1.0000      -0.318653        -8.6710
  91   1.0000      -0.318183        -8.6582
  92   1.0000      -0.317664        -8.6441
  93   1.0000      -0.313293        -8.5251
  94   1.0000      -0.312054        -8.4914
  95   1.0000      -0.309620        -8.4252
  96   1.0000      -0.299827        -8.1587
  97   1.0000      -0.298626        -8.1260
  98   1.0000      -0.298049        -8.1103
  99   1.0000      -0.297247        -8.0885
 100   1.0000      -0.296386        -8.0651
 101   1.0000      -0.290449        -7.9035
 102   1.0000      -0.287138        -7.8134
 103   1.0000      -0.286981        -7.8091
 104   1.0000      -0.284153        -7.7322
 105   1.0000      -0.282113        -7.6767
 106   1.0000      -0.279835        -7.6147
 107   1.0000      -0.279043        -7.5931
 108   1.0000      -0.276195        -7.5157
 109   1.0000      -0.276082        -7.5126
 110   1.0000      -0.273345        -7.4381
 111   1.0000      -0.271966        -7.4006
 112   1.0000      -0.271736        -7.3943
 113   1.0000      -0.271533        -7.3888
 114   1.0000      -0.269122        -7.3232
 115   1.0000      -0.268180        -7.2975
 116   1.0000      -0.266969        -7.2646
 117   1.0000      -0.266820        -7.2605
 118   1.0000      -0.266248        -7.2450
 119   1.0000      -0.264645        -7.2014
 120   1.0000      -0.264395        -7.1946
 121   1.0000      -0.262074        -7.1314
 122   1.0000      -0.260897        -7.0994
 123   1.0000      -0.259594        -7.0639
 124   1.0000      -0.259149        -7.0518
 125   1.0000      -0.257738        -7.0134
 126   1.0000      -0.257345        -7.0027
 127   1.0000      -0.252792        -6.8788
 128   1.0000      -0.251814        -6.8522
 129   1.0000      -0.250336        -6.8120
 130   1.0000      -0.249522        -6.7898
 131   1.0000      -0.247310        -6.7297
 132   1.0000      -0.246995        -6.7211
 133   1.0000      -0.246724        -6.7137
 134   1.0000      -0.244785        -6.6609
 135   1.0000      -0.243075        -6.6144
 136   1.0000      -0.239635        -6.5208
 137   1.0000      -0.233638        -6.3576
 138   1.0000      -0.231321        -6.2946
 139   1.0000      -0.226308        -6.1581
 140   1.0000      -0.207582        -5.6486
 141   1.0000      -0.197916        -5.3856
 142   1.0000      -0.197167        -5.3652
 143   1.0000      -0.194587        -5.2950
 144   0.0000      -0.146400        -3.9838
 145   0.0000      -0.139517        -3.7965
 146   0.0000      -0.120338        -3.2746
 147   0.0000      -0.119807        -3.2601
 148   0.0000      -0.117234        -3.1901

MULLIKEN ATOMIC CHARGES AND SPIN POPULATIONS
--------------------------------------------
   0 Au:    0.587826   -0.018190
   1 Au:    0.605862   -0.036689
   2 Au:    0.365164   -0.054080
   3 Au:    0.650978   -0.056432
   4 Au:    0.364137   -0.054048
   5 Au:    0.588024   -0.018177
   6 Au:    0.365411   -0.054294
   7 Au:    0.367652   -0.015777
   8 Au:    0.605945   -0.036536
   9 Au:    0.340497    0.068921
  10 Au:    0.367283   -0.015701
  11 Au:    0.339864    0.068728
  12 Au:    0.365140   -0.054366
  13 Au:    0.650623   -0.056761
  14 Cr:   -6.564407    2.333401
Sum of atomic charges         :   -0.0000000

LOEWDIN ATOMIC CHARGES AND SPIN POPULATIONS
-------------------------------------------
   0 Au:    0.134907   -0.071728
   1 Au:    0.135790   -0.100402
   2 Au:    0.059193   -0.061724
   3 Au:    0.167730   -0.113780
   4 Au:    0.058731   -0.061549
   5 Au:    0.134929   -0.071671
   6 Au:    0.059340   -0.061891
   7 Au:    0.055851   -0.050112
   8 Au:    0.135779   -0.100416
   9 Au:    0.152297    0.012689
  10 Au:    0.055731   -0.050060
  11 Au:    0.151989    0.012476
  12 Au:    0.059148   -0.061840
  13 Au:    0.167672   -0.113916
  14 Cr:   -1.529086    2.893923

  Mayer bond orders larger than 0.100000
B(  0-Au,  1-Au) :   0.1767 B(  0-Au,  2-Au) :   0.1970 B(  0-Au,  5-Au) :   0.1378
B(  0-Au,  6-Au) :   0.1979 B(  0-Au,  8-Au) :   0.1772 B(  0-Au, 14-Cr) :   0.5147
B(  1-Au,  3-Au) :   0.1284 B(  1-Au,  4-Au) :   0.2405 B(  1-Au,  5-Au) :   0.1776
B(  1-Au,  6-Au) :   0.2394 B(  1-Au, 13-Au) :   0.1041 B(  1-Au, 14-Cr) :   0.5570
B(  2-Au,  6-Au) :   0.1184 B(  2-Au,  7-Au) :   0.1123 B(  2-Au,  8-Au) :   0.2399
B(  2-Au, 11-Au) :   0.2903 B(  2-Au, 13-Au) :   0.1625 B(  2-Au, 14-Cr) :   0.5243
B(  3-Au,  4-Au) :   0.1622 B(  3-Au,  6-Au) :   0.1623 B(  3-Au,  7-Au) :   0.1599
B(  3-Au,  8-Au) :   0.1044 B(  3-Au, 10-Au) :   0.1585 B(  3-Au, 14-Cr) :   0.6160
B(  4-Au,  5-Au) :   0.1970 B(  4-Au,  9-Au) :   0.2913 B(  4-Au, 10-Au) :   0.1128
B(  4-Au, 12-Au) :   0.1189 B(  4-Au, 14-Cr) :   0.5245 B(  5-Au,  8-Au) :   0.1771
B(  5-Au, 12-Au) :   0.1970 B(  5-Au, 14-Cr) :   0.5145 B(  6-Au,  7-Au) :   0.1120
B(  6-Au, 11-Au) :   0.2895 B(  6-Au, 14-Cr) :   0.5239 B(  7-Au, 10-Au) :   0.3314
B(  7-Au, 11-Au) :   0.3722 B(  7-Au, 13-Au) :   0.1590 B(  7-Au, 14-Cr) :   0.5073
B(  8-Au, 12-Au) :   0.2401 B(  8-Au, 13-Au) :   0.1282 B(  8-Au, 14-Cr) :   0.5575
B(  9-Au, 10-Au) :   0.3724 B(  9-Au, 12-Au) :   0.2896 B(  9-Au, 14-Cr) :   0.4005
B( 10-Au, 12-Au) :   0.1126 B( 10-Au, 13-Au) :   0.1595 B( 10-Au, 14-Cr) :   0.5081
B( 11-Au, 14-Cr) :   0.4019 B( 12-Au, 13-Au) :   0.1623 B( 12-Au, 14-Cr) :   0.5243
B( 13-Au, 14-Cr) :   0.6156

FINAL SINGLE POINT ENERGY     -2945.842014458666

DIPOLE MOMENT
-------------
                                X             Y             Z
Electronic contribution:      0.31583       6.51614      -1.77262
Nuclear contribution   :     -0.31180      -6.42077       1.74638
                        -----------------------------------------
Total Dipole Moment    :      0.00403       0.09538      -0.02624
                        -----------------------------------------
Magnitude (a.u.)       :      0.09900
Magnitude (Debye)      :      0.25164

Rotational constants in cm-1:     0.001287     0.000950     0.000897
Rotational constants in MHz :    38.577487    28.493121    26.890241

                             ****ORCA TERMINATED NORMALLY****
TOTAL RUN TIME: 0 days 1 hours 21 minutes 51 seconds 755 msec
