                         Program Version 5.0.3 -  RELEASE  -
|  1> !R2SCAN def2-TZVP VERYSLOWCONV
|  2> !KDIIS
|  3> %scf
|  4>   AutoTRAHIter 200
|  5>   maxiter 400
|  6> end
|  7>
|  8> %pal nprocs 6 end
|  9>
| 10> *xyzfile 0 5 pbe.xyz
| 11>
| 12> $new_job
| 13>
| 14> !R2SCAN def2-TZVP VERYSLOWCONV
| 15> !KDIIS
| 16> %scf
| 17>   AutoTRAHIter 200
| 18>   maxiter 400
| 19> end
| 20>
| 21>
| 22> %pal nprocs 6 end
| 23>
| 24> *xyzfile 0 3 pbe.xyz
| 25>
| 26>
| 27>
| 28>
| 29>
| 30>                          ****END OF INPUT****
 Total Charge           Charge          ....    0
 Multiplicity           Mult            ....    5
 Number of Electrons    NEL             ....  290
FINAL SINGLE POINT ENERGY     -2946.302325476025

CARTESIAN COORDINATES (ANGSTROEM)
---------------------------------
  Au     9.513202    6.507478    7.899486
  Au     7.728489    7.975505    9.574165
  Au    10.688125    8.274220    5.987570
  Au     7.877213   10.802665    8.853980
  Au     5.664341    9.126354    8.116392
  Au     6.601377    6.527542    7.390822
  Au    10.183516    9.091951    8.908622
  Au     9.642794   11.148453    6.619514
  Au     8.476865    6.762636    5.253573
  Au     4.420063   10.303679    5.954931
  Au     6.974726   11.164994    6.151823
  Au    12.100119   10.250593    7.295651
  Au     6.169039    8.306234    5.197828
  Au     8.638632    9.565747    4.445648
  Cr     8.182466    8.803935    7.024599

 Multiplicity           Mult            ....    3
 Number of Electrons    NEL             ....  290
 Basis Dimension        Dim             ....  605

ORBITAL ENERGIES
----------------
                 SPIN UP ORBITALS
  NO   OCC          E(Eh)            E(eV)
   0   1.0000    -215.295277     -5858.4823
   1   1.0000     -24.596736      -669.3112
   2   1.0000     -20.864899      -567.7628
   3   1.0000     -20.863013      -567.7114
   4   1.0000     -20.861578      -567.6724
   5   1.0000      -4.120174      -112.1156
   6   1.0000      -4.119952      -112.1096
   7   1.0000      -4.119525      -112.0980
   8   1.0000      -4.119521      -112.0979
   9   1.0000      -4.117334      -112.0384
  10   1.0000      -4.117286      -112.0370
  11   1.0000      -4.117270      -112.0366
  12   1.0000      -4.117244      -112.0359
  13   1.0000      -4.112018      -111.8937
  14   1.0000      -4.112004      -111.8933
  15   1.0000      -4.107925      -111.7823
  16   1.0000      -4.107854      -111.7804
  17   1.0000      -4.107683      -111.7757
  18   1.0000      -4.107648      -111.7748
  19   1.0000      -2.915086       -79.3235
  20   1.0000      -2.312869       -62.9364
  21   1.0000      -2.308371       -62.8140
  22   1.0000      -2.308332       -62.8129
  23   1.0000      -2.308288       -62.8117
  24   1.0000      -2.308009       -62.8041
  25   1.0000      -2.307993       -62.8037
  26   1.0000      -2.305641       -62.7397
  27   1.0000      -2.305488       -62.7355
  28   1.0000      -2.305220       -62.7282
  29   1.0000      -2.304818       -62.7173
  30   1.0000      -2.304274       -62.7025
  31   1.0000      -2.304252       -62.7019
  32   1.0000      -2.303702       -62.6869
  33   1.0000      -2.303636       -62.6851
  34   1.0000      -2.303287       -62.6756
  35   1.0000      -2.303054       -62.6693
  36   1.0000      -2.302841       -62.6635
  37   1.0000      -2.302351       -62.6502
  38   1.0000      -2.302166       -62.6451
  39   1.0000      -2.301799       -62.6351
  40   1.0000      -2.301471       -62.6262
  41   1.0000      -2.300990       -62.6131
  42   1.0000      -2.300624       -62.6032
  43   1.0000      -2.300112       -62.5892
  44   1.0000      -2.300035       -62.5871
  45   1.0000      -2.299622       -62.5759
  46   1.0000      -2.296304       -62.4856
  47   1.0000      -2.296098       -62.4800
  48   1.0000      -2.296034       -62.4783
  49   1.0000      -2.295889       -62.4743
  50   1.0000      -2.295853       -62.4733
  51   1.0000      -2.295668       -62.4683
  52   1.0000      -2.295566       -62.4655
  53   1.0000      -2.295523       -62.4643
  54   1.0000      -2.292926       -62.3937
  55   1.0000      -2.292887       -62.3926
  56   1.0000      -2.292662       -62.3865
  57   1.0000      -2.292044       -62.3697
  58   1.0000      -2.292010       -62.3688
  59   1.0000      -2.291265       -62.3485
  60   1.0000      -2.290782       -62.3354
  61   1.0000      -2.290748       -62.3344
  62   1.0000      -1.863131       -50.6984
  63   1.0000      -1.861731       -50.6603
  64   1.0000      -1.860191       -50.6184
  65   1.0000      -0.438271       -11.9260
  66   1.0000      -0.395120       -10.7518
  67   1.0000      -0.389223       -10.5913
  68   1.0000      -0.387862       -10.5543
  69   1.0000      -0.382078       -10.3969
  70   1.0000      -0.378225       -10.2920
  71   1.0000      -0.377436       -10.2706
  72   1.0000      -0.375168       -10.2088
  73   1.0000      -0.374102       -10.1798
  74   1.0000      -0.368866       -10.0374
  75   1.0000      -0.357283        -9.7222
  76   1.0000      -0.355654        -9.6778
  77   1.0000      -0.355156        -9.6643
  78   1.0000      -0.353647        -9.6232
  79   1.0000      -0.353219        -9.6116
  80   1.0000      -0.350539        -9.5387
  81   1.0000      -0.350056        -9.5255
  82   1.0000      -0.348900        -9.4941
  83   1.0000      -0.346388        -9.4257
  84   1.0000      -0.344234        -9.3671
  85   1.0000      -0.343700        -9.3525
  86   1.0000      -0.340017        -9.2523
  87   1.0000      -0.337738        -9.1903
  88   1.0000      -0.337057        -9.1718
  89   1.0000      -0.331532        -9.0214
  90   1.0000      -0.326397        -8.8817
  91   1.0000      -0.325241        -8.8503
  92   1.0000      -0.325197        -8.8490
  93   1.0000      -0.321510        -8.7487
  94   1.0000      -0.320769        -8.7286
  95   1.0000      -0.317358        -8.6357
  96   1.0000      -0.308836        -8.4039
  97   1.0000      -0.307041        -8.3550
  98   1.0000      -0.306886        -8.3508
  99   1.0000      -0.306388        -8.3372
 100   1.0000      -0.304123        -8.2756
 101   1.0000      -0.299276        -8.1437
 102   1.0000      -0.298131        -8.1125
 103   1.0000      -0.298083        -8.1113
 104   1.0000      -0.295061        -8.0290
 105   1.0000      -0.290915        -7.9162
 106   1.0000      -0.287902        -7.8342
 107   1.0000      -0.286277        -7.7900
 108   1.0000      -0.283566        -7.7162
 109   1.0000      -0.282247        -7.6803
 110   1.0000      -0.279584        -7.6079
 111   1.0000      -0.279438        -7.6039
 112   1.0000      -0.279041        -7.5931
 113   1.0000      -0.278497        -7.5783
 114   1.0000      -0.275907        -7.5078
 115   1.0000      -0.275228        -7.4893
 116   1.0000      -0.274474        -7.4688
 117   1.0000      -0.274322        -7.4647
 118   1.0000      -0.273378        -7.4390
 119   1.0000      -0.271883        -7.3983
 120   1.0000      -0.271873        -7.3980
 121   1.0000      -0.267970        -7.2918
 122   1.0000      -0.267856        -7.2887
 123   1.0000      -0.266776        -7.2593
 124   1.0000      -0.265110        -7.2140
 125   1.0000      -0.263805        -7.1785
 126   1.0000      -0.263710        -7.1759
 127   1.0000      -0.259060        -7.0494
 128   1.0000      -0.258959        -7.0466
 129   1.0000      -0.256189        -6.9712
 130   1.0000      -0.256146        -6.9701
 131   1.0000      -0.253854        -6.9077
 132   1.0000      -0.253493        -6.8979
 133   1.0000      -0.250610        -6.8194
 134   1.0000      -0.249965        -6.8019
 135   1.0000      -0.245606        -6.6833
 136   1.0000      -0.244985        -6.6664
 137   1.0000      -0.239946        -6.5293
 138   1.0000      -0.237887        -6.4732
 139   1.0000      -0.233213        -6.3460
 140   1.0000      -0.222829        -6.0635
 141   1.0000      -0.219321        -5.9680
 142   1.0000      -0.216776        -5.8988
 143   1.0000      -0.213409        -5.8072
 144   1.0000      -0.202573        -5.5123
 145   1.0000      -0.192190        -5.2297
 146   0.0000      -0.170559        -4.6411
 147   0.0000      -0.168592        -4.5876
 148   0.0000      -0.167436        -4.5562
 149   0.0000      -0.134216        -3.6522
 150   0.0000      -0.131081        -3.5669

                 SPIN DOWN ORBITALS
  NO   OCC          E(Eh)            E(eV)
   0   1.0000    -215.294688     -5858.4663
   1   1.0000     -24.536455      -667.6709
   2   1.0000     -20.821249      -566.5750
   3   1.0000     -20.816828      -566.4547
   4   1.0000     -20.812150      -566.3274
   5   1.0000      -4.119929      -112.1090
   6   1.0000      -4.119706      -112.1029
   7   1.0000      -4.119423      -112.0952
   8   1.0000      -4.119419      -112.0951
   9   1.0000      -4.117434      -112.0411
  10   1.0000      -4.117387      -112.0398
  11   1.0000      -4.117372      -112.0394
  12   1.0000      -4.117347      -112.0387
  13   1.0000      -4.112200      -111.8987
  14   1.0000      -4.112188      -111.8983
  15   1.0000      -4.108042      -111.7855
  16   1.0000      -4.108014      -111.7848
  17   1.0000      -4.107980      -111.7838
  18   1.0000      -4.107972      -111.7836
  19   1.0000      -2.756763       -75.0153
  20   1.0000      -2.312361       -62.9225
  21   1.0000      -2.308022       -62.8045
  22   1.0000      -2.307989       -62.8036
  23   1.0000      -2.307917       -62.8016
  24   1.0000      -2.307758       -62.7973
  25   1.0000      -2.307550       -62.7916
  26   1.0000      -2.305236       -62.7287
  27   1.0000      -2.305076       -62.7243
  28   1.0000      -2.304527       -62.7094
  29   1.0000      -2.304177       -62.6998
  30   1.0000      -2.303827       -62.6903
  31   1.0000      -2.303772       -62.6888
  32   1.0000      -2.303443       -62.6799
  33   1.0000      -2.303438       -62.6797
  34   1.0000      -2.303263       -62.6750
  35   1.0000      -2.302761       -62.6613
  36   1.0000      -2.302578       -62.6563
  37   1.0000      -2.302341       -62.6499
  38   1.0000      -2.301917       -62.6384
  39   1.0000      -2.301636       -62.6307
  40   1.0000      -2.301363       -62.6233
  41   1.0000      -2.301000       -62.6134
  42   1.0000      -2.300881       -62.6102
  43   1.0000      -2.300511       -62.6001
  44   1.0000      -2.300193       -62.5914
  45   1.0000      -2.299872       -62.5827
  46   1.0000      -2.296353       -62.4869
  47   1.0000      -2.296177       -62.4822
  48   1.0000      -2.296100       -62.4801
  49   1.0000      -2.296006       -62.4775
  50   1.0000      -2.295973       -62.4766
  51   1.0000      -2.295840       -62.4730
  52   1.0000      -2.295453       -62.4624
  53   1.0000      -2.295188       -62.4552
  54   1.0000      -2.293060       -62.3973
  55   1.0000      -2.293017       -62.3962
  56   1.0000      -2.292903       -62.3931
  57   1.0000      -2.292330       -62.3775
  58   1.0000      -2.292294       -62.3765
  59   1.0000      -2.291520       -62.3554
  60   1.0000      -2.291487       -62.3545
  61   1.0000      -2.291468       -62.3540
  62   1.0000      -1.713884       -46.6372
  63   1.0000      -1.704131       -46.3718
  64   1.0000      -1.693659       -46.0868
  65   1.0000      -0.432674       -11.7737
  66   1.0000      -0.394629       -10.7384
  67   1.0000      -0.389280       -10.5929
  68   1.0000      -0.388706       -10.5772
  69   1.0000      -0.380515       -10.3543
  70   1.0000      -0.374852       -10.2002
  71   1.0000      -0.373959       -10.1759
  72   1.0000      -0.370629       -10.0853
  73   1.0000      -0.370585       -10.0841
  74   1.0000      -0.364562        -9.9202
  75   1.0000      -0.358735        -9.7617
  76   1.0000      -0.356103        -9.6901
  77   1.0000      -0.355214        -9.6659
  78   1.0000      -0.353932        -9.6310
  79   1.0000      -0.352399        -9.5893
  80   1.0000      -0.351176        -9.5560
  81   1.0000      -0.350576        -9.5397
  82   1.0000      -0.349272        -9.5042
  83   1.0000      -0.347193        -9.4476
  84   1.0000      -0.345165        -9.3924
  85   1.0000      -0.344255        -9.3677
  86   1.0000      -0.341028        -9.2799
  87   1.0000      -0.338921        -9.2225
  88   1.0000      -0.337883        -9.1943
  89   1.0000      -0.331523        -9.0212
  90   1.0000      -0.327398        -8.9089
  91   1.0000      -0.327002        -8.8982
  92   1.0000      -0.326593        -8.8871
  93   1.0000      -0.322243        -8.7687
  94   1.0000      -0.320938        -8.7332
  95   1.0000      -0.318640        -8.6706
  96   1.0000      -0.308394        -8.3918
  97   1.0000      -0.307255        -8.3608
  98   1.0000      -0.306886        -8.3508
  99   1.0000      -0.305274        -8.3069
 100   1.0000      -0.304877        -8.2961
 101   1.0000      -0.298876        -8.1328
 102   1.0000      -0.294753        -8.0206
 103   1.0000      -0.294608        -8.0167
 104   1.0000      -0.291960        -7.9446
 105   1.0000      -0.289966        -7.8904
 106   1.0000      -0.287643        -7.8272
 107   1.0000      -0.286660        -7.8004
 108   1.0000      -0.284403        -7.7390
 109   1.0000      -0.283686        -7.7195
 110   1.0000      -0.281129        -7.6499
 111   1.0000      -0.280264        -7.6264
 112   1.0000      -0.279880        -7.6159
 113   1.0000      -0.279847        -7.6150
 114   1.0000      -0.277815        -7.5597
 115   1.0000      -0.276395        -7.5211
 116   1.0000      -0.275091        -7.4856
 117   1.0000      -0.274700        -7.4750
 118   1.0000      -0.274633        -7.4731
 119   1.0000      -0.272496        -7.4150
 120   1.0000      -0.272339        -7.4107
 121   1.0000      -0.270004        -7.3472
 122   1.0000      -0.269285        -7.3276
 123   1.0000      -0.267323        -7.2742
 124   1.0000      -0.266266        -7.2455
 125   1.0000      -0.265953        -7.2370
 126   1.0000      -0.264836        -7.2065
 127   1.0000      -0.260678        -7.0934
 128   1.0000      -0.259312        -7.0562
 129   1.0000      -0.258558        -7.0357
 130   1.0000      -0.257050        -6.9947
 131   1.0000      -0.254845        -6.9347
 132   1.0000      -0.254665        -6.9298
 133   1.0000      -0.253423        -6.8960
 134   1.0000      -0.251865        -6.8536
 135   1.0000      -0.249558        -6.7908
 136   1.0000      -0.246562        -6.7093
 137   1.0000      -0.240417        -6.5421
 138   1.0000      -0.237802        -6.4709
 139   1.0000      -0.229245        -6.2381
 140   1.0000      -0.209124        -5.6906
 141   1.0000      -0.198565        -5.4032
 142   1.0000      -0.197797        -5.3823
 143   1.0000      -0.194973        -5.3055
 144   0.0000      -0.140809        -3.8316
 145   0.0000      -0.133991        -3.6461
 146   0.0000      -0.116846        -3.1795
 147   0.0000      -0.115947        -3.1551
 148   0.0000      -0.108879        -2.9628

MULLIKEN ATOMIC CHARGES AND SPIN POPULATIONS
--------------------------------------------
   0 Au:    0.525535   -0.041617
   1 Au:    0.557326   -0.064156
   2 Au:    0.328792   -0.089267
   3 Au:    0.590089   -0.098496
   4 Au:    0.328021   -0.089211
   5 Au:    0.525611   -0.041581
   6 Au:    0.329267   -0.089525
   7 Au:    0.329618   -0.037576
   8 Au:    0.557109   -0.064054
   9 Au:    0.303967    0.080149
  10 Au:    0.329452   -0.037363
  11 Au:    0.303179    0.079936
  12 Au:    0.328712   -0.089721
  13 Au:    0.589940   -0.098752
  14 Cr:   -5.926619    2.681235
Sum of atomic charges         :   -0.0000000

LOEWDIN ATOMIC CHARGES AND SPIN POPULATIONS
-------------------------------------------
   0 Au:    0.130430   -0.092083
   1 Au:    0.131884   -0.122638
   2 Au:    0.056029   -0.081293
   3 Au:    0.163725   -0.140146
   4 Au:    0.055559   -0.081096
   5 Au:    0.130465   -0.092008
   6 Au:    0.056171   -0.081475
   7 Au:    0.052939   -0.069263
   8 Au:    0.131862   -0.122675
   9 Au:    0.147925    0.011636
  10 Au:    0.052834   -0.069181
  11 Au:    0.147562    0.011438
  12 Au:    0.055974   -0.081455
  13 Au:    0.163693   -0.140294
  14 Cr:   -1.477054    3.150533

  Mayer bond orders larger than 0.100000
B(  0-Au,  1-Au) :   0.1703 B(  0-Au,  2-Au) :   0.1933 B(  0-Au,  5-Au) :   0.1264
B(  0-Au,  6-Au) :   0.1942 B(  0-Au,  8-Au) :   0.1708 B(  0-Au, 14-Cr) :   0.5427
B(  1-Au,  3-Au) :   0.1213 B(  1-Au,  4-Au) :   0.2392 B(  1-Au,  5-Au) :   0.1712
B(  1-Au,  6-Au) :   0.2381 B(  1-Au, 14-Cr) :   0.5834 B(  2-Au,  6-Au) :   0.1044
B(  2-Au,  8-Au) :   0.2386 B(  2-Au, 11-Au) :   0.2782 B(  2-Au, 13-Au) :   0.1556
B(  2-Au, 14-Cr) :   0.5409 B(  3-Au,  4-Au) :   0.1553 B(  3-Au,  6-Au) :   0.1554
B(  3-Au,  7-Au) :   0.1530 B(  3-Au, 10-Au) :   0.1516 B(  3-Au, 14-Cr) :   0.6517
B(  4-Au,  5-Au) :   0.1933 B(  4-Au,  9-Au) :   0.2792 B(  4-Au, 12-Au) :   0.1048
B(  4-Au, 14-Cr) :   0.5409 B(  5-Au,  8-Au) :   0.1708 B(  5-Au, 12-Au) :   0.1934
B(  5-Au, 14-Cr) :   0.5426 B(  6-Au, 11-Au) :   0.2773 B(  6-Au, 14-Cr) :   0.5405
B(  7-Au, 10-Au) :   0.3345 B(  7-Au, 11-Au) :   0.3683 B(  7-Au, 13-Au) :   0.1521
B(  7-Au, 14-Cr) :   0.5270 B(  8-Au, 12-Au) :   0.2388 B(  8-Au, 13-Au) :   0.1210
B(  8-Au, 14-Cr) :   0.5840 B(  9-Au, 10-Au) :   0.3684 B(  9-Au, 12-Au) :   0.2774
B(  9-Au, 14-Cr) :   0.3734 B( 10-Au, 13-Au) :   0.1525 B( 10-Au, 14-Cr) :   0.5277
B( 11-Au, 14-Cr) :   0.3747 B( 12-Au, 13-Au) :   0.1554 B( 12-Au, 14-Cr) :   0.5409
B( 13-Au, 14-Cr) :   0.6510

FINAL SINGLE POINT ENERGY     -2946.321817967667

DIPOLE MOMENT
-------------
                                X             Y             Z
Electronic contribution:      0.31525       6.51041      -1.77117
Nuclear contribution   :     -0.31180      -6.42077       1.74638
                        -----------------------------------------
Total Dipole Moment    :      0.00344       0.08965      -0.02479
                        -----------------------------------------
Magnitude (a.u.)       :      0.09308
Magnitude (Debye)      :      0.23658

Rotational constants in cm-1:     0.001287     0.000950     0.000897
Rotational constants in MHz :    38.577487    28.493121    26.890241

                             ****ORCA TERMINATED NORMALLY****
TOTAL RUN TIME: 0 days 0 hours 27 minutes 36 seconds 147 msec
