                         Program Version 5.0.3 -  RELEASE  -
|  1> !RI-B2PLYP def2-TZVP def2-TZVP/C
|  2> !RIJCOSX VERYSLOWCONV
|  3>
|  4> %scf
|  5>   AutoTRAHIter 200
|  6>   maxiter 400
|  7> end
|  8>
|  9>
| 10> %pal nprocs 6 end
| 11>
| 12> *xyzfile 0 6 pbe.xyz
| 13>
| 14> $new_job
| 15>
| 16> !RI-B2PLYP def2-TZVP def2-TZVP/C
| 17> !RIJCOSX VERYSLOWCONV
| 18>
| 19> %scf
| 20>   AutoTRAHIter 200
| 21>   maxiter 400
| 22> end
| 23>
| 24>
| 25> %pal nprocs 6 end
| 26>
| 27> *xyzfile 0 4 pbe.xyz
| 28>
| 29>
| 30>
| 31>
| 32>
| 33>                          ****END OF INPUT****
 Total Charge           Charge          ....    0
 Multiplicity           Mult            ....    6
 Number of Electrons    NEL             ....  253
MP2 TOTAL ENERGY:    -2777.842197893 Eh
FINAL SINGLE POINT ENERGY     -2777.842197892634

CARTESIAN COORDINATES (ANGSTROEM)
---------------------------------
  Au    10.767950   12.175862    8.164332
  Au     8.312011    8.284408   10.479405
  Au    10.276731    9.844093    9.566493
  Au     6.568404    7.208827    8.713589
  Au    12.491259    9.787470    7.905995
  Au     6.150269    9.715466    7.238421
  Au     8.161119   11.406047    7.856120
  Au    10.925220    7.603137    7.419821
  Au    10.249192   10.177526    6.245914
  Au     8.637916    6.290105    6.853433
  Au     6.048141    7.143595    6.022553
  Au     8.180104    8.766752    5.257013
  Mn     8.555103    8.759659    7.858300

 Multiplicity           Mult            ....    4
 Number of Electrons    NEL             ....  253
 Basis Dimension        Dim             ....  525

ORBITAL ENERGIES
----------------
                 SPIN UP ORBITALS
  NO   OCC          E(Eh)            E(eV)
   0   1.0000    -237.615894     -6465.8572
   1   1.0000     -28.120719      -765.2037
   2   1.0000     -24.038432      -654.1190
   3   1.0000     -24.038350      -654.1168
   4   1.0000     -24.038143      -654.1111
   5   1.0000      -4.403741      -119.8319
   6   1.0000      -4.402346      -119.7939
   7   1.0000      -4.399983      -119.7296
   8   1.0000      -4.397288      -119.6563
   9   1.0000      -4.395584      -119.6099
  10   1.0000      -4.395518      -119.6081
  11   1.0000      -4.392362      -119.5223
  12   1.0000      -4.392081      -119.5146
  13   1.0000      -4.392034      -119.5133
  14   1.0000      -4.390292      -119.4659
  15   1.0000      -4.385806      -119.3439
  16   1.0000      -4.385364      -119.3318
  17   1.0000      -3.597464       -97.8920
  18   1.0000      -2.526248       -68.7427
  19   1.0000      -2.524881       -68.7055
  20   1.0000      -2.522263       -68.6343
  21   1.0000      -2.521055       -68.6014
  22   1.0000      -2.520571       -68.5882
  23   1.0000      -2.519222       -68.5515
  24   1.0000      -2.518598       -68.5345
  25   1.0000      -2.517837       -68.5138
  26   1.0000      -2.517794       -68.5126
  27   1.0000      -2.517576       -68.5067
  28   1.0000      -2.517430       -68.5027
  29   1.0000      -2.516335       -68.4730
  30   1.0000      -2.514560       -68.4247
  31   1.0000      -2.514213       -68.4152
  32   1.0000      -2.513678       -68.4006
  33   1.0000      -2.512175       -68.3598
  34   1.0000      -2.511687       -68.3465
  35   1.0000      -2.510892       -68.3249
  36   1.0000      -2.510871       -68.3243
  37   1.0000      -2.510362       -68.3104
  38   1.0000      -2.509905       -68.2980
  39   1.0000      -2.509047       -68.2746
  40   1.0000      -2.508288       -68.2540
  41   1.0000      -2.508123       -68.2495
  42   1.0000      -2.507501       -68.2326
  43   1.0000      -2.506874       -68.2155
  44   1.0000      -2.506720       -68.2113
  45   1.0000      -2.504770       -68.1582
  46   1.0000      -2.504643       -68.1548
  47   1.0000      -2.503792       -68.1316
  48   1.0000      -2.503358       -68.1198
  49   1.0000      -2.502673       -68.1012
  50   1.0000      -2.502533       -68.0974
  51   1.0000      -2.501167       -68.0602
  52   1.0000      -2.500725       -68.0482
  53   1.0000      -2.500273       -68.0359
  54   1.0000      -2.399433       -65.2919
  55   1.0000      -2.397965       -65.2520
  56   1.0000      -2.397918       -65.2507
  57   1.0000      -0.515149       -14.0179
  58   1.0000      -0.510297       -13.8859
  59   1.0000      -0.508548       -13.8383
  60   1.0000      -0.507043       -13.7973
  61   1.0000      -0.503801       -13.7091
  62   1.0000      -0.494407       -13.4535
  63   1.0000      -0.471652       -12.8343
  64   1.0000      -0.459144       -12.4939
  65   1.0000      -0.458843       -12.4858
  66   1.0000      -0.456283       -12.4161
  67   1.0000      -0.455132       -12.3848
  68   1.0000      -0.446821       -12.1586
  69   1.0000      -0.446064       -12.1380
  70   1.0000      -0.442673       -12.0458
  71   1.0000      -0.441996       -12.0273
  72   1.0000      -0.440236       -11.9794
  73   1.0000      -0.439474       -11.9587
  74   1.0000      -0.436844       -11.8871
  75   1.0000      -0.433288       -11.7904
  76   1.0000      -0.430782       -11.7222
  77   1.0000      -0.429019       -11.6742
  78   1.0000      -0.426283       -11.5998
  79   1.0000      -0.418902       -11.3989
  80   1.0000      -0.418040       -11.3755
  81   1.0000      -0.416633       -11.3372
  82   1.0000      -0.411199       -11.1893
  83   1.0000      -0.407803       -11.0969
  84   1.0000      -0.406192       -11.0530
  85   1.0000      -0.402499       -10.9526
  86   1.0000      -0.400189       -10.8897
  87   1.0000      -0.393895       -10.7184
  88   1.0000      -0.392774       -10.6879
  89   1.0000      -0.392306       -10.6752
  90   1.0000      -0.389550       -10.6002
  91   1.0000      -0.386975       -10.5301
  92   1.0000      -0.385294       -10.4844
  93   1.0000      -0.382707       -10.4140
  94   1.0000      -0.382220       -10.4007
  95   1.0000      -0.377227       -10.2649
  96   1.0000      -0.374536       -10.1916
  97   1.0000      -0.373540       -10.1646
  98   1.0000      -0.372185       -10.1277
  99   1.0000      -0.369389       -10.0516
 100   1.0000      -0.368123       -10.0171
 101   1.0000      -0.367333        -9.9956
 102   1.0000      -0.365673        -9.9505
 103   1.0000      -0.364291        -9.9129
 104   1.0000      -0.363325        -9.8866
 105   1.0000      -0.361990        -9.8503
 106   1.0000      -0.360294        -9.8041
 107   1.0000      -0.358662        -9.7597
 108   1.0000      -0.357885        -9.7385
 109   1.0000      -0.357625        -9.7315
 110   1.0000      -0.356336        -9.6964
 111   1.0000      -0.353442        -9.6176
 112   1.0000      -0.351189        -9.5563
 113   1.0000      -0.349911        -9.5216
 114   1.0000      -0.349626        -9.5138
 115   1.0000      -0.348220        -9.4755
 116   1.0000      -0.339902        -9.2492
 117   1.0000      -0.336176        -9.1478
 118   1.0000      -0.334778        -9.1098
 119   1.0000      -0.332374        -9.0444
 120   1.0000      -0.329268        -8.9598
 121   1.0000      -0.325634        -8.8610
 122   1.0000      -0.322920        -8.7871
 123   1.0000      -0.318219        -8.6592
 124   1.0000      -0.279196        -7.5973
 125   1.0000      -0.276420        -7.5218
 126   1.0000      -0.239873        -6.5273
 127   1.0000      -0.211388        -5.7522
 128   0.0000      -0.117009        -3.1840
 129   0.0000      -0.112555        -3.0628
 130   0.0000      -0.076100        -2.0708
 131   0.0000      -0.064835        -1.7643
 132   0.0000      -0.063340        -1.7236

                 SPIN DOWN ORBITALS
  NO   OCC          E(Eh)            E(eV)
   0   1.0000    -237.613770     -6465.7994
   1   1.0000     -28.020750      -762.4834
   2   1.0000     -23.946857      -651.6271
   3   1.0000     -23.946564      -651.6191
   4   1.0000     -23.946131      -651.6073
   5   1.0000      -4.404080      -119.8411
   6   1.0000      -4.401955      -119.7833
   7   1.0000      -4.400213      -119.7359
   8   1.0000      -4.397844      -119.6714
   9   1.0000      -4.395700      -119.6131
  10   1.0000      -4.395612      -119.6107
  11   1.0000      -4.393228      -119.5458
  12   1.0000      -4.392290      -119.5203
  13   1.0000      -4.392282      -119.5201
  14   1.0000      -4.390610      -119.4746
  15   1.0000      -4.386235      -119.3555
  16   1.0000      -4.385799      -119.3437
  17   1.0000      -3.316480       -90.2460
  18   1.0000      -2.525411       -68.7199
  19   1.0000      -2.523102       -68.6571
  20   1.0000      -2.520985       -68.5995
  21   1.0000      -2.519473       -68.5583
  22   1.0000      -2.519124       -68.5489
  23   1.0000      -2.518828       -68.5408
  24   1.0000      -2.518429       -68.5299
  25   1.0000      -2.517491       -68.5044
  26   1.0000      -2.516815       -68.4860
  27   1.0000      -2.516773       -68.4849
  28   1.0000      -2.516248       -68.4706
  29   1.0000      -2.515591       -68.4527
  30   1.0000      -2.513663       -68.4003
  31   1.0000      -2.513528       -68.3966
  32   1.0000      -2.513415       -68.3935
  33   1.0000      -2.511677       -68.3462
  34   1.0000      -2.511382       -68.3382
  35   1.0000      -2.510395       -68.3113
  36   1.0000      -2.510093       -68.3031
  37   1.0000      -2.510083       -68.3028
  38   1.0000      -2.509946       -68.2991
  39   1.0000      -2.509824       -68.2958
  40   1.0000      -2.508731       -68.2660
  41   1.0000      -2.508548       -68.2611
  42   1.0000      -2.507971       -68.2454
  43   1.0000      -2.507794       -68.2406
  44   1.0000      -2.506880       -68.2157
  45   1.0000      -2.505641       -68.1819
  46   1.0000      -2.505485       -68.1777
  47   1.0000      -2.504559       -68.1525
  48   1.0000      -2.504066       -68.1391
  49   1.0000      -2.502756       -68.1034
  50   1.0000      -2.502160       -68.0872
  51   1.0000      -2.501738       -68.0758
  52   1.0000      -2.501493       -68.0691
  53   1.0000      -2.500771       -68.0494
  54   1.0000      -2.077605       -56.5345
  55   1.0000      -2.077126       -56.5215
  56   1.0000      -2.076342       -56.5001
  57   1.0000      -0.494013       -13.4428
  58   1.0000      -0.475012       -12.9257
  59   1.0000      -0.468567       -12.7504
  60   1.0000      -0.463377       -12.6091
  61   1.0000      -0.460929       -12.5425
  62   1.0000      -0.460212       -12.5230
  63   1.0000      -0.455284       -12.3889
  64   1.0000      -0.452126       -12.3030
  65   1.0000      -0.450279       -12.2527
  66   1.0000      -0.448591       -12.2068
  67   1.0000      -0.444810       -12.1039
  68   1.0000      -0.441687       -12.0189
  69   1.0000      -0.440895       -11.9974
  70   1.0000      -0.438722       -11.9382
  71   1.0000      -0.436767       -11.8850
  72   1.0000      -0.435665       -11.8550
  73   1.0000      -0.431609       -11.7447
  74   1.0000      -0.428227       -11.6526
  75   1.0000      -0.424859       -11.5610
  76   1.0000      -0.424637       -11.5550
  77   1.0000      -0.418048       -11.3757
  78   1.0000      -0.415431       -11.3045
  79   1.0000      -0.414192       -11.2707
  80   1.0000      -0.410318       -11.1653
  81   1.0000      -0.409385       -11.1399
  82   1.0000      -0.407062       -11.0767
  83   1.0000      -0.396768       -10.7966
  84   1.0000      -0.395779       -10.7697
  85   1.0000      -0.395429       -10.7602
  86   1.0000      -0.394294       -10.7293
  87   1.0000      -0.393220       -10.7000
  88   1.0000      -0.388937       -10.5835
  89   1.0000      -0.386964       -10.5298
  90   1.0000      -0.382460       -10.4073
  91   1.0000      -0.382250       -10.4016
  92   1.0000      -0.378659       -10.3038
  93   1.0000      -0.376524       -10.2457
  94   1.0000      -0.375065       -10.2061
  95   1.0000      -0.374492       -10.1904
  96   1.0000      -0.372111       -10.1257
  97   1.0000      -0.369068       -10.0429
  98   1.0000      -0.368933       -10.0392
  99   1.0000      -0.366002        -9.9594
 100   1.0000      -0.365779        -9.9534
 101   1.0000      -0.363129        -9.8813
 102   1.0000      -0.362340        -9.8598
 103   1.0000      -0.362142        -9.8544
 104   1.0000      -0.358667        -9.7598
 105   1.0000      -0.357737        -9.7345
 106   1.0000      -0.355724        -9.6797
 107   1.0000      -0.354256        -9.6398
 108   1.0000      -0.353130        -9.6092
 109   1.0000      -0.350808        -9.5460
 110   1.0000      -0.350313        -9.5325
 111   1.0000      -0.343472        -9.3463
 112   1.0000      -0.339370        -9.2347
 113   1.0000      -0.338344        -9.2068
 114   1.0000      -0.337599        -9.1865
 115   1.0000      -0.332072        -9.0361
 116   1.0000      -0.331859        -9.0303
 117   1.0000      -0.327358        -8.9079
 118   1.0000      -0.323131        -8.7928
 119   1.0000      -0.300343        -8.1728
 120   1.0000      -0.294944        -8.0258
 121   1.0000      -0.248525        -6.7627
 122   1.0000      -0.223776        -6.0892
 123   1.0000      -0.220903        -6.0111
 124   1.0000      -0.217157        -5.9091
 125   0.0000      -0.081573        -2.2197
 126   0.0000      -0.069237        -1.8840
 127   0.0000      -0.067681        -1.8417
 128   0.0000      -0.051984        -1.4146
 129   0.0000      -0.046830        -1.2743

MULLIKEN ATOMIC CHARGES AND SPIN POPULATIONS
--------------------------------------------
   0 Au:    0.312426    0.055333
   1 Au:    0.213257   -0.098116
   2 Au:   -0.044843   -0.264016
   3 Au:    0.185615   -0.270749
   4 Au:    0.306687    0.056349
   5 Au:    0.121766   -0.057413
   6 Au:    0.030505   -0.142367
   7 Au:    0.029311   -0.143946
   8 Au:    0.054220   -0.265166
   9 Au:    0.123132   -0.057980
  10 Au:    0.313120   -0.115286
  11 Au:    0.161974   -0.280300
  12 Mn:   -1.807170    4.583657
Sum of atomic charges         :   -0.0000000

LOEWDIN ATOMIC CHARGES AND SPIN POPULATIONS
-------------------------------------------
   0 Au:    0.063179   -0.005532
   1 Au:    0.132758   -0.189387
   2 Au:   -0.077075   -0.127002
   3 Au:   -0.012227   -0.170040
   4 Au:    0.060797   -0.005673
   5 Au:    0.030486   -0.111202
   6 Au:    0.029079   -0.110026
   7 Au:    0.029041   -0.109585
   8 Au:   -0.054030   -0.142935
   9 Au:    0.030011   -0.112342
  10 Au:    0.063034   -0.108921
  11 Au:    0.043751   -0.196172
  12 Mn:   -0.338805    4.388817

  Mayer bond orders larger than 0.100000
B(  0-Au,  2-Au) :   0.2912 B(  0-Au,  6-Au) :   0.4050 B(  0-Au,  8-Au) :   0.2288
B(  1-Au,  2-Au) :   0.3966 B(  1-Au,  3-Au) :   0.2350 B(  1-Au, 12-Mn) :   0.5298
B(  2-Au,  4-Au) :   0.2853 B(  2-Au,  8-Au) :   0.1299 B(  2-Au, 12-Mn) :   0.4242
B(  3-Au,  5-Au) :   0.1106 B(  3-Au,  9-Au) :   0.1127 B(  3-Au, 10-Au) :   0.2581
B(  3-Au, 12-Mn) :   0.4272 B(  4-Au,  7-Au) :   0.4105 B(  4-Au,  8-Au) :   0.2309
B(  5-Au,  6-Au) :   0.3383 B(  5-Au, 10-Au) :   0.1947 B(  5-Au, 12-Mn) :   0.4780
B(  6-Au,  8-Au) :   0.1354 B(  6-Au, 12-Mn) :   0.5168 B(  7-Au,  8-Au) :   0.1366
B(  7-Au,  9-Au) :   0.3406 B(  7-Au, 12-Mn) :   0.5172 B(  8-Au, 11-Au) :   0.3480
B(  8-Au, 12-Mn) :   0.3924 B(  9-Au, 10-Au) :   0.1912 B(  9-Au, 11-Au) :   0.1010
B(  9-Au, 12-Mn) :   0.4757 B( 10-Au, 11-Au) :   0.2563 B( 10-Au, 12-Mn) :   0.1311
B( 11-Au, 12-Mn) :   0.5101

MP2 TOTAL ENERGY:    -2777.851989844 Eh
FINAL SINGLE POINT ENERGY     -2777.851989843939

DIPOLE MOMENT
-------------
                                X             Y             Z
Electronic contribution:     12.36600       9.92379      -7.92743
Nuclear contribution   :    -12.45215      -9.96694       7.81166
                        -----------------------------------------
Total Dipole Moment    :     -0.08615      -0.04315      -0.11577
                        -----------------------------------------
Magnitude (a.u.)       :      0.15063
Magnitude (Debye)      :      0.38286

Rotational constants in cm-1:     0.001799     0.001040     0.001021
Rotational constants in MHz :    53.942579    31.169120    30.597360

                             ****ORCA TERMINATED NORMALLY****
TOTAL RUN TIME: 0 days 0 hours 36 minutes 21 seconds 349 msec
