                         Program Version 5.0.3 -  RELEASE  -
|  1> !PBE def2-TZVP VERYSLOWCONV
|  2> !KDIIS
|  3>
|  4> %scf
|  5>   AutoTRAHIter 200
|  6>   maxiter 400
|  7> end
|  8>
|  9>
| 10> %pal nprocs 6 end
| 11>
| 12> *xyzfile 0 6 pbe.xyz
| 13>
| 14> $new_job
| 15>
| 16> !PBE def2-TZVP VERYSLOWCONV
| 17> !KDIIS
| 18>
| 19> %scf
| 20>   AutoTRAHIter 200
| 21>   maxiter 400
| 22> end
| 23>
| 24>
| 25> %pal nprocs 6 end
| 26>
| 27> *xyzfile 0 4 pbe.xyz
| 28>
| 29>
| 30>
| 31>
| 32>
| 33>                          ****END OF INPUT****
 Total Charge           Charge          ....    0
 Multiplicity           Mult            ....    6
 Number of Electrons    NEL             ....  253
FINAL SINGLE POINT ENERGY     -2780.681759172244

CARTESIAN COORDINATES (ANGSTROEM)
---------------------------------
  Au    10.767950   12.175862    8.164332
  Au     8.312011    8.284408   10.479405
  Au    10.276731    9.844093    9.566493
  Au     6.568404    7.208827    8.713589
  Au    12.491259    9.787470    7.905995
  Au     6.150269    9.715466    7.238421
  Au     8.161119   11.406047    7.856120
  Au    10.925220    7.603137    7.419821
  Au    10.249192   10.177526    6.245914
  Au     8.637916    6.290105    6.853433
  Au     6.048141    7.143595    6.022553
  Au     8.180104    8.766752    5.257013
  Mn     8.555103    8.759659    7.858300

 Multiplicity           Mult            ....    4
 Number of Electrons    NEL             ....  253
 Basis Dimension        Dim             ....  525

ORBITAL ENERGIES
----------------
                 SPIN UP ORBITALS
  NO   OCC          E(Eh)            E(eV)
   0   1.0000    -234.201587     -6372.9492
   1   1.0000     -26.898680      -731.9503
   2   1.0000     -23.047886      -627.1649
   3   1.0000     -23.047449      -627.1530
   4   1.0000     -23.046964      -627.1398
   5   1.0000      -4.030896      -109.6863
   6   1.0000      -4.030378      -109.6722
   7   1.0000      -4.025998      -109.5530
   8   1.0000      -4.025770      -109.5468
   9   1.0000      -4.023504      -109.4851
  10   1.0000      -4.023397      -109.4822
  11   1.0000      -4.021392      -109.4276
  12   1.0000      -4.021348      -109.4264
  13   1.0000      -4.019777      -109.3837
  14   1.0000      -4.017958      -109.3342
  15   1.0000      -4.016044      -109.2821
  16   1.0000      -4.015758      -109.2743
  17   1.0000      -3.103350       -84.4464
  18   1.0000      -2.248921       -61.1962
  19   1.0000      -2.248617       -61.1880
  20   1.0000      -2.243829       -61.0577
  21   1.0000      -2.243268       -61.0424
  22   1.0000      -2.242780       -61.0291
  23   1.0000      -2.242668       -61.0261
  24   1.0000      -2.242041       -61.0090
  25   1.0000      -2.241965       -61.0070
  26   1.0000      -2.240989       -60.9804
  27   1.0000      -2.240870       -60.9772
  28   1.0000      -2.240249       -60.9603
  29   1.0000      -2.238596       -60.9153
  30   1.0000      -2.238010       -60.8993
  31   1.0000      -2.237707       -60.8911
  32   1.0000      -2.236940       -60.8702
  33   1.0000      -2.236820       -60.8670
  34   1.0000      -2.235532       -60.8319
  35   1.0000      -2.235344       -60.8268
  36   1.0000      -2.235092       -60.8199
  37   1.0000      -2.233656       -60.7809
  38   1.0000      -2.233624       -60.7800
  39   1.0000      -2.233000       -60.7630
  40   1.0000      -2.232748       -60.7561
  41   1.0000      -2.232076       -60.7379
  42   1.0000      -2.231255       -60.7155
  43   1.0000      -2.230363       -60.6913
  44   1.0000      -2.230280       -60.6890
  45   1.0000      -2.230144       -60.6853
  46   1.0000      -2.230006       -60.6816
  47   1.0000      -2.229088       -60.6566
  48   1.0000      -2.229051       -60.6556
  49   1.0000      -2.228927       -60.6522
  50   1.0000      -2.227835       -60.6225
  51   1.0000      -2.227140       -60.6036
  52   1.0000      -2.226716       -60.5920
  53   1.0000      -2.223479       -60.5039
  54   1.0000      -2.006103       -54.5888
  55   1.0000      -2.005756       -54.5794
  56   1.0000      -2.005513       -54.5728
  57   1.0000      -0.419915       -11.4265
  58   1.0000      -0.387452       -10.5431
  59   1.0000      -0.373936       -10.1753
  60   1.0000      -0.369420       -10.0524
  61   1.0000      -0.366516        -9.9734
  62   1.0000      -0.364679        -9.9234
  63   1.0000      -0.361045        -9.8245
  64   1.0000      -0.357390        -9.7251
  65   1.0000      -0.356573        -9.7028
  66   1.0000      -0.352411        -9.5896
  67   1.0000      -0.344021        -9.3613
  68   1.0000      -0.342234        -9.3127
  69   1.0000      -0.338380        -9.2078
  70   1.0000      -0.335179        -9.1207
  71   1.0000      -0.334801        -9.1104
  72   1.0000      -0.333151        -9.0655
  73   1.0000      -0.332390        -9.0448
  74   1.0000      -0.331119        -9.0102
  75   1.0000      -0.330500        -8.9933
  76   1.0000      -0.326139        -8.8747
  77   1.0000      -0.324524        -8.8307
  78   1.0000      -0.319505        -8.6942
  79   1.0000      -0.313173        -8.5219
  80   1.0000      -0.311492        -8.4761
  81   1.0000      -0.310846        -8.4586
  82   1.0000      -0.310266        -8.4428
  83   1.0000      -0.303624        -8.2620
  84   1.0000      -0.300964        -8.1897
  85   1.0000      -0.297680        -8.1003
  86   1.0000      -0.296618        -8.0714
  87   1.0000      -0.291806        -7.9404
  88   1.0000      -0.290960        -7.9174
  89   1.0000      -0.289375        -7.8743
  90   1.0000      -0.288011        -7.8372
  91   1.0000      -0.285548        -7.7701
  92   1.0000      -0.284187        -7.7331
  93   1.0000      -0.280092        -7.6217
  94   1.0000      -0.277307        -7.5459
  95   1.0000      -0.277062        -7.5392
  96   1.0000      -0.275891        -7.5074
  97   1.0000      -0.273143        -7.4326
  98   1.0000      -0.271435        -7.3861
  99   1.0000      -0.271273        -7.3817
 100   1.0000      -0.269961        -7.3460
 101   1.0000      -0.266823        -7.2606
 102   1.0000      -0.266660        -7.2562
 103   1.0000      -0.263664        -7.1747
 104   1.0000      -0.262141        -7.1332
 105   1.0000      -0.261615        -7.1189
 106   1.0000      -0.259752        -7.0682
 107   1.0000      -0.259012        -7.0481
 108   1.0000      -0.258007        -7.0207
 109   1.0000      -0.256473        -6.9790
 110   1.0000      -0.254701        -6.9308
 111   1.0000      -0.253425        -6.8960
 112   1.0000      -0.251997        -6.8572
 113   1.0000      -0.250486        -6.8161
 114   1.0000      -0.248044        -6.7496
 115   1.0000      -0.246645        -6.7115
 116   1.0000      -0.245768        -6.6877
 117   1.0000      -0.243064        -6.6141
 118   1.0000      -0.241670        -6.5762
 119   1.0000      -0.239509        -6.5174
 120   1.0000      -0.237568        -6.4646
 121   1.0000      -0.235702        -6.4138
 122   1.0000      -0.234666        -6.3856
 123   1.0000      -0.232972        -6.3395
 124   1.0000      -0.229568        -6.2469
 125   1.0000      -0.228444        -6.2163
 126   1.0000      -0.216536        -5.8923
 127   1.0000      -0.193076        -5.2539
 128   0.0000      -0.180653        -4.9158
 129   0.0000      -0.175766        -4.7828
 130   0.0000      -0.139120        -3.7857
 131   0.0000      -0.130924        -3.5626
 132   0.0000      -0.128715        -3.5025

                 SPIN DOWN ORBITALS
  NO   OCC          E(Eh)            E(eV)
   0   1.0000    -234.200881     -6372.9300
   1   1.0000     -26.835914      -730.2424
   2   1.0000     -23.001271      -625.8964
   3   1.0000     -22.999689      -625.8533
   4   1.0000     -22.998313      -625.8159
   5   1.0000      -4.030680      -109.6804
   6   1.0000      -4.029444      -109.6467
   7   1.0000      -4.025762      -109.5465
   8   1.0000      -4.025455      -109.5382
   9   1.0000      -4.023178      -109.4762
  10   1.0000      -4.023049      -109.4727
  11   1.0000      -4.021247      -109.4237
  12   1.0000      -4.021237      -109.4234
  13   1.0000      -4.020278      -109.3973
  14   1.0000      -4.017760      -109.3288
  15   1.0000      -4.016493      -109.2943
  16   1.0000      -4.016220      -109.2869
  17   1.0000      -2.949859       -80.2697
  18   1.0000      -2.248294       -61.1792
  19   1.0000      -2.247713       -61.1634
  20   1.0000      -2.243171       -61.0398
  21   1.0000      -2.242542       -61.0227
  22   1.0000      -2.242263       -61.0151
  23   1.0000      -2.241902       -61.0052
  24   1.0000      -2.241709       -61.0000
  25   1.0000      -2.241530       -60.9951
  26   1.0000      -2.240894       -60.9778
  27   1.0000      -2.240207       -60.9591
  28   1.0000      -2.239959       -60.9524
  29   1.0000      -2.238028       -60.8998
  30   1.0000      -2.237168       -60.8764
  31   1.0000      -2.236921       -60.8697
  32   1.0000      -2.236353       -60.8543
  33   1.0000      -2.236279       -60.8522
  34   1.0000      -2.235386       -60.8280
  35   1.0000      -2.234960       -60.8164
  36   1.0000      -2.234892       -60.8145
  37   1.0000      -2.234169       -60.7948
  38   1.0000      -2.233650       -60.7807
  39   1.0000      -2.233055       -60.7645
  40   1.0000      -2.232910       -60.7606
  41   1.0000      -2.232714       -60.7552
  42   1.0000      -2.231440       -60.7206
  43   1.0000      -2.230818       -60.7036
  44   1.0000      -2.230446       -60.6935
  45   1.0000      -2.230391       -60.6920
  46   1.0000      -2.230215       -60.6872
  47   1.0000      -2.229415       -60.6655
  48   1.0000      -2.229353       -60.6638
  49   1.0000      -2.229259       -60.6612
  50   1.0000      -2.228307       -60.6353
  51   1.0000      -2.227845       -60.6228
  52   1.0000      -2.227363       -60.6096
  53   1.0000      -2.222864       -60.4872
  54   1.0000      -1.858515       -50.5728
  55   1.0000      -1.854487       -50.4632
  56   1.0000      -1.852553       -50.4105
  57   1.0000      -0.414450       -11.2778
  58   1.0000      -0.386539       -10.5183
  59   1.0000      -0.369785       -10.0623
  60   1.0000      -0.368350       -10.0233
  61   1.0000      -0.365217        -9.9381
  62   1.0000      -0.362431        -9.8623
  63   1.0000      -0.356392        -9.6979
  64   1.0000      -0.353170        -9.6102
  65   1.0000      -0.351151        -9.5553
  66   1.0000      -0.345855        -9.4112
  67   1.0000      -0.342109        -9.3093
  68   1.0000      -0.337750        -9.1906
  69   1.0000      -0.336738        -9.1631
  70   1.0000      -0.334996        -9.1157
  71   1.0000      -0.334282        -9.0963
  72   1.0000      -0.331708        -9.0262
  73   1.0000      -0.330541        -8.9945
  74   1.0000      -0.325423        -8.8552
  75   1.0000      -0.325153        -8.8479
  76   1.0000      -0.321537        -8.7495
  77   1.0000      -0.318837        -8.6760
  78   1.0000      -0.315695        -8.5905
  79   1.0000      -0.313645        -8.5347
  80   1.0000      -0.311481        -8.4758
  81   1.0000      -0.309608        -8.4249
  82   1.0000      -0.308535        -8.3957
  83   1.0000      -0.303491        -8.2584
  84   1.0000      -0.299412        -8.1474
  85   1.0000      -0.296470        -8.0674
  86   1.0000      -0.294719        -8.0197
  87   1.0000      -0.291232        -7.9248
  88   1.0000      -0.291015        -7.9189
  89   1.0000      -0.287861        -7.8331
  90   1.0000      -0.286540        -7.7971
  91   1.0000      -0.283025        -7.7015
  92   1.0000      -0.282023        -7.6742
  93   1.0000      -0.277872        -7.5613
  94   1.0000      -0.277038        -7.5386
  95   1.0000      -0.276258        -7.5174
  96   1.0000      -0.275053        -7.4846
  97   1.0000      -0.272245        -7.4082
  98   1.0000      -0.272022        -7.4021
  99   1.0000      -0.271588        -7.3903
 100   1.0000      -0.270386        -7.3576
 101   1.0000      -0.267172        -7.2701
 102   1.0000      -0.266834        -7.2609
 103   1.0000      -0.264230        -7.1901
 104   1.0000      -0.262840        -7.1522
 105   1.0000      -0.261800        -7.1239
 106   1.0000      -0.259974        -7.0742
 107   1.0000      -0.259482        -7.0609
 108   1.0000      -0.258161        -7.0249
 109   1.0000      -0.255765        -6.9597
 110   1.0000      -0.255202        -6.9444
 111   1.0000      -0.252201        -6.8627
 112   1.0000      -0.250115        -6.8060
 113   1.0000      -0.248684        -6.7670
 114   1.0000      -0.246526        -6.7083
 115   1.0000      -0.245394        -6.6775
 116   1.0000      -0.242531        -6.5996
 117   1.0000      -0.241771        -6.5789
 118   1.0000      -0.240370        -6.5408
 119   1.0000      -0.236826        -6.4444
 120   1.0000      -0.236643        -6.4394
 121   1.0000      -0.222969        -6.0673
 122   1.0000      -0.200928        -5.4675
 123   1.0000      -0.200570        -5.4578
 124   1.0000      -0.196166        -5.3380
 125   0.0000      -0.146722        -3.9925
 126   0.0000      -0.140336        -3.8187
 127   0.0000      -0.135457        -3.6860
 128   0.0000      -0.132578        -3.6076
 129   0.0000      -0.128828        -3.5056

MULLIKEN ATOMIC CHARGES AND SPIN POPULATIONS
--------------------------------------------
   0 Au:    0.336016    0.039204
   1 Au:    0.235589   -0.064493
   2 Au:   -0.008105   -0.149684
   3 Au:    0.225159   -0.185150
   4 Au:    0.330176    0.038919
   5 Au:    0.173931   -0.018589
   6 Au:    0.066759   -0.060016
   7 Au:    0.066280   -0.060356
   8 Au:    0.068517   -0.152018
   9 Au:    0.174553   -0.019481
  10 Au:    0.337130   -0.074549
  11 Au:    0.169209   -0.163460
  12 Mn:   -2.175215    3.869674
Sum of atomic charges         :   -0.0000000

LOEWDIN ATOMIC CHARGES AND SPIN POPULATIONS
-------------------------------------------
   0 Au:    0.052406   -0.004997
   1 Au:    0.155203   -0.122867
   2 Au:   -0.038683   -0.060453
   3 Au:    0.019958   -0.115082
   4 Au:    0.050750   -0.005686
   5 Au:    0.060658   -0.056160
   6 Au:    0.061484   -0.049693
   7 Au:    0.061828   -0.048806
   8 Au:   -0.025182   -0.080839
   9 Au:    0.059500   -0.057647
  10 Au:    0.045996   -0.086103
  11 Au:    0.071943   -0.118697
  12 Mn:   -0.575860    3.807029

  Mayer bond orders larger than 0.100000
B(  0-Au,  2-Au) :   0.3265 B(  0-Au,  4-Au) :   0.1183 B(  0-Au,  6-Au) :   0.4148
B(  0-Au,  8-Au) :   0.2641 B(  1-Au,  2-Au) :   0.4162 B(  1-Au,  3-Au) :   0.2770
B(  1-Au, 12-Mn) :   0.5640 B(  2-Au,  4-Au) :   0.3226 B(  2-Au,  8-Au) :   0.1054
B(  2-Au, 12-Mn) :   0.4945 B(  3-Au,  5-Au) :   0.1474 B(  3-Au,  9-Au) :   0.1503
B(  3-Au, 10-Au) :   0.2993 B(  3-Au, 12-Mn) :   0.5238 B(  4-Au,  7-Au) :   0.4199
B(  4-Au,  8-Au) :   0.2650 B(  5-Au,  6-Au) :   0.3480 B(  5-Au,  9-Au) :   0.1028
B(  5-Au, 10-Au) :   0.2285 B(  5-Au, 11-Au) :   0.1290 B(  5-Au, 12-Mn) :   0.5308
B(  6-Au,  8-Au) :   0.1606 B(  6-Au, 12-Mn) :   0.6046 B(  7-Au,  8-Au) :   0.1612
B(  7-Au,  9-Au) :   0.3501 B(  7-Au, 12-Mn) :   0.6057 B(  8-Au, 11-Au) :   0.3682
B(  8-Au, 12-Mn) :   0.4711 B(  9-Au, 10-Au) :   0.2251 B(  9-Au, 11-Au) :   0.1316
B(  9-Au, 12-Mn) :   0.5273 B( 10-Au, 11-Au) :   0.2926 B( 10-Au, 12-Mn) :   0.1166
B( 11-Au, 12-Mn) :   0.6258

FINAL SINGLE POINT ENERGY     -2780.692486030208

DIPOLE MOMENT
-------------
                                X             Y             Z
Electronic contribution:     12.37481       9.92391      -7.88072
Nuclear contribution   :    -12.45215      -9.96694       7.81166
                        -----------------------------------------
Total Dipole Moment    :     -0.07734      -0.04303      -0.06906
                        -----------------------------------------
Magnitude (a.u.)       :      0.11226
Magnitude (Debye)      :      0.28535

Rotational constants in cm-1:     0.001799     0.001040     0.001021
Rotational constants in MHz :    53.942579    31.169120    30.597360

                             ****ORCA TERMINATED NORMALLY****
TOTAL RUN TIME: 0 days 0 hours 5 minutes 49 seconds 520 msec
