                         Program Version 5.0.3 -  RELEASE  -
|  1> !R2SCAN def2-TZVP VERYSLOWCONV
|  2> !KDIIS
|  3> %scf
|  4>   AutoTRAHIter 200
|  5>   maxiter 400
|  6> end
|  7>
|  8> %pal nprocs 6 end
|  9>
| 10> *xyzfile 0 6 pbe.xyz
| 11>
| 12> $new_job
| 13>
| 14> !R2SCAN def2-TZVP VERYSLOWCONV
| 15> !KDIIS
| 16> %scf
| 17>   AutoTRAHIter 200
| 18>   maxiter 400
| 19> end
| 20>
| 21>
| 22> %pal nprocs 6 end
| 23>
| 24> *xyzfile 0 4 pbe.xyz
| 25>
| 26>
| 27>
| 28>
| 29>
| 30>                          ****END OF INPUT****
 Total Charge           Charge          ....    0
 Multiplicity           Mult            ....    6
 Number of Electrons    NEL             ....  253
FINAL SINGLE POINT ENERGY     -2781.131983889132

CARTESIAN COORDINATES (ANGSTROEM)
---------------------------------
  Au    10.767950   12.175862    8.164332
  Au     8.312011    8.284408   10.479405
  Au    10.276731    9.844093    9.566493
  Au     6.568404    7.208827    8.713589
  Au    12.491259    9.787470    7.905995
  Au     6.150269    9.715466    7.238421
  Au     8.161119   11.406047    7.856120
  Au    10.925220    7.603137    7.419821
  Au    10.249192   10.177526    6.245914
  Au     8.637916    6.290105    6.853433
  Au     6.048141    7.143595    6.022553
  Au     8.180104    8.766752    5.257013
  Mn     8.555103    8.759659    7.858300

 Multiplicity           Mult            ....    4
 Number of Electrons    NEL             ....  253
 Basis Dimension        Dim             ....  525

ORBITAL ENERGIES
----------------
                 SPIN UP ORBITALS
  NO   OCC          E(Eh)            E(eV)
   0   1.0000    -235.041786     -6395.8121
   1   1.0000     -27.222384      -740.7587
   2   1.0000     -23.269566      -633.1971
   3   1.0000     -23.269510      -633.1956
   4   1.0000     -23.269265      -633.1889
   5   1.0000      -4.121882      -112.1621
   6   1.0000      -4.121225      -112.1442
   7   1.0000      -4.117430      -112.0410
   8   1.0000      -4.116825      -112.0245
   9   1.0000      -4.114734      -111.9676
  10   1.0000      -4.114620      -111.9645
  11   1.0000      -4.112621      -111.9101
  12   1.0000      -4.112582      -111.9090
  13   1.0000      -4.111067      -111.8678
  14   1.0000      -4.109633      -111.8288
  15   1.0000      -4.106588      -111.7459
  16   1.0000      -4.106270      -111.7373
  17   1.0000      -3.240292       -88.1728
  18   1.0000      -2.312659       -62.9306
  19   1.0000      -2.312570       -62.9282
  20   1.0000      -2.307875       -62.8005
  21   1.0000      -2.307245       -62.7833
  22   1.0000      -2.306835       -62.7722
  23   1.0000      -2.306600       -62.7658
  24   1.0000      -2.306005       -62.7496
  25   1.0000      -2.305922       -62.7473
  26   1.0000      -2.305014       -62.7226
  27   1.0000      -2.304919       -62.7200
  28   1.0000      -2.304410       -62.7062
  29   1.0000      -2.302566       -62.6560
  30   1.0000      -2.302023       -62.6412
  31   1.0000      -2.301676       -62.6318
  32   1.0000      -2.300859       -62.6096
  33   1.0000      -2.300716       -62.6057
  34   1.0000      -2.299530       -62.5734
  35   1.0000      -2.299415       -62.5703
  36   1.0000      -2.298935       -62.5572
  37   1.0000      -2.297958       -62.5306
  38   1.0000      -2.297605       -62.5210
  39   1.0000      -2.297451       -62.5168
  40   1.0000      -2.296771       -62.4983
  41   1.0000      -2.296116       -62.4805
  42   1.0000      -2.295218       -62.4561
  43   1.0000      -2.294587       -62.4389
  44   1.0000      -2.294431       -62.4347
  45   1.0000      -2.293595       -62.4119
  46   1.0000      -2.293241       -62.4023
  47   1.0000      -2.293179       -62.4006
  48   1.0000      -2.293049       -62.3970
  49   1.0000      -2.292216       -62.3744
  50   1.0000      -2.290903       -62.3386
  51   1.0000      -2.290323       -62.3229
  52   1.0000      -2.289860       -62.3103
  53   1.0000      -2.288335       -62.2688
  54   1.0000      -2.097191       -57.0675
  55   1.0000      -2.096534       -57.0496
  56   1.0000      -2.096416       -57.0464
  57   1.0000      -0.425580       -11.5806
  58   1.0000      -0.393049       -10.6954
  59   1.0000      -0.384572       -10.4647
  60   1.0000      -0.377562       -10.2740
  61   1.0000      -0.376178       -10.2363
  62   1.0000      -0.373867       -10.1734
  63   1.0000      -0.372071       -10.1246
  64   1.0000      -0.368111       -10.0168
  65   1.0000      -0.366843        -9.9823
  66   1.0000      -0.364425        -9.9165
  67   1.0000      -0.356169        -9.6918
  68   1.0000      -0.352119        -9.5817
  69   1.0000      -0.348797        -9.4913
  70   1.0000      -0.344946        -9.3864
  71   1.0000      -0.344559        -9.3759
  72   1.0000      -0.343334        -9.3426
  73   1.0000      -0.342582        -9.3221
  74   1.0000      -0.340827        -9.2744
  75   1.0000      -0.339776        -9.2458
  76   1.0000      -0.336419        -9.1544
  77   1.0000      -0.334269        -9.0959
  78   1.0000      -0.328646        -8.9429
  79   1.0000      -0.322148        -8.7661
  80   1.0000      -0.321223        -8.7409
  81   1.0000      -0.320475        -8.7206
  82   1.0000      -0.319624        -8.6974
  83   1.0000      -0.312435        -8.5018
  84   1.0000      -0.309975        -8.4348
  85   1.0000      -0.306878        -8.3506
  86   1.0000      -0.306517        -8.3407
  87   1.0000      -0.302405        -8.2288
  88   1.0000      -0.300567        -8.1788
  89   1.0000      -0.298072        -8.1110
  90   1.0000      -0.297270        -8.0891
  91   1.0000      -0.295362        -8.0372
  92   1.0000      -0.293163        -7.9774
  93   1.0000      -0.289221        -7.8701
  94   1.0000      -0.286139        -7.7862
  95   1.0000      -0.286013        -7.7828
  96   1.0000      -0.285443        -7.7673
  97   1.0000      -0.281733        -7.6663
  98   1.0000      -0.279959        -7.6181
  99   1.0000      -0.279817        -7.6142
 100   1.0000      -0.278621        -7.5817
 101   1.0000      -0.275412        -7.4943
 102   1.0000      -0.275108        -7.4861
 103   1.0000      -0.272156        -7.4057
 104   1.0000      -0.271712        -7.3937
 105   1.0000      -0.270507        -7.3609
 106   1.0000      -0.269136        -7.3236
 107   1.0000      -0.268124        -7.2960
 108   1.0000      -0.267534        -7.2800
 109   1.0000      -0.266422        -7.2497
 110   1.0000      -0.265344        -7.2204
 111   1.0000      -0.262713        -7.1488
 112   1.0000      -0.261758        -7.1228
 113   1.0000      -0.258091        -7.0230
 114   1.0000      -0.257846        -7.0163
 115   1.0000      -0.255241        -6.9455
 116   1.0000      -0.254557        -6.9268
 117   1.0000      -0.252191        -6.8625
 118   1.0000      -0.249480        -6.7887
 119   1.0000      -0.248667        -6.7666
 120   1.0000      -0.246654        -6.7118
 121   1.0000      -0.244469        -6.6523
 122   1.0000      -0.241836        -6.5807
 123   1.0000      -0.240105        -6.5336
 124   1.0000      -0.238752        -6.4968
 125   1.0000      -0.238004        -6.4764
 126   1.0000      -0.219458        -5.9717
 127   1.0000      -0.195069        -5.3081
 128   0.0000      -0.179199        -4.8763
 129   0.0000      -0.175137        -4.7657
 130   0.0000      -0.134859        -3.6697
 131   0.0000      -0.125703        -3.4206
 132   0.0000      -0.124793        -3.3958

                 SPIN DOWN ORBITALS
  NO   OCC          E(Eh)            E(eV)
   0   1.0000    -235.040742     -6395.7837
   1   1.0000     -27.137250      -738.4421
   2   1.0000     -23.205168      -631.4447
   3   1.0000     -23.204164      -631.4174
   4   1.0000     -23.202994      -631.3856
   5   1.0000      -4.121904      -112.1627
   6   1.0000      -4.120505      -112.1247
   7   1.0000      -4.117390      -112.0399
   8   1.0000      -4.116848      -112.0251
   9   1.0000      -4.114581      -111.9634
  10   1.0000      -4.114440      -111.9596
  11   1.0000      -4.112633      -111.9104
  12   1.0000      -4.112628      -111.9103
  13   1.0000      -4.111764      -111.8868
  14   1.0000      -4.109701      -111.8306
  15   1.0000      -4.107077      -111.7593
  16   1.0000      -4.106772      -111.7510
  17   1.0000      -3.037537       -82.6556
  18   1.0000      -2.312195       -62.9180
  19   1.0000      -2.311338       -62.8947
  20   1.0000      -2.307172       -62.7814
  21   1.0000      -2.306624       -62.7664
  22   1.0000      -2.306201       -62.7549
  23   1.0000      -2.305732       -62.7422
  24   1.0000      -2.305600       -62.7386
  25   1.0000      -2.305334       -62.7313
  26   1.0000      -2.305061       -62.7239
  27   1.0000      -2.304294       -62.7030
  28   1.0000      -2.304017       -62.6955
  29   1.0000      -2.302037       -62.6416
  30   1.0000      -2.301256       -62.6204
  31   1.0000      -2.300973       -62.6127
  32   1.0000      -2.299969       -62.5853
  33   1.0000      -2.299899       -62.5834
  34   1.0000      -2.299538       -62.5736
  35   1.0000      -2.299254       -62.5659
  36   1.0000      -2.299096       -62.5616
  37   1.0000      -2.298279       -62.5394
  38   1.0000      -2.298100       -62.5345
  39   1.0000      -2.297490       -62.5179
  40   1.0000      -2.297215       -62.5104
  41   1.0000      -2.296795       -62.4990
  42   1.0000      -2.295475       -62.4630
  43   1.0000      -2.294880       -62.4468
  44   1.0000      -2.294700       -62.4420
  45   1.0000      -2.294150       -62.4270
  46   1.0000      -2.293802       -62.4175
  47   1.0000      -2.293730       -62.4156
  48   1.0000      -2.293614       -62.4124
  49   1.0000      -2.292581       -62.3843
  50   1.0000      -2.291565       -62.3567
  51   1.0000      -2.291161       -62.3457
  52   1.0000      -2.290584       -62.3300
  53   1.0000      -2.287795       -62.2541
  54   1.0000      -1.897668       -51.6382
  55   1.0000      -1.894837       -51.5611
  56   1.0000      -1.893581       -51.5270
  57   1.0000      -0.420666       -11.4469
  58   1.0000      -0.392545       -10.6817
  59   1.0000      -0.378564       -10.3012
  60   1.0000      -0.375978       -10.2309
  61   1.0000      -0.374136       -10.1808
  62   1.0000      -0.371478       -10.1084
  63   1.0000      -0.365727        -9.9519
  64   1.0000      -0.362264        -9.8577
  65   1.0000      -0.360209        -9.8018
  66   1.0000      -0.355299        -9.6682
  67   1.0000      -0.352440        -9.5904
  68   1.0000      -0.347403        -9.4533
  69   1.0000      -0.346386        -9.4257
  70   1.0000      -0.344903        -9.3853
  71   1.0000      -0.343747        -9.3538
  72   1.0000      -0.340962        -9.2781
  73   1.0000      -0.340506        -9.2656
  74   1.0000      -0.335270        -9.1232
  75   1.0000      -0.334661        -9.1066
  76   1.0000      -0.330915        -9.0047
  77   1.0000      -0.327655        -8.9159
  78   1.0000      -0.324766        -8.8373
  79   1.0000      -0.323136        -8.7930
  80   1.0000      -0.321329        -8.7438
  81   1.0000      -0.318571        -8.6688
  82   1.0000      -0.317954        -8.6520
  83   1.0000      -0.311692        -8.4816
  84   1.0000      -0.308089        -8.3835
  85   1.0000      -0.305827        -8.3220
  86   1.0000      -0.304091        -8.2747
  87   1.0000      -0.301021        -8.1912
  88   1.0000      -0.300526        -8.1777
  89   1.0000      -0.297341        -8.0911
  90   1.0000      -0.295345        -8.0367
  91   1.0000      -0.292157        -7.9500
  92   1.0000      -0.290931        -7.9166
  93   1.0000      -0.286653        -7.8002
  94   1.0000      -0.285779        -7.7765
  95   1.0000      -0.285606        -7.7717
  96   1.0000      -0.284115        -7.7312
  97   1.0000      -0.281185        -7.6514
  98   1.0000      -0.280549        -7.6341
  99   1.0000      -0.279911        -7.6168
 100   1.0000      -0.279101        -7.5947
 101   1.0000      -0.276030        -7.5112
 102   1.0000      -0.275663        -7.5012
 103   1.0000      -0.273331        -7.4377
 104   1.0000      -0.271512        -7.3882
 105   1.0000      -0.270505        -7.3608
 106   1.0000      -0.268709        -7.3119
 107   1.0000      -0.267887        -7.2896
 108   1.0000      -0.266531        -7.2527
 109   1.0000      -0.264004        -7.1839
 110   1.0000      -0.263935        -7.1820
 111   1.0000      -0.259619        -7.0646
 112   1.0000      -0.258148        -7.0246
 113   1.0000      -0.257136        -6.9970
 114   1.0000      -0.254425        -6.9233
 115   1.0000      -0.253058        -6.8861
 116   1.0000      -0.249510        -6.7895
 117   1.0000      -0.249235        -6.7820
 118   1.0000      -0.247550        -6.7362
 119   1.0000      -0.243766        -6.6332
 120   1.0000      -0.243229        -6.6186
 121   1.0000      -0.225520        -6.1367
 122   1.0000      -0.203308        -5.5323
 123   1.0000      -0.202650        -5.5144
 124   1.0000      -0.197994        -5.3877
 125   0.0000      -0.140766        -3.8304
 126   0.0000      -0.132822        -3.6143
 127   0.0000      -0.128101        -3.4858
 128   0.0000      -0.120452        -3.2777
 129   0.0000      -0.115493        -3.1427

MULLIKEN ATOMIC CHARGES AND SPIN POPULATIONS
--------------------------------------------
   0 Au:    0.292379    0.041614
   1 Au:    0.220945   -0.080220
   2 Au:   -0.002540   -0.190125
   3 Au:    0.201347   -0.228505
   4 Au:    0.286657    0.041568
   5 Au:    0.148902   -0.033068
   6 Au:    0.047980   -0.084614
   7 Au:    0.047625   -0.084970
   8 Au:    0.083008   -0.188271
   9 Au:    0.149535   -0.034112
  10 Au:    0.302888   -0.094015
  11 Au:    0.158932   -0.201913
  12 Mn:   -1.937658    4.136630
Sum of atomic charges         :   -0.0000000

LOEWDIN ATOMIC CHARGES AND SPIN POPULATIONS
-------------------------------------------
   0 Au:    0.047659   -0.007130
   1 Au:    0.148563   -0.145366
   2 Au:   -0.044972   -0.083100
   3 Au:    0.012080   -0.140090
   4 Au:    0.045835   -0.007717
   5 Au:    0.052152   -0.074366
   6 Au:    0.054553   -0.069243
   7 Au:    0.054830   -0.068359
   8 Au:   -0.028650   -0.101673
   9 Au:    0.051117   -0.075905
  10 Au:    0.043881   -0.098995
  11 Au:    0.066282   -0.143583
  12 Mn:   -0.503329    4.015528

  Mayer bond orders larger than 0.100000
B(  0-Au,  2-Au) :   0.3179 B(  0-Au,  6-Au) :   0.4194 B(  0-Au,  8-Au) :   0.2515
B(  1-Au,  2-Au) :   0.4141 B(  1-Au,  3-Au) :   0.2692 B(  1-Au, 12-Mn) :   0.5619
B(  2-Au,  4-Au) :   0.3130 B(  2-Au, 12-Mn) :   0.4720 B(  3-Au,  5-Au) :   0.1250
B(  3-Au,  9-Au) :   0.1278 B(  3-Au, 10-Au) :   0.2906 B(  3-Au, 12-Mn) :   0.4936
B(  4-Au,  7-Au) :   0.4247 B(  4-Au,  8-Au) :   0.2524 B(  5-Au,  6-Au) :   0.3516
B(  5-Au, 10-Au) :   0.2128 B(  5-Au, 11-Au) :   0.1098 B(  5-Au, 12-Mn) :   0.5165
B(  6-Au,  8-Au) :   0.1433 B(  6-Au, 12-Mn) :   0.5897 B(  7-Au,  8-Au) :   0.1439
B(  7-Au,  9-Au) :   0.3536 B(  7-Au, 12-Mn) :   0.5908 B(  8-Au, 11-Au) :   0.3765
B(  8-Au, 12-Mn) :   0.4408 B(  9-Au, 10-Au) :   0.2090 B(  9-Au, 11-Au) :   0.1124
B(  9-Au, 12-Mn) :   0.5130 B( 10-Au, 11-Au) :   0.2768 B( 10-Au, 12-Mn) :   0.1054
B( 11-Au, 12-Mn) :   0.5875

FINAL SINGLE POINT ENERGY     -2781.141251968555

DIPOLE MOMENT
-------------
                                X             Y             Z
Electronic contribution:     12.35740       9.91256      -7.88700
Nuclear contribution   :    -12.45215      -9.96694       7.81166
                        -----------------------------------------
Total Dipole Moment    :     -0.09476      -0.05438      -0.07534
                        -----------------------------------------
Magnitude (a.u.)       :      0.13271
Magnitude (Debye)      :      0.33733

Rotational constants in cm-1:     0.001799     0.001040     0.001021
Rotational constants in MHz :    53.942579    31.169120    30.597360

                             ****ORCA TERMINATED NORMALLY****
TOTAL RUN TIME: 0 days 0 hours 11 minutes 23 seconds 761 msec
