                         Program Version 5.0.3 -  RELEASE  -
|  1> !SC-NEVPT2 def2-TZVP def2-TZVP/C
|  2> !MOREAD RIJCOSX def2/J
|  3> %maxcore 4000
|  4> %moinp "casscf.gbw"
|  5> %pal nprocs 8 end
|  6>
|  7> %casscf
|  8>  mult 5,3
|  9>  bweight 1,1
| 10>  nroots 5,45
| 11>  nel 6
| 12>  norb 5
| 13>  ptsettings
| 14>   d4tpre 1e-14 # default = 1e-10
| 15>   d3tpre 1e-14
| 16>  end
| 17>  rel
| 18>    dosoc true
| 19>    gtensor true
| 20>  end
| 21> end
| 22>
| 23>
| 24> *xyzfile 0 5 pbe.xyz
| 25>
| 26>
| 27>                          ****END OF INPUT****

CARTESIAN COORDINATES (ANGSTROEM)
---------------------------------
  Au     8.617435    9.195463    9.366982
  Au     8.791198    6.654736    6.597243
  Au     9.870614    4.599887    7.922189
  Au    10.674992    5.462947   10.447213
  Au     9.302329    7.739370   11.503343
  Au     7.349214    8.924376    6.935830
  Au     6.143952    7.727296    9.110550
  Au     6.766620    6.212577   11.225358
  Au     8.936677    5.227401   12.677518
  Au     8.315775    4.031615   10.172234
  Cr     8.504639    6.575100    9.186037

 Total Charge           Charge          ....    0
 Multiplicity           Mult            ....    5
 Number of Electrons    NEL             ....  214
 Basis Dimension        Dim             ....  445

ORBITAL ENERGIES
----------------

  NO   OCC          E(Eh)            E(eV)
   0   2.0000    -220.518606     -6000.6163
   1   2.0000     -26.362273      -717.3539
   2   2.0000     -22.296375      -606.7152
   3   2.0000     -22.292336      -606.6053
   4   2.0000     -22.283961      -606.3774
   5   2.0000      -4.716795      -128.3505
   6   2.0000      -4.716538      -128.3435
   7   2.0000      -4.709139      -128.1422
   8   2.0000      -4.706420      -128.0682
   9   2.0000      -4.706250      -128.0636
  10   2.0000      -4.703016      -127.9756
  11   2.0000      -4.702881      -127.9719
  12   2.0000      -4.702629      -127.9650
  13   2.0000      -4.702351      -127.9575
  14   2.0000      -4.695716      -127.7769
  15   2.0000      -3.412786       -92.8666
  16   2.0000      -2.758421       -75.0605
  17   2.0000      -2.754815       -74.9623
  18   2.0000      -2.754419       -74.9516
  19   2.0000      -2.753701       -74.9320
  20   2.0000      -2.753016       -74.9134
  21   2.0000      -2.750276       -74.8388
  22   2.0000      -2.748300       -74.7850
  23   2.0000      -2.747399       -74.7605
  24   2.0000      -2.746885       -74.7465
  25   2.0000      -2.745998       -74.7224
  26   2.0000      -2.745463       -74.7078
  27   2.0000      -2.743232       -74.6471
  28   2.0000      -2.741723       -74.6061
  29   2.0000      -2.741529       -74.6008
  30   2.0000      -2.741118       -74.5896
  31   2.0000      -2.740135       -74.5629
  32   2.0000      -2.739170       -74.5366
  33   2.0000      -2.739066       -74.5338
  34   2.0000      -2.739009       -74.5322
  35   2.0000      -2.738466       -74.5174
  36   2.0000      -2.738364       -74.5147
  37   2.0000      -2.738073       -74.5067
  38   2.0000      -2.735806       -74.4451
  39   2.0000      -2.735377       -74.4334
  40   2.0000      -2.734886       -74.4200
  41   2.0000      -2.734872       -74.4197
  42   2.0000      -2.733880       -74.3927
  43   2.0000      -2.730653       -74.3049
  44   2.0000      -2.729545       -74.2747
  45   2.0000      -2.728748       -74.2530
  46   2.0000      -2.176606       -59.2285
  47   2.0000      -2.174324       -59.1664
  48   2.0000      -2.164248       -58.8922
  49   2.0000      -0.554541       -15.0898
  50   2.0000      -0.550977       -14.9928
  51   2.0000      -0.539840       -14.6898
  52   2.0000      -0.534290       -14.5388
  53   2.0000      -0.534148       -14.5349
  54   2.0000      -0.532141       -14.4803
  55   2.0000      -0.530702       -14.4411
  56   2.0000      -0.527424       -14.3519
  57   2.0000      -0.522653       -14.2221
  58   2.0000      -0.521756       -14.1977
  59   2.0000      -0.515493       -14.0273
  60   2.0000      -0.513488       -13.9727
  61   2.0000      -0.512471       -13.9451
  62   2.0000      -0.506781       -13.7902
  63   2.0000      -0.505161       -13.7461
  64   2.0000      -0.504158       -13.7188
  65   2.0000      -0.500997       -13.6328
  66   2.0000      -0.494655       -13.4602
  67   2.0000      -0.491294       -13.3688
  68   2.0000      -0.487041       -13.2531
  69   2.0000      -0.485491       -13.2109
  70   2.0000      -0.481416       -13.1000
  71   2.0000      -0.478859       -13.0304
  72   2.0000      -0.476699       -12.9716
  73   2.0000      -0.473631       -12.8882
  74   2.0000      -0.472443       -12.8558
  75   2.0000      -0.466772       -12.7015
  76   2.0000      -0.465255       -12.6602
  77   2.0000      -0.464486       -12.6393
  78   2.0000      -0.454801       -12.3758
  79   2.0000      -0.453097       -12.3294
  80   2.0000      -0.448796       -12.2124
  81   2.0000      -0.447597       -12.1797
  82   2.0000      -0.447407       -12.1746
  83   2.0000      -0.446564       -12.1516
  84   2.0000      -0.444336       -12.0910
  85   2.0000      -0.442782       -12.0487
  86   2.0000      -0.441411       -12.0114
  87   2.0000      -0.435768       -11.8579
  88   2.0000      -0.434018       -11.8102
  89   2.0000      -0.430889       -11.7251
  90   2.0000      -0.428754       -11.6670
  91   2.0000      -0.427441       -11.6313
  92   2.0000      -0.425020       -11.5654
  93   2.0000      -0.419732       -11.4215
  94   2.0000      -0.417442       -11.3592
  95   2.0000      -0.416150       -11.3240
  96   2.0000      -0.413513       -11.2523
  97   2.0000      -0.409946       -11.1552
  98   2.0000      -0.406557       -11.0630
  99   2.0000      -0.387186       -10.5359
 100   2.0000      -0.349516        -9.5108
 101   2.0000      -0.319160        -8.6848
 102   2.0000      -0.256679        -6.9846
 103   2.0000      -0.231252        -6.2927
 104   1.2000      -0.096710        -2.6316
 105   1.2000      -0.135741        -3.6937
 106   1.2000      -0.112410        -3.0588
 107   1.2000      -0.106948        -2.9102
 108   1.2000      -0.126813        -3.4508
 109   0.0000      -0.005923        -0.1612
 110   0.0000      -0.001224        -0.0333
 111   0.0000       0.011654         0.3171
 112   0.0000       0.013175         0.3585
 113   0.0000       0.023219         0.6318

MULLIKEN ATOMIC CHARGES AND SPIN DENSITIES
------------------------------------------
   0 Au:    0.358584    0.023220
   1 Au:    0.051803    0.127770
   2 Au:    0.327250    0.062873
   3 Au:    0.422916    0.048949
   4 Au:    0.153253    0.021819
   5 Au:    0.306271    0.029363
   6 Au:    0.361994    0.022800
   7 Au:    0.172173    0.021771
   8 Au:    0.276777    0.030756
   9 Au:    0.426440    0.049653
  10 Cr:   -2.857462    2.561026
Sum of atomic charges       :    0.0000000

LOEWDIN ATOMIC CHARGES AND SPIN DENSITIES
-----------------------------------------
   0 Au:    0.082376    0.042035
   1 Au:    0.074844    0.125194
   2 Au:    0.128219    0.115362
   3 Au:    0.090282    0.065034
   4 Au:    0.028920    0.036811
   5 Au:    0.101220    0.056147
   6 Au:    0.084234    0.042050
   7 Au:    0.029367    0.037210
   8 Au:    0.102576    0.041190
   9 Au:    0.092896    0.066287
  10 Cr:   -0.814932    2.372680

  Mayer bond orders larger than 0.100000
B(  0-Au,  4-Au) :   0.4389 B(  0-Au,  5-Au) :   0.1841 B(  0-Au,  9-Au) :   0.1158
B(  0-Au, 10-Cr) :   0.3690 B(  1-Au,  2-Au) :   0.3637 B(  1-Au,  5-Au) :   0.2448
B(  1-Au, 10-Cr) :   0.4584 B(  2-Au,  3-Au) :   0.1385 B(  2-Au,  9-Au) :   0.1437
B(  2-Au, 10-Cr) :   0.4507 B(  3-Au,  4-Au) :   0.2157 B(  3-Au,  6-Au) :   0.1146
B(  3-Au,  8-Au) :   0.1609 B(  3-Au,  9-Au) :   0.1033 B(  3-Au, 10-Cr) :   0.3411
B(  4-Au,  8-Au) :   0.1608 B(  4-Au, 10-Cr) :   0.5341 B(  5-Au,  6-Au) :   0.1848
B(  5-Au, 10-Cr) :   0.4178 B(  6-Au,  7-Au) :   0.4367 B(  6-Au, 10-Cr) :   0.3634
B(  7-Au,  8-Au) :   0.1601 B(  7-Au,  9-Au) :   0.2077 B(  7-Au, 10-Cr) :   0.5436
B(  8-Au,  9-Au) :   0.1543 B(  8-Au, 10-Cr) :   0.4411 B(  9-Au, 10-Cr) :   0.3436

FINAL SINGLE POINT ENERGY     -2396.431406064110

DIPOLE MOMENT
-------------
                                X             Y             Z
Electronic contribution:     -0.77079      -0.25442      14.38974
Nuclear contribution   :      0.97020      -0.08621     -14.32350
                        -----------------------------------------
Total Dipole Moment    :      0.19941      -0.34064       0.06624
                        -----------------------------------------
Magnitude (a.u.)       :      0.40023
Magnitude (Debye)      :      1.01730

Rotational constants in cm-1:     0.002268     0.001506     0.001228
Rotational constants in MHz :    67.984950    45.156662    36.814876

                             ****ORCA TERMINATED NORMALLY****
TOTAL RUN TIME: 0 days 0 hours 24 minutes 50 seconds 281 msec
