                         Program Version 5.0.3 -  RELEASE  -
|  1> !CASSCF def2-TZVP def2-TZVP/C
|  2> !MOREAD RIJCOSX
|  3> %maxcore 6000
|  4> %moinp "pbe.qro"
|  5> %pal nprocs 2 end
|  6>
|  7> %casscf
|  8>  mult 5,3
|  9>  bweight 1,1
| 10>  nroots 5,45
| 11>  nel 6
| 12>  norb 5
| 13> end
| 14>
| 15>
| 16> *xyzfile 0 5 pbe.xyz
| 17>
| 18>
| 19>                          ****END OF INPUT****

CARTESIAN COORDINATES (ANGSTROEM)
---------------------------------
  Au     4.620924    7.962592    8.657042
  Au     6.170590    9.868511    9.762963
  Au     8.939757    9.833446    9.582976
  Au     6.442240    5.690700    8.514678
  Au     7.511787    7.395638   10.345731
  Au     9.775526    7.533703    8.409221
  Au     7.425299   10.933466    7.444752
  Au     7.006499    9.325960    5.317312
  Au     5.257617    7.097933    6.174802
  Au     6.963945    6.861595    3.997784
  Au     9.041311    7.436620    5.775477
  Au     8.923860    4.933958    4.523086
  Au     6.509357    4.662551    5.930417
  Au     8.906735    5.139386    7.323560
  Cr     7.231108    8.258369    7.816341

 Total Charge           Charge          ....    0
 Multiplicity           Mult            ....    5
 Number of Electrons    NEL             ....  290
 Basis Dimension        Dim             ....  605

ORBITAL ENERGIES
----------------

  NO   OCC          E(Eh)            E(eV)
   0   2.0000    -220.506710     -6000.2926
   1   2.0000     -26.346728      -716.9309
   2   2.0000     -22.280498      -606.2832
   3   2.0000     -22.279481      -606.2555
   4   2.0000     -22.266960      -605.9148
   5   2.0000      -4.715400      -128.3126
   6   2.0000      -4.715074      -128.3037
   7   2.0000      -4.714207      -128.2801
   8   2.0000      -4.712630      -128.2372
   9   2.0000      -4.712228      -128.2263
  10   2.0000      -4.712111      -128.2231
  11   2.0000      -4.711612      -128.2095
  12   2.0000      -4.711424      -128.2044
  13   2.0000      -4.706613      -128.0735
  14   2.0000      -4.706588      -128.0728
  15   2.0000      -4.704440      -128.0143
  16   2.0000      -4.700754      -127.9140
  17   2.0000      -4.700094      -127.8961
  18   2.0000      -4.698180      -127.8440
  19   2.0000      -3.399463       -92.5041
  20   2.0000      -2.755547       -74.9823
  21   2.0000      -2.754750       -74.9606
  22   2.0000      -2.754575       -74.9558
  23   2.0000      -2.754379       -74.9505
  24   2.0000      -2.752986       -74.9125
  25   2.0000      -2.752647       -74.9033
  26   2.0000      -2.752438       -74.8976
  27   2.0000      -2.752098       -74.8884
  28   2.0000      -2.751329       -74.8675
  29   2.0000      -2.751203       -74.8640
  30   2.0000      -2.750709       -74.8506
  31   2.0000      -2.750457       -74.8438
  32   2.0000      -2.750006       -74.8315
  33   2.0000      -2.748693       -74.7957
  34   2.0000      -2.748557       -74.7920
  35   2.0000      -2.747837       -74.7724
  36   2.0000      -2.747711       -74.7690
  37   2.0000      -2.746925       -74.7476
  38   2.0000      -2.746501       -74.7361
  39   2.0000      -2.746259       -74.7295
  40   2.0000      -2.745711       -74.7146
  41   2.0000      -2.745602       -74.7116
  42   2.0000      -2.744774       -74.6891
  43   2.0000      -2.744514       -74.6820
  44   2.0000      -2.743127       -74.6443
  45   2.0000      -2.742917       -74.6386
  46   2.0000      -2.741831       -74.6090
  47   2.0000      -2.741683       -74.6050
  48   2.0000      -2.741187       -74.5915
  49   2.0000      -2.740581       -74.5750
  50   2.0000      -2.739689       -74.5507
  51   2.0000      -2.739283       -74.5397
  52   2.0000      -2.738832       -74.5274
  53   2.0000      -2.738181       -74.5097
  54   2.0000      -2.736697       -74.4693
  55   2.0000      -2.735857       -74.4464
  56   2.0000      -2.735545       -74.4380
  57   2.0000      -2.734896       -74.4203
  58   2.0000      -2.734771       -74.4169
  59   2.0000      -2.733508       -74.3825
  60   2.0000      -2.733301       -74.3769
  61   2.0000      -2.730572       -74.3026
  62   2.0000      -2.163911       -58.8830
  63   2.0000      -2.162725       -58.8507
  64   2.0000      -2.152937       -58.5844
  65   2.0000      -0.553723       -15.0676
  66   2.0000      -0.548561       -14.9271
  67   2.0000      -0.547414       -14.8959
  68   2.0000      -0.546711       -14.8768
  69   2.0000      -0.543237       -14.7822
  70   2.0000      -0.542176       -14.7534
  71   2.0000      -0.541355       -14.7310
  72   2.0000      -0.540333       -14.7032
  73   2.0000      -0.537961       -14.6387
  74   2.0000      -0.535464       -14.5707
  75   2.0000      -0.534015       -14.5313
  76   2.0000      -0.533453       -14.5160
  77   2.0000      -0.530820       -14.4444
  78   2.0000      -0.529729       -14.4146
  79   2.0000      -0.528295       -14.3756
  80   2.0000      -0.526958       -14.3393
  81   2.0000      -0.524052       -14.2602
  82   2.0000      -0.522385       -14.2148
  83   2.0000      -0.518457       -14.1079
  84   2.0000      -0.517007       -14.0685
  85   2.0000      -0.514004       -13.9868
  86   2.0000      -0.509528       -13.8650
  87   2.0000      -0.506493       -13.7824
  88   2.0000      -0.506421       -13.7804
  89   2.0000      -0.502654       -13.6779
  90   2.0000      -0.500758       -13.6263
  91   2.0000      -0.498136       -13.5550
  92   2.0000      -0.495465       -13.4823
  93   2.0000      -0.493339       -13.4244
  94   2.0000      -0.490537       -13.3482
  95   2.0000      -0.486988       -13.2516
  96   2.0000      -0.485566       -13.2129
  97   2.0000      -0.483756       -13.1637
  98   2.0000      -0.481460       -13.1012
  99   2.0000      -0.476607       -12.9691
 100   2.0000      -0.474329       -12.9071
 101   2.0000      -0.471163       -12.8210
 102   2.0000      -0.467342       -12.7170
 103   2.0000      -0.466524       -12.6948
 104   2.0000      -0.464150       -12.6302
 105   2.0000      -0.460046       -12.5185
 106   2.0000      -0.459088       -12.4924
 107   2.0000      -0.455598       -12.3975
 108   2.0000      -0.453687       -12.3455
 109   2.0000      -0.451985       -12.2991
 110   2.0000      -0.450296       -12.2532
 111   2.0000      -0.447798       -12.1852
 112   2.0000      -0.446803       -12.1581
 113   2.0000      -0.445223       -12.1151
 114   2.0000      -0.443823       -12.0770
 115   2.0000      -0.442940       -12.0530
 116   2.0000      -0.441093       -12.0027
 117   2.0000      -0.439025       -11.9465
 118   2.0000      -0.436705       -11.8833
 119   2.0000      -0.434596       -11.8260
 120   2.0000      -0.431420       -11.7395
 121   2.0000      -0.430794       -11.7225
 122   2.0000      -0.429065       -11.6754
 123   2.0000      -0.427423       -11.6308
 124   2.0000      -0.425597       -11.5811
 125   2.0000      -0.424845       -11.5606
 126   2.0000      -0.422398       -11.4940
 127   2.0000      -0.419998       -11.4287
 128   2.0000      -0.419201       -11.4070
 129   2.0000      -0.414435       -11.2773
 130   2.0000      -0.412703       -11.2302
 131   2.0000      -0.411484       -11.1970
 132   2.0000      -0.406580       -11.0636
 133   2.0000      -0.401335       -10.9209
 134   2.0000      -0.399178       -10.8622
 135   2.0000      -0.386833       -10.5262
 136   2.0000      -0.381887       -10.3917
 137   2.0000      -0.326823        -8.8933
 138   2.0000      -0.326517        -8.8850
 139   2.0000      -0.254678        -6.9301
 140   2.0000      -0.236223        -6.4280
 141   2.0000      -0.231636        -6.3031
 142   1.2000      -0.095631        -2.6023
 143   1.2000      -0.111395        -3.0312
 144   1.2000      -0.104728        -2.8498
 145   1.2000      -0.138872        -3.7789
 146   1.2000      -0.088100        -2.3973
 147   0.0000      -0.023949        -0.6517
 148   0.0000      -0.012275        -0.3340
 149   0.0000      -0.003337        -0.0908
 150   0.0000      -0.000868        -0.0236
 151   0.0000       0.000290         0.0079

MULLIKEN ATOMIC CHARGES AND SPIN DENSITIES
------------------------------------------
   0 Au:    0.387443    0.045602
   1 Au:    0.484374    0.009396
   2 Au:    0.511210    0.016404
   3 Au:    0.123464    0.071158
   4 Au:    0.647143    0.048760
   5 Au:    0.135396    0.056264
   6 Au:    0.232160    0.019362
   7 Au:    0.238387    0.020487
   8 Au:    0.115162    0.060660
   9 Au:    0.197570    0.011952
  10 Au:   -0.056547    0.016626
  11 Au:    0.260534    0.014322
  12 Au:    0.078863    0.014275
  13 Au:    0.241001    0.014507
  14 Cr:   -3.596159    2.580227
Sum of atomic charges       :    0.0000000

LOEWDIN ATOMIC CHARGES AND SPIN DENSITIES
-----------------------------------------
   0 Au:    0.157083    0.065064
   1 Au:    0.102818    0.022570
   2 Au:    0.112579    0.034587
   3 Au:    0.040083    0.082507
   4 Au:    0.109067    0.080000
   5 Au:    0.109543    0.061724
   6 Au:    0.117145    0.036525
   7 Au:    0.111106    0.047627
   8 Au:    0.039052    0.059700
   9 Au:    0.035578    0.018995
  10 Au:   -0.022367    0.036335
  11 Au:    0.102086    0.017919
  12 Au:    0.001065    0.022311
  13 Au:    0.031926    0.032876
  14 Cr:   -1.046763    2.381261

  Mayer bond orders larger than 0.100000
B(  0-Au,  1-Au) :   0.1902 B(  0-Au,  3-Au) :   0.1018 B(  0-Au,  8-Au) :   0.2461
B(  0-Au, 14-Cr) :   0.4934 B(  1-Au,  2-Au) :   0.1422 B(  1-Au,  6-Au) :   0.1812
B(  1-Au, 14-Cr) :   0.2397 B(  2-Au,  4-Au) :   0.1058 B(  2-Au,  5-Au) :   0.2057
B(  2-Au,  6-Au) :   0.1503 B(  2-Au, 14-Cr) :   0.3087 B(  3-Au,  4-Au) :   0.1821
B(  3-Au,  8-Au) :   0.1600 B(  3-Au, 12-Au) :   0.2854 B(  3-Au, 13-Au) :   0.1258
B(  3-Au, 14-Cr) :   0.4902 B(  4-Au,  5-Au) :   0.1140 B(  4-Au,  7-Au) :   0.1457
B(  4-Au, 14-Cr) :   0.3178 B(  5-Au, 10-Au) :   0.2567 B(  5-Au, 13-Au) :   0.1189
B(  5-Au, 14-Cr) :   0.4844 B(  6-Au,  7-Au) :   0.3574 B(  6-Au, 14-Cr) :   0.4290
B(  7-Au,  8-Au) :   0.1365 B(  7-Au,  9-Au) :   0.1713 B(  7-Au, 10-Au) :   0.1373
B(  7-Au, 14-Cr) :   0.4665 B(  8-Au,  9-Au) :   0.1831 B(  8-Au, 12-Au) :   0.2119
B(  8-Au, 14-Cr) :   0.3391 B(  9-Au, 10-Au) :   0.2417 B(  9-Au, 11-Au) :   0.2403
B(  9-Au, 12-Au) :   0.1202 B(  9-Au, 14-Cr) :   0.3181 B( 10-Au, 11-Au) :   0.3405
B( 10-Au, 13-Au) :   0.2931 B( 10-Au, 14-Cr) :   0.2271 B( 11-Au, 12-Au) :   0.2270
B( 11-Au, 13-Au) :   0.2719 B( 12-Au, 13-Au) :   0.2137 B( 12-Au, 14-Cr) :   0.3230
B( 13-Au, 14-Cr) :   0.2591

FINAL SINGLE POINT ENERGY     -2930.493337681438

DIPOLE MOMENT
-------------
                                X             Y             Z
Electronic contribution:      5.67449     -27.32643     -18.91981
Nuclear contribution   :     -5.68381      27.51724      19.28771
                        -----------------------------------------
Total Dipole Moment    :     -0.00932       0.19080       0.36790
                        -----------------------------------------
Magnitude (a.u.)       :      0.41454
Magnitude (Debye)      :      1.05368

Rotational constants in cm-1:     0.001364     0.000834     0.000818
Rotational constants in MHz :    40.877836    25.009831    24.516101

                             ****ORCA TERMINATED NORMALLY****
TOTAL RUN TIME: 0 days 1 hours 38 minutes 45 seconds 848 msec
