                         Program Version 5.0.3 -  RELEASE  -
|  1> !SC-NEVPT2 def2-TZVP def2-TZVP/C
|  2> !MOREAD RIJCOSX def2/J
|  3> %maxcore 4000
|  4> %moinp "casscf.gbw"
|  5> %pal nprocs 6 end
|  6>
|  7> %casscf
|  8>  mult 6,4
|  9>  bweight 1,1
| 10>  nroots 1,24
| 11>  nel 5
| 12>  norb 5
| 13>  ptsettings
| 14>   d4tpre 1e-14 # default = 1e-10
| 15>   d3tpre 1e-14
| 16>  end
| 17>  rel
| 18>    dosoc true
| 19>    gtensor true
| 20>  end
| 21> end
| 22>
| 23>
| 24> *xyzfile 0 6 pbe.xyz
| 25>
| 26>
| 27>                          ****END OF INPUT****

CARTESIAN COORDINATES (ANGSTROEM)
---------------------------------
  Au     5.897678    7.610339    6.042581
  Au     6.062699    6.185856    8.330385
  Au     5.873808    8.542046    9.944580
  Au     5.295972   10.301041    7.984259
  Au     6.540299   10.207024    5.516898
  Au     3.862505    7.900125    7.933765
  Au     7.519391   10.761860    9.600274
  Au     8.554684    7.060235    9.549140
  Au     6.566223    6.130730   11.078750
  Au    10.662822    7.233425    7.885847
  Au     8.343150    6.451051    6.665031
  Au     9.867438    9.534381    9.173805
  Mn     7.683684    8.921217    7.641063

 Total Charge           Charge          ....    0
 Multiplicity           Mult            ....    6
 Number of Electrons    NEL             ....  253
 Basis Dimension        Dim             ....  525

ORBITAL ENERGIES
----------------

  NO   OCC          E(Eh)            E(eV)
   0   2.0000    -240.561921     -6546.0227
   1   2.0000     -29.137104      -792.8609
   2   2.0000     -24.842637      -676.0025
   3   2.0000     -24.841633      -675.9752
   4   2.0000     -24.841375      -675.9682
   5   2.0000      -4.729369      -128.6927
   6   2.0000      -4.724379      -128.5569
   7   2.0000      -4.721361      -128.4748
   8   2.0000      -4.718213      -128.3891
   9   2.0000      -4.716672      -128.3472
  10   2.0000      -4.713355      -128.2569
  11   2.0000      -4.710783      -128.1869
  12   2.0000      -4.707648      -128.1016
  13   2.0000      -4.701360      -127.9305
  14   2.0000      -4.701113      -127.9238
  15   2.0000      -4.700890      -127.9177
  16   2.0000      -4.687984      -127.5665
  17   2.0000      -3.841689      -104.5377
  18   2.0000      -2.770451       -75.3878
  19   2.0000      -2.766466       -75.2794
  20   2.0000      -2.764638       -75.2296
  21   2.0000      -2.763051       -75.1864
  22   2.0000      -2.761896       -75.1550
  23   2.0000      -2.761297       -75.1387
  24   2.0000      -2.759380       -75.0866
  25   2.0000      -2.757181       -75.0267
  26   2.0000      -2.756481       -75.0077
  27   2.0000      -2.755070       -74.9693
  28   2.0000      -2.754334       -74.9492
  29   2.0000      -2.752270       -74.8931
  30   2.0000      -2.752068       -74.8876
  31   2.0000      -2.751610       -74.8751
  32   2.0000      -2.750558       -74.8465
  33   2.0000      -2.750092       -74.8338
  34   2.0000      -2.748640       -74.7943
  35   2.0000      -2.747248       -74.7564
  36   2.0000      -2.746445       -74.7346
  37   2.0000      -2.746011       -74.7228
  38   2.0000      -2.745763       -74.7160
  39   2.0000      -2.745591       -74.7113
  40   2.0000      -2.742146       -74.6176
  41   2.0000      -2.740355       -74.5689
  42   2.0000      -2.739434       -74.5438
  43   2.0000      -2.737806       -74.4995
  44   2.0000      -2.737259       -74.4846
  45   2.0000      -2.736026       -74.4511
  46   2.0000      -2.734409       -74.4071
  47   2.0000      -2.733599       -74.3850
  48   2.0000      -2.733019       -74.3692
  49   2.0000      -2.732792       -74.3630
  50   2.0000      -2.731580       -74.3301
  51   2.0000      -2.725080       -74.1532
  52   2.0000      -2.723166       -74.1011
  53   2.0000      -2.722932       -74.0948
  54   2.0000      -2.510154       -68.3048
  55   2.0000      -2.509237       -68.2798
  56   2.0000      -2.508560       -68.2614
  57   2.0000      -0.574091       -15.6218
  58   2.0000      -0.565999       -15.4016
  59   2.0000      -0.562107       -15.2957
  60   2.0000      -0.556660       -15.1475
  61   2.0000      -0.553145       -15.0518
  62   2.0000      -0.550925       -14.9914
  63   2.0000      -0.549055       -14.9406
  64   2.0000      -0.542193       -14.7538
  65   2.0000      -0.539671       -14.6852
  66   2.0000      -0.536710       -14.6046
  67   2.0000      -0.532121       -14.4798
  68   2.0000      -0.526602       -14.3296
  69   2.0000      -0.525617       -14.3028
  70   2.0000      -0.522314       -14.2129
  71   2.0000      -0.521891       -14.2014
  72   2.0000      -0.518847       -14.1185
  73   2.0000      -0.516887       -14.0652
  74   2.0000      -0.512909       -13.9570
  75   2.0000      -0.509228       -13.8568
  76   2.0000      -0.503196       -13.6927
  77   2.0000      -0.502483       -13.6733
  78   2.0000      -0.500149       -13.6097
  79   2.0000      -0.496518       -13.5109
  80   2.0000      -0.492253       -13.3949
  81   2.0000      -0.491554       -13.3759
  82   2.0000      -0.489664       -13.3244
  83   2.0000      -0.486797       -13.2464
  84   2.0000      -0.482648       -13.1335
  85   2.0000      -0.480137       -13.0652
  86   2.0000      -0.477112       -12.9829
  87   2.0000      -0.473369       -12.8810
  88   2.0000      -0.469713       -12.7815
  89   2.0000      -0.467535       -12.7223
  90   2.0000      -0.463663       -12.6169
  91   2.0000      -0.461309       -12.5529
  92   2.0000      -0.457460       -12.4481
  93   2.0000      -0.456655       -12.4262
  94   2.0000      -0.455422       -12.3927
  95   2.0000      -0.452368       -12.3096
  96   2.0000      -0.452072       -12.3015
  97   2.0000      -0.450433       -12.2569
  98   2.0000      -0.446169       -12.1409
  99   2.0000      -0.444748       -12.1022
 100   2.0000      -0.443368       -12.0647
 101   2.0000      -0.441380       -12.0106
 102   2.0000      -0.438544       -11.9334
 103   2.0000      -0.438008       -11.9188
 104   2.0000      -0.434489       -11.8230
 105   2.0000      -0.433673       -11.8008
 106   2.0000      -0.431247       -11.7348
 107   2.0000      -0.427795       -11.6409
 108   2.0000      -0.427186       -11.6243
 109   2.0000      -0.425628       -11.5819
 110   2.0000      -0.422385       -11.4937
 111   2.0000      -0.420941       -11.4544
 112   2.0000      -0.415951       -11.3186
 113   2.0000      -0.414634       -11.2828
 114   2.0000      -0.410792       -11.1782
 115   2.0000      -0.408797       -11.1239
 116   2.0000      -0.395811       -10.7706
 117   2.0000      -0.387660       -10.5488
 118   2.0000      -0.364769        -9.9259
 119   2.0000      -0.339288        -9.2325
 120   2.0000      -0.331427        -9.0186
 121   2.0000      -0.253954        -6.9104
 122   2.0000      -0.228199        -6.2096
 123   2.0000      -0.218615        -5.9488
 124   1.0000      -0.161788        -4.4025
 125   1.0000      -0.152070        -4.1380
 126   1.0000      -0.158056        -4.3009
 127   1.0000      -0.160525        -4.3681
 128   1.0000      -0.164488        -4.4760
 129   0.0000      -0.026446        -0.7196
 130   0.0000      -0.021345        -0.5808
 131   0.0000      -0.013135        -0.3574
 132   0.0000       0.007550         0.2055
 133   0.0000       0.012996         0.3536

MULLIKEN ATOMIC CHARGES AND SPIN DENSITIES
------------------------------------------
   0 Au:    0.107188    0.008105
   1 Au:   -0.103579    0.003927
   2 Au:   -0.348040    0.006390
   3 Au:    0.171673    0.008213
   4 Au:    0.227252    0.011019
   5 Au:    0.159929    0.004296
   6 Au:    0.249010    0.009324
   7 Au:   -0.772176    0.006374
   8 Au:    0.682960    0.001990
   9 Au:    0.405899    0.004922
  10 Au:    0.039204    0.009700
  11 Au:    0.096815    0.012122
  12 Mn:   -0.916134    3.913618
Sum of atomic charges       :    0.0000000

LOEWDIN ATOMIC CHARGES AND SPIN DENSITIES
-----------------------------------------
   0 Au:   -0.087387    0.012846
   1 Au:   -0.097422    0.005616
   2 Au:   -0.114662    0.008653
   3 Au:   -0.080790    0.012748
   4 Au:    0.105737    0.014649
   5 Au:    0.055675    0.004762
   6 Au:    0.049090    0.013506
   7 Au:   -0.178559    0.011113
   8 Au:    0.247692    0.002759
   9 Au:    0.074490    0.006562
  10 Au:    0.030251    0.013250
  11 Au:   -0.017088    0.014771
  12 Mn:    0.012973    3.878766

  Mayer bond orders larger than 0.100000
B(  0-Au,  1-Au) :   0.3904 B(  0-Au,  3-Au) :   0.1034 B(  0-Au,  4-Au) :   0.2119
B(  0-Au,  5-Au) :   0.2949 B(  0-Au, 10-Au) :   0.1899 B(  0-Au, 12-Mn) :   0.4562
B(  1-Au,  2-Au) :   0.2957 B(  1-Au,  5-Au) :   0.2695 B(  1-Au,  7-Au) :   0.3095
B(  1-Au,  8-Au) :   0.1461 B(  1-Au, 10-Au) :   0.2560 B(  1-Au, 12-Mn) :   0.1699
B(  2-Au,  3-Au) :   0.4410 B(  2-Au,  5-Au) :   0.2100 B(  2-Au,  6-Au) :   0.3177
B(  2-Au,  7-Au) :   0.3326 B(  2-Au,  8-Au) :   0.2047 B(  2-Au, 12-Mn) :   0.2814
B(  3-Au,  4-Au) :   0.1804 B(  3-Au,  5-Au) :   0.2389 B(  3-Au,  6-Au) :   0.1759
B(  3-Au, 12-Mn) :   0.3474 B(  4-Au, 12-Mn) :   0.5067 B(  6-Au, 11-Au) :   0.2850
B(  6-Au, 12-Mn) :   0.4493 B(  7-Au,  8-Au) :   0.4039 B(  7-Au,  9-Au) :   0.5047
B(  7-Au, 10-Au) :   0.2172 B(  7-Au, 11-Au) :   0.2321 B(  7-Au, 12-Mn) :   0.4027
B(  9-Au, 10-Au) :   0.2289 B(  9-Au, 11-Au) :   0.1564 B( 10-Au, 12-Mn) :   0.4052
B( 11-Au, 12-Mn) :   0.4807

FINAL SINGLE POINT ENERGY     -2773.505811740677

DIPOLE MOMENT
-------------
                                X             Y             Z
Electronic contribution:    -21.63043     -28.09967      24.64909
Nuclear contribution   :     21.70079      27.70071     -24.29308
                        -----------------------------------------
Total Dipole Moment    :      0.07036      -0.39896       0.35600
                        -----------------------------------------
Magnitude (a.u.)       :      0.53931
Magnitude (Debye)      :      1.37082

Rotational constants in cm-1:     0.001439     0.001195     0.001106
Rotational constants in MHz :    43.135283    35.817868    33.169216

                             ****ORCA TERMINATED NORMALLY****
TOTAL RUN TIME: 0 days 1 hours 12 minutes 45 seconds 647 msec
