                         Program Version 5.0.3 -  RELEASE  -
|  1> %pal nprocs 1 end
|  2>
|  3> !PBE def2-TZVP OPT UNO
|  4> !SLOWCONV KDIIS
|  5>
|  6> %geom maxiter 300 end
|  7>
|  8> *xyzfile 0 5 6.xyz                           ****END OF INPUT****
 Total Charge           Charge          ....    0
 Multiplicity           Mult            ....    5
 Number of Electrons    NEL             ....  252
FINAL SINGLE POINT ENERGY     -2674.126202426976
FINAL SINGLE POINT ENERGY     -2674.128487804535
FINAL SINGLE POINT ENERGY     -2674.130165525884
FINAL SINGLE POINT ENERGY     -2674.131828628774
FINAL SINGLE POINT ENERGY     -2674.133251425854
FINAL SINGLE POINT ENERGY     -2674.134718003357
FINAL SINGLE POINT ENERGY     -2674.136316130315
FINAL SINGLE POINT ENERGY     -2674.137675591458
FINAL SINGLE POINT ENERGY     -2674.138864793608
FINAL SINGLE POINT ENERGY     -2674.140079420527
FINAL SINGLE POINT ENERGY     -2674.149529351570
FINAL SINGLE POINT ENERGY     -2674.149548253998
FINAL SINGLE POINT ENERGY     -2674.149576591178
FINAL SINGLE POINT ENERGY     -2674.149591218179
FINAL SINGLE POINT ENERGY     -2674.149595965829
FINAL SINGLE POINT ENERGY     -2674.149600239904
FINAL SINGLE POINT ENERGY     -2674.149603985222
FINAL SINGLE POINT ENERGY     -2674.149605906542
FINAL SINGLE POINT ENERGY     -2674.149607289537
                    ***********************HURRAY********************

CARTESIAN COORDINATES (ANGSTROEM)
---------------------------------
  Au     7.463153   10.812139    8.636063
  Au     6.592193    9.384938   10.754364
  Au     7.537237    6.723960   10.936927
  Au     9.695343    6.917577    9.116404
  Au     5.123406    6.979915    9.666371
  Au     9.695839    9.099088    7.590315
  Au     7.173905    5.368266    8.416172
  Au     8.241281    6.726640    6.342770
  Au     8.776037   11.353970    6.281649
  Au     6.858159    9.300784    6.169875
  Au     9.194475    8.804567    4.815034
  Au     4.946042    9.191958    8.069903
  Cr     7.345500    8.060854    8.563109

 Multiplicity           Mult            ....    5
 Number of Electrons    NEL             ....  252
 Basis Dimension        Dim             ....  525

ORBITAL ENERGIES
----------------
                 SPIN UP ORBITALS
  NO   OCC          E(Eh)            E(eV)
   0   1.0000    -214.491295     -5836.6049
   1   1.0000     -24.293553      -661.0612
   2   1.0000     -20.659226      -562.1661
   3   1.0000     -20.655650      -562.0688
   4   1.0000     -20.655385      -562.0616
   5   1.0000      -4.034628      -109.7878
   6   1.0000      -4.029241      -109.6412
   7   1.0000      -4.026539      -109.5677
   8   1.0000      -4.024083      -109.5009
   9   1.0000      -4.023913      -109.4962
  10   1.0000      -4.023664      -109.4895
  11   1.0000      -4.022779      -109.4654
  12   1.0000      -4.022226      -109.4503
  13   1.0000      -4.020921      -109.4148
  14   1.0000      -4.018099      -109.3380
  15   1.0000      -4.017878      -109.3320
  16   1.0000      -4.017077      -109.3102
  17   1.0000      -2.797290       -76.1181
  18   1.0000      -2.252283       -61.2877
  19   1.0000      -2.247702       -61.1631
  20   1.0000      -2.247294       -61.1520
  21   1.0000      -2.244620       -61.0792
  22   1.0000      -2.243285       -61.0429
  23   1.0000      -2.242273       -61.0154
  24   1.0000      -2.240922       -60.9786
  25   1.0000      -2.240614       -60.9702
  26   1.0000      -2.240470       -60.9663
  27   1.0000      -2.240222       -60.9595
  28   1.0000      -2.240101       -60.9562
  29   1.0000      -2.239327       -60.9352
  30   1.0000      -2.238879       -60.9230
  31   1.0000      -2.238176       -60.9039
  32   1.0000      -2.237597       -60.8881
  33   1.0000      -2.237271       -60.8793
  34   1.0000      -2.236387       -60.8552
  35   1.0000      -2.236287       -60.8525
  36   1.0000      -2.235909       -60.8422
  37   1.0000      -2.235610       -60.8340
  38   1.0000      -2.234041       -60.7914
  39   1.0000      -2.233438       -60.7749
  40   1.0000      -2.233186       -60.7681
  41   1.0000      -2.232859       -60.7592
  42   1.0000      -2.232244       -60.7424
  43   1.0000      -2.232235       -60.7422
  44   1.0000      -2.231517       -60.7227
  45   1.0000      -2.231212       -60.7144
  46   1.0000      -2.230552       -60.6964
  47   1.0000      -2.229920       -60.6792
  48   1.0000      -2.229857       -60.6775
  49   1.0000      -2.229568       -60.6696
  50   1.0000      -2.229463       -60.6668
  51   1.0000      -2.228514       -60.6409
  52   1.0000      -2.227854       -60.6230
  53   1.0000      -2.226014       -60.5729
  54   1.0000      -1.790115       -48.7115
  55   1.0000      -1.785869       -48.5960
  56   1.0000      -1.784952       -48.5710
  57   1.0000      -0.420040       -11.4299
  58   1.0000      -0.390156       -10.6167
  59   1.0000      -0.373590       -10.1659
  60   1.0000      -0.372343       -10.1320
  61   1.0000      -0.368525       -10.0281
  62   1.0000      -0.363547        -9.8926
  63   1.0000      -0.362325        -9.8594
  64   1.0000      -0.357193        -9.7197
  65   1.0000      -0.349492        -9.5102
  66   1.0000      -0.347074        -9.4444
  67   1.0000      -0.345207        -9.3936
  68   1.0000      -0.344361        -9.3705
  69   1.0000      -0.340555        -9.2670
  70   1.0000      -0.337947        -9.1960
  71   1.0000      -0.335483        -9.1290
  72   1.0000      -0.331624        -9.0240
  73   1.0000      -0.330196        -8.9851
  74   1.0000      -0.328787        -8.9468
  75   1.0000      -0.323364        -8.7992
  76   1.0000      -0.321716        -8.7543
  77   1.0000      -0.320380        -8.7180
  78   1.0000      -0.318447        -8.6654
  79   1.0000      -0.316940        -8.6244
  80   1.0000      -0.315962        -8.5978
  81   1.0000      -0.312866        -8.5135
  82   1.0000      -0.311126        -8.4662
  83   1.0000      -0.307893        -8.3782
  84   1.0000      -0.301719        -8.2102
  85   1.0000      -0.297982        -8.1085
  86   1.0000      -0.295249        -8.0341
  87   1.0000      -0.291382        -7.9289
  88   1.0000      -0.290343        -7.9006
  89   1.0000      -0.287966        -7.8360
  90   1.0000      -0.286196        -7.7878
  91   1.0000      -0.284163        -7.7325
  92   1.0000      -0.282678        -7.6921
  93   1.0000      -0.280054        -7.6206
  94   1.0000      -0.277869        -7.5612
  95   1.0000      -0.276073        -7.5123
  96   1.0000      -0.274696        -7.4749
  97   1.0000      -0.272810        -7.4235
  98   1.0000      -0.272113        -7.4046
  99   1.0000      -0.270466        -7.3597
 100   1.0000      -0.270029        -7.3479
 101   1.0000      -0.268309        -7.3011
 102   1.0000      -0.267220        -7.2714
 103   1.0000      -0.266109        -7.2412
 104   1.0000      -0.264279        -7.1914
 105   1.0000      -0.261051        -7.1035
 106   1.0000      -0.259893        -7.0720
 107   1.0000      -0.259361        -7.0576
 108   1.0000      -0.256772        -6.9871
 109   1.0000      -0.256408        -6.9772
 110   1.0000      -0.256179        -6.9710
 111   1.0000      -0.252400        -6.8681
 112   1.0000      -0.251142        -6.8339
 113   1.0000      -0.250722        -6.8225
 114   1.0000      -0.248959        -6.7745
 115   1.0000      -0.245266        -6.6740
 116   1.0000      -0.244934        -6.6650
 117   1.0000      -0.243487        -6.6256
 118   1.0000      -0.240930        -6.5560
 119   1.0000      -0.236041        -6.4230
 120   1.0000      -0.226399        -6.1606
 121   1.0000      -0.221266        -6.0210
 122   1.0000      -0.213970        -5.8224
 123   1.0000      -0.213411        -5.8072
 124   1.0000      -0.209404        -5.6982
 125   1.0000      -0.208151        -5.6641
 126   1.0000      -0.191119        -5.2006
 127   1.0000      -0.184531        -5.0213
 128   0.0000      -0.166999        -4.5443
 129   0.0000      -0.161908        -4.4058
 130   0.0000      -0.145306        -3.9540
 131   0.0000      -0.126777        -3.4498
 132   0.0000      -0.120036        -3.2663

                 SPIN DOWN ORBITALS
  NO   OCC          E(Eh)            E(eV)
   0   1.0000    -214.490860     -5836.5930
   1   1.0000     -24.247251      -659.8013
   2   1.0000     -20.625206      -561.2404
   3   1.0000     -20.620515      -561.1128
   4   1.0000     -20.618402      -561.0552
   5   1.0000      -4.033297      -109.7516
   6   1.0000      -4.027984      -109.6070
   7   1.0000      -4.025513      -109.5398
   8   1.0000      -4.023059      -109.4730
   9   1.0000      -4.022722      -109.4638
  10   1.0000      -4.022393      -109.4549
  11   1.0000      -4.021489      -109.4303
  12   1.0000      -4.021051      -109.4184
  13   1.0000      -4.019526      -109.3769
  14   1.0000      -4.017489      -109.3214
  15   1.0000      -4.016617      -109.2977
  16   1.0000      -4.016603      -109.2973
  17   1.0000      -2.672326       -72.7177
  18   1.0000      -2.250598       -61.2419
  19   1.0000      -2.246219       -61.1227
  20   1.0000      -2.245774       -61.1106
  21   1.0000      -2.243534       -61.0497
  22   1.0000      -2.241913       -61.0056
  23   1.0000      -2.240666       -60.9716
  24   1.0000      -2.239598       -60.9426
  25   1.0000      -2.239215       -60.9321
  26   1.0000      -2.239083       -60.9285
  27   1.0000      -2.239054       -60.9278
  28   1.0000      -2.238822       -60.9214
  29   1.0000      -2.237836       -60.8946
  30   1.0000      -2.237781       -60.8931
  31   1.0000      -2.237135       -60.8755
  32   1.0000      -2.236564       -60.8600
  33   1.0000      -2.235539       -60.8321
  34   1.0000      -2.234933       -60.8156
  35   1.0000      -2.234792       -60.8118
  36   1.0000      -2.234634       -60.8075
  37   1.0000      -2.233875       -60.7868
  38   1.0000      -2.232976       -60.7624
  39   1.0000      -2.232339       -60.7450
  40   1.0000      -2.232135       -60.7395
  41   1.0000      -2.231666       -60.7267
  42   1.0000      -2.231490       -60.7219
  43   1.0000      -2.231077       -60.7107
  44   1.0000      -2.230269       -60.6887
  45   1.0000      -2.230120       -60.6846
  46   1.0000      -2.229494       -60.6676
  47   1.0000      -2.229342       -60.6635
  48   1.0000      -2.228753       -60.6475
  49   1.0000      -2.228580       -60.6427
  50   1.0000      -2.228447       -60.6391
  51   1.0000      -2.228094       -60.6295
  52   1.0000      -2.227389       -60.6103
  53   1.0000      -2.224607       -60.5346
  54   1.0000      -1.671509       -45.4841
  55   1.0000      -1.662366       -45.2353
  56   1.0000      -1.657768       -45.1102
  57   1.0000      -0.412989       -11.2380
  58   1.0000      -0.386030       -10.5044
  59   1.0000      -0.371639       -10.1128
  60   1.0000      -0.370151       -10.0723
  61   1.0000      -0.362840        -9.8734
  62   1.0000      -0.360128        -9.7996
  63   1.0000      -0.357577        -9.7302
  64   1.0000      -0.352604        -9.5948
  65   1.0000      -0.347044        -9.4436
  66   1.0000      -0.343838        -9.3563
  67   1.0000      -0.343457        -9.3459
  68   1.0000      -0.342065        -9.3081
  69   1.0000      -0.338198        -9.2028
  70   1.0000      -0.334080        -9.0908
  71   1.0000      -0.332352        -9.0438
  72   1.0000      -0.329056        -8.9541
  73   1.0000      -0.327134        -8.9018
  74   1.0000      -0.324970        -8.8429
  75   1.0000      -0.321678        -8.7533
  76   1.0000      -0.318759        -8.6739
  77   1.0000      -0.317475        -8.6389
  78   1.0000      -0.316144        -8.6027
  79   1.0000      -0.312806        -8.5119
  80   1.0000      -0.312382        -8.5004
  81   1.0000      -0.311780        -8.4840
  82   1.0000      -0.309898        -8.4328
  83   1.0000      -0.304938        -8.2978
  84   1.0000      -0.300389        -8.1740
  85   1.0000      -0.296213        -8.0604
  86   1.0000      -0.292502        -7.9594
  87   1.0000      -0.288814        -7.8590
  88   1.0000      -0.287540        -7.8244
  89   1.0000      -0.285807        -7.7772
  90   1.0000      -0.285216        -7.7611
  91   1.0000      -0.282707        -7.6928
  92   1.0000      -0.281185        -7.6514
  93   1.0000      -0.278593        -7.5809
  94   1.0000      -0.275376        -7.4934
  95   1.0000      -0.275032        -7.4840
  96   1.0000      -0.273591        -7.4448
  97   1.0000      -0.271477        -7.3873
  98   1.0000      -0.271127        -7.3777
  99   1.0000      -0.269810        -7.3419
 100   1.0000      -0.269268        -7.3271
 101   1.0000      -0.267380        -7.2758
 102   1.0000      -0.265934        -7.2364
 103   1.0000      -0.264931        -7.2091
 104   1.0000      -0.263102        -7.1594
 105   1.0000      -0.260021        -7.0755
 106   1.0000      -0.259000        -7.0477
 107   1.0000      -0.258199        -7.0259
 108   1.0000      -0.255665        -6.9570
 109   1.0000      -0.255353        -6.9485
 110   1.0000      -0.255013        -6.9392
 111   1.0000      -0.251119        -6.8333
 112   1.0000      -0.249695        -6.7945
 113   1.0000      -0.248937        -6.7739
 114   1.0000      -0.247508        -6.7350
 115   1.0000      -0.244074        -6.6416
 116   1.0000      -0.243659        -6.6303
 117   1.0000      -0.241331        -6.5670
 118   1.0000      -0.239629        -6.5206
 119   1.0000      -0.234549        -6.3824
 120   1.0000      -0.225187        -6.1277
 121   1.0000      -0.214884        -5.8473
 122   1.0000      -0.205518        -5.5924
 123   1.0000      -0.195081        -5.3084
 124   0.0000      -0.186898        -5.0858
 125   0.0000      -0.151835        -4.1316
 126   0.0000      -0.134515        -3.6603
 127   0.0000      -0.121198        -3.2980
 128   0.0000      -0.117970        -3.2101

MULLIKEN ATOMIC CHARGES AND SPIN POPULATIONS
--------------------------------------------
   0 Au:    0.258194    0.011704
   1 Au:    0.420746    0.018204
   2 Au:    0.523416    0.089566
   3 Au:    0.426832    0.019540
   4 Au:    0.489733    0.051075
   5 Au:    0.176527    0.002462
   6 Au:    0.446819    0.055562
   7 Au:    0.232233   -0.009801
   8 Au:    0.284551    0.137298
   9 Au:    0.180642    0.056350
  10 Au:    0.293038    0.131639
  11 Au:    0.434696    0.002333
  12 Cr:   -4.167428    3.434068
Sum of atomic charges         :   -0.0000000

LOEWDIN ATOMIC CHARGES AND SPIN POPULATIONS
-------------------------------------------
   0 Au:    0.066219    0.033920
   1 Au:    0.130762    0.016583
   2 Au:    0.103365    0.061506
   3 Au:    0.161212    0.027607
   4 Au:    0.104799    0.029750
   5 Au:    0.014788    0.038243
   6 Au:    0.124761    0.042839
   7 Au:    0.072870    0.024853
   8 Au:    0.089676    0.100231
   9 Au:    0.010667    0.070243
  10 Au:    0.087483    0.089017
  11 Au:    0.162779    0.018404
  12 Cr:   -1.129381    3.446804

  Mayer bond orders larger than 0.100000
B(  0-Au,  1-Au) :   0.4163 B(  0-Au,  5-Au) :   0.1444 B(  0-Au,  8-Au) :   0.3350
B(  0-Au, 12-Cr) :   0.6720 B(  1-Au,  2-Au) :   0.2493 B(  1-Au, 12-Cr) :   0.6860
B(  2-Au,  3-Au) :   0.2134 B(  2-Au,  4-Au) :   0.2232 B(  2-Au,  6-Au) :   0.1247
B(  2-Au,  9-Au) :   0.1300 B(  2-Au, 12-Cr) :   0.4378 B(  3-Au,  5-Au) :   0.4523
B(  3-Au, 12-Cr) :   0.7231 B(  4-Au,  5-Au) :   0.1176 B(  4-Au,  6-Au) :   0.2177
B(  4-Au, 11-Au) :   0.2917 B(  4-Au, 12-Cr) :   0.5081 B(  5-Au,  8-Au) :   0.3218
B(  5-Au, 10-Au) :   0.2375 B(  5-Au, 12-Cr) :   0.4857 B(  6-Au,  7-Au) :   0.4106
B(  6-Au, 12-Cr) :   0.6318 B(  7-Au,  9-Au) :   0.1906 B(  7-Au, 10-Au) :   0.3188
B(  7-Au, 12-Cr) :   0.7043 B(  8-Au,  9-Au) :   0.2532 B(  8-Au, 10-Au) :   0.1327
B(  8-Au, 12-Cr) :   0.3490 B(  9-Au, 10-Au) :   0.3460 B(  9-Au, 11-Au) :   0.4055
B(  9-Au, 12-Cr) :   0.4295 B( 10-Au, 12-Cr) :   0.3479 B( 11-Au, 12-Cr) :   0.7057

FINAL SINGLE POINT ENERGY     -2674.149608131765

DIPOLE MOMENT
-------------
                                X             Y             Z
Electronic contribution:      9.16291      11.42673     -17.34487
Nuclear contribution   :     -9.21746     -11.50634      17.43835
                        -----------------------------------------
Total Dipole Moment    :     -0.05455      -0.07961       0.09348
                        -----------------------------------------
Magnitude (a.u.)       :      0.13436
Magnitude (Debye)      :      0.34151

Rotational constants in cm-1:     0.001715     0.001163     0.000992
Rotational constants in MHz :    51.416285    34.852050    29.725693

                             ****ORCA TERMINATED NORMALLY****
TOTAL RUN TIME: 0 days 8 hours 5 minutes 56 seconds 298 msec
