                         Program Version 5.0.3 -  RELEASE  -
|  1> %pal nprocs 1 end
|  2>
|  3> !PBE def2-TZVP OPT UNO
|  4> !SLOWCONV KDIIS
|  5>
|  6> %geom maxiter 300 end
|  7>
|  8> *xyzfile 0 6 2.xyz                           ****END OF INPUT****
 Total Charge           Charge          ....    0
 Multiplicity           Mult            ....    6
 Number of Electrons    NEL             ....  253
FINAL SINGLE POINT ENERGY     -2780.692361222083
FINAL SINGLE POINT ENERGY     -2780.695814753044
FINAL SINGLE POINT ENERGY     -2780.698071534939
FINAL SINGLE POINT ENERGY     -2780.699164968076
FINAL SINGLE POINT ENERGY     -2780.699826789220
FINAL SINGLE POINT ENERGY     -2780.700270315329
FINAL SINGLE POINT ENERGY     -2780.700890392024
FINAL SINGLE POINT ENERGY     -2780.701266207375
FINAL SINGLE POINT ENERGY     -2780.701904068600
FINAL SINGLE POINT ENERGY     -2780.702384724586
FINAL SINGLE POINT ENERGY     -2780.708916173181
FINAL SINGLE POINT ENERGY     -2780.708974004174
FINAL SINGLE POINT ENERGY     -2780.709012279188
FINAL SINGLE POINT ENERGY     -2780.709036868954
FINAL SINGLE POINT ENERGY     -2780.709055098143
FINAL SINGLE POINT ENERGY     -2780.709070865154
FINAL SINGLE POINT ENERGY     -2780.709085328614
FINAL SINGLE POINT ENERGY     -2780.709093717079
FINAL SINGLE POINT ENERGY     -2780.709097856911
                    ***********************HURRAY********************

CARTESIAN COORDINATES (ANGSTROEM)
---------------------------------
  Au     9.121353    6.787251    6.002820
  Au     4.819747    6.438734    7.657259
  Au     5.305204    9.294607    7.237225
  Au     6.569836    7.069740    5.485500
  Au     3.891017    7.727508    5.469539
  Au     4.100976    5.994391   10.224760
  Au     6.732328    5.514526    9.559130
  Au     9.230099    5.695812    8.785905
  Au    11.380151    6.771933    7.516496
  Au     5.393603    8.382572    9.782510
  Au     7.472658   10.006541    8.850143
  Au     9.790585    8.864945    8.323878
  Mn     7.498866    7.536105    7.971652

 Multiplicity           Mult            ....    6
 Number of Electrons    NEL             ....  253
 Basis Dimension        Dim             ....  525

ORBITAL ENERGIES
----------------
                 SPIN UP ORBITALS
  NO   OCC          E(Eh)            E(eV)
   0   1.0000    -234.193796     -6372.7372
   1   1.0000     -26.891136      -731.7450
   2   1.0000     -23.040283      -626.9580
   3   1.0000     -23.039091      -626.9255
   4   1.0000     -23.038522      -626.9101
   5   1.0000      -4.039686      -109.9254
   6   1.0000      -4.030908      -109.6866
   7   1.0000      -4.030905      -109.6865
   8   1.0000      -4.029816      -109.6569
   9   1.0000      -4.029009      -109.6349
  10   1.0000      -4.028376      -109.6177
  11   1.0000      -4.027187      -109.5853
  12   1.0000      -4.027182      -109.5852
  13   1.0000      -4.015877      -109.2776
  14   1.0000      -4.015595      -109.2699
  15   1.0000      -4.015529      -109.2681
  16   1.0000      -4.008888      -109.0874
  17   1.0000      -3.102917       -84.4347
  18   1.0000      -2.259261       -61.4776
  19   1.0000      -2.252221       -61.2861
  20   1.0000      -2.249484       -61.2116
  21   1.0000      -2.249188       -61.2035
  22   1.0000      -2.248921       -61.1962
  23   1.0000      -2.248086       -61.1735
  24   1.0000      -2.246135       -61.1205
  25   1.0000      -2.245309       -61.0980
  26   1.0000      -2.245018       -61.0900
  27   1.0000      -2.243948       -61.0609
  28   1.0000      -2.243745       -61.0554
  29   1.0000      -2.243471       -61.0480
  30   1.0000      -2.242606       -61.0244
  31   1.0000      -2.241901       -61.0052
  32   1.0000      -2.241245       -60.9874
  33   1.0000      -2.239335       -60.9354
  34   1.0000      -2.238456       -60.9115
  35   1.0000      -2.238406       -60.9101
  36   1.0000      -2.237815       -60.8941
  37   1.0000      -2.236904       -60.8693
  38   1.0000      -2.236835       -60.8674
  39   1.0000      -2.236525       -60.8589
  40   1.0000      -2.236491       -60.8580
  41   1.0000      -2.236390       -60.8553
  42   1.0000      -2.235162       -60.8219
  43   1.0000      -2.234085       -60.7925
  44   1.0000      -2.231745       -60.7289
  45   1.0000      -2.228980       -60.6536
  46   1.0000      -2.228862       -60.6504
  47   1.0000      -2.227827       -60.6223
  48   1.0000      -2.226514       -60.5865
  49   1.0000      -2.225853       -60.5685
  50   1.0000      -2.221913       -60.4613
  51   1.0000      -2.221031       -60.4373
  52   1.0000      -2.220593       -60.4254
  53   1.0000      -2.214245       -60.2527
  54   1.0000      -2.007308       -54.6216
  55   1.0000      -2.004920       -54.5566
  56   1.0000      -2.004205       -54.5372
  57   1.0000      -0.423262       -11.5175
  58   1.0000      -0.392882       -10.6909
  59   1.0000      -0.385634       -10.4936
  60   1.0000      -0.380349       -10.3498
  61   1.0000      -0.371669       -10.1136
  62   1.0000      -0.369206       -10.0466
  63   1.0000      -0.362287        -9.8583
  64   1.0000      -0.359490        -9.7822
  65   1.0000      -0.356939        -9.7128
  66   1.0000      -0.350697        -9.5429
  67   1.0000      -0.343826        -9.3560
  68   1.0000      -0.341196        -9.2844
  69   1.0000      -0.340497        -9.2654
  70   1.0000      -0.336167        -9.1476
  71   1.0000      -0.334989        -9.1155
  72   1.0000      -0.334115        -9.0917
  73   1.0000      -0.331384        -9.0174
  74   1.0000      -0.327224        -8.9042
  75   1.0000      -0.327114        -8.9012
  76   1.0000      -0.325219        -8.8497
  77   1.0000      -0.322010        -8.7623
  78   1.0000      -0.315859        -8.5950
  79   1.0000      -0.314507        -8.5582
  80   1.0000      -0.314008        -8.5446
  81   1.0000      -0.309158        -8.4126
  82   1.0000      -0.308019        -8.3816
  83   1.0000      -0.306158        -8.3310
  84   1.0000      -0.297532        -8.0963
  85   1.0000      -0.297361        -8.0916
  86   1.0000      -0.295213        -8.0331
  87   1.0000      -0.293759        -7.9936
  88   1.0000      -0.291938        -7.9440
  89   1.0000      -0.290615        -7.9080
  90   1.0000      -0.288513        -7.8508
  91   1.0000      -0.284720        -7.7476
  92   1.0000      -0.282994        -7.7007
  93   1.0000      -0.282155        -7.6778
  94   1.0000      -0.282005        -7.6737
  95   1.0000      -0.279791        -7.6135
  96   1.0000      -0.279203        -7.5975
  97   1.0000      -0.278089        -7.5672
  98   1.0000      -0.276950        -7.5362
  99   1.0000      -0.273817        -7.4509
 100   1.0000      -0.273178        -7.4336
 101   1.0000      -0.271362        -7.3841
 102   1.0000      -0.269612        -7.3365
 103   1.0000      -0.267225        -7.2716
 104   1.0000      -0.266258        -7.2452
 105   1.0000      -0.265653        -7.2288
 106   1.0000      -0.264524        -7.1981
 107   1.0000      -0.261499        -7.1158
 108   1.0000      -0.259269        -7.0551
 109   1.0000      -0.257795        -7.0150
 110   1.0000      -0.255628        -6.9560
 111   1.0000      -0.255034        -6.9398
 112   1.0000      -0.253213        -6.8903
 113   1.0000      -0.252538        -6.8719
 114   1.0000      -0.250283        -6.8105
 115   1.0000      -0.250032        -6.8037
 116   1.0000      -0.246252        -6.7009
 117   1.0000      -0.245955        -6.6928
 118   1.0000      -0.244644        -6.6571
 119   1.0000      -0.243602        -6.6287
 120   1.0000      -0.242305        -6.5934
 121   1.0000      -0.237451        -6.4614
 122   1.0000      -0.235368        -6.4047
 123   1.0000      -0.234697        -6.3864
 124   1.0000      -0.229673        -6.2497
 125   1.0000      -0.229290        -6.2393
 126   1.0000      -0.216877        -5.9015
 127   1.0000      -0.202311        -5.5052
 128   1.0000      -0.188778        -5.1369
 129   0.0000      -0.159639        -4.3440
 130   0.0000      -0.151725        -4.1287
 131   0.0000      -0.135298        -3.6816
 132   0.0000      -0.132390        -3.6025
 133   0.0000      -0.125825        -3.4239

                 SPIN DOWN ORBITALS
  NO   OCC          E(Eh)            E(eV)
   0   1.0000    -234.193024     -6372.7162
   1   1.0000     -26.823250      -729.8978
   2   1.0000     -22.988373      -625.5454
   3   1.0000     -22.987637      -625.5254
   4   1.0000     -22.987171      -625.5127
   5   1.0000      -4.038922      -109.9047
   6   1.0000      -4.029511      -109.6486
   7   1.0000      -4.029473      -109.6475
   8   1.0000      -4.029071      -109.6366
   9   1.0000      -4.028245      -109.6141
  10   1.0000      -4.027023      -109.5809
  11   1.0000      -4.027006      -109.5804
  12   1.0000      -4.026938      -109.5786
  13   1.0000      -4.015649      -109.2714
  14   1.0000      -4.014171      -109.2311
  15   1.0000      -4.014078      -109.2286
  16   1.0000      -4.007307      -109.0444
  17   1.0000      -2.936068       -79.8945
  18   1.0000      -2.258351       -61.4528
  19   1.0000      -2.251048       -61.2541
  20   1.0000      -2.248485       -61.1844
  21   1.0000      -2.247807       -61.1660
  22   1.0000      -2.247732       -61.1639
  23   1.0000      -2.247667       -61.1621
  24   1.0000      -2.245382       -61.1000
  25   1.0000      -2.244036       -61.0633
  26   1.0000      -2.243201       -61.0406
  27   1.0000      -2.242884       -61.0320
  28   1.0000      -2.242718       -61.0275
  29   1.0000      -2.242088       -61.0103
  30   1.0000      -2.241418       -60.9921
  31   1.0000      -2.240902       -60.9781
  32   1.0000      -2.240416       -60.9648
  33   1.0000      -2.238512       -60.9130
  34   1.0000      -2.238195       -60.9044
  35   1.0000      -2.238139       -60.9029
  36   1.0000      -2.237082       -60.8741
  37   1.0000      -2.236618       -60.8615
  38   1.0000      -2.236541       -60.8594
  39   1.0000      -2.235464       -60.8301
  40   1.0000      -2.235299       -60.8256
  41   1.0000      -2.235252       -60.8243
  42   1.0000      -2.234138       -60.7940
  43   1.0000      -2.232518       -60.7499
  44   1.0000      -2.230491       -60.6947
  45   1.0000      -2.227701       -60.6188
  46   1.0000      -2.227265       -60.6070
  47   1.0000      -2.226885       -60.5966
  48   1.0000      -2.225853       -60.5685
  49   1.0000      -2.224488       -60.5314
  50   1.0000      -2.220075       -60.4113
  51   1.0000      -2.219766       -60.4029
  52   1.0000      -2.219446       -60.3942
  53   1.0000      -2.212915       -60.2165
  54   1.0000      -1.842138       -50.1271
  55   1.0000      -1.841592       -50.1123
  56   1.0000      -1.841230       -50.1024
  57   1.0000      -0.419304       -11.4099
  58   1.0000      -0.388081       -10.5602
  59   1.0000      -0.384181       -10.4541
  60   1.0000      -0.378148       -10.2899
  61   1.0000      -0.366706        -9.9786
  62   1.0000      -0.366189        -9.9645
  63   1.0000      -0.357910        -9.7392
  64   1.0000      -0.354878        -9.6567
  65   1.0000      -0.352496        -9.5919
  66   1.0000      -0.347843        -9.4653
  67   1.0000      -0.340917        -9.2768
  68   1.0000      -0.338648        -9.2151
  69   1.0000      -0.335414        -9.1271
  70   1.0000      -0.331797        -9.0287
  71   1.0000      -0.329588        -8.9685
  72   1.0000      -0.327020        -8.8987
  73   1.0000      -0.325944        -8.8694
  74   1.0000      -0.323959        -8.8154
  75   1.0000      -0.322092        -8.7646
  76   1.0000      -0.318632        -8.6704
  77   1.0000      -0.315759        -8.5922
  78   1.0000      -0.311116        -8.4659
  79   1.0000      -0.308312        -8.3896
  80   1.0000      -0.307117        -8.3571
  81   1.0000      -0.306161        -8.3311
  82   1.0000      -0.303700        -8.2641
  83   1.0000      -0.297374        -8.0919
  84   1.0000      -0.294919        -8.0252
  85   1.0000      -0.294191        -8.0053
  86   1.0000      -0.292999        -7.9729
  87   1.0000      -0.290217        -7.8972
  88   1.0000      -0.289748        -7.8844
  89   1.0000      -0.289106        -7.8670
  90   1.0000      -0.286712        -7.8018
  91   1.0000      -0.282076        -7.6757
  92   1.0000      -0.280635        -7.6365
  93   1.0000      -0.280186        -7.6243
  94   1.0000      -0.278436        -7.5766
  95   1.0000      -0.277200        -7.5430
  96   1.0000      -0.276643        -7.5278
  97   1.0000      -0.276195        -7.5157
  98   1.0000      -0.275133        -7.4868
  99   1.0000      -0.271757        -7.3949
 100   1.0000      -0.271328        -7.3832
 101   1.0000      -0.269380        -7.3302
 102   1.0000      -0.266952        -7.2641
 103   1.0000      -0.264751        -7.2043
 104   1.0000      -0.264066        -7.1856
 105   1.0000      -0.262793        -7.1510
 106   1.0000      -0.261932        -7.1275
 107   1.0000      -0.259411        -7.0589
 108   1.0000      -0.257920        -7.0184
 109   1.0000      -0.255951        -6.9648
 110   1.0000      -0.253073        -6.8865
 111   1.0000      -0.252273        -6.8647
 112   1.0000      -0.250841        -6.8257
 113   1.0000      -0.250274        -6.8103
 114   1.0000      -0.248217        -6.7543
 115   1.0000      -0.245333        -6.6759
 116   1.0000      -0.244892        -6.6639
 117   1.0000      -0.244525        -6.6539
 118   1.0000      -0.236651        -6.4396
 119   1.0000      -0.234456        -6.3799
 120   1.0000      -0.230663        -6.2767
 121   1.0000      -0.223648        -6.0858
 122   1.0000      -0.210629        -5.7315
 123   1.0000      -0.198300        -5.3960
 124   0.0000      -0.161843        -4.4040
 125   0.0000      -0.155295        -4.2258
 126   0.0000      -0.143689        -3.9100
 127   0.0000      -0.138326        -3.7640
 128   0.0000      -0.133056        -3.6206

MULLIKEN ATOMIC CHARGES AND SPIN POPULATIONS
--------------------------------------------
   0 Au:    0.070371    0.077337
   1 Au:   -0.248965    0.005992
   2 Au:    0.039308    0.032044
   3 Au:    0.048409    0.047334
   4 Au:    0.445614    0.075900
   5 Au:    0.438438    0.074693
   6 Au:    0.060978    0.050210
   7 Au:    0.067927    0.078584
   8 Au:    0.379216    0.035845
   9 Au:    0.035168    0.033527
  10 Au:    0.322030    0.063095
  11 Au:    0.021258    0.109010
  12 Mn:   -1.679752    4.316430
Sum of atomic charges         :   -0.0000000

LOEWDIN ATOMIC CHARGES AND SPIN POPULATIONS
-------------------------------------------
   0 Au:   -0.004227    0.070426
   1 Au:   -0.113261    0.040522
   2 Au:    0.002083    0.040210
   3 Au:    0.040495    0.059821
   4 Au:    0.134839    0.052855
   5 Au:    0.131805    0.051675
   6 Au:    0.043223    0.061863
   7 Au:    0.000184    0.071275
   8 Au:    0.068569    0.036548
   9 Au:    0.005760    0.041563
  10 Au:    0.089746    0.066047
  11 Au:   -0.016929    0.089523
  12 Mn:   -0.382287    4.317672

  Mayer bond orders larger than 0.100000
B(  0-Au,  3-Au) :   0.5401 B(  0-Au,  7-Au) :   0.1421 B(  0-Au,  8-Au) :   0.3686
B(  0-Au, 12-Mn) :   0.4976 B(  1-Au,  2-Au) :   0.2227 B(  1-Au,  3-Au) :   0.2742
B(  1-Au,  4-Au) :   0.4858 B(  1-Au,  5-Au) :   0.4888 B(  1-Au,  6-Au) :   0.2744
B(  1-Au,  9-Au) :   0.2181 B(  1-Au, 12-Mn) :   0.2514 B(  2-Au,  3-Au) :   0.1083
B(  2-Au,  4-Au) :   0.3201 B(  2-Au,  9-Au) :   0.4189 B(  2-Au, 10-Au) :   0.2314
B(  2-Au, 12-Mn) :   0.3547 B(  3-Au,  4-Au) :   0.2801 B(  3-Au, 12-Mn) :   0.5377
B(  5-Au,  6-Au) :   0.2762 B(  5-Au,  9-Au) :   0.3219 B(  6-Au,  7-Au) :   0.5325
B(  6-Au, 12-Mn) :   0.5401 B(  7-Au,  8-Au) :   0.3693 B(  7-Au, 12-Mn) :   0.5034
B(  8-Au, 11-Au) :   0.2945 B(  9-Au, 10-Au) :   0.2300 B(  9-Au, 12-Mn) :   0.3529
B( 10-Au, 11-Au) :   0.4622 B( 10-Au, 12-Mn) :   0.5252 B( 11-Au, 12-Mn) :   0.5181

FINAL SINGLE POINT ENERGY     -2780.709100066588

DIPOLE MOMENT
-------------
                                X             Y             Z
Electronic contribution:    -19.59794      -5.74029      -2.28872
Nuclear contribution   :     18.73347       5.71418       2.31836
                        -----------------------------------------
Total Dipole Moment    :     -0.86447      -0.02612       0.02964
                        -----------------------------------------
Magnitude (a.u.)       :      0.86538
Magnitude (Debye)      :      2.19961

Rotational constants in cm-1:     0.001608     0.000971     0.000892
Rotational constants in MHz :    48.201623    29.097495    26.750089

                             ****ORCA TERMINATED NORMALLY****
TOTAL RUN TIME: 0 days 5 hours 36 minutes 43 seconds 821 msec
