                         Program Version 5.0.3 -  RELEASE  -
|  1> !SC-NEVPT2 def2-TZVP def2-TZVP/C
|  2> !MOREAD RIJCOSX def2/J
|  3> %maxcore 4000
|  4> %moinp "casscf.gbw"
|  5> %pal nprocs 8 end
|  6>
|  7> %casscf
|  8>  mult 5,3
|  9>  bweight 1,1
| 10>  nroots 5,45
| 11>  nel 6
| 12>  norb 5
| 13>  ptsettings
| 14>   d4tpre 1e-14 # default = 1e-10
| 15>   d3tpre 1e-14
| 16>  end
| 17>  rel
| 18>    dosoc true
| 19>    gtensor true
| 20>  end
| 21> end
| 22>
| 23>
| 24> *xyzfile 0 5 pbe.xyz
| 25>
| 26>
| 27>                          ****END OF INPUT****

CARTESIAN COORDINATES (ANGSTROEM)
---------------------------------
  Au     9.145543    9.237792    5.880054
  Au     7.964487    6.313360    9.507848
  Au     6.178756    8.185521   10.018518
  Au     5.641031    6.270815    7.877025
  Au     5.821215   10.748823    9.142570
  Au     4.654463    7.569210    5.551415
  Au     7.940269   11.039934    7.452347
  Au     4.334213    8.878692    7.819234
  Au     9.190346    6.719805    6.900815
  Au    10.065501    4.819547    8.669165
  Au     7.702966    4.369543    7.313801
  Au     7.474886    7.344168    4.872079
  Au     5.469584    6.563915    3.169354
  Au     6.040668    4.978598    5.353148
  Cr     7.013087    8.564630    7.457202

 Total Charge           Charge          ....    0
 Multiplicity           Mult            ....    5
 Number of Electrons    NEL             ....  290
 Basis Dimension        Dim             ....  605

ORBITAL ENERGIES
----------------

  NO   OCC          E(Eh)            E(eV)
   0   2.0000    -220.494261     -5999.9539
   1   2.0000     -26.330927      -716.5009
   2   2.0000     -22.267434      -605.9277
   3   2.0000     -22.261394      -605.7633
   4   2.0000     -22.251133      -605.4841
   5   2.0000      -4.720840      -128.4606
   6   2.0000      -4.718137      -128.3870
   7   2.0000      -4.717865      -128.3796
   8   2.0000      -4.710571      -128.1812
   9   2.0000      -4.704721      -128.0220
  10   2.0000      -4.704563      -128.0177
  11   2.0000      -4.704339      -128.0116
  12   2.0000      -4.703052      -127.9766
  13   2.0000      -4.702817      -127.9702
  14   2.0000      -4.702652      -127.9657
  15   2.0000      -4.702004      -127.9480
  16   2.0000      -4.701949      -127.9465
  17   2.0000      -4.701677      -127.9391
  18   2.0000      -4.701155      -127.9249
  19   2.0000      -3.385561       -92.1258
  20   2.0000      -2.763879       -75.2090
  21   2.0000      -2.758348       -75.0585
  22   2.0000      -2.757956       -75.0478
  23   2.0000      -2.756929       -75.0199
  24   2.0000      -2.753282       -74.9206
  25   2.0000      -2.752745       -74.9060
  26   2.0000      -2.752543       -74.9005
  27   2.0000      -2.752269       -74.8931
  28   2.0000      -2.750357       -74.8410
  29   2.0000      -2.749089       -74.8065
  30   2.0000      -2.748509       -74.7907
  31   2.0000      -2.747517       -74.7637
  32   2.0000      -2.746767       -74.7433
  33   2.0000      -2.745789       -74.7167
  34   2.0000      -2.744736       -74.6881
  35   2.0000      -2.743880       -74.6648
  36   2.0000      -2.742627       -74.6307
  37   2.0000      -2.742241       -74.6202
  38   2.0000      -2.742041       -74.6147
  39   2.0000      -2.740682       -74.5777
  40   2.0000      -2.739356       -74.5417
  41   2.0000      -2.739060       -74.5336
  42   2.0000      -2.738921       -74.5298
  43   2.0000      -2.738288       -74.5126
  44   2.0000      -2.737998       -74.5047
  45   2.0000      -2.737758       -74.4982
  46   2.0000      -2.737378       -74.4878
  47   2.0000      -2.737053       -74.4790
  48   2.0000      -2.736686       -74.4690
  49   2.0000      -2.736347       -74.4598
  50   2.0000      -2.736337       -74.4595
  51   2.0000      -2.736190       -74.4555
  52   2.0000      -2.736005       -74.4505
  53   2.0000      -2.735432       -74.4349
  54   2.0000      -2.734985       -74.4227
  55   2.0000      -2.734889       -74.4201
  56   2.0000      -2.734605       -74.4124
  57   2.0000      -2.734556       -74.4111
  58   2.0000      -2.734035       -74.3969
  59   2.0000      -2.733338       -74.3779
  60   2.0000      -2.733058       -74.3703
  61   2.0000      -2.732584       -74.3574
  62   2.0000      -2.153628       -58.6032
  63   2.0000      -2.149015       -58.4777
  64   2.0000      -2.137226       -58.1569
  65   2.0000      -0.577182       -15.7059
  66   2.0000      -0.558810       -15.2060
  67   2.0000      -0.556150       -15.1336
  68   2.0000      -0.546979       -14.8841
  69   2.0000      -0.546121       -14.8607
  70   2.0000      -0.543108       -14.7787
  71   2.0000      -0.541929       -14.7466
  72   2.0000      -0.538690       -14.6585
  73   2.0000      -0.535056       -14.5596
  74   2.0000      -0.534853       -14.5541
  75   2.0000      -0.532047       -14.4777
  76   2.0000      -0.530096       -14.4246
  77   2.0000      -0.529036       -14.3958
  78   2.0000      -0.525021       -14.2865
  79   2.0000      -0.523457       -14.2440
  80   2.0000      -0.519410       -14.1339
  81   2.0000      -0.517525       -14.0826
  82   2.0000      -0.512951       -13.9581
  83   2.0000      -0.511680       -13.9235
  84   2.0000      -0.510749       -13.8982
  85   2.0000      -0.507402       -13.8071
  86   2.0000      -0.503396       -13.6981
  87   2.0000      -0.501266       -13.6401
  88   2.0000      -0.497028       -13.5248
  89   2.0000      -0.495396       -13.4804
  90   2.0000      -0.493965       -13.4415
  91   2.0000      -0.493580       -13.4310
  92   2.0000      -0.487649       -13.2696
  93   2.0000      -0.486608       -13.2413
  94   2.0000      -0.484626       -13.1874
  95   2.0000      -0.481851       -13.1118
  96   2.0000      -0.477335       -12.9889
  97   2.0000      -0.474398       -12.9090
  98   2.0000      -0.473296       -12.8790
  99   2.0000      -0.470582       -12.8052
 100   2.0000      -0.467412       -12.7189
 101   2.0000      -0.467192       -12.7129
 102   2.0000      -0.461178       -12.5493
 103   2.0000      -0.460138       -12.5210
 104   2.0000      -0.459844       -12.5130
 105   2.0000      -0.458476       -12.4758
 106   2.0000      -0.456171       -12.4130
 107   2.0000      -0.453822       -12.3491
 108   2.0000      -0.451851       -12.2955
 109   2.0000      -0.447533       -12.1780
 110   2.0000      -0.447503       -12.1772
 111   2.0000      -0.446436       -12.1481
 112   2.0000      -0.445062       -12.1108
 113   2.0000      -0.444207       -12.0875
 114   2.0000      -0.442252       -12.0343
 115   2.0000      -0.441692       -12.0191
 116   2.0000      -0.440829       -11.9956
 117   2.0000      -0.439046       -11.9470
 118   2.0000      -0.437480       -11.9044
 119   2.0000      -0.437007       -11.8916
 120   2.0000      -0.433806       -11.8045
 121   2.0000      -0.432857       -11.7786
 122   2.0000      -0.430590       -11.7169
 123   2.0000      -0.424549       -11.5526
 124   2.0000      -0.423823       -11.5328
 125   2.0000      -0.423318       -11.5191
 126   2.0000      -0.420260       -11.4359
 127   2.0000      -0.415886       -11.3168
 128   2.0000      -0.414305       -11.2738
 129   2.0000      -0.410729       -11.1765
 130   2.0000      -0.405452       -11.0329
 131   2.0000      -0.404896       -11.0178
 132   2.0000      -0.396692       -10.7945
 133   2.0000      -0.395414       -10.7598
 134   2.0000      -0.387844       -10.5538
 135   2.0000      -0.380479       -10.3534
 136   2.0000      -0.365929        -9.9574
 137   2.0000      -0.360311        -9.8046
 138   2.0000      -0.338918        -9.2224
 139   2.0000      -0.263066        -7.1584
 140   2.0000      -0.243990        -6.6393
 141   2.0000      -0.238828        -6.4989
 142   1.2000      -0.138199        -3.7606
 143   1.2000      -0.117365        -3.1937
 144   1.2000      -0.089455        -2.4342
 145   1.2000      -0.092266        -2.5107
 146   1.2000      -0.074040        -2.0147
 147   0.0000      -0.017520        -0.4767
 148   0.0000      -0.012593        -0.3427
 149   0.0000       0.007482         0.2036
 150   0.0000       0.008687         0.2364
 151   0.0000       0.017987         0.4894

MULLIKEN ATOMIC CHARGES AND SPIN DENSITIES
------------------------------------------
   0 Au:    0.609377    0.057151
   1 Au:   -0.285646    0.026515
   2 Au:    0.436028    0.026052
   3 Au:   -0.079375    0.010904
   4 Au:    0.431069    0.055281
   5 Au:   -0.281535    0.026312
   6 Au:    0.108707    0.131038
   7 Au:    0.434914    0.025761
   8 Au:   -0.378756    0.033559
   9 Au:    0.578179    0.005650
  10 Au:    0.073994    0.008779
  11 Au:   -0.409875    0.034565
  12 Au:    0.572949    0.005654
  13 Au:    0.113053    0.008520
  14 Cr:   -1.923082    2.544259
Sum of atomic charges       :    0.0000000

LOEWDIN ATOMIC CHARGES AND SPIN DENSITIES
-----------------------------------------
   0 Au:    0.185989    0.100173
   1 Au:   -0.024472    0.019348
   2 Au:    0.073835    0.043972
   3 Au:   -0.027558    0.022356
   4 Au:    0.115928    0.076304
   5 Au:   -0.023716    0.019220
   6 Au:    0.121982    0.132693
   7 Au:    0.073650    0.043881
   8 Au:   -0.047222    0.041191
   9 Au:    0.196559    0.009195
  10 Au:   -0.023516    0.014041
  11 Au:   -0.051497    0.041538
  12 Au:    0.195092    0.009112
  13 Au:   -0.019386    0.013831
  14 Cr:   -0.745670    2.413147

  Mayer bond orders larger than 0.100000
B(  0-Au,  6-Au) :   0.2203 B(  0-Au,  8-Au) :   0.1991 B(  0-Au, 11-Au) :   0.2022
B(  0-Au, 14-Cr) :   0.2602 B(  1-Au,  2-Au) :   0.4637 B(  1-Au,  3-Au) :   0.1866
B(  1-Au,  8-Au) :   0.3832 B(  1-Au,  9-Au) :   0.3170 B(  1-Au, 10-Au) :   0.1885
B(  1-Au, 14-Cr) :   0.3251 B(  2-Au,  3-Au) :   0.1556 B(  2-Au,  4-Au) :   0.1498
B(  2-Au, 14-Cr) :   0.3046 B(  3-Au,  5-Au) :   0.1874 B(  3-Au,  7-Au) :   0.1585
B(  3-Au, 10-Au) :   0.2906 B(  3-Au, 13-Au) :   0.2767 B(  3-Au, 14-Cr) :   0.4536
B(  4-Au,  6-Au) :   0.2821 B(  4-Au,  7-Au) :   0.1498 B(  4-Au, 14-Cr) :   0.3424
B(  5-Au,  7-Au) :   0.4628 B(  5-Au, 11-Au) :   0.3826 B(  5-Au, 12-Au) :   0.3195
B(  5-Au, 13-Au) :   0.1849 B(  5-Au, 14-Cr) :   0.3221 B(  6-Au, 14-Cr) :   0.4879
B(  7-Au, 14-Cr) :   0.3025 B(  8-Au,  9-Au) :   0.3861 B(  8-Au, 10-Au) :   0.3006
B(  8-Au, 11-Au) :   0.3362 B(  8-Au, 14-Cr) :   0.2649 B(  9-Au, 10-Au) :   0.1811
B( 10-Au, 13-Au) :   0.4716 B( 10-Au, 14-Cr) :   0.1546 B( 11-Au, 12-Au) :   0.3875
B( 11-Au, 13-Au) :   0.3063 B( 11-Au, 14-Cr) :   0.2708 B( 12-Au, 13-Au) :   0.1768
B( 13-Au, 14-Cr) :   0.1469

FINAL SINGLE POINT ENERGY     -2937.465410074837

DIPOLE MOMENT
-------------
                                X             Y             Z
Electronic contribution:     -0.80022     -42.09280     -12.65211
Nuclear contribution   :      1.40664      42.41624      12.25690
                        -----------------------------------------
Total Dipole Moment    :      0.60642       0.32344      -0.39521
                        -----------------------------------------
Magnitude (a.u.)       :      0.79281
Magnitude (Debye)      :      2.01517

Rotational constants in cm-1:     0.001018     0.000908     0.000738
Rotational constants in MHz :    30.524801    27.224677    22.131307

                             ****ORCA TERMINATED NORMALLY****
TOTAL RUN TIME: 0 days 1 hours 18 minutes 18 seconds 442 msec
