                         Program Version 5.0.3 -  RELEASE  -
|  1> %pal nprocs 1 end
|  2>
|  3> !PBE def2-TZVP OPT UNO
|  4> !SLOWCONV KDIIS
|  5>
|  6> %geom maxiter 300 end
|  7>
|  8> *xyzfile 0 5 8.xyz                           ****END OF INPUT****
 Total Charge           Charge          ....    0
 Multiplicity           Mult            ....    5
 Number of Electrons    NEL             ....  290
FINAL SINGLE POINT ENERGY     -2945.814966717026
FINAL SINGLE POINT ENERGY     -2945.817389021105
FINAL SINGLE POINT ENERGY     -2945.819038906983
FINAL SINGLE POINT ENERGY     -2945.820067363578
FINAL SINGLE POINT ENERGY     -2945.821206232885
FINAL SINGLE POINT ENERGY     -2945.822250517970
FINAL SINGLE POINT ENERGY     -2945.823184625256
FINAL SINGLE POINT ENERGY     -2945.823859507187
FINAL SINGLE POINT ENERGY     -2945.824333852994
FINAL SINGLE POINT ENERGY     -2945.824743373896
FINAL SINGLE POINT ENERGY     -2945.826861235004
FINAL SINGLE POINT ENERGY     -2945.827077563504
FINAL SINGLE POINT ENERGY     -2945.827353110010
FINAL SINGLE POINT ENERGY     -2945.827468633444
FINAL SINGLE POINT ENERGY     -2945.827497513967
FINAL SINGLE POINT ENERGY     -2945.827510730726
FINAL SINGLE POINT ENERGY     -2945.827521050873
FINAL SINGLE POINT ENERGY     -2945.827527874811
FINAL SINGLE POINT ENERGY     -2945.827530085506
                    ***********************HURRAY********************

CARTESIAN COORDINATES (ANGSTROEM)
---------------------------------
  Au     8.961145    9.195280    6.100246
  Au     5.599826   10.362498    6.877522
  Au     8.158222    7.602688    3.981937
  Au     5.314843    6.119159    7.301285
  Au     5.738330    8.150999    5.374466
  Au     5.007280    7.557717    9.539031
  Au     7.457790    4.251306    7.153596
  Au     6.392195    5.512146    4.816383
  Au     8.300849    6.101691    9.033570
  Au     7.580552    8.276803   10.580036
  Au     8.776551    6.461819    6.346844
  Au     8.113199   10.797251    8.188386
  Au     5.851630   10.243738    9.683384
  Au     9.634918    8.587897    8.781980
  Cr     6.974726    8.278805    7.862427

 Multiplicity           Mult            ....    5
 Number of Electrons    NEL             ....  290
 Basis Dimension        Dim             ....  605

ORBITAL ENERGIES
----------------
                 SPIN UP ORBITALS
  NO   OCC          E(Eh)            E(eV)
   0   1.0000    -214.483859     -5836.4025
   1   1.0000     -24.283699      -660.7931
   2   1.0000     -20.649678      -561.9063
   3   1.0000     -20.648505      -561.8744
   4   1.0000     -20.642185      -561.7024
   5   1.0000      -4.033453      -109.7558
   6   1.0000      -4.033354      -109.7531
   7   1.0000      -4.031757      -109.7097
   8   1.0000      -4.027607      -109.5968
   9   1.0000      -4.027561      -109.5955
  10   1.0000      -4.027233      -109.5866
  11   1.0000      -4.021379      -109.4273
  12   1.0000      -4.021359      -109.4267
  13   1.0000      -4.021246      -109.4237
  14   1.0000      -4.020296      -109.3978
  15   1.0000      -4.020266      -109.3970
  16   1.0000      -4.019285      -109.3703
  17   1.0000      -4.019192      -109.3678
  18   1.0000      -4.014379      -109.2368
  19   1.0000      -2.791380       -75.9573
  20   1.0000      -2.251565       -61.2682
  21   1.0000      -2.249654       -61.2162
  22   1.0000      -2.249529       -61.2128
  23   1.0000      -2.248326       -61.1801
  24   1.0000      -2.246500       -61.1304
  25   1.0000      -2.244282       -61.0700
  26   1.0000      -2.243441       -61.0471
  27   1.0000      -2.243357       -61.0449
  28   1.0000      -2.242418       -61.0193
  29   1.0000      -2.242096       -61.0105
  30   1.0000      -2.241234       -60.9871
  31   1.0000      -2.241047       -60.9820
  32   1.0000      -2.240449       -60.9657
  33   1.0000      -2.240436       -60.9654
  34   1.0000      -2.239940       -60.9519
  35   1.0000      -2.239799       -60.9480
  36   1.0000      -2.239615       -60.9430
  37   1.0000      -2.238865       -60.9226
  38   1.0000      -2.237690       -60.8906
  39   1.0000      -2.237059       -60.8735
  40   1.0000      -2.236476       -60.8576
  41   1.0000      -2.236176       -60.8495
  42   1.0000      -2.235444       -60.8295
  43   1.0000      -2.235422       -60.8289
  44   1.0000      -2.234755       -60.8108
  45   1.0000      -2.234613       -60.8069
  46   1.0000      -2.234312       -60.7987
  47   1.0000      -2.233651       -60.7807
  48   1.0000      -2.233594       -60.7792
  49   1.0000      -2.232998       -60.7630
  50   1.0000      -2.232188       -60.7409
  51   1.0000      -2.232072       -60.7378
  52   1.0000      -2.231958       -60.7347
  53   1.0000      -2.231159       -60.7129
  54   1.0000      -2.230750       -60.7018
  55   1.0000      -2.229031       -60.6550
  56   1.0000      -2.228965       -60.6532
  57   1.0000      -2.228508       -60.6408
  58   1.0000      -2.227963       -60.6259
  59   1.0000      -2.227816       -60.6220
  60   1.0000      -2.227773       -60.6208
  61   1.0000      -2.223687       -60.5096
  62   1.0000      -1.785236       -48.5788
  63   1.0000      -1.783487       -48.5312
  64   1.0000      -1.775069       -48.3021
  65   1.0000      -0.422177       -11.4880
  66   1.0000      -0.391008       -10.6399
  67   1.0000      -0.379599       -10.3294
  68   1.0000      -0.379351       -10.3227
  69   1.0000      -0.369858       -10.0643
  70   1.0000      -0.366092        -9.9619
  71   1.0000      -0.365087        -9.9345
  72   1.0000      -0.362214        -9.8564
  73   1.0000      -0.357032        -9.7153
  74   1.0000      -0.356931        -9.7126
  75   1.0000      -0.352258        -9.5854
  76   1.0000      -0.350814        -9.5461
  77   1.0000      -0.346055        -9.4166
  78   1.0000      -0.344542        -9.3755
  79   1.0000      -0.341044        -9.2803
  80   1.0000      -0.340940        -9.2774
  81   1.0000      -0.337631        -9.1874
  82   1.0000      -0.334575        -9.1043
  83   1.0000      -0.334152        -9.0928
  84   1.0000      -0.333384        -9.0718
  85   1.0000      -0.331463        -9.0196
  86   1.0000      -0.330265        -8.9870
  87   1.0000      -0.325651        -8.8614
  88   1.0000      -0.325076        -8.8458
  89   1.0000      -0.323707        -8.8085
  90   1.0000      -0.321212        -8.7406
  91   1.0000      -0.320261        -8.7148
  92   1.0000      -0.315224        -8.5777
  93   1.0000      -0.313085        -8.5195
  94   1.0000      -0.310627        -8.4526
  95   1.0000      -0.310501        -8.4492
  96   1.0000      -0.308418        -8.3925
  97   1.0000      -0.302220        -8.2238
  98   1.0000      -0.302102        -8.2206
  99   1.0000      -0.299379        -8.1465
 100   1.0000      -0.297601        -8.0981
 101   1.0000      -0.292765        -7.9665
 102   1.0000      -0.289368        -7.8741
 103   1.0000      -0.288817        -7.8591
 104   1.0000      -0.287343        -7.8190
 105   1.0000      -0.284261        -7.7351
 106   1.0000      -0.281176        -7.6512
 107   1.0000      -0.280001        -7.6192
 108   1.0000      -0.279035        -7.5929
 109   1.0000      -0.278225        -7.5709
 110   1.0000      -0.275484        -7.4963
 111   1.0000      -0.273812        -7.4508
 112   1.0000      -0.272864        -7.4250
 113   1.0000      -0.271682        -7.3928
 114   1.0000      -0.271340        -7.3835
 115   1.0000      -0.270055        -7.3486
 116   1.0000      -0.267258        -7.2725
 117   1.0000      -0.267169        -7.2700
 118   1.0000      -0.265139        -7.2148
 119   1.0000      -0.263941        -7.1822
 120   1.0000      -0.261443        -7.1142
 121   1.0000      -0.261393        -7.1129
 122   1.0000      -0.260310        -7.0834
 123   1.0000      -0.257718        -7.0129
 124   1.0000      -0.256546        -6.9810
 125   1.0000      -0.255435        -6.9507
 126   1.0000      -0.253568        -6.8999
 127   1.0000      -0.252247        -6.8640
 128   1.0000      -0.252063        -6.8590
 129   1.0000      -0.250503        -6.8165
 130   1.0000      -0.249548        -6.7906
 131   1.0000      -0.247498        -6.7348
 132   1.0000      -0.246483        -6.7071
 133   1.0000      -0.243325        -6.6212
 134   1.0000      -0.242942        -6.6108
 135   1.0000      -0.241796        -6.5796
 136   1.0000      -0.240758        -6.5514
 137   1.0000      -0.236168        -6.4265
 138   1.0000      -0.233786        -6.3616
 139   1.0000      -0.220805        -6.0084
 140   1.0000      -0.218815        -5.9543
 141   1.0000      -0.215453        -5.8628
 142   1.0000      -0.214009        -5.8235
 143   1.0000      -0.210285        -5.7221
 144   1.0000      -0.189941        -5.1686
 145   1.0000      -0.189877        -5.1668
 146   1.0000      -0.182608        -4.9690
 147   0.0000      -0.169884        -4.6228
 148   0.0000      -0.160265        -4.3610
 149   0.0000      -0.139774        -3.8035
 150   0.0000      -0.137842        -3.7509
 151   0.0000      -0.126433        -3.4404

                 SPIN DOWN ORBITALS
  NO   OCC          E(Eh)            E(eV)
   0   1.0000    -214.483432     -5836.3909
   1   1.0000     -24.235293      -659.4758
   2   1.0000     -20.614909      -560.9602
   3   1.0000     -20.613007      -560.9084
   4   1.0000     -20.601518      -560.5958
   5   1.0000      -4.032811      -109.7384
   6   1.0000      -4.032720      -109.7359
   7   1.0000      -4.030793      -109.6834
   8   1.0000      -4.026992      -109.5800
   9   1.0000      -4.026953      -109.5790
  10   1.0000      -4.026529      -109.5674
  11   1.0000      -4.020768      -109.4107
  12   1.0000      -4.020393      -109.4005
  13   1.0000      -4.020277      -109.3973
  14   1.0000      -4.019560      -109.3778
  15   1.0000      -4.019530      -109.3770
  16   1.0000      -4.019106      -109.3654
  17   1.0000      -4.019013      -109.3629
  18   1.0000      -4.014122      -109.2298
  19   1.0000      -2.660558       -72.3975
  20   1.0000      -2.250654       -61.2434
  21   1.0000      -2.248992       -61.1982
  22   1.0000      -2.248773       -61.1922
  23   1.0000      -2.247466       -61.1567
  24   1.0000      -2.245682       -61.1081
  25   1.0000      -2.243225       -61.0412
  26   1.0000      -2.242841       -61.0308
  27   1.0000      -2.242760       -61.0286
  28   1.0000      -2.241791       -61.0022
  29   1.0000      -2.241384       -60.9911
  30   1.0000      -2.240424       -60.9650
  31   1.0000      -2.240258       -60.9605
  32   1.0000      -2.239747       -60.9466
  33   1.0000      -2.239561       -60.9416
  34   1.0000      -2.239079       -60.9284
  35   1.0000      -2.238906       -60.9237
  36   1.0000      -2.238685       -60.9177
  37   1.0000      -2.238143       -60.9030
  38   1.0000      -2.237123       -60.8752
  39   1.0000      -2.236476       -60.8576
  40   1.0000      -2.235668       -60.8356
  41   1.0000      -2.235125       -60.8208
  42   1.0000      -2.234545       -60.8051
  43   1.0000      -2.234525       -60.8045
  44   1.0000      -2.234378       -60.8005
  45   1.0000      -2.234251       -60.7971
  46   1.0000      -2.233678       -60.7815
  47   1.0000      -2.232972       -60.7623
  48   1.0000      -2.232861       -60.7592
  49   1.0000      -2.232289       -60.7437
  50   1.0000      -2.231792       -60.7302
  51   1.0000      -2.231574       -60.7242
  52   1.0000      -2.231326       -60.7175
  53   1.0000      -2.230531       -60.6958
  54   1.0000      -2.230298       -60.6895
  55   1.0000      -2.228581       -60.6428
  56   1.0000      -2.228529       -60.6414
  57   1.0000      -2.228143       -60.6309
  58   1.0000      -2.227589       -60.6158
  59   1.0000      -2.227041       -60.6009
  60   1.0000      -2.226998       -60.5997
  61   1.0000      -2.223513       -60.5049
  62   1.0000      -1.663356       -45.2622
  63   1.0000      -1.659333       -45.1527
  64   1.0000      -1.634079       -44.4655
  65   1.0000      -0.416164       -11.3244
  66   1.0000      -0.388068       -10.5599
  67   1.0000      -0.377955       -10.2847
  68   1.0000      -0.377885       -10.2828
  69   1.0000      -0.366660        -9.9773
  70   1.0000      -0.364488        -9.9182
  71   1.0000      -0.362327        -9.8594
  72   1.0000      -0.358842        -9.7646
  73   1.0000      -0.356182        -9.6922
  74   1.0000      -0.353068        -9.6075
  75   1.0000      -0.350084        -9.5263
  76   1.0000      -0.348443        -9.4816
  77   1.0000      -0.343901        -9.3580
  78   1.0000      -0.343245        -9.3402
  79   1.0000      -0.338987        -9.2243
  80   1.0000      -0.338514        -9.2114
  81   1.0000      -0.335736        -9.1358
  82   1.0000      -0.333521        -9.0756
  83   1.0000      -0.332253        -9.0411
  84   1.0000      -0.330843        -9.0027
  85   1.0000      -0.329911        -8.9773
  86   1.0000      -0.329328        -8.9615
  87   1.0000      -0.324600        -8.8328
  88   1.0000      -0.323544        -8.8041
  89   1.0000      -0.322644        -8.7796
  90   1.0000      -0.320657        -8.7255
  91   1.0000      -0.318849        -8.6763
  92   1.0000      -0.313847        -8.5402
  93   1.0000      -0.311395        -8.4735
  94   1.0000      -0.309272        -8.4157
  95   1.0000      -0.308486        -8.3943
  96   1.0000      -0.305931        -8.3248
  97   1.0000      -0.300838        -8.1862
  98   1.0000      -0.299718        -8.1558
  99   1.0000      -0.297655        -8.0996
 100   1.0000      -0.295368        -8.0374
 101   1.0000      -0.292179        -7.9506
 102   1.0000      -0.286662        -7.8005
 103   1.0000      -0.286331        -7.7915
 104   1.0000      -0.285150        -7.7593
 105   1.0000      -0.282683        -7.6922
 106   1.0000      -0.280654        -7.6370
 107   1.0000      -0.278486        -7.5780
 108   1.0000      -0.278014        -7.5651
 109   1.0000      -0.277030        -7.5384
 110   1.0000      -0.274927        -7.4811
 111   1.0000      -0.273146        -7.4327
 112   1.0000      -0.271866        -7.3979
 113   1.0000      -0.270781        -7.3683
 114   1.0000      -0.270225        -7.3532
 115   1.0000      -0.268962        -7.3188
 116   1.0000      -0.266573        -7.2538
 117   1.0000      -0.266467        -7.2509
 118   1.0000      -0.264740        -7.2039
 119   1.0000      -0.262962        -7.1556
 120   1.0000      -0.260738        -7.0950
 121   1.0000      -0.260678        -7.0934
 122   1.0000      -0.259711        -7.0671
 123   1.0000      -0.256480        -6.9792
 124   1.0000      -0.256034        -6.9670
 125   1.0000      -0.254582        -6.9275
 126   1.0000      -0.253053        -6.8859
 127   1.0000      -0.251363        -6.8399
 128   1.0000      -0.251235        -6.8365
 129   1.0000      -0.249706        -6.7949
 130   1.0000      -0.248707        -6.7677
 131   1.0000      -0.246579        -6.7098
 132   1.0000      -0.245719        -6.6864
 133   1.0000      -0.242594        -6.6013
 134   1.0000      -0.241940        -6.5835
 135   1.0000      -0.240897        -6.5551
 136   1.0000      -0.239476        -6.5165
 137   1.0000      -0.235441        -6.4067
 138   1.0000      -0.232958        -6.3391
 139   1.0000      -0.217405        -5.9159
 140   1.0000      -0.213352        -5.8056
 141   1.0000      -0.206051        -5.6069
 142   1.0000      -0.204706        -5.5703
 143   0.0000      -0.168902        -4.5961
 144   0.0000      -0.146456        -3.9853
 145   0.0000      -0.140270        -3.8169
 146   0.0000      -0.128739        -3.5032
 147   0.0000      -0.128556        -3.4982

MULLIKEN ATOMIC CHARGES AND SPIN POPULATIONS
--------------------------------------------
   0 Au:    0.333795   -0.000483
   1 Au:    0.314156    0.006031
   2 Au:    0.295051    0.089622
   3 Au:    0.137346    0.016538
   4 Au:    0.136217    0.017021
   5 Au:    0.314461    0.005896
   6 Au:    0.296818    0.089511
   7 Au:    0.243557    0.087296
   8 Au:    0.331918   -0.000168
   9 Au:    0.517170    0.029781
  10 Au:   -0.106745    0.040616
  11 Au:    0.516846    0.029750
  12 Au:    0.466626    0.036324
  13 Au:    0.418518    0.044246
  14 Cr:   -4.215734    3.508018
Sum of atomic charges         :   -0.0000000

LOEWDIN ATOMIC CHARGES AND SPIN POPULATIONS
-------------------------------------------
   0 Au:    0.105174    0.016415
   1 Au:    0.156400   -0.000053
   2 Au:    0.108449    0.058592
   3 Au:    0.042125    0.030152
   4 Au:    0.042269    0.030295
   5 Au:    0.156401   -0.000018
   6 Au:    0.108966    0.058562
   7 Au:    0.014735    0.068084
   8 Au:    0.104758    0.016658
   9 Au:    0.102795    0.007894
  10 Au:   -0.033108    0.055761
  11 Au:    0.102591    0.007812
  12 Au:    0.097239    0.018749
  13 Au:    0.117610    0.017311
  14 Cr:   -1.226404    3.613785

  Mayer bond orders larger than 0.100000
B(  0-Au,  2-Au) :   0.2569 B(  0-Au, 10-Au) :   0.2881 B(  0-Au, 11-Au) :   0.2499
B(  0-Au, 13-Au) :   0.2223 B(  0-Au, 14-Cr) :   0.6645 B(  1-Au,  4-Au) :   0.3612
B(  1-Au, 11-Au) :   0.2119 B(  1-Au, 12-Au) :   0.2365 B(  1-Au, 14-Cr) :   0.6850
B(  2-Au,  4-Au) :   0.1833 B(  2-Au,  7-Au) :   0.2080 B(  2-Au, 10-Au) :   0.4155
B(  2-Au, 14-Cr) :   0.3326 B(  3-Au,  4-Au) :   0.2862 B(  3-Au,  5-Au) :   0.3605
B(  3-Au,  6-Au) :   0.1833 B(  3-Au,  7-Au) :   0.2657 B(  3-Au, 14-Cr) :   0.5016
B(  4-Au,  7-Au) :   0.2657 B(  4-Au, 14-Cr) :   0.5004 B(  5-Au,  9-Au) :   0.2127
B(  5-Au, 12-Au) :   0.2373 B(  5-Au, 14-Cr) :   0.6826 B(  6-Au,  7-Au) :   0.2070
B(  6-Au,  8-Au) :   0.2581 B(  6-Au, 10-Au) :   0.4159 B(  6-Au, 14-Cr) :   0.3317
B(  7-Au, 10-Au) :   0.1262 B(  7-Au, 14-Cr) :   0.2867 B(  8-Au,  9-Au) :   0.2513
B(  8-Au, 10-Au) :   0.2858 B(  8-Au, 13-Au) :   0.2218 B(  8-Au, 14-Cr) :   0.6688
B(  9-Au, 12-Au) :   0.2477 B(  9-Au, 13-Au) :   0.2206 B(  9-Au, 14-Cr) :   0.4559
B( 10-Au, 14-Cr) :   0.4359 B( 11-Au, 12-Au) :   0.2480 B( 11-Au, 13-Au) :   0.2212
B( 11-Au, 14-Cr) :   0.4570 B( 12-Au, 14-Cr) :   0.2882 B( 13-Au, 14-Cr) :   0.5100

FINAL SINGLE POINT ENERGY     -2945.827531517033

DIPOLE MOMENT
-------------
                                X             Y             Z
Electronic contribution:      8.33713     -16.69601     -15.72324
Nuclear contribution   :     -8.15161      16.80614      15.88321
                        -----------------------------------------
Total Dipole Moment    :      0.18552       0.11012       0.15997
                        -----------------------------------------
Magnitude (a.u.)       :      0.26858
Magnitude (Debye)      :      0.68268

Rotational constants in cm-1:     0.001258     0.000921     0.000848
Rotational constants in MHz :    37.724285    27.625388    25.420588

                             ****ORCA TERMINATED NORMALLY****
TOTAL RUN TIME: 0 days 4 hours 31 minutes 52 seconds 316 msec
