                         Program Version 5.0.3 -  RELEASE  -
|  1> !RI-B2PLYP def2-TZVP def2-TZVP/C
|  2> !RIJCOSX VERYSLOWCONV
|  3>
|  4> %scf
|  5>   AutoTRAHIter 200
|  6>   maxiter 400
|  7> end
|  8>
|  9>
| 10> %pal nprocs 6 end
| 11>
| 12> *xyzfile 0 5 pbe.xyz
| 13>
| 14> $new_job
| 15>
| 16> !RI-B2PLYP def2-TZVP def2-TZVP/C
| 17> !RIJCOSX VERYSLOWCONV
| 18>
| 19> %scf
| 20>   AutoTRAHIter 200
| 21>   maxiter 400
| 22> end
| 23>
| 24>
| 25> %pal nprocs 6 end
| 26>
| 27> *xyzfile 0 3 pbe.xyz
| 28>
| 29>
| 30>
| 31>
| 32>
| 33>                          ****END OF INPUT****
 Total Charge           Charge          ....    0
 Multiplicity           Mult            ....    5
 Number of Electrons    NEL             ....  252
MP2 TOTAL ENERGY:    -2671.309390172 Eh
FINAL SINGLE POINT ENERGY     -2671.309390171915

CARTESIAN COORDINATES (ANGSTROEM)
---------------------------------
  Au     5.328275    9.567976    7.323774
  Au     7.575423    9.303226    5.417949
  Au     4.960829    7.143365    8.353148
  Au     7.025797   10.230007    9.396678
  Au     7.242756   11.630786    6.996804
  Au     6.867947    7.722371   10.467255
  Au     8.770025    5.000649    7.557753
  Au    10.176458    7.346608    7.630232
  Au     9.348319    8.761463    9.849047
  Au     8.300031    6.746013    5.494392
  Au     9.448486    9.961889    7.335872
  Au     6.685174    5.245023    9.316887
  Cr     7.511962    7.784978    7.836740

 Multiplicity           Mult            ....    3
 Number of Electrons    NEL             ....  252
 Basis Dimension        Dim             ....  525

ORBITAL ENERGIES
----------------
                 SPIN UP ORBITALS
  NO   OCC          E(Eh)            E(eV)
   0   1.0000    -217.772633     -5925.8946
   1   1.0000     -25.458912      -692.7722
   2   1.0000     -21.598516      -587.7255
   3   1.0000     -21.598300      -587.7196
   4   1.0000     -21.592136      -587.5519
   5   1.0000      -4.404393      -119.8496
   6   1.0000      -4.404270      -119.8463
   7   1.0000      -4.397120      -119.6517
   8   1.0000      -4.394574      -119.5824
   9   1.0000      -4.394517      -119.5809
  10   1.0000      -4.394466      -119.5795
  11   1.0000      -4.394204      -119.5724
  12   1.0000      -4.392708      -119.5317
  13   1.0000      -4.392555      -119.5275
  14   1.0000      -4.385437      -119.3338
  15   1.0000      -4.384257      -119.3017
  16   1.0000      -4.383835      -119.2902
  17   1.0000      -3.245649       -88.3186
  18   1.0000      -2.525812       -68.7308
  19   1.0000      -2.525585       -68.7247
  20   1.0000      -2.523342       -68.6636
  21   1.0000      -2.523163       -68.6588
  22   1.0000      -2.519771       -68.5664
  23   1.0000      -2.519639       -68.5629
  24   1.0000      -2.516918       -68.4888
  25   1.0000      -2.516350       -68.4734
  26   1.0000      -2.516267       -68.4711
  27   1.0000      -2.515432       -68.4484
  28   1.0000      -2.514399       -68.4203
  29   1.0000      -2.514208       -68.4151
  30   1.0000      -2.513900       -68.4067
  31   1.0000      -2.513498       -68.3958
  32   1.0000      -2.513153       -68.3864
  33   1.0000      -2.512610       -68.3716
  34   1.0000      -2.511759       -68.3484
  35   1.0000      -2.510861       -68.3240
  36   1.0000      -2.509825       -68.2958
  37   1.0000      -2.509402       -68.2843
  38   1.0000      -2.508986       -68.2730
  39   1.0000      -2.508790       -68.2676
  40   1.0000      -2.508262       -68.2533
  41   1.0000      -2.507583       -68.2348
  42   1.0000      -2.507507       -68.2327
  43   1.0000      -2.506777       -68.2129
  44   1.0000      -2.506036       -68.1927
  45   1.0000      -2.504128       -68.1408
  46   1.0000      -2.502604       -68.0993
  47   1.0000      -2.502479       -68.0959
  48   1.0000      -2.502330       -68.0919
  49   1.0000      -2.502180       -68.0878
  50   1.0000      -2.500436       -68.0403
  51   1.0000      -2.498832       -67.9967
  52   1.0000      -2.498612       -67.9907
  53   1.0000      -2.497854       -67.9700
  54   1.0000      -2.136108       -58.1265
  55   1.0000      -2.127181       -57.8835
  56   1.0000      -2.126799       -57.8731
  57   1.0000      -0.491738       -13.3809
  58   1.0000      -0.479584       -13.0501
  59   1.0000      -0.473213       -12.8768
  60   1.0000      -0.470894       -12.8137
  61   1.0000      -0.465602       -12.6697
  62   1.0000      -0.463378       -12.6091
  63   1.0000      -0.453408       -12.3378
  64   1.0000      -0.453342       -12.3361
  65   1.0000      -0.449964       -12.2442
  66   1.0000      -0.449033       -12.2188
  67   1.0000      -0.448719       -12.2103
  68   1.0000      -0.443832       -12.0773
  69   1.0000      -0.442626       -12.0445
  70   1.0000      -0.437410       -11.9025
  71   1.0000      -0.436388       -11.8747
  72   1.0000      -0.433570       -11.7980
  73   1.0000      -0.431999       -11.7553
  74   1.0000      -0.428975       -11.6730
  75   1.0000      -0.427475       -11.6322
  76   1.0000      -0.425235       -11.5712
  77   1.0000      -0.422893       -11.5075
  78   1.0000      -0.420280       -11.4364
  79   1.0000      -0.419243       -11.4082
  80   1.0000      -0.418506       -11.3881
  81   1.0000      -0.413543       -11.2531
  82   1.0000      -0.411028       -11.1846
  83   1.0000      -0.409927       -11.1547
  84   1.0000      -0.409459       -11.1420
  85   1.0000      -0.404080       -10.9956
  86   1.0000      -0.403154       -10.9704
  87   1.0000      -0.393421       -10.7055
  88   1.0000      -0.393044       -10.6953
  89   1.0000      -0.392220       -10.6728
  90   1.0000      -0.390374       -10.6226
  91   1.0000      -0.386054       -10.5051
  92   1.0000      -0.380669       -10.3585
  93   1.0000      -0.378071       -10.2878
  94   1.0000      -0.374797       -10.1987
  95   1.0000      -0.371727       -10.1152
  96   1.0000      -0.371266       -10.1027
  97   1.0000      -0.368282       -10.0215
  98   1.0000      -0.367190        -9.9917
  99   1.0000      -0.366810        -9.9814
 100   1.0000      -0.362402        -9.8615
 101   1.0000      -0.361884        -9.8474
 102   1.0000      -0.358087        -9.7440
 103   1.0000      -0.356905        -9.7119
 104   1.0000      -0.355348        -9.6695
 105   1.0000      -0.354107        -9.6357
 106   1.0000      -0.351450        -9.5634
 107   1.0000      -0.351062        -9.5529
 108   1.0000      -0.351003        -9.5513
 109   1.0000      -0.349070        -9.4987
 110   1.0000      -0.347317        -9.4510
 111   1.0000      -0.346104        -9.4180
 112   1.0000      -0.342010        -9.3066
 113   1.0000      -0.341079        -9.2812
 114   1.0000      -0.340672        -9.2702
 115   1.0000      -0.338407        -9.2085
 116   1.0000      -0.338213        -9.2032
 117   1.0000      -0.334014        -9.0890
 118   1.0000      -0.330392        -8.9904
 119   1.0000      -0.328822        -8.9477
 120   1.0000      -0.317993        -8.6530
 121   1.0000      -0.310772        -8.4565
 122   1.0000      -0.307488        -8.3672
 123   1.0000      -0.300908        -8.1881
 124   1.0000      -0.276057        -7.5119
 125   1.0000      -0.235225        -6.4008
 126   1.0000      -0.222300        -6.0491
 127   0.0000      -0.124682        -3.3928
 128   0.0000      -0.090179        -2.4539
 129   0.0000      -0.085698        -2.3320
 130   0.0000      -0.071366        -1.9420
 131   0.0000      -0.065913        -1.7936

                 SPIN DOWN ORBITALS
  NO   OCC          E(Eh)            E(eV)
   0   1.0000    -217.771273     -5925.8576
   1   1.0000     -25.388573      -690.8582
   2   1.0000     -21.539202      -586.1115
   3   1.0000     -21.537185      -586.0566
   4   1.0000     -21.517708      -585.5266
   5   1.0000      -4.404145      -119.8429
   6   1.0000      -4.404017      -119.8394
   7   1.0000      -4.396818      -119.6435
   8   1.0000      -4.395936      -119.6195
   9   1.0000      -4.395548      -119.6089
  10   1.0000      -4.394852      -119.5900
  11   1.0000      -4.394829      -119.5894
  12   1.0000      -4.393758      -119.5602
  13   1.0000      -4.393609      -119.5562
  14   1.0000      -4.385982      -119.3486
  15   1.0000      -4.384532      -119.3092
  16   1.0000      -4.384124      -119.2981
  17   1.0000      -3.030730       -82.4703
  18   1.0000      -2.524729       -68.7014
  19   1.0000      -2.524409       -68.6927
  20   1.0000      -2.522221       -68.6331
  21   1.0000      -2.522089       -68.6295
  22   1.0000      -2.519343       -68.5548
  23   1.0000      -2.519215       -68.5513
  24   1.0000      -2.516568       -68.4793
  25   1.0000      -2.516251       -68.4707
  26   1.0000      -2.516103       -68.4667
  27   1.0000      -2.515499       -68.4502
  28   1.0000      -2.514472       -68.4223
  29   1.0000      -2.513950       -68.4081
  30   1.0000      -2.513755       -68.4027
  31   1.0000      -2.513445       -68.3943
  32   1.0000      -2.513264       -68.3894
  33   1.0000      -2.512866       -68.3786
  34   1.0000      -2.512280       -68.3626
  35   1.0000      -2.511025       -68.3285
  36   1.0000      -2.510020       -68.3011
  37   1.0000      -2.509744       -68.2936
  38   1.0000      -2.509516       -68.2874
  39   1.0000      -2.509219       -68.2793
  40   1.0000      -2.508859       -68.2695
  41   1.0000      -2.507900       -68.2434
  42   1.0000      -2.507564       -68.2343
  43   1.0000      -2.507197       -68.2243
  44   1.0000      -2.506762       -68.2125
  45   1.0000      -2.504208       -68.1430
  46   1.0000      -2.503668       -68.1283
  47   1.0000      -2.502568       -68.0983
  48   1.0000      -2.502323       -68.0917
  49   1.0000      -2.502035       -68.0838
  50   1.0000      -2.501577       -68.0714
  51   1.0000      -2.499296       -68.0093
  52   1.0000      -2.498882       -67.9980
  53   1.0000      -2.498029       -67.9748
  54   1.0000      -1.901332       -51.7379
  55   1.0000      -1.895913       -51.5904
  56   1.0000      -1.851740       -50.3884
  57   1.0000      -0.485587       -13.2135
  58   1.0000      -0.469450       -12.7744
  59   1.0000      -0.467084       -12.7100
  60   1.0000      -0.465668       -12.6715
  61   1.0000      -0.460757       -12.5378
  62   1.0000      -0.459532       -12.5045
  63   1.0000      -0.452877       -12.3234
  64   1.0000      -0.450913       -12.2700
  65   1.0000      -0.448994       -12.2177
  66   1.0000      -0.448405       -12.2017
  67   1.0000      -0.445334       -12.1182
  68   1.0000      -0.445152       -12.1132
  69   1.0000      -0.440792       -11.9946
  70   1.0000      -0.440173       -11.9777
  71   1.0000      -0.436822       -11.8865
  72   1.0000      -0.432111       -11.7583
  73   1.0000      -0.431892       -11.7524
  74   1.0000      -0.426815       -11.6142
  75   1.0000      -0.424865       -11.5612
  76   1.0000      -0.424184       -11.5426
  77   1.0000      -0.420577       -11.4445
  78   1.0000      -0.419973       -11.4281
  79   1.0000      -0.418566       -11.3898
  80   1.0000      -0.412347       -11.2205
  81   1.0000      -0.411233       -11.1902
  82   1.0000      -0.410245       -11.1633
  83   1.0000      -0.404454       -11.0057
  84   1.0000      -0.401446       -10.9239
  85   1.0000      -0.400775       -10.9056
  86   1.0000      -0.397989       -10.8298
  87   1.0000      -0.393928       -10.7193
  88   1.0000      -0.392326       -10.6757
  89   1.0000      -0.390486       -10.6257
  90   1.0000      -0.387933       -10.5562
  91   1.0000      -0.380815       -10.3625
  92   1.0000      -0.377794       -10.2803
  93   1.0000      -0.372801       -10.1444
  94   1.0000      -0.372105       -10.1255
  95   1.0000      -0.371170       -10.1001
  96   1.0000      -0.369863       -10.0645
  97   1.0000      -0.369604       -10.0574
  98   1.0000      -0.367345        -9.9960
  99   1.0000      -0.363554        -9.8928
 100   1.0000      -0.362340        -9.8598
 101   1.0000      -0.360787        -9.8175
 102   1.0000      -0.359373        -9.7790
 103   1.0000      -0.356646        -9.7048
 104   1.0000      -0.355457        -9.6725
 105   1.0000      -0.352140        -9.5822
 106   1.0000      -0.351316        -9.5598
 107   1.0000      -0.350775        -9.5451
 108   1.0000      -0.347999        -9.4695
 109   1.0000      -0.346683        -9.4337
 110   1.0000      -0.344367        -9.3707
 111   1.0000      -0.343115        -9.3366
 112   1.0000      -0.342891        -9.3305
 113   1.0000      -0.339858        -9.2480
 114   1.0000      -0.335297        -9.1239
 115   1.0000      -0.332997        -9.0613
 116   1.0000      -0.325159        -8.8480
 117   1.0000      -0.317710        -8.6453
 118   1.0000      -0.313900        -8.5417
 119   1.0000      -0.309575        -8.4240
 120   1.0000      -0.297799        -8.1035
 121   1.0000      -0.236096        -6.4245
 122   1.0000      -0.232112        -6.3161
 123   1.0000      -0.230041        -6.2597
 124   1.0000      -0.182893        -4.9768
 125   0.0000      -0.096330        -2.6213
 126   0.0000      -0.071628        -1.9491
 127   0.0000      -0.065364        -1.7786
 128   0.0000      -0.054383        -1.4798
 129   0.0000      -0.041457        -1.1281

MULLIKEN ATOMIC CHARGES AND SPIN POPULATIONS
--------------------------------------------
   0 Au:    0.223712   -0.324574
   1 Au:    0.221229   -0.320723
   2 Au:    0.240450   -0.129906
   3 Au:    0.123567   -0.177283
   4 Au:    0.321722    0.032400
   5 Au:    0.433553   -0.140528
   6 Au:    0.322634   -0.019415
   7 Au:    0.428927   -0.141686
   8 Au:    0.296639   -0.103008
   9 Au:    0.239958   -0.129331
  10 Au:    0.130657   -0.177237
  11 Au:    0.319894   -0.020014
  12 Cr:   -3.302942    3.651305
Sum of atomic charges         :   -0.0000000

LOEWDIN ATOMIC CHARGES AND SPIN POPULATIONS
-------------------------------------------
   0 Au:    0.051287   -0.222373
   1 Au:    0.049723   -0.219718
   2 Au:    0.118607   -0.129162
   3 Au:    0.025063   -0.120445
   4 Au:    0.094172   -0.088840
   5 Au:    0.080691   -0.122706
   6 Au:    0.087320   -0.061841
   7 Au:    0.078783   -0.122876
   8 Au:    0.111234   -0.145750
   9 Au:    0.118937   -0.127671
  10 Au:    0.026550   -0.120771
  11 Au:    0.086499   -0.062038
  12 Cr:   -0.928867    3.544190

  Mayer bond orders larger than 0.100000
B(  0-Au,  1-Au) :   0.2309 B(  0-Au,  2-Au) :   0.2559 B(  0-Au,  3-Au) :   0.1012
B(  0-Au,  4-Au) :   0.1843 B(  0-Au, 12-Cr) :   0.4429 B(  1-Au,  4-Au) :   0.1847
B(  1-Au,  9-Au) :   0.2572 B(  1-Au, 12-Cr) :   0.4473 B(  2-Au, 11-Au) :   0.2797
B(  2-Au, 12-Cr) :   0.6519 B(  3-Au,  4-Au) :   0.2619 B(  3-Au,  5-Au) :   0.1865
B(  3-Au,  8-Au) :   0.1843 B(  3-Au, 10-Au) :   0.1671 B(  3-Au, 12-Cr) :   0.5644
B(  4-Au, 10-Au) :   0.2597 B(  4-Au, 12-Cr) :   0.3196 B(  5-Au,  8-Au) :   0.2548
B(  5-Au, 11-Au) :   0.2431 B(  5-Au, 12-Cr) :   0.4856 B(  6-Au,  7-Au) :   0.2448
B(  6-Au,  9-Au) :   0.2776 B(  6-Au, 11-Au) :   0.2190 B(  6-Au, 12-Cr) :   0.3788
B(  7-Au,  8-Au) :   0.2571 B(  7-Au, 10-Au) :   0.1874 B(  7-Au, 12-Cr) :   0.4846
B(  8-Au, 10-Au) :   0.1834 B(  8-Au, 12-Cr) :   0.4054 B(  9-Au, 12-Cr) :   0.6548
B( 10-Au, 12-Cr) :   0.5603 B( 11-Au, 12-Cr) :   0.3804

MP2 TOTAL ENERGY:    -2671.285493499 Eh
FINAL SINGLE POINT ENERGY     -2671.285493498802

DIPOLE MOMENT
-------------
                                X             Y             Z
Electronic contribution:      4.70448      15.29038       3.29826
Nuclear contribution   :     -4.63925     -15.32686      -3.21450
                        -----------------------------------------
Total Dipole Moment    :      0.06523      -0.03648       0.08375
                        -----------------------------------------
Magnitude (a.u.)       :      0.11225
Magnitude (Debye)      :      0.28532

Rotational constants in cm-1:     0.001526     0.001215     0.001078
Rotational constants in MHz :    45.734362    36.438065    32.326913

                             ****ORCA TERMINATED NORMALLY****
TOTAL RUN TIME: 0 days 2 hours 58 minutes 25 seconds 688 msec
