                         Program Version 5.0.3 -  RELEASE  -
|  1> !PBE def2-TZVP VERYSLOWCONV
|  2>
|  3> %scf
|  4>   AutoTRAHIter 200
|  5>   maxiter 400
|  6> end
|  7>
|  8>
|  9> %pal nprocs 6 end
| 10>
| 11> *xyzfile 0 5 pbe.xyz
| 12>
| 13> $new_job
| 14>
| 15> !PBE def2-TZVP VERYSLOWCONV
| 16>
| 17> %scf
| 18>   AutoTRAHIter 200
| 19>   maxiter 400
| 20> end
| 21>
| 22>
| 23> %pal nprocs 6 end
| 24>
| 25> *xyzfile 0 3 pbe.xyz
| 26>
| 27>
| 28>
| 29>
| 30>
| 31>                          ****END OF INPUT****
 Total Charge           Charge          ....    0
 Multiplicity           Mult            ....    5
 Number of Electrons    NEL             ....  252
FINAL SINGLE POINT ENERGY     -2674.151078692334

CARTESIAN COORDINATES (ANGSTROEM)
---------------------------------
  Au     5.328275    9.567976    7.323774
  Au     7.575423    9.303226    5.417949
  Au     4.960829    7.143365    8.353148
  Au     7.025797   10.230007    9.396678
  Au     7.242756   11.630786    6.996804
  Au     6.867947    7.722371   10.467255
  Au     8.770025    5.000649    7.557753
  Au    10.176458    7.346608    7.630232
  Au     9.348319    8.761463    9.849047
  Au     8.300031    6.746013    5.494392
  Au     9.448486    9.961889    7.335872
  Au     6.685174    5.245023    9.316887
  Cr     7.511962    7.784978    7.836740

 Multiplicity           Mult            ....    3
 Number of Electrons    NEL             ....  252
 Basis Dimension        Dim             ....  525

ORBITAL ENERGIES
----------------
                 SPIN UP ORBITALS
  NO   OCC          E(Eh)            E(eV)
   0   1.0000    -214.506236     -5837.0114
   1   1.0000     -24.306468      -661.4126
   2   1.0000     -20.673103      -562.5437
   3   1.0000     -20.668920      -562.4299
   4   1.0000     -20.667494      -562.3911
   5   1.0000      -4.031606      -109.7056
   6   1.0000      -4.031453      -109.7014
   7   1.0000      -4.025124      -109.5292
   8   1.0000      -4.024799      -109.5203
   9   1.0000      -4.023583      -109.4873
  10   1.0000      -4.022342      -109.4535
  11   1.0000      -4.022312      -109.4527
  12   1.0000      -4.020396      -109.4005
  13   1.0000      -4.020099      -109.3925
  14   1.0000      -4.016415      -109.2922
  15   1.0000      -4.014869      -109.2502
  16   1.0000      -4.014555      -109.2416
  17   1.0000      -2.807841       -76.4052
  18   1.0000      -2.248341       -61.1805
  19   1.0000      -2.248138       -61.1749
  20   1.0000      -2.246089       -61.1192
  21   1.0000      -2.245938       -61.1151
  22   1.0000      -2.241644       -60.9982
  23   1.0000      -2.241332       -60.9898
  24   1.0000      -2.240596       -60.9697
  25   1.0000      -2.240240       -60.9600
  26   1.0000      -2.239785       -60.9477
  27   1.0000      -2.239677       -60.9447
  28   1.0000      -2.238277       -60.9066
  29   1.0000      -2.238211       -60.9048
  30   1.0000      -2.237988       -60.8987
  31   1.0000      -2.237587       -60.8878
  32   1.0000      -2.237520       -60.8860
  33   1.0000      -2.237325       -60.8807
  34   1.0000      -2.235771       -60.8384
  35   1.0000      -2.235018       -60.8179
  36   1.0000      -2.234254       -60.7971
  37   1.0000      -2.234036       -60.7912
  38   1.0000      -2.233752       -60.7835
  39   1.0000      -2.233291       -60.7709
  40   1.0000      -2.232703       -60.7549
  41   1.0000      -2.231145       -60.7125
  42   1.0000      -2.230016       -60.6818
  43   1.0000      -2.229873       -60.6779
  44   1.0000      -2.229729       -60.6740
  45   1.0000      -2.229531       -60.6686
  46   1.0000      -2.229496       -60.6677
  47   1.0000      -2.229432       -60.6659
  48   1.0000      -2.228649       -60.6446
  49   1.0000      -2.228389       -60.6375
  50   1.0000      -2.227487       -60.6130
  51   1.0000      -2.225871       -60.5690
  52   1.0000      -2.224877       -60.5420
  53   1.0000      -2.224393       -60.5288
  54   1.0000      -1.801999       -49.0349
  55   1.0000      -1.796177       -48.8765
  56   1.0000      -1.792858       -48.7861
  57   1.0000      -0.414632       -11.2827
  58   1.0000      -0.377491       -10.2720
  59   1.0000      -0.374424       -10.1886
  60   1.0000      -0.372121       -10.1259
  61   1.0000      -0.365123        -9.9355
  62   1.0000      -0.364004        -9.9051
  63   1.0000      -0.355196        -9.6654
  64   1.0000      -0.352801        -9.6002
  65   1.0000      -0.349387        -9.5073
  66   1.0000      -0.348292        -9.4775
  67   1.0000      -0.341694        -9.2980
  68   1.0000      -0.340774        -9.2729
  69   1.0000      -0.339231        -9.2309
  70   1.0000      -0.336570        -9.1585
  71   1.0000      -0.332597        -9.0504
  72   1.0000      -0.330049        -8.9811
  73   1.0000      -0.327796        -8.9198
  74   1.0000      -0.326407        -8.8820
  75   1.0000      -0.325365        -8.8536
  76   1.0000      -0.323557        -8.8044
  77   1.0000      -0.323175        -8.7940
  78   1.0000      -0.320408        -8.7187
  79   1.0000      -0.317703        -8.6451
  80   1.0000      -0.314432        -8.5561
  81   1.0000      -0.313184        -8.5222
  82   1.0000      -0.309624        -8.4253
  83   1.0000      -0.307606        -8.3704
  84   1.0000      -0.304000        -8.2723
  85   1.0000      -0.302138        -8.2216
  86   1.0000      -0.298998        -8.1362
  87   1.0000      -0.295766        -8.0482
  88   1.0000      -0.291703        -7.9376
  89   1.0000      -0.291523        -7.9328
  90   1.0000      -0.288905        -7.8615
  91   1.0000      -0.285255        -7.7622
  92   1.0000      -0.281516        -7.6605
  93   1.0000      -0.280295        -7.6272
  94   1.0000      -0.274932        -7.4813
  95   1.0000      -0.273217        -7.4346
  96   1.0000      -0.272955        -7.4275
  97   1.0000      -0.270984        -7.3738
  98   1.0000      -0.270215        -7.3529
  99   1.0000      -0.268014        -7.2930
 100   1.0000      -0.265403        -7.2220
 101   1.0000      -0.264175        -7.1886
 102   1.0000      -0.264145        -7.1877
 103   1.0000      -0.260094        -7.0775
 104   1.0000      -0.258634        -7.0378
 105   1.0000      -0.257623        -7.0103
 106   1.0000      -0.256419        -6.9775
 107   1.0000      -0.255615        -6.9557
 108   1.0000      -0.254467        -6.9244
 109   1.0000      -0.253037        -6.8855
 110   1.0000      -0.250468        -6.8156
 111   1.0000      -0.250226        -6.8090
 112   1.0000      -0.249316        -6.7842
 113   1.0000      -0.247859        -6.7446
 114   1.0000      -0.245441        -6.6788
 115   1.0000      -0.244623        -6.6565
 116   1.0000      -0.240772        -6.5518
 117   1.0000      -0.238401        -6.4872
 118   1.0000      -0.238345        -6.4857
 119   1.0000      -0.236188        -6.4270
 120   1.0000      -0.228250        -6.2110
 121   1.0000      -0.223339        -6.0774
 122   1.0000      -0.218523        -5.9463
 123   1.0000      -0.216721        -5.8973
 124   1.0000      -0.213254        -5.8029
 125   1.0000      -0.210146        -5.7184
 126   1.0000      -0.197779        -5.3818
 127   0.0000      -0.184653        -5.0247
 128   0.0000      -0.172111        -4.6834
 129   0.0000      -0.156111        -4.2480
 130   0.0000      -0.150340        -4.0910
 131   0.0000      -0.131082        -3.5669

                 SPIN DOWN ORBITALS
  NO   OCC          E(Eh)            E(eV)
   0   1.0000    -214.505811     -5836.9999
   1   1.0000     -24.260684      -660.1668
   2   1.0000     -20.641025      -561.6708
   3   1.0000     -20.632081      -561.4275
   4   1.0000     -20.631464      -561.4107
   5   1.0000      -4.031425      -109.7006
   6   1.0000      -4.031269      -109.6964
   7   1.0000      -4.025551      -109.5408
   8   1.0000      -4.025237      -109.5323
   9   1.0000      -4.023485      -109.4846
  10   1.0000      -4.022058      -109.4458
  11   1.0000      -4.022044      -109.4454
  12   1.0000      -4.020833      -109.4124
  13   1.0000      -4.020528      -109.4041
  14   1.0000      -4.017202      -109.3136
  15   1.0000      -4.015164      -109.2582
  16   1.0000      -4.014863      -109.2500
  17   1.0000      -2.684494       -73.0488
  18   1.0000      -2.248195       -61.1765
  19   1.0000      -2.247972       -61.1704
  20   1.0000      -2.245747       -61.1099
  21   1.0000      -2.245593       -61.1057
  22   1.0000      -2.242004       -61.0080
  23   1.0000      -2.241620       -60.9976
  24   1.0000      -2.240661       -60.9715
  25   1.0000      -2.240212       -60.9593
  26   1.0000      -2.239697       -60.9452
  27   1.0000      -2.239522       -60.9405
  28   1.0000      -2.238217       -60.9050
  29   1.0000      -2.237932       -60.8972
  30   1.0000      -2.237802       -60.8937
  31   1.0000      -2.237700       -60.8909
  32   1.0000      -2.237437       -60.8838
  33   1.0000      -2.237387       -60.8824
  34   1.0000      -2.235902       -60.8420
  35   1.0000      -2.235507       -60.8312
  36   1.0000      -2.234475       -60.8032
  37   1.0000      -2.234183       -60.7952
  38   1.0000      -2.233959       -60.7891
  39   1.0000      -2.233600       -60.7794
  40   1.0000      -2.233104       -60.7659
  41   1.0000      -2.231421       -60.7201
  42   1.0000      -2.230567       -60.6968
  43   1.0000      -2.230452       -60.6937
  44   1.0000      -2.230155       -60.6856
  45   1.0000      -2.229793       -60.6758
  46   1.0000      -2.229750       -60.6746
  47   1.0000      -2.229444       -60.6662
  48   1.0000      -2.229192       -60.6594
  49   1.0000      -2.228541       -60.6417
  50   1.0000      -2.228464       -60.6396
  51   1.0000      -2.226050       -60.5739
  52   1.0000      -2.225438       -60.5573
  53   1.0000      -2.224973       -60.5446
  54   1.0000      -1.689578       -45.9758
  55   1.0000      -1.668853       -45.4118
  56   1.0000      -1.667952       -45.3873
  57   1.0000      -0.410275       -11.1641
  58   1.0000      -0.377949       -10.2845
  59   1.0000      -0.372477       -10.1356
  60   1.0000      -0.371005       -10.0956
  61   1.0000      -0.363653        -9.8955
  62   1.0000      -0.363319        -9.8864
  63   1.0000      -0.353331        -9.6146
  64   1.0000      -0.353072        -9.6076
  65   1.0000      -0.349935        -9.5222
  66   1.0000      -0.347526        -9.4567
  67   1.0000      -0.342976        -9.3328
  68   1.0000      -0.340791        -9.2734
  69   1.0000      -0.338786        -9.2188
  70   1.0000      -0.337225        -9.1764
  71   1.0000      -0.332683        -9.0528
  72   1.0000      -0.330658        -8.9977
  73   1.0000      -0.328785        -8.9467
  74   1.0000      -0.327373        -8.9083
  75   1.0000      -0.325720        -8.8633
  76   1.0000      -0.324134        -8.8201
  77   1.0000      -0.322007        -8.7622
  78   1.0000      -0.320282        -8.7153
  79   1.0000      -0.317402        -8.6369
  80   1.0000      -0.313878        -8.5411
  81   1.0000      -0.311594        -8.4789
  82   1.0000      -0.309692        -8.4272
  83   1.0000      -0.305470        -8.3123
  84   1.0000      -0.303902        -8.2696
  85   1.0000      -0.300842        -8.1863
  86   1.0000      -0.299042        -8.1374
  87   1.0000      -0.295969        -8.0537
  88   1.0000      -0.292782        -7.9670
  89   1.0000      -0.292296        -7.9538
  90   1.0000      -0.288886        -7.8610
  91   1.0000      -0.282559        -7.6888
  92   1.0000      -0.281950        -7.6722
  93   1.0000      -0.280957        -7.6452
  94   1.0000      -0.275567        -7.4986
  95   1.0000      -0.274127        -7.4594
  96   1.0000      -0.273017        -7.4292
  97   1.0000      -0.272254        -7.4084
  98   1.0000      -0.270926        -7.3723
  99   1.0000      -0.269548        -7.3348
 100   1.0000      -0.266475        -7.2511
 101   1.0000      -0.265332        -7.2200
 102   1.0000      -0.264497        -7.1973
 103   1.0000      -0.261568        -7.1176
 104   1.0000      -0.259920        -7.0728
 105   1.0000      -0.258341        -7.0298
 106   1.0000      -0.257716        -7.0128
 107   1.0000      -0.256551        -6.9811
 108   1.0000      -0.255350        -6.9484
 109   1.0000      -0.254030        -6.9125
 110   1.0000      -0.252006        -6.8574
 111   1.0000      -0.251050        -6.8314
 112   1.0000      -0.250792        -6.8244
 113   1.0000      -0.248789        -6.7699
 114   1.0000      -0.247079        -6.7234
 115   1.0000      -0.245599        -6.6831
 116   1.0000      -0.242487        -6.5984
 117   1.0000      -0.240100        -6.5335
 118   1.0000      -0.239939        -6.5291
 119   1.0000      -0.237219        -6.4551
 120   1.0000      -0.227089        -6.1794
 121   1.0000      -0.214801        -5.8450
 122   1.0000      -0.209832        -5.7098
 123   1.0000      -0.204022        -5.5517
 124   1.0000      -0.171563        -4.6685
 125   0.0000      -0.160278        -4.3614
 126   0.0000      -0.135635        -3.6908
 127   0.0000      -0.127510        -3.4697
 128   0.0000      -0.121079        -3.2947
 129   0.0000      -0.117896        -3.2081

MULLIKEN ATOMIC CHARGES AND SPIN POPULATIONS
--------------------------------------------
   0 Au:    0.229315   -0.190976
   1 Au:    0.226519   -0.189042
   2 Au:    0.259981   -0.071404
   3 Au:    0.150041   -0.181881
   4 Au:    0.346904    0.002266
   5 Au:    0.406382   -0.060639
   6 Au:    0.351161   -0.055091
   7 Au:    0.402651   -0.060738
   8 Au:    0.315192   -0.084769
   9 Au:    0.259365   -0.071682
  10 Au:    0.156397   -0.183512
  11 Au:    0.349804   -0.055793
  12 Cr:   -3.453712    3.203260
Sum of atomic charges         :   -0.0000000

LOEWDIN ATOMIC CHARGES AND SPIN POPULATIONS
-------------------------------------------
   0 Au:    0.066354   -0.143043
   1 Au:    0.065682   -0.142303
   2 Au:    0.134622   -0.072473
   3 Au:    0.044699   -0.117848
   4 Au:    0.088168   -0.090884
   5 Au:    0.100092   -0.083908
   6 Au:    0.095136   -0.072581
   7 Au:    0.098424   -0.083717
   8 Au:    0.118905   -0.104821
   9 Au:    0.135154   -0.072116
  10 Au:    0.045458   -0.119282
  11 Au:    0.095162   -0.072774
  12 Cr:   -1.087856    3.175750

  Mayer bond orders larger than 0.100000
B(  0-Au,  1-Au) :   0.2189 B(  0-Au,  2-Au) :   0.3169 B(  0-Au,  3-Au) :   0.1557
B(  0-Au,  4-Au) :   0.2228 B(  0-Au, 12-Cr) :   0.5553 B(  1-Au,  4-Au) :   0.2233
B(  1-Au,  9-Au) :   0.3171 B(  1-Au, 10-Au) :   0.1539 B(  1-Au, 12-Cr) :   0.5613
B(  2-Au,  5-Au) :   0.1277 B(  2-Au, 11-Au) :   0.2980 B(  2-Au, 12-Cr) :   0.7236
B(  3-Au,  4-Au) :   0.2963 B(  3-Au,  5-Au) :   0.2182 B(  3-Au,  8-Au) :   0.2322
B(  3-Au, 10-Au) :   0.1748 B(  3-Au, 12-Cr) :   0.5695 B(  4-Au, 10-Au) :   0.2946
B(  4-Au, 12-Cr) :   0.2901 B(  5-Au,  8-Au) :   0.2902 B(  5-Au, 11-Au) :   0.2816
B(  5-Au, 12-Cr) :   0.6514 B(  6-Au,  7-Au) :   0.2831 B(  6-Au,  9-Au) :   0.2965
B(  6-Au, 11-Au) :   0.2891 B(  6-Au, 12-Cr) :   0.3769 B(  7-Au,  8-Au) :   0.2924
B(  7-Au,  9-Au) :   0.1278 B(  7-Au, 10-Au) :   0.2189 B(  7-Au, 12-Cr) :   0.6507
B(  8-Au, 10-Au) :   0.2310 B(  8-Au, 12-Cr) :   0.3993 B(  9-Au, 12-Cr) :   0.7249
B( 10-Au, 12-Cr) :   0.5634 B( 11-Au, 12-Cr) :   0.3790

FINAL SINGLE POINT ENERGY     -2674.139276195255

DIPOLE MOMENT
-------------
                                X             Y             Z
Electronic contribution:      4.71409      15.31318       3.30476
Nuclear contribution   :     -4.63925     -15.32686      -3.21450
                        -----------------------------------------
Total Dipole Moment    :      0.07484      -0.01368       0.09026
                        -----------------------------------------
Magnitude (a.u.)       :      0.11805
Magnitude (Debye)      :      0.30005

Rotational constants in cm-1:     0.001526     0.001215     0.001078
Rotational constants in MHz :    45.734362    36.438065    32.326913

                             ****ORCA TERMINATED NORMALLY****
TOTAL RUN TIME: 0 days 1 hours 10 minutes 29 seconds 270 msec
