                         Program Version 5.0.3 -  RELEASE  -
|  1> !R2SCAN def2-TZVP VERYSLOWCONV
|  2> !KDIIS
|  3> %scf
|  4>   AutoTRAHIter 200
|  5>   maxiter 400
|  6> end
|  7>
|  8> %pal nprocs 6 end
|  9>
| 10> *xyzfile 0 5 pbe.xyz
| 11>
| 12> $new_job
| 13>
| 14> !R2SCAN def2-TZVP VERYSLOWCONV
| 15> !KDIIS
| 16> %scf
| 17>   AutoTRAHIter 200
| 18>   maxiter 400
| 19> end
| 20>
| 21>
| 22> %pal nprocs 6 end
| 23>
| 24> *xyzfile 0 3 pbe.xyz
| 25>
| 26>
| 27>
| 28>
| 29>
| 30>                          ****END OF INPUT****
 Total Charge           Charge          ....    0
 Multiplicity           Mult            ....    5
 Number of Electrons    NEL             ....  252
FINAL SINGLE POINT ENERGY     -2674.590032624834

CARTESIAN COORDINATES (ANGSTROEM)
---------------------------------
  Au     5.328275    9.567976    7.323774
  Au     7.575423    9.303226    5.417949
  Au     4.960829    7.143365    8.353148
  Au     7.025797   10.230007    9.396678
  Au     7.242756   11.630786    6.996804
  Au     6.867947    7.722371   10.467255
  Au     8.770025    5.000649    7.557753
  Au    10.176458    7.346608    7.630232
  Au     9.348319    8.761463    9.849047
  Au     8.300031    6.746013    5.494392
  Au     9.448486    9.961889    7.335872
  Au     6.685174    5.245023    9.316887
  Cr     7.511962    7.784978    7.836740

 Multiplicity           Mult            ....    3
 Number of Electrons    NEL             ....  252
 Basis Dimension        Dim             ....  525

ORBITAL ENERGIES
----------------
                 SPIN UP ORBITALS
  NO   OCC          E(Eh)            E(eV)
   0   1.0000    -215.301505     -5858.6518
   1   1.0000     -24.601915      -669.4521
   2   1.0000     -20.870417      -567.9129
   3   1.0000     -20.867316      -567.8285
   4   1.0000     -20.866162      -567.7971
   5   1.0000      -4.122601      -112.1817
   6   1.0000      -4.122457      -112.1777
   7   1.0000      -4.115486      -111.9881
   8   1.0000      -4.115167      -111.9794
   9   1.0000      -4.114618      -111.9644
  10   1.0000      -4.112617      -111.9100
  11   1.0000      -4.112571      -111.9087
  12   1.0000      -4.110537      -111.8534
  13   1.0000      -4.110232      -111.8451
  14   1.0000      -4.106777      -111.7511
  15   1.0000      -4.105685      -111.7214
  16   1.0000      -4.105337      -111.7119
  17   1.0000      -2.921443       -79.4965
  18   1.0000      -2.312199       -62.9181
  19   1.0000      -2.311986       -62.9123
  20   1.0000      -2.309816       -62.8533
  21   1.0000      -2.309677       -62.8495
  22   1.0000      -2.305249       -62.7290
  23   1.0000      -2.305183       -62.7272
  24   1.0000      -2.304112       -62.6981
  25   1.0000      -2.303947       -62.6936
  26   1.0000      -2.302875       -62.6644
  27   1.0000      -2.302758       -62.6612
  28   1.0000      -2.301572       -62.6290
  29   1.0000      -2.301456       -62.6258
  30   1.0000      -2.301138       -62.6172
  31   1.0000      -2.301072       -62.6154
  32   1.0000      -2.300959       -62.6123
  33   1.0000      -2.300812       -62.6083
  34   1.0000      -2.299423       -62.5705
  35   1.0000      -2.298411       -62.5429
  36   1.0000      -2.297370       -62.5146
  37   1.0000      -2.297095       -62.5071
  38   1.0000      -2.296865       -62.5009
  39   1.0000      -2.296534       -62.4919
  40   1.0000      -2.295640       -62.4675
  41   1.0000      -2.294636       -62.4402
  42   1.0000      -2.293349       -62.4052
  43   1.0000      -2.293257       -62.4027
  44   1.0000      -2.292994       -62.3955
  45   1.0000      -2.292711       -62.3878
  46   1.0000      -2.292638       -62.3859
  47   1.0000      -2.292441       -62.3805
  48   1.0000      -2.291968       -62.3676
  49   1.0000      -2.291802       -62.3631
  50   1.0000      -2.290454       -62.3264
  51   1.0000      -2.289320       -62.2956
  52   1.0000      -2.288554       -62.2747
  53   1.0000      -2.288029       -62.2604
  54   1.0000      -1.870445       -50.8974
  55   1.0000      -1.867623       -50.8206
  56   1.0000      -1.865371       -50.7593
  57   1.0000      -0.419219       -11.4075
  58   1.0000      -0.384002       -10.4492
  59   1.0000      -0.381350       -10.3771
  60   1.0000      -0.378487       -10.2992
  61   1.0000      -0.373004       -10.1500
  62   1.0000      -0.372423       -10.1341
  63   1.0000      -0.362846        -9.8735
  64   1.0000      -0.361267        -9.8306
  65   1.0000      -0.357820        -9.7368
  66   1.0000      -0.357260        -9.7215
  67   1.0000      -0.350648        -9.5416
  68   1.0000      -0.349774        -9.5178
  69   1.0000      -0.348319        -9.4782
  70   1.0000      -0.345355        -9.3976
  71   1.0000      -0.341531        -9.2935
  72   1.0000      -0.338560        -9.2127
  73   1.0000      -0.336960        -9.1691
  74   1.0000      -0.334941        -9.1142
  75   1.0000      -0.333513        -9.0753
  76   1.0000      -0.332374        -9.0444
  77   1.0000      -0.331669        -9.0252
  78   1.0000      -0.328878        -8.9492
  79   1.0000      -0.326237        -8.8774
  80   1.0000      -0.322886        -8.7862
  81   1.0000      -0.321608        -8.7514
  82   1.0000      -0.318166        -8.6577
  83   1.0000      -0.316121        -8.6021
  84   1.0000      -0.312601        -8.5063
  85   1.0000      -0.311101        -8.4655
  86   1.0000      -0.307893        -8.3782
  87   1.0000      -0.303981        -8.2718
  88   1.0000      -0.300169        -8.1680
  89   1.0000      -0.300091        -8.1659
  90   1.0000      -0.297385        -8.0922
  91   1.0000      -0.293573        -7.9885
  92   1.0000      -0.289952        -7.8900
  93   1.0000      -0.287857        -7.8330
  94   1.0000      -0.283123        -7.7042
  95   1.0000      -0.281399        -7.6573
  96   1.0000      -0.280986        -7.6460
  97   1.0000      -0.279219        -7.5979
  98   1.0000      -0.278668        -7.5829
  99   1.0000      -0.275453        -7.4954
 100   1.0000      -0.273581        -7.4445
 101   1.0000      -0.272608        -7.4181
 102   1.0000      -0.271313        -7.3828
 103   1.0000      -0.267790        -7.2869
 104   1.0000      -0.266170        -7.2429
 105   1.0000      -0.264874        -7.2076
 106   1.0000      -0.264286        -7.1916
 107   1.0000      -0.263201        -7.1621
 108   1.0000      -0.261766        -7.1230
 109   1.0000      -0.260477        -7.0879
 110   1.0000      -0.257602        -7.0097
 111   1.0000      -0.257197        -6.9987
 112   1.0000      -0.256302        -6.9743
 113   1.0000      -0.255292        -6.9468
 114   1.0000      -0.252164        -6.8617
 115   1.0000      -0.250636        -6.8201
 116   1.0000      -0.247436        -6.7331
 117   1.0000      -0.243828        -6.6349
 118   1.0000      -0.243357        -6.6221
 119   1.0000      -0.242227        -6.5913
 120   1.0000      -0.234225        -6.3736
 121   1.0000      -0.233240        -6.3468
 122   1.0000      -0.226475        -6.1627
 123   1.0000      -0.221676        -6.0321
 124   1.0000      -0.219328        -5.9682
 125   1.0000      -0.216935        -5.9031
 126   1.0000      -0.202269        -5.5040
 127   0.0000      -0.183527        -4.9940
 128   0.0000      -0.170192        -4.6311
 129   0.0000      -0.152094        -4.1387
 130   0.0000      -0.146833        -3.9955
 131   0.0000      -0.125571        -3.4170

                 SPIN DOWN ORBITALS
  NO   OCC          E(Eh)            E(eV)
   0   1.0000    -215.300895     -5858.6352
   1   1.0000     -24.539516      -667.7542
   2   1.0000     -20.825922      -566.7022
   3   1.0000     -20.817313      -566.4679
   4   1.0000     -20.816542      -566.4469
   5   1.0000      -4.122509      -112.1792
   6   1.0000      -4.122361      -112.1751
   7   1.0000      -4.116264      -112.0092
   8   1.0000      -4.115951      -112.0007
   9   1.0000      -4.114609      -111.9642
  10   1.0000      -4.112531      -111.9077
  11   1.0000      -4.112505      -111.9069
  12   1.0000      -4.111299      -111.8741
  13   1.0000      -4.110984      -111.8656
  14   1.0000      -4.107637      -111.7745
  15   1.0000      -4.106158      -111.7342
  16   1.0000      -4.105819      -111.7250
  17   1.0000      -2.758293       -75.0570
  18   1.0000      -2.311975       -62.9120
  19   1.0000      -2.311747       -62.9058
  20   1.0000      -2.309549       -62.8460
  21   1.0000      -2.309403       -62.8421
  22   1.0000      -2.305508       -62.7361
  23   1.0000      -2.305182       -62.7272
  24   1.0000      -2.304452       -62.7073
  25   1.0000      -2.304129       -62.6985
  26   1.0000      -2.302871       -62.6643
  27   1.0000      -2.302695       -62.6595
  28   1.0000      -2.301879       -62.6373
  29   1.0000      -2.301423       -62.6249
  30   1.0000      -2.301266       -62.6206
  31   1.0000      -2.301100       -62.6161
  32   1.0000      -2.300781       -62.6074
  33   1.0000      -2.300638       -62.6035
  34   1.0000      -2.299646       -62.5765
  35   1.0000      -2.299025       -62.5597
  36   1.0000      -2.297660       -62.5225
  37   1.0000      -2.297347       -62.5140
  38   1.0000      -2.297121       -62.5078
  39   1.0000      -2.296963       -62.5035
  40   1.0000      -2.296305       -62.4856
  41   1.0000      -2.295004       -62.4502
  42   1.0000      -2.293901       -62.4202
  43   1.0000      -2.293633       -62.4129
  44   1.0000      -2.293304       -62.4040
  45   1.0000      -2.293151       -62.3998
  46   1.0000      -2.293092       -62.3982
  47   1.0000      -2.292823       -62.3909
  48   1.0000      -2.292470       -62.3813
  49   1.0000      -2.292229       -62.3747
  50   1.0000      -2.291588       -62.3573
  51   1.0000      -2.289756       -62.3074
  52   1.0000      -2.289135       -62.2905
  53   1.0000      -2.288638       -62.2770
  54   1.0000      -1.718488       -46.7624
  55   1.0000      -1.698796       -46.2266
  56   1.0000      -1.697263       -46.1849
  57   1.0000      -0.415033       -11.2936
  58   1.0000      -0.384984       -10.4760
  59   1.0000      -0.378577       -10.3016
  60   1.0000      -0.378069       -10.2878
  61   1.0000      -0.372329       -10.1316
  62   1.0000      -0.371763       -10.1162
  63   1.0000      -0.361932        -9.8487
  64   1.0000      -0.361136        -9.8270
  65   1.0000      -0.358913        -9.7665
  66   1.0000      -0.356636        -9.7046
  67   1.0000      -0.352205        -9.5840
  68   1.0000      -0.350049        -9.5253
  69   1.0000      -0.347953        -9.4683
  70   1.0000      -0.346602        -9.4315
  71   1.0000      -0.341927        -9.3043
  72   1.0000      -0.339922        -9.2498
  73   1.0000      -0.338338        -9.2066
  74   1.0000      -0.336645        -9.1606
  75   1.0000      -0.334393        -9.0993
  76   1.0000      -0.332986        -9.0610
  77   1.0000      -0.331066        -9.0088
  78   1.0000      -0.329474        -8.9654
  79   1.0000      -0.326523        -8.8851
  80   1.0000      -0.322434        -8.7739
  81   1.0000      -0.320603        -8.7240
  82   1.0000      -0.318620        -8.6701
  83   1.0000      -0.313654        -8.5350
  84   1.0000      -0.312909        -8.5147
  85   1.0000      -0.309883        -8.4324
  86   1.0000      -0.308143        -8.3850
  87   1.0000      -0.304380        -8.2826
  88   1.0000      -0.301778        -8.2118
  89   1.0000      -0.301102        -8.1934
  90   1.0000      -0.297671        -8.1000
  91   1.0000      -0.290831        -7.9139
  92   1.0000      -0.290445        -7.9034
  93   1.0000      -0.288970        -7.8633
  94   1.0000      -0.284137        -7.7317
  95   1.0000      -0.282917        -7.6986
  96   1.0000      -0.281530        -7.6608
  97   1.0000      -0.280849        -7.6423
  98   1.0000      -0.279484        -7.6051
  99   1.0000      -0.277766        -7.5584
 100   1.0000      -0.274751        -7.4763
 101   1.0000      -0.273191        -7.4339
 102   1.0000      -0.272825        -7.4240
 103   1.0000      -0.270114        -7.3502
 104   1.0000      -0.267840        -7.2883
 105   1.0000      -0.266214        -7.2441
 106   1.0000      -0.265944        -7.2367
 107   1.0000      -0.264380        -7.1941
 108   1.0000      -0.263006        -7.1568
 109   1.0000      -0.261860        -7.1256
 110   1.0000      -0.259893        -7.0721
 111   1.0000      -0.258661        -7.0385
 112   1.0000      -0.258548        -7.0354
 113   1.0000      -0.256411        -6.9773
 114   1.0000      -0.254468        -6.9244
 115   1.0000      -0.252072        -6.8592
 116   1.0000      -0.249820        -6.7980
 117   1.0000      -0.247215        -6.7271
 118   1.0000      -0.246045        -6.6952
 119   1.0000      -0.243891        -6.6366
 120   1.0000      -0.233191        -6.3454
 121   1.0000      -0.216629        -5.8948
 122   1.0000      -0.211993        -5.7686
 123   1.0000      -0.206216        -5.6114
 124   1.0000      -0.170975        -4.6525
 125   0.0000      -0.156745        -4.2653
 126   0.0000      -0.130919        -3.5625
 127   0.0000      -0.124011        -3.3745
 128   0.0000      -0.107151        -2.9157
 129   0.0000      -0.105616        -2.8739

MULLIKEN ATOMIC CHARGES AND SPIN POPULATIONS
--------------------------------------------
   0 Au:    0.208910   -0.235751
   1 Au:    0.206297   -0.233422
   2 Au:    0.238053   -0.100930
   3 Au:    0.128665   -0.220986
   4 Au:    0.309151    0.007553
   5 Au:    0.385224   -0.082972
   6 Au:    0.312356   -0.075539
   7 Au:    0.381384   -0.083114
   8 Au:    0.292390   -0.093946
   9 Au:    0.238128   -0.101160
  10 Au:    0.134544   -0.222865
  11 Au:    0.311919   -0.077208
  12 Cr:   -3.147020    3.520341
Sum of atomic charges         :   -0.0000000

LOEWDIN ATOMIC CHARGES AND SPIN POPULATIONS
-------------------------------------------
   0 Au:    0.061382   -0.167880
   1 Au:    0.060695   -0.166997
   2 Au:    0.128158   -0.093398
   3 Au:    0.041577   -0.137785
   4 Au:    0.084072   -0.099251
   5 Au:    0.098043   -0.100369
   6 Au:    0.090953   -0.085457
   7 Au:    0.096359   -0.100114
   8 Au:    0.116413   -0.119474
   9 Au:    0.128627   -0.092766
  10 Au:    0.042446   -0.139118
  11 Au:    0.091103   -0.086140
  12 Cr:   -1.039828    3.388748

  Mayer bond orders larger than 0.100000
B(  0-Au,  1-Au) :   0.2054 B(  0-Au,  2-Au) :   0.3097 B(  0-Au,  3-Au) :   0.1284
B(  0-Au,  4-Au) :   0.2109 B(  0-Au, 12-Cr) :   0.5364 B(  1-Au,  4-Au) :   0.2113
B(  1-Au,  9-Au) :   0.3102 B(  1-Au, 10-Au) :   0.1267 B(  1-Au, 12-Cr) :   0.5430
B(  2-Au,  5-Au) :   0.1118 B(  2-Au, 11-Au) :   0.2830 B(  2-Au, 12-Cr) :   0.7104
B(  3-Au,  4-Au) :   0.2880 B(  3-Au,  5-Au) :   0.2121 B(  3-Au,  8-Au) :   0.2177
B(  3-Au, 10-Au) :   0.1658 B(  3-Au, 12-Cr) :   0.5414 B(  4-Au, 10-Au) :   0.2861
B(  4-Au, 12-Cr) :   0.2719 B(  5-Au,  8-Au) :   0.2903 B(  5-Au, 11-Au) :   0.2713
B(  5-Au, 12-Cr) :   0.6308 B(  6-Au,  7-Au) :   0.2728 B(  6-Au,  9-Au) :   0.2814
B(  6-Au, 11-Au) :   0.2797 B(  6-Au, 12-Cr) :   0.3732 B(  7-Au,  8-Au) :   0.2925
B(  7-Au,  9-Au) :   0.1118 B(  7-Au, 10-Au) :   0.2132 B(  7-Au, 12-Cr) :   0.6307
B(  8-Au, 10-Au) :   0.2165 B(  8-Au, 12-Cr) :   0.3767 B(  9-Au, 12-Cr) :   0.7111
B( 10-Au, 12-Cr) :   0.5350 B( 11-Au, 12-Cr) :   0.3753

FINAL SINGLE POINT ENERGY     -2674.574291665775

DIPOLE MOMENT
-------------
                                X             Y             Z
Electronic contribution:      4.73435      15.28779       3.33265
Nuclear contribution   :     -4.63925     -15.32686      -3.21450
                        -----------------------------------------
Total Dipole Moment    :      0.09509      -0.03907       0.11814
                        -----------------------------------------
Magnitude (a.u.)       :      0.15661
Magnitude (Debye)      :      0.39808

Rotational constants in cm-1:     0.001526     0.001215     0.001078
Rotational constants in MHz :    45.734362    36.438065    32.326913

                             ****ORCA TERMINATED NORMALLY****
TOTAL RUN TIME: 0 days 0 hours 18 minutes 0 seconds 55 msec
