                         Program Version 5.0.3 -  RELEASE  -
|  1> !RI-B2PLYP def2-TZVP def2-TZVP/C
|  2> !RIJCOSX VERYSLOWCONV
|  3>
|  4> %scf
|  5>   AutoTRAHIter 200
|  6>   maxiter 400
|  7> end
|  8>
|  9>
| 10> %pal nprocs 6 end
| 11>
| 12> *xyzfile 0 5 pbe.xyz
| 13>
| 14> $new_job
| 15>
| 16> !RI-B2PLYP def2-TZVP def2-TZVP/C
| 17> !RIJCOSX VERYSLOWCONV
| 18>
| 19> %scf
| 20>   AutoTRAHIter 200
| 21>   maxiter 400
| 22> end
| 23>
| 24>
| 25> %pal nprocs 6 end
| 26>
| 27> *xyzfile 0 3 pbe.xyz
| 28>
| 29>
| 30>
| 31>
| 32>
| 33>                          ****END OF INPUT****
 Total Charge           Charge          ....    0
 Multiplicity           Mult            ....    5
 Number of Electrons    NEL             ....  328
MP2 TOTAL ENERGY:    -3213.727308710 Eh
FINAL SINGLE POINT ENERGY     -3213.727308709942

CARTESIAN COORDINATES (ANGSTROEM)
---------------------------------
  Au     9.554058    6.230807    7.267637
  Au     8.294643    9.517793    9.773636
  Au    10.304109    7.576623    9.561552
  Au    10.901022   10.363575    9.252050
  Au     5.802063    8.941441    8.924495
  Au     7.671489    6.759368    9.612670
  Au     7.261274    4.707885    7.659040
  Au     5.075334    6.212630    8.677695
  Au     8.943801   10.513159    7.262578
  Au    10.965911    8.589751    7.020080
  Au     8.809001    8.463027    5.310911
  Au     7.958707    5.746269    5.042336
  Au     6.199929    7.890699    4.421138
  Au     5.189249    5.587755    5.851406
  Au     4.322942    8.189147    6.657677
  Au     6.476537    9.960452    6.331376
  Cr     6.966483    7.356780    7.022113

 Multiplicity           Mult            ....    3
 Number of Electrons    NEL             ....  328
 Basis Dimension        Dim             ....  685

ORBITAL ENERGIES
----------------
                 SPIN UP ORBITALS
  NO   OCC          E(Eh)            E(eV)
   0   1.0000    -217.758180     -5925.5013
   1   1.0000     -25.443097      -692.3419
   2   1.0000     -21.583294      -587.3113
   3   1.0000     -21.581658      -587.2668
   4   1.0000     -21.577023      -587.1406
   5   1.0000      -4.404311      -119.8474
   6   1.0000      -4.404161      -119.8433
   7   1.0000      -4.403976      -119.8383
   8   1.0000      -4.403764      -119.8325
   9   1.0000      -4.401840      -119.7801
  10   1.0000      -4.401719      -119.7768
  11   1.0000      -4.401161      -119.7617
  12   1.0000      -4.399950      -119.7287
  13   1.0000      -4.399840      -119.7257
  14   1.0000      -4.399185      -119.7079
  15   1.0000      -4.393608      -119.5561
  16   1.0000      -4.390932      -119.4833
  17   1.0000      -4.390738      -119.4780
  18   1.0000      -4.389788      -119.4522
  19   1.0000      -4.389607      -119.4473
  20   1.0000      -4.381397      -119.2239
  21   1.0000      -3.232962       -87.9734
  22   1.0000      -2.525608       -68.7253
  23   1.0000      -2.524927       -68.7068
  24   1.0000      -2.524827       -68.7040
  25   1.0000      -2.524120       -68.6848
  26   1.0000      -2.523992       -68.6813
  27   1.0000      -2.523073       -68.6563
  28   1.0000      -2.522700       -68.6462
  29   1.0000      -2.521840       -68.6228
  30   1.0000      -2.521649       -68.6175
  31   1.0000      -2.521197       -68.6053
  32   1.0000      -2.520983       -68.5994
  33   1.0000      -2.520779       -68.5939
  34   1.0000      -2.520166       -68.5772
  35   1.0000      -2.519584       -68.5614
  36   1.0000      -2.519192       -68.5507
  37   1.0000      -2.519123       -68.5488
  38   1.0000      -2.518798       -68.5400
  39   1.0000      -2.518494       -68.5317
  40   1.0000      -2.517678       -68.5095
  41   1.0000      -2.517513       -68.5050
  42   1.0000      -2.517350       -68.5006
  43   1.0000      -2.516875       -68.4876
  44   1.0000      -2.516780       -68.4851
  45   1.0000      -2.516112       -68.4669
  46   1.0000      -2.516089       -68.4663
  47   1.0000      -2.515746       -68.4569
  48   1.0000      -2.514935       -68.4349
  49   1.0000      -2.514900       -68.4339
  50   1.0000      -2.514710       -68.4287
  51   1.0000      -2.513802       -68.4040
  52   1.0000      -2.512772       -68.3760
  53   1.0000      -2.510531       -68.3150
  54   1.0000      -2.510231       -68.3069
  55   1.0000      -2.509773       -68.2944
  56   1.0000      -2.509712       -68.2927
  57   1.0000      -2.509631       -68.2905
  58   1.0000      -2.508838       -68.2690
  59   1.0000      -2.508406       -68.2572
  60   1.0000      -2.508146       -68.2501
  61   1.0000      -2.507496       -68.2324
  62   1.0000      -2.506666       -68.2098
  63   1.0000      -2.505962       -68.1907
  64   1.0000      -2.504707       -68.1565
  65   1.0000      -2.504593       -68.1534
  66   1.0000      -2.502895       -68.1072
  67   1.0000      -2.499609       -68.0178
  68   1.0000      -2.497803       -67.9687
  69   1.0000      -2.497645       -67.9644
  70   1.0000      -2.125167       -57.8287
  71   1.0000      -2.116845       -57.6023
  72   1.0000      -2.113756       -57.5182
  73   1.0000      -0.508377       -13.8336
  74   1.0000      -0.486046       -13.2260
  75   1.0000      -0.478440       -13.0190
  76   1.0000      -0.475512       -12.9393
  77   1.0000      -0.474430       -12.9099
  78   1.0000      -0.472574       -12.8594
  79   1.0000      -0.467490       -12.7210
  80   1.0000      -0.466491       -12.6939
  81   1.0000      -0.465662       -12.6713
  82   1.0000      -0.460978       -12.5438
  83   1.0000      -0.460509       -12.5311
  84   1.0000      -0.458992       -12.4898
  85   1.0000      -0.456719       -12.4280
  86   1.0000      -0.456052       -12.4098
  87   1.0000      -0.454243       -12.3606
  88   1.0000      -0.452476       -12.3125
  89   1.0000      -0.451802       -12.2942
  90   1.0000      -0.451225       -12.2785
  91   1.0000      -0.449626       -12.2349
  92   1.0000      -0.449332       -12.2269
  93   1.0000      -0.443644       -12.0722
  94   1.0000      -0.440894       -11.9973
  95   1.0000      -0.438189       -11.9237
  96   1.0000      -0.437599       -11.9077
  97   1.0000      -0.435070       -11.8389
  98   1.0000      -0.433928       -11.8078
  99   1.0000      -0.432547       -11.7702
 100   1.0000      -0.429565       -11.6891
 101   1.0000      -0.428839       -11.6693
 102   1.0000      -0.428588       -11.6625
 103   1.0000      -0.423786       -11.5318
 104   1.0000      -0.421858       -11.4793
 105   1.0000      -0.417851       -11.3703
 106   1.0000      -0.417026       -11.3479
 107   1.0000      -0.414603       -11.2819
 108   1.0000      -0.411509       -11.1977
 109   1.0000      -0.407217       -11.0809
 110   1.0000      -0.401943       -10.9374
 111   1.0000      -0.401281       -10.9194
 112   1.0000      -0.400491       -10.8979
 113   1.0000      -0.398216       -10.8360
 114   1.0000      -0.398055       -10.8316
 115   1.0000      -0.395388       -10.7590
 116   1.0000      -0.394239       -10.7278
 117   1.0000      -0.389402       -10.5962
 118   1.0000      -0.386912       -10.5284
 119   1.0000      -0.385075       -10.4784
 120   1.0000      -0.384152       -10.4533
 121   1.0000      -0.382132       -10.3983
 122   1.0000      -0.380551       -10.3553
 123   1.0000      -0.374402       -10.1880
 124   1.0000      -0.374313       -10.1856
 125   1.0000      -0.370250       -10.0750
 126   1.0000      -0.369501       -10.0546
 127   1.0000      -0.368526       -10.0281
 128   1.0000      -0.367564       -10.0019
 129   1.0000      -0.364843        -9.9279
 130   1.0000      -0.364805        -9.9269
 131   1.0000      -0.364118        -9.9082
 132   1.0000      -0.363806        -9.8997
 133   1.0000      -0.361707        -9.8425
 134   1.0000      -0.361212        -9.8291
 135   1.0000      -0.360248        -9.8028
 136   1.0000      -0.356176        -9.6920
 137   1.0000      -0.354263        -9.6400
 138   1.0000      -0.353104        -9.6084
 139   1.0000      -0.349509        -9.5106
 140   1.0000      -0.349275        -9.5043
 141   1.0000      -0.348406        -9.4806
 142   1.0000      -0.348053        -9.4710
 143   1.0000      -0.347169        -9.4470
 144   1.0000      -0.345688        -9.4067
 145   1.0000      -0.345082        -9.3902
 146   1.0000      -0.342468        -9.3190
 147   1.0000      -0.340416        -9.2632
 148   1.0000      -0.338794        -9.2190
 149   1.0000      -0.336228        -9.1492
 150   1.0000      -0.334924        -9.1138
 151   1.0000      -0.332904        -9.0588
 152   1.0000      -0.331473        -9.0198
 153   1.0000      -0.331224        -9.0131
 154   1.0000      -0.328013        -8.9257
 155   1.0000      -0.327594        -8.9143
 156   1.0000      -0.324358        -8.8262
 157   1.0000      -0.320278        -8.7152
 158   1.0000      -0.309893        -8.4326
 159   1.0000      -0.306595        -8.3429
 160   1.0000      -0.305845        -8.3225
 161   1.0000      -0.253157        -6.8888
 162   1.0000      -0.235290        -6.4026
 163   1.0000      -0.230470        -6.2714
 164   1.0000      -0.228473        -6.2171
 165   0.0000      -0.130095        -3.5401
 166   0.0000      -0.103800        -2.8245
 167   0.0000      -0.078700        -2.1415
 168   0.0000      -0.078039        -2.1235
 169   0.0000      -0.077514        -2.1093

                 SPIN DOWN ORBITALS
  NO   OCC          E(Eh)            E(eV)
   0   1.0000    -217.756905     -5925.4666
   1   1.0000     -25.372722      -690.4269
   2   1.0000     -21.524952      -585.7237
   3   1.0000     -21.519649      -585.5794
   4   1.0000     -21.502394      -585.1099
   5   1.0000      -4.404401      -119.8499
   6   1.0000      -4.404239      -119.8454
   7   1.0000      -4.403110      -119.8147
   8   1.0000      -4.402875      -119.8083
   9   1.0000      -4.402116      -119.7877
  10   1.0000      -4.402007      -119.7847
  11   1.0000      -4.400158      -119.7344
  12   1.0000      -4.400078      -119.7322
  13   1.0000      -4.400051      -119.7315
  14   1.0000      -4.399125      -119.7063
  15   1.0000      -4.394421      -119.5783
  16   1.0000      -4.391572      -119.5008
  17   1.0000      -4.391376      -119.4954
  18   1.0000      -4.390512      -119.4719
  19   1.0000      -4.390326      -119.4668
  20   1.0000      -4.382235      -119.2467
  21   1.0000      -3.017021       -82.0973
  22   1.0000      -2.524649       -68.6992
  23   1.0000      -2.523737       -68.6744
  24   1.0000      -2.523576       -68.6700
  25   1.0000      -2.523269       -68.6616
  26   1.0000      -2.522883       -68.6511
  27   1.0000      -2.522485       -68.6403
  28   1.0000      -2.521823       -68.6223
  29   1.0000      -2.520944       -68.5984
  30   1.0000      -2.520781       -68.5939
  31   1.0000      -2.520674       -68.5910
  32   1.0000      -2.520015       -68.5731
  33   1.0000      -2.519532       -68.5600
  34   1.0000      -2.519314       -68.5540
  35   1.0000      -2.519068       -68.5473
  36   1.0000      -2.518691       -68.5371
  37   1.0000      -2.518439       -68.5302
  38   1.0000      -2.518159       -68.5226
  39   1.0000      -2.517640       -68.5085
  40   1.0000      -2.517190       -68.4962
  41   1.0000      -2.517035       -68.4920
  42   1.0000      -2.516790       -68.4853
  43   1.0000      -2.516698       -68.4828
  44   1.0000      -2.516113       -68.4669
  45   1.0000      -2.516098       -68.4665
  46   1.0000      -2.515414       -68.4479
  47   1.0000      -2.515362       -68.4465
  48   1.0000      -2.515143       -68.4405
  49   1.0000      -2.514779       -68.4306
  50   1.0000      -2.514568       -68.4249
  51   1.0000      -2.513743       -68.4024
  52   1.0000      -2.511687       -68.3465
  53   1.0000      -2.511468       -68.3405
  54   1.0000      -2.511033       -68.3287
  55   1.0000      -2.510681       -68.3191
  56   1.0000      -2.509964       -68.2996
  57   1.0000      -2.509945       -68.2991
  58   1.0000      -2.509670       -68.2916
  59   1.0000      -2.509567       -68.2888
  60   1.0000      -2.508588       -68.2622
  61   1.0000      -2.508458       -68.2586
  62   1.0000      -2.507178       -68.2238
  63   1.0000      -2.506372       -68.2018
  64   1.0000      -2.505080       -68.1667
  65   1.0000      -2.504875       -68.1611
  66   1.0000      -2.503128       -68.1136
  67   1.0000      -2.499788       -68.0227
  68   1.0000      -2.497926       -67.9720
  69   1.0000      -2.497733       -67.9668
  70   1.0000      -1.891340       -51.4660
  71   1.0000      -1.879544       -51.1450
  72   1.0000      -1.839834       -50.0644
  73   1.0000      -0.503711       -13.7067
  74   1.0000      -0.474480       -12.9113
  75   1.0000      -0.473103       -12.8738
  76   1.0000      -0.469896       -12.7865
  77   1.0000      -0.469187       -12.7672
  78   1.0000      -0.466724       -12.7002
  79   1.0000      -0.463620       -12.6158
  80   1.0000      -0.462128       -12.5752
  81   1.0000      -0.461761       -12.5652
  82   1.0000      -0.460095       -12.5198
  83   1.0000      -0.458724       -12.4825
  84   1.0000      -0.457961       -12.4617
  85   1.0000      -0.457442       -12.4476
  86   1.0000      -0.455243       -12.3878
  87   1.0000      -0.454621       -12.3709
  88   1.0000      -0.453317       -12.3354
  89   1.0000      -0.452342       -12.3088
  90   1.0000      -0.451850       -12.2955
  91   1.0000      -0.450416       -12.2564
  92   1.0000      -0.447896       -12.1879
  93   1.0000      -0.445168       -12.1136
  94   1.0000      -0.442311       -12.0359
  95   1.0000      -0.439452       -11.9581
  96   1.0000      -0.438958       -11.9447
  97   1.0000      -0.437878       -11.9153
  98   1.0000      -0.434482       -11.8229
  99   1.0000      -0.433541       -11.7973
 100   1.0000      -0.430676       -11.7193
 101   1.0000      -0.427176       -11.6241
 102   1.0000      -0.424944       -11.5633
 103   1.0000      -0.424068       -11.5395
 104   1.0000      -0.421526       -11.4703
 105   1.0000      -0.417269       -11.3545
 106   1.0000      -0.416064       -11.3217
 107   1.0000      -0.411100       -11.1866
 108   1.0000      -0.409029       -11.1302
 109   1.0000      -0.406396       -11.0586
 110   1.0000      -0.403089       -10.9686
 111   1.0000      -0.402319       -10.9476
 112   1.0000      -0.398244       -10.8368
 113   1.0000      -0.395532       -10.7630
 114   1.0000      -0.392559       -10.6821
 115   1.0000      -0.388773       -10.5790
 116   1.0000      -0.385882       -10.5004
 117   1.0000      -0.385472       -10.4892
 118   1.0000      -0.384746       -10.4695
 119   1.0000      -0.383832       -10.4446
 120   1.0000      -0.381322       -10.3763
 121   1.0000      -0.381089       -10.3700
 122   1.0000      -0.375264       -10.2114
 123   1.0000      -0.372847       -10.1457
 124   1.0000      -0.371133       -10.0990
 125   1.0000      -0.370754       -10.0887
 126   1.0000      -0.369848       -10.0641
 127   1.0000      -0.369059       -10.0426
 128   1.0000      -0.368844       -10.0368
 129   1.0000      -0.366021        -9.9599
 130   1.0000      -0.364770        -9.9259
 131   1.0000      -0.364619        -9.9218
 132   1.0000      -0.364184        -9.9099
 133   1.0000      -0.362728        -9.8703
 134   1.0000      -0.362332        -9.8596
 135   1.0000      -0.361107        -9.8262
 136   1.0000      -0.355065        -9.6618
 137   1.0000      -0.354163        -9.6373
 138   1.0000      -0.353983        -9.6324
 139   1.0000      -0.350112        -9.5270
 140   1.0000      -0.349866        -9.5203
 141   1.0000      -0.349275        -9.5043
 142   1.0000      -0.349076        -9.4988
 143   1.0000      -0.347821        -9.4647
 144   1.0000      -0.346990        -9.4421
 145   1.0000      -0.345470        -9.4007
 146   1.0000      -0.342404        -9.3173
 147   1.0000      -0.336621        -9.1599
 148   1.0000      -0.336416        -9.1544
 149   1.0000      -0.334821        -9.1109
 150   1.0000      -0.332703        -9.0533
 151   1.0000      -0.330372        -8.9899
 152   1.0000      -0.327492        -8.9115
 153   1.0000      -0.323945        -8.8150
 154   1.0000      -0.317733        -8.6460
 155   1.0000      -0.317410        -8.6372
 156   1.0000      -0.311605        -8.4792
 157   1.0000      -0.274405        -7.4669
 158   1.0000      -0.244183        -6.6446
 159   1.0000      -0.241992        -6.5849
 160   1.0000      -0.226814        -6.1719
 161   1.0000      -0.221427        -6.0253
 162   1.0000      -0.194557        -5.2942
 163   0.0000      -0.085706        -2.3322
 164   0.0000      -0.085155        -2.3172
 165   0.0000      -0.066631        -1.8131
 166   0.0000      -0.065360        -1.7785
 167   0.0000      -0.060257        -1.6397

MULLIKEN ATOMIC CHARGES AND SPIN POPULATIONS
--------------------------------------------
   0 Au:    0.027887   -0.006549
   1 Au:   -0.007548    0.020405
   2 Au:    0.262041    0.031254
   3 Au:    0.309067   -0.328859
   4 Au:    0.447996   -0.091954
   5 Au:    0.135354   -0.017777
   6 Au:    0.608584   -0.059479
   7 Au:    0.608938   -0.021646
   8 Au:   -0.006459    0.017376
   9 Au:    0.253849    0.031293
  10 Au:    0.142016   -0.018953
  11 Au:    0.610089   -0.057444
  12 Au:    0.606919   -0.021486
  13 Au:    0.342647   -0.277846
  14 Au:    0.583516   -0.006024
  15 Au:    0.450348   -0.095393
  16 Cr:   -5.375244    2.903081
Sum of atomic charges         :   -0.0000000

LOEWDIN ATOMIC CHARGES AND SPIN POPULATIONS
-------------------------------------------
   0 Au:    0.028496   -0.061327
   1 Au:   -0.004557   -0.059994
   2 Au:    0.039706   -0.027672
   3 Au:    0.068945   -0.169827
   4 Au:    0.094689   -0.124489
   5 Au:    0.058539   -0.084184
   6 Au:    0.133028   -0.122799
   7 Au:    0.134672   -0.108148
   8 Au:   -0.003321   -0.061710
   9 Au:    0.036370   -0.029035
  10 Au:    0.059962   -0.085310
  11 Au:    0.133064   -0.121973
  12 Au:    0.134751   -0.107889
  13 Au:    0.093750   -0.181536
  14 Au:    0.127569   -0.082732
  15 Au:    0.094468   -0.126134
  16 Cr:   -1.230130    3.554759

  Mayer bond orders larger than 0.100000
B(  0-Au,  2-Au) :   0.2286 B(  0-Au,  5-Au) :   0.1469 B(  0-Au,  6-Au) :   0.1610
B(  0-Au,  9-Au) :   0.2268 B(  0-Au, 10-Au) :   0.1422 B(  0-Au, 11-Au) :   0.1613
B(  0-Au, 16-Cr) :   0.5287 B(  1-Au,  2-Au) :   0.2047 B(  1-Au,  3-Au) :   0.2977
B(  1-Au,  4-Au) :   0.2289 B(  1-Au,  5-Au) :   0.2023 B(  1-Au,  8-Au) :   0.2593
B(  1-Au, 16-Cr) :   0.3953 B(  2-Au,  3-Au) :   0.1662 B(  2-Au,  5-Au) :   0.2460
B(  2-Au,  9-Au) :   0.1820 B(  2-Au, 16-Cr) :   0.3073 B(  3-Au,  8-Au) :   0.2960
B(  3-Au,  9-Au) :   0.1742 B(  4-Au,  5-Au) :   0.1227 B(  4-Au,  7-Au) :   0.1391
B(  4-Au, 11-Au) :   0.1021 B(  4-Au, 14-Au) :   0.1713 B(  4-Au, 15-Au) :   0.1851
B(  4-Au, 16-Cr) :   0.4919 B(  5-Au,  6-Au) :   0.1234 B(  5-Au,  7-Au) :   0.1928
B(  5-Au, 16-Cr) :   0.5646 B(  6-Au,  7-Au) :   0.1412 B(  6-Au, 11-Au) :   0.1261
B(  6-Au, 13-Au) :   0.1445 B(  6-Au, 15-Au) :   0.1022 B(  6-Au, 16-Cr) :   0.4836
B(  7-Au, 13-Au) :   0.1284 B(  7-Au, 14-Au) :   0.1144 B(  7-Au, 16-Cr) :   0.4614
B(  8-Au,  9-Au) :   0.2061 B(  8-Au, 10-Au) :   0.2039 B(  8-Au, 15-Au) :   0.2278
B(  8-Au, 16-Cr) :   0.3948 B(  9-Au, 10-Au) :   0.2434 B(  9-Au, 16-Cr) :   0.3113
B( 10-Au, 11-Au) :   0.1249 B( 10-Au, 12-Au) :   0.1919 B( 10-Au, 15-Au) :   0.1224
B( 10-Au, 16-Cr) :   0.5641 B( 11-Au, 12-Au) :   0.1417 B( 11-Au, 13-Au) :   0.1437
B( 11-Au, 16-Cr) :   0.4856 B( 12-Au, 13-Au) :   0.1295 B( 12-Au, 14-Au) :   0.1116
B( 12-Au, 15-Au) :   0.1410 B( 12-Au, 16-Cr) :   0.4607 B( 13-Au, 14-Au) :   0.1442
B( 13-Au, 16-Cr) :   0.4313 B( 14-Au, 15-Au) :   0.1712 B( 14-Au, 16-Cr) :   0.4125
B( 15-Au, 16-Cr) :   0.4866

MP2 TOTAL ENERGY:    -3213.714164949 Eh
FINAL SINGLE POINT ENERGY     -3213.714164949050

DIPOLE MOMENT
-------------
                                X             Y             Z
Electronic contribution:     26.71462      16.32418      13.62182
Nuclear contribution   :    -27.05654     -16.63558     -13.83552
                        -----------------------------------------
Total Dipole Moment    :     -0.34192      -0.31140      -0.21369
                        -----------------------------------------
Magnitude (a.u.)       :      0.50945
Magnitude (Debye)      :      1.29492

Rotational constants in cm-1:     0.001107     0.000699     0.000697
Rotational constants in MHz :    33.183824    20.942111    20.909492

                             ****ORCA TERMINATED NORMALLY****
TOTAL RUN TIME: 0 days 2 hours 9 minutes 58 seconds 324 msec
