                         Program Version 5.0.3 -  RELEASE  -
|  1> !R2SCAN def2-TZVP VERYSLOWCONV
|  2> !KDIIS
|  3> %scf
|  4>   AutoTRAHIter 200
|  5>   maxiter 400
|  6> end
|  7>
|  8> %pal nprocs 6 end
|  9>
| 10> *xyzfile 0 5 pbe.xyz
| 11>
| 12> $new_job
| 13>
| 14> !R2SCAN def2-TZVP VERYSLOWCONV
| 15> !KDIIS
| 16> %scf
| 17>   AutoTRAHIter 200
| 18>   maxiter 400
| 19> end
| 20>
| 21>
| 22> %pal nprocs 6 end
| 23>
| 24> *xyzfile 0 3 pbe.xyz
| 25>
| 26>
| 27>
| 28>
| 29>
| 30>                          ****END OF INPUT****
 Total Charge           Charge          ....    0
 Multiplicity           Mult            ....    5
 Number of Electrons    NEL             ....  328
FINAL SINGLE POINT ENERGY     -3218.030487584721

CARTESIAN COORDINATES (ANGSTROEM)
---------------------------------
  Au     9.554058    6.230807    7.267637
  Au     8.294643    9.517793    9.773636
  Au    10.304109    7.576623    9.561552
  Au    10.901022   10.363575    9.252050
  Au     5.802063    8.941441    8.924495
  Au     7.671489    6.759368    9.612670
  Au     7.261274    4.707885    7.659040
  Au     5.075334    6.212630    8.677695
  Au     8.943801   10.513159    7.262578
  Au    10.965911    8.589751    7.020080
  Au     8.809001    8.463027    5.310911
  Au     7.958707    5.746269    5.042336
  Au     6.199929    7.890699    4.421138
  Au     5.189249    5.587755    5.851406
  Au     4.322942    8.189147    6.657677
  Au     6.476537    9.960452    6.331376
  Cr     6.966483    7.356780    7.022113

 Multiplicity           Mult            ....    3
 Number of Electrons    NEL             ....  328
 Basis Dimension        Dim             ....  685

ORBITAL ENERGIES
----------------
                 SPIN UP ORBITALS
  NO   OCC          E(Eh)            E(eV)
   0   1.0000    -215.294740     -5858.4677
   1   1.0000     -24.594734      -669.2567
   2   1.0000     -20.863221      -567.7171
   3   1.0000     -20.862137      -567.6876
   4   1.0000     -20.857351      -567.5574
   5   1.0000      -4.125595      -112.2632
   6   1.0000      -4.125451      -112.2592
   7   1.0000      -4.125107      -112.2499
   8   1.0000      -4.124988      -112.2466
   9   1.0000      -4.123360      -112.2023
  10   1.0000      -4.123186      -112.1976
  11   1.0000      -4.123122      -112.1959
  12   1.0000      -4.120714      -112.1303
  13   1.0000      -4.120533      -112.1254
  14   1.0000      -4.119056      -112.0852
  15   1.0000      -4.113922      -111.9455
  16   1.0000      -4.110396      -111.8496
  17   1.0000      -4.110246      -111.8455
  18   1.0000      -4.110053      -111.8402
  19   1.0000      -4.109837      -111.8344
  20   1.0000      -4.102566      -111.6365
  21   1.0000      -2.916945       -79.3741
  22   1.0000      -2.314924       -62.9923
  23   1.0000      -2.314789       -62.9886
  24   1.0000      -2.314223       -62.9732
  25   1.0000      -2.313919       -62.9649
  26   1.0000      -2.313431       -62.9516
  27   1.0000      -2.311877       -62.9094
  28   1.0000      -2.311599       -62.9018
  29   1.0000      -2.311313       -62.8940
  30   1.0000      -2.311150       -62.8896
  31   1.0000      -2.310506       -62.8721
  32   1.0000      -2.310336       -62.8674
  33   1.0000      -2.309684       -62.8497
  34   1.0000      -2.309461       -62.8436
  35   1.0000      -2.308905       -62.8285
  36   1.0000      -2.308795       -62.8255
  37   1.0000      -2.308509       -62.8177
  38   1.0000      -2.308103       -62.8067
  39   1.0000      -2.307548       -62.7916
  40   1.0000      -2.307298       -62.7848
  41   1.0000      -2.306814       -62.7716
  42   1.0000      -2.306754       -62.7700
  43   1.0000      -2.306458       -62.7619
  44   1.0000      -2.306395       -62.7602
  45   1.0000      -2.306256       -62.7564
  46   1.0000      -2.305747       -62.7426
  47   1.0000      -2.305495       -62.7357
  48   1.0000      -2.304721       -62.7146
  49   1.0000      -2.304630       -62.7122
  50   1.0000      -2.303996       -62.6949
  51   1.0000      -2.303294       -62.6758
  52   1.0000      -2.301065       -62.6152
  53   1.0000      -2.300299       -62.5943
  54   1.0000      -2.299502       -62.5726
  55   1.0000      -2.298718       -62.5513
  56   1.0000      -2.298547       -62.5466
  57   1.0000      -2.298406       -62.5428
  58   1.0000      -2.297451       -62.5168
  59   1.0000      -2.297152       -62.5087
  60   1.0000      -2.296540       -62.4920
  61   1.0000      -2.296371       -62.4874
  62   1.0000      -2.294681       -62.4415
  63   1.0000      -2.293898       -62.4201
  64   1.0000      -2.292113       -62.3716
  65   1.0000      -2.292051       -62.3699
  66   1.0000      -2.290514       -62.3281
  67   1.0000      -2.289341       -62.2961
  68   1.0000      -2.287388       -62.2430
  69   1.0000      -2.287157       -62.2367
  70   1.0000      -1.865631       -50.7664
  71   1.0000      -1.864966       -50.7483
  72   1.0000      -1.860400       -50.6241
  73   1.0000      -0.439788       -11.9672
  74   1.0000      -0.396727       -10.7955
  75   1.0000      -0.395524       -10.7628
  76   1.0000      -0.395044       -10.7497
  77   1.0000      -0.389069       -10.5871
  78   1.0000      -0.382189       -10.3999
  79   1.0000      -0.379602       -10.3295
  80   1.0000      -0.373963       -10.1761
  81   1.0000      -0.373930       -10.1752
  82   1.0000      -0.371325       -10.1043
  83   1.0000      -0.368424       -10.0253
  84   1.0000      -0.367495       -10.0000
  85   1.0000      -0.366778        -9.9805
  86   1.0000      -0.365544        -9.9470
  87   1.0000      -0.364851        -9.9281
  88   1.0000      -0.361311        -9.8318
  89   1.0000      -0.357628        -9.7315
  90   1.0000      -0.356334        -9.6963
  91   1.0000      -0.355116        -9.6632
  92   1.0000      -0.354600        -9.6492
  93   1.0000      -0.351012        -9.5515
  94   1.0000      -0.348735        -9.4896
  95   1.0000      -0.346829        -9.4377
  96   1.0000      -0.345867        -9.4115
  97   1.0000      -0.343537        -9.3481
  98   1.0000      -0.341385        -9.2896
  99   1.0000      -0.340648        -9.2695
 100   1.0000      -0.339147        -9.2287
 101   1.0000      -0.337652        -9.1880
 102   1.0000      -0.335773        -9.1368
 103   1.0000      -0.335308        -9.1242
 104   1.0000      -0.330667        -8.9979
 105   1.0000      -0.326876        -8.8948
 106   1.0000      -0.326666        -8.8890
 107   1.0000      -0.320429        -8.7193
 108   1.0000      -0.319106        -8.6833
 109   1.0000      -0.318703        -8.6723
 110   1.0000      -0.310453        -8.4479
 111   1.0000      -0.309794        -8.4299
 112   1.0000      -0.308688        -8.3998
 113   1.0000      -0.306821        -8.3490
 114   1.0000      -0.306079        -8.3288
 115   1.0000      -0.305144        -8.3034
 116   1.0000      -0.300970        -8.1898
 117   1.0000      -0.299047        -8.1375
 118   1.0000      -0.298155        -8.1132
 119   1.0000      -0.295475        -8.0403
 120   1.0000      -0.295122        -8.0307
 121   1.0000      -0.294574        -8.0158
 122   1.0000      -0.288980        -7.8636
 123   1.0000      -0.287511        -7.8236
 124   1.0000      -0.285528        -7.7696
 125   1.0000      -0.284976        -7.7546
 126   1.0000      -0.284230        -7.7343
 127   1.0000      -0.281575        -7.6620
 128   1.0000      -0.281323        -7.6552
 129   1.0000      -0.278405        -7.5758
 130   1.0000      -0.278325        -7.5736
 131   1.0000      -0.277888        -7.5617
 132   1.0000      -0.277588        -7.5536
 133   1.0000      -0.276345        -7.5197
 134   1.0000      -0.274609        -7.4725
 135   1.0000      -0.274018        -7.4564
 136   1.0000      -0.271556        -7.3894
 137   1.0000      -0.269340        -7.3291
 138   1.0000      -0.267391        -7.2761
 139   1.0000      -0.266125        -7.2416
 140   1.0000      -0.264957        -7.2099
 141   1.0000      -0.264347        -7.1932
 142   1.0000      -0.263443        -7.1686
 143   1.0000      -0.261991        -7.1291
 144   1.0000      -0.260708        -7.0942
 145   1.0000      -0.258784        -7.0419
 146   1.0000      -0.258593        -7.0367
 147   1.0000      -0.258505        -7.0343
 148   1.0000      -0.255653        -6.9567
 149   1.0000      -0.253761        -6.9052
 150   1.0000      -0.251776        -6.8512
 151   1.0000      -0.250203        -6.8084
 152   1.0000      -0.248345        -6.7578
 153   1.0000      -0.247284        -6.7289
 154   1.0000      -0.245668        -6.6850
 155   1.0000      -0.242702        -6.6043
 156   1.0000      -0.236129        -6.4254
 157   1.0000      -0.235324        -6.4035
 158   1.0000      -0.227397        -6.1878
 159   1.0000      -0.225378        -6.1328
 160   1.0000      -0.224232        -6.1017
 161   1.0000      -0.221321        -6.0225
 162   1.0000      -0.211148        -5.7456
 163   1.0000      -0.201871        -5.4932
 164   1.0000      -0.200035        -5.4432
 165   0.0000      -0.181044        -4.9265
 166   0.0000      -0.179002        -4.8709
 167   0.0000      -0.161640        -4.3985
 168   0.0000      -0.136516        -3.7148
 169   0.0000      -0.136319        -3.7094

                 SPIN DOWN ORBITALS
  NO   OCC          E(Eh)            E(eV)
   0   1.0000    -215.294160     -5858.4519
   1   1.0000     -24.532485      -667.5628
   2   1.0000     -20.818213      -566.4924
   3   1.0000     -20.816066      -566.4339
   4   1.0000     -20.804676      -566.1240
   5   1.0000      -4.125200      -112.2524
   6   1.0000      -4.125073      -112.2490
   7   1.0000      -4.125043      -112.2481
   8   1.0000      -4.124898      -112.2442
   9   1.0000      -4.123594      -112.2087
  10   1.0000      -4.123477      -112.2055
  11   1.0000      -4.122565      -112.1807
  12   1.0000      -4.120785      -112.1323
  13   1.0000      -4.120602      -112.1273
  14   1.0000      -4.118960      -112.0826
  15   1.0000      -4.114414      -111.9589
  16   1.0000      -4.110920      -111.8638
  17   1.0000      -4.110769      -111.8597
  18   1.0000      -4.110503      -111.8525
  19   1.0000      -4.110274      -111.8462
  20   1.0000      -4.103043      -111.6495
  21   1.0000      -2.752839       -74.9086
  22   1.0000      -2.314234       -62.9735
  23   1.0000      -2.314009       -62.9674
  24   1.0000      -2.313914       -62.9648
  25   1.0000      -2.313276       -62.9474
  26   1.0000      -2.313228       -62.9461
  27   1.0000      -2.311778       -62.9067
  28   1.0000      -2.311499       -62.8991
  29   1.0000      -2.311158       -62.8898
  30   1.0000      -2.310944       -62.8840
  31   1.0000      -2.309721       -62.8507
  32   1.0000      -2.309611       -62.8477
  33   1.0000      -2.309455       -62.8435
  34   1.0000      -2.309308       -62.8395
  35   1.0000      -2.308674       -62.8222
  36   1.0000      -2.308559       -62.8191
  37   1.0000      -2.308464       -62.8165
  38   1.0000      -2.307744       -62.7969
  39   1.0000      -2.307379       -62.7870
  40   1.0000      -2.307247       -62.7834
  41   1.0000      -2.306592       -62.7656
  42   1.0000      -2.306396       -62.7602
  43   1.0000      -2.306157       -62.7537
  44   1.0000      -2.306074       -62.7515
  45   1.0000      -2.305777       -62.7434
  46   1.0000      -2.305767       -62.7431
  47   1.0000      -2.305403       -62.7332
  48   1.0000      -2.304820       -62.7173
  49   1.0000      -2.304739       -62.7151
  50   1.0000      -2.303970       -62.6942
  51   1.0000      -2.303191       -62.6730
  52   1.0000      -2.301074       -62.6154
  53   1.0000      -2.300726       -62.6059
  54   1.0000      -2.300266       -62.5934
  55   1.0000      -2.299139       -62.5628
  56   1.0000      -2.299032       -62.5598
  57   1.0000      -2.298970       -62.5582
  58   1.0000      -2.298152       -62.5359
  59   1.0000      -2.297908       -62.5292
  60   1.0000      -2.297086       -62.5069
  61   1.0000      -2.296881       -62.5013
  62   1.0000      -2.295179       -62.4550
  63   1.0000      -2.294175       -62.4277
  64   1.0000      -2.292397       -62.3793
  65   1.0000      -2.292305       -62.3768
  66   1.0000      -2.290768       -62.3350
  67   1.0000      -2.289660       -62.3048
  68   1.0000      -2.287668       -62.2506
  69   1.0000      -2.287435       -62.2443
  70   1.0000      -1.711433       -46.5705
  71   1.0000      -1.707046       -46.4511
  72   1.0000      -1.681685       -45.7610
  73   1.0000      -0.434376       -11.8200
  74   1.0000      -0.396618       -10.7925
  75   1.0000      -0.396214       -10.7815
  76   1.0000      -0.395852       -10.7717
  77   1.0000      -0.385617       -10.4932
  78   1.0000      -0.378992       -10.3129
  79   1.0000      -0.376880       -10.2554
  80   1.0000      -0.372691       -10.1414
  81   1.0000      -0.371849       -10.1185
  82   1.0000      -0.370818       -10.0905
  83   1.0000      -0.369068       -10.0428
  84   1.0000      -0.366919        -9.9844
  85   1.0000      -0.365810        -9.9542
  86   1.0000      -0.363626        -9.8948
  87   1.0000      -0.363577        -9.8934
  88   1.0000      -0.362894        -9.8748
  89   1.0000      -0.357679        -9.7329
  90   1.0000      -0.357248        -9.7212
  91   1.0000      -0.356702        -9.7063
  92   1.0000      -0.354522        -9.6470
  93   1.0000      -0.352227        -9.5846
  94   1.0000      -0.350192        -9.5292
  95   1.0000      -0.348000        -9.4696
  96   1.0000      -0.346974        -9.4416
  97   1.0000      -0.344953        -9.3867
  98   1.0000      -0.342301        -9.3145
  99   1.0000      -0.341389        -9.2897
 100   1.0000      -0.339768        -9.2455
 101   1.0000      -0.338823        -9.2198
 102   1.0000      -0.336279        -9.1506
 103   1.0000      -0.335638        -9.1332
 104   1.0000      -0.330138        -8.9835
 105   1.0000      -0.327712        -8.9175
 106   1.0000      -0.326570        -8.8864
 107   1.0000      -0.320650        -8.7253
 108   1.0000      -0.319696        -8.6994
 109   1.0000      -0.317702        -8.6451
 110   1.0000      -0.311843        -8.4857
 111   1.0000      -0.311029        -8.4635
 112   1.0000      -0.309371        -8.4184
 113   1.0000      -0.308023        -8.3817
 114   1.0000      -0.304958        -8.2983
 115   1.0000      -0.302409        -8.2290
 116   1.0000      -0.298914        -8.1339
 117   1.0000      -0.297485        -8.0950
 118   1.0000      -0.297387        -8.0923
 119   1.0000      -0.296167        -8.0591
 120   1.0000      -0.294655        -8.0180
 121   1.0000      -0.294504        -8.0139
 122   1.0000      -0.289211        -7.8698
 123   1.0000      -0.287401        -7.8206
 124   1.0000      -0.287091        -7.8122
 125   1.0000      -0.285756        -7.7758
 126   1.0000      -0.285080        -7.7574
 127   1.0000      -0.282978        -7.7002
 128   1.0000      -0.282400        -7.6845
 129   1.0000      -0.280291        -7.6271
 130   1.0000      -0.279811        -7.6140
 131   1.0000      -0.279023        -7.5926
 132   1.0000      -0.278888        -7.5889
 133   1.0000      -0.278304        -7.5730
 134   1.0000      -0.276197        -7.5157
 135   1.0000      -0.274985        -7.4827
 136   1.0000      -0.271966        -7.4006
 137   1.0000      -0.270093        -7.3496
 138   1.0000      -0.268961        -7.3188
 139   1.0000      -0.267946        -7.2912
 140   1.0000      -0.267315        -7.2740
 141   1.0000      -0.266412        -7.2494
 142   1.0000      -0.264604        -7.2002
 143   1.0000      -0.263092        -7.1591
 144   1.0000      -0.262035        -7.1303
 145   1.0000      -0.260092        -7.0775
 146   1.0000      -0.259407        -7.0588
 147   1.0000      -0.259069        -7.0496
 148   1.0000      -0.258431        -7.0323
 149   1.0000      -0.256907        -6.9908
 150   1.0000      -0.253468        -6.8972
 151   1.0000      -0.251816        -6.8523
 152   1.0000      -0.248832        -6.7711
 153   1.0000      -0.248401        -6.7593
 154   1.0000      -0.246004        -6.6941
 155   1.0000      -0.243385        -6.6228
 156   1.0000      -0.236430        -6.4336
 157   1.0000      -0.236180        -6.4268
 158   1.0000      -0.218398        -5.9429
 159   1.0000      -0.218252        -5.9389
 160   1.0000      -0.207076        -5.6348
 161   1.0000      -0.206651        -5.6233
 162   1.0000      -0.181936        -4.9507
 163   0.0000      -0.145154        -3.9498
 164   0.0000      -0.144637        -3.9358
 165   0.0000      -0.127415        -3.4671
 166   0.0000      -0.124095        -3.3768
 167   0.0000      -0.119240        -3.2447

MULLIKEN ATOMIC CHARGES AND SPIN POPULATIONS
--------------------------------------------
   0 Au:    0.053497   -0.020103
   1 Au:    0.002739   -0.001426
   2 Au:    0.244013    0.029392
   3 Au:    0.307086   -0.258925
   4 Au:    0.398763   -0.072537
   5 Au:    0.158020   -0.033331
   6 Au:    0.565239   -0.071086
   7 Au:    0.577356   -0.040061
   8 Au:    0.002458   -0.003471
   9 Au:    0.236218    0.029220
  10 Au:    0.163275   -0.033433
  11 Au:    0.566235   -0.070394
  12 Au:    0.575926   -0.039234
  13 Au:    0.346838   -0.245682
  14 Au:    0.544209   -0.011658
  15 Au:    0.401821   -0.073995
  16 Cr:   -5.143693    2.916722
Sum of atomic charges         :   -0.0000000

LOEWDIN ATOMIC CHARGES AND SPIN POPULATIONS
-------------------------------------------
   0 Au:    0.044484   -0.045166
   1 Au:   -0.000812   -0.056527
   2 Au:    0.030635   -0.018251
   3 Au:    0.052676   -0.148895
   4 Au:    0.110622   -0.107423
   5 Au:    0.073721   -0.059874
   6 Au:    0.147218   -0.123049
   7 Au:    0.139054   -0.094362
   8 Au:    0.000263   -0.057737
   9 Au:    0.027649   -0.019449
  10 Au:    0.075053   -0.060516
  11 Au:    0.147239   -0.122346
  12 Au:    0.138812   -0.093675
  13 Au:    0.100632   -0.168764
  14 Au:    0.128258   -0.071558
  15 Au:    0.110497   -0.108818
  16 Cr:   -1.325999    3.356409

  Mayer bond orders larger than 0.100000
B(  0-Au,  2-Au) :   0.2633 B(  0-Au,  5-Au) :   0.1368 B(  0-Au,  6-Au) :   0.1947
B(  0-Au,  9-Au) :   0.2617 B(  0-Au, 10-Au) :   0.1333 B(  0-Au, 11-Au) :   0.1949
B(  0-Au, 16-Cr) :   0.5097 B(  1-Au,  2-Au) :   0.2161 B(  1-Au,  3-Au) :   0.3192
B(  1-Au,  4-Au) :   0.2901 B(  1-Au,  5-Au) :   0.2227 B(  1-Au,  8-Au) :   0.2596
B(  1-Au, 16-Cr) :   0.3592 B(  2-Au,  3-Au) :   0.1926 B(  2-Au,  5-Au) :   0.2943
B(  2-Au,  9-Au) :   0.1960 B(  2-Au, 16-Cr) :   0.2813 B(  3-Au,  8-Au) :   0.3172
B(  3-Au,  9-Au) :   0.2012 B(  4-Au,  5-Au) :   0.1342 B(  4-Au,  7-Au) :   0.1612
B(  4-Au, 14-Au) :   0.2010 B(  4-Au, 15-Au) :   0.2110 B(  4-Au, 16-Cr) :   0.6023
B(  5-Au,  6-Au) :   0.1496 B(  5-Au,  7-Au) :   0.2178 B(  5-Au, 16-Cr) :   0.5692
B(  6-Au,  7-Au) :   0.1817 B(  6-Au, 11-Au) :   0.1624 B(  6-Au, 13-Au) :   0.1731
B(  6-Au, 16-Cr) :   0.6099 B(  7-Au, 13-Au) :   0.1509 B(  7-Au, 14-Au) :   0.1465
B(  7-Au, 16-Cr) :   0.5337 B(  8-Au,  9-Au) :   0.2161 B(  8-Au, 10-Au) :   0.2234
B(  8-Au, 15-Au) :   0.2892 B(  8-Au, 16-Cr) :   0.3606 B(  9-Au, 10-Au) :   0.2919
B(  9-Au, 16-Cr) :   0.2847 B( 10-Au, 11-Au) :   0.1512 B( 10-Au, 12-Au) :   0.2165
B( 10-Au, 15-Au) :   0.1341 B( 10-Au, 16-Cr) :   0.5702 B( 11-Au, 12-Au) :   0.1823
B( 11-Au, 13-Au) :   0.1718 B( 11-Au, 16-Cr) :   0.6116 B( 12-Au, 13-Au) :   0.1527
B( 12-Au, 14-Au) :   0.1425 B( 12-Au, 15-Au) :   0.1644 B( 12-Au, 16-Cr) :   0.5316
B( 13-Au, 14-Au) :   0.1668 B( 13-Au, 16-Cr) :   0.4980 B( 14-Au, 15-Au) :   0.2013
B( 14-Au, 16-Cr) :   0.4638 B( 15-Au, 16-Cr) :   0.5979

FINAL SINGLE POINT ENERGY     -3218.028936503592

DIPOLE MOMENT
-------------
                                X             Y             Z
Electronic contribution:     26.63972      16.27817      13.58494
Nuclear contribution   :    -27.05654     -16.63558     -13.83552
                        -----------------------------------------
Total Dipole Moment    :     -0.41681      -0.35741      -0.25058
                        -----------------------------------------
Magnitude (a.u.)       :      0.60354
Magnitude (Debye)      :      1.53408

Rotational constants in cm-1:     0.001107     0.000699     0.000697
Rotational constants in MHz :    33.183824    20.942111    20.909492

                             ****ORCA TERMINATED NORMALLY****
TOTAL RUN TIME: 0 days 0 hours 36 minutes 27 seconds 399 msec
