                         Program Version 5.0.3 -  RELEASE  -
|  1> !RI-B2PLYP def2-TZVP def2-TZVP/C
|  2> !RIJCOSX
|  3> %pal nprocs 6 end
|  4>
|  5> *xyzfile 0 5 pbe.xyz
|  6>
|  7> $new_job
|  8>
|  9> !RI-B2PLYP def2-TZVP def2-TZVP/C
| 10> !RIJCOSX
| 11> %pal nprocs 6 end
| 12>
| 13> *xyzfile 0 3 pbe.xyz
| 14>
| 15>
| 16>
| 17>
| 18>
| 19>                          ****END OF INPUT****
 Total Charge           Charge          ....    0
 Multiplicity           Mult            ....    5
 Number of Electrons    NEL             ....  292
MP2 TOTAL ENERGY:    -3161.737574830 Eh
FINAL SINGLE POINT ENERGY     -3161.737574829811

CARTESIAN COORDINATES (ANGSTROEM)
---------------------------------
  Au     9.741190    8.238994    6.270333
  Au     7.545962    9.825701    6.933221
  Au     8.541754    5.765737    5.435716
  Au     7.496282    8.223603    4.594513
  Au     5.809648    6.237407    5.717810
  Au     4.005638    7.178552    7.666584
  Au     5.096319    8.981834    5.773001
  Au     5.219948    9.687775    8.513038
  Au     7.207830    4.878069    7.719317
  Au     8.948944    8.472680    8.935510
  Au     9.817758    5.974230    7.918484
  Au     6.586838    8.366917   10.468694
  Au     5.370012    5.853834    9.620848
  Au     8.148206    6.027851   10.138840
  Fe     6.673655    7.492988    7.919773

 Multiplicity           Mult            ....    3
 Number of Electrons    NEL             ....  292
 Basis Dimension        Dim             ....  605

ORBITAL ENERGIES
----------------
                 SPIN UP ORBITALS
  NO   OCC          E(Eh)            E(eV)
   0   1.0000    -258.341812     -7029.8381
   1   1.0000     -30.899693      -840.8234
   2   1.0000     -26.614683      -724.2223
   3   1.0000     -26.599962      -723.8218
   4   1.0000     -26.579441      -723.2634
   5   1.0000      -4.411644      -120.0469
   6   1.0000      -4.411609      -120.0460
   7   1.0000      -4.411490      -120.0427
   8   1.0000      -4.411453      -120.0417
   9   1.0000      -4.397392      -119.6591
  10   1.0000      -4.397209      -119.6542
  11   1.0000      -4.397139      -119.6522
  12   1.0000      -4.396953      -119.6472
  13   1.0000      -4.396598      -119.6375
  14   1.0000      -4.396516      -119.6353
  15   1.0000      -4.390649      -119.4756
  16   1.0000      -4.390468      -119.4707
  17   1.0000      -4.390404      -119.4690
  18   1.0000      -4.390294      -119.4660
  19   1.0000      -3.912775      -106.4720
  20   1.0000      -2.655897       -72.2706
  21   1.0000      -2.625891       -71.4541
  22   1.0000      -2.583409       -70.2981
  23   1.0000      -2.532643       -68.9167
  24   1.0000      -2.532589       -68.9153
  25   1.0000      -2.531185       -68.8771
  26   1.0000      -2.531136       -68.8757
  27   1.0000      -2.529980       -68.8443
  28   1.0000      -2.529943       -68.8433
  29   1.0000      -2.528301       -68.7986
  30   1.0000      -2.528248       -68.7971
  31   1.0000      -2.528051       -68.7918
  32   1.0000      -2.528016       -68.7908
  33   1.0000      -2.526134       -68.7396
  34   1.0000      -2.526097       -68.7386
  35   1.0000      -2.518411       -68.5294
  36   1.0000      -2.518056       -68.5198
  37   1.0000      -2.517432       -68.5028
  38   1.0000      -2.517325       -68.4999
  39   1.0000      -2.516063       -68.4655
  40   1.0000      -2.515608       -68.4532
  41   1.0000      -2.514768       -68.4303
  42   1.0000      -2.514286       -68.4172
  43   1.0000      -2.513705       -68.4014
  44   1.0000      -2.512966       -68.3813
  45   1.0000      -2.512457       -68.3674
  46   1.0000      -2.512366       -68.3649
  47   1.0000      -2.512056       -68.3565
  48   1.0000      -2.511950       -68.3536
  49   1.0000      -2.510952       -68.3265
  50   1.0000      -2.510657       -68.3184
  51   1.0000      -2.510504       -68.3143
  52   1.0000      -2.510292       -68.3085
  53   1.0000      -2.509974       -68.2999
  54   1.0000      -2.509817       -68.2956
  55   1.0000      -2.509576       -68.2890
  56   1.0000      -2.507825       -68.2414
  57   1.0000      -2.507650       -68.2366
  58   1.0000      -2.507349       -68.2284
  59   1.0000      -2.507261       -68.2260
  60   1.0000      -2.507102       -68.2217
  61   1.0000      -2.505868       -68.1881
  62   1.0000      -2.505324       -68.1733
  63   1.0000      -2.505063       -68.1662
  64   1.0000      -2.504490       -68.1506
  65   1.0000      -0.564319       -15.3559
  66   1.0000      -0.563394       -15.3307
  67   1.0000      -0.550219       -14.9722
  68   1.0000      -0.536836       -14.6081
  69   1.0000      -0.517497       -14.0818
  70   1.0000      -0.500165       -13.6102
  71   1.0000      -0.469940       -12.7877
  72   1.0000      -0.467284       -12.7155
  73   1.0000      -0.463312       -12.6074
  74   1.0000      -0.462802       -12.5935
  75   1.0000      -0.459530       -12.5045
  76   1.0000      -0.458714       -12.4822
  77   1.0000      -0.458425       -12.4744
  78   1.0000      -0.457655       -12.4534
  79   1.0000      -0.456243       -12.4150
  80   1.0000      -0.452977       -12.3261
  81   1.0000      -0.452543       -12.3143
  82   1.0000      -0.450573       -12.2607
  83   1.0000      -0.450349       -12.2546
  84   1.0000      -0.448242       -12.1973
  85   1.0000      -0.447999       -12.1907
  86   1.0000      -0.446194       -12.1415
  87   1.0000      -0.445229       -12.1153
  88   1.0000      -0.442895       -12.0518
  89   1.0000      -0.440527       -11.9874
  90   1.0000      -0.435491       -11.8503
  91   1.0000      -0.434290       -11.8176
  92   1.0000      -0.433547       -11.7974
  93   1.0000      -0.428907       -11.6712
  94   1.0000      -0.422704       -11.5024
  95   1.0000      -0.422335       -11.4923
  96   1.0000      -0.421336       -11.4651
  97   1.0000      -0.419457       -11.4140
  98   1.0000      -0.418143       -11.3782
  99   1.0000      -0.412837       -11.2339
 100   1.0000      -0.409765       -11.1503
 101   1.0000      -0.408812       -11.1244
 102   1.0000      -0.406206       -11.0534
 103   1.0000      -0.403284       -10.9739
 104   1.0000      -0.400159       -10.8889
 105   1.0000      -0.398637       -10.8475
 106   1.0000      -0.394109       -10.7242
 107   1.0000      -0.392534       -10.6814
 108   1.0000      -0.391620       -10.6565
 109   1.0000      -0.388385       -10.5685
 110   1.0000      -0.383324       -10.4308
 111   1.0000      -0.378255       -10.2929
 112   1.0000      -0.375681       -10.2228
 113   1.0000      -0.374682       -10.1956
 114   1.0000      -0.373809       -10.1719
 115   1.0000      -0.373021       -10.1504
 116   1.0000      -0.370803       -10.0901
 117   1.0000      -0.365104        -9.9350
 118   1.0000      -0.364851        -9.9281
 119   1.0000      -0.362300        -9.8587
 120   1.0000      -0.361626        -9.8404
 121   1.0000      -0.360486        -9.8093
 122   1.0000      -0.358795        -9.7633
 123   1.0000      -0.358553        -9.7567
 124   1.0000      -0.355853        -9.6833
 125   1.0000      -0.355241        -9.6666
 126   1.0000      -0.354264        -9.6400
 127   1.0000      -0.354047        -9.6341
 128   1.0000      -0.350773        -9.5450
 129   1.0000      -0.349591        -9.5129
 130   1.0000      -0.348930        -9.4949
 131   1.0000      -0.344365        -9.3706
 132   1.0000      -0.343080        -9.3357
 133   1.0000      -0.341643        -9.2966
 134   1.0000      -0.339345        -9.2340
 135   1.0000      -0.339285        -9.2324
 136   1.0000      -0.335052        -9.1172
 137   1.0000      -0.330017        -8.9802
 138   1.0000      -0.329430        -8.9642
 139   1.0000      -0.326881        -8.8949
 140   1.0000      -0.317554        -8.6411
 141   1.0000      -0.316026        -8.5995
 142   1.0000      -0.315876        -8.5954
 143   1.0000      -0.293417        -7.9843
 144   1.0000      -0.226456        -6.1622
 145   1.0000      -0.223265        -6.0753
 146   1.0000      -0.222089        -6.0433
 147   0.0000      -0.133224        -3.6252
 148   0.0000      -0.129039        -3.5113
 149   0.0000      -0.073610        -2.0030
 150   0.0000      -0.059953        -1.6314
 151   0.0000      -0.057498        -1.5646

                 SPIN DOWN ORBITALS
  NO   OCC          E(Eh)            E(eV)
   0   1.0000    -258.339923     -7029.7867
   1   1.0000     -30.807543      -838.3159
   2   1.0000     -26.518941      -721.6171
   3   1.0000     -26.514275      -721.4901
   4   1.0000     -26.508442      -721.3314
   5   1.0000      -4.412209      -120.0623
   6   1.0000      -4.412182      -120.0616
   7   1.0000      -4.412053      -120.0581
   8   1.0000      -4.412024      -120.0573
   9   1.0000      -4.397954      -119.6744
  10   1.0000      -4.397763      -119.6692
  11   1.0000      -4.397701      -119.6675
  12   1.0000      -4.397512      -119.6624
  13   1.0000      -4.397387      -119.6590
  14   1.0000      -4.397338      -119.6576
  15   1.0000      -4.391753      -119.5057
  16   1.0000      -4.391592      -119.5013
  17   1.0000      -4.391400      -119.4961
  18   1.0000      -4.391307      -119.4936
  19   1.0000      -3.669915       -99.8635
  20   1.0000      -2.532174       -68.9040
  21   1.0000      -2.532087       -68.9016
  22   1.0000      -2.529988       -68.8445
  23   1.0000      -2.529930       -68.8429
  24   1.0000      -2.529846       -68.8406
  25   1.0000      -2.529798       -68.8393
  26   1.0000      -2.528697       -68.8093
  27   1.0000      -2.528645       -68.8079
  28   1.0000      -2.528122       -68.7937
  29   1.0000      -2.528101       -68.7931
  30   1.0000      -2.526333       -68.7450
  31   1.0000      -2.526284       -68.7437
  32   1.0000      -2.518077       -68.5204
  33   1.0000      -2.517759       -68.5117
  34   1.0000      -2.517694       -68.5099
  35   1.0000      -2.517391       -68.5017
  36   1.0000      -2.516435       -68.4757
  37   1.0000      -2.516178       -68.4687
  38   1.0000      -2.515175       -68.4414
  39   1.0000      -2.515071       -68.4386
  40   1.0000      -2.514493       -68.4228
  41   1.0000      -2.514098       -68.4121
  42   1.0000      -2.513716       -68.4017
  43   1.0000      -2.513401       -68.3931
  44   1.0000      -2.513077       -68.3843
  45   1.0000      -2.512983       -68.3817
  46   1.0000      -2.511714       -68.3472
  47   1.0000      -2.511253       -68.3347
  48   1.0000      -2.511201       -68.3332
  49   1.0000      -2.510826       -68.3231
  50   1.0000      -2.510770       -68.3215
  51   1.0000      -2.510677       -68.3190
  52   1.0000      -2.510491       -68.3139
  53   1.0000      -2.509897       -68.2978
  54   1.0000      -2.509593       -68.2895
  55   1.0000      -2.508967       -68.2725
  56   1.0000      -2.508559       -68.2614
  57   1.0000      -2.508386       -68.2567
  58   1.0000      -2.506857       -68.2151
  59   1.0000      -2.506108       -68.1947
  60   1.0000      -2.505780       -68.1857
  61   1.0000      -2.504997       -68.1644
  62   1.0000      -2.350847       -63.9698
  63   1.0000      -2.344677       -63.8019
  64   1.0000      -2.337710       -63.6123
  65   1.0000      -0.514300       -13.9948
  66   1.0000      -0.478671       -13.0253
  67   1.0000      -0.472402       -12.8547
  68   1.0000      -0.470737       -12.8094
  69   1.0000      -0.467782       -12.7290
  70   1.0000      -0.467117       -12.7109
  71   1.0000      -0.464803       -12.6479
  72   1.0000      -0.461831       -12.5671
  73   1.0000      -0.461665       -12.5625
  74   1.0000      -0.461369       -12.5545
  75   1.0000      -0.460507       -12.5310
  76   1.0000      -0.460489       -12.5305
  77   1.0000      -0.458919       -12.4878
  78   1.0000      -0.457002       -12.4357
  79   1.0000      -0.455438       -12.3931
  80   1.0000      -0.453613       -12.3434
  81   1.0000      -0.453449       -12.3390
  82   1.0000      -0.452160       -12.3039
  83   1.0000      -0.450288       -12.2530
  84   1.0000      -0.445429       -12.1207
  85   1.0000      -0.444474       -12.0947
  86   1.0000      -0.437294       -11.8994
  87   1.0000      -0.437049       -11.8927
  88   1.0000      -0.436901       -11.8887
  89   1.0000      -0.431270       -11.7354
  90   1.0000      -0.428789       -11.6679
  91   1.0000      -0.425075       -11.5669
  92   1.0000      -0.420953       -11.4547
  93   1.0000      -0.420601       -11.4451
  94   1.0000      -0.418156       -11.3786
  95   1.0000      -0.413756       -11.2589
  96   1.0000      -0.412679       -11.2296
  97   1.0000      -0.412132       -11.2147
  98   1.0000      -0.410326       -11.1655
  99   1.0000      -0.405844       -11.0436
 100   1.0000      -0.404337       -11.0026
 101   1.0000      -0.395674       -10.7668
 102   1.0000      -0.394424       -10.7328
 103   1.0000      -0.394307       -10.7296
 104   1.0000      -0.392798       -10.6886
 105   1.0000      -0.391132       -10.6432
 106   1.0000      -0.390003       -10.6125
 107   1.0000      -0.382929       -10.4200
 108   1.0000      -0.378243       -10.2925
 109   1.0000      -0.376961       -10.2576
 110   1.0000      -0.374584       -10.1929
 111   1.0000      -0.371570       -10.1109
 112   1.0000      -0.369057       -10.0426
 113   1.0000      -0.367143        -9.9905
 114   1.0000      -0.365290        -9.9400
 115   1.0000      -0.364495        -9.9184
 116   1.0000      -0.361694        -9.8422
 117   1.0000      -0.361684        -9.8419
 118   1.0000      -0.359519        -9.7830
 119   1.0000      -0.358659        -9.7596
 120   1.0000      -0.357511        -9.7284
 121   1.0000      -0.357382        -9.7249
 122   1.0000      -0.356964        -9.7135
 123   1.0000      -0.354630        -9.6500
 124   1.0000      -0.352371        -9.5885
 125   1.0000      -0.352238        -9.5849
 126   1.0000      -0.349851        -9.5199
 127   1.0000      -0.349238        -9.5032
 128   1.0000      -0.347298        -9.4505
 129   1.0000      -0.344485        -9.3739
 130   1.0000      -0.340991        -9.2788
 131   1.0000      -0.340590        -9.2679
 132   1.0000      -0.338630        -9.2146
 133   1.0000      -0.332137        -9.0379
 134   1.0000      -0.329824        -8.9750
 135   1.0000      -0.329498        -8.9661
 136   1.0000      -0.324396        -8.8273
 137   1.0000      -0.322483        -8.7752
 138   1.0000      -0.318598        -8.6695
 139   1.0000      -0.311290        -8.4706
 140   1.0000      -0.238424        -6.4879
 141   1.0000      -0.232065        -6.3148
 142   1.0000      -0.229553        -6.2465
 143   1.0000      -0.229432        -6.2432
 144   1.0000      -0.217555        -5.9200
 145   0.0000      -0.074470        -2.0264
 146   0.0000      -0.065073        -1.7707
 147   0.0000      -0.062697        -1.7061
 148   0.0000      -0.062553        -1.7022
 149   0.0000      -0.054770        -1.4904

MULLIKEN ATOMIC CHARGES AND SPIN POPULATIONS
--------------------------------------------
   0 Au:    0.098485   -0.063388
   1 Au:    0.108713   -0.232645
   2 Au:    0.096234   -0.066423
   3 Au:    0.065511   -0.064224
   4 Au:    0.110138   -0.231878
   5 Au:    0.227026   -0.066905
   6 Au:    0.159432   -0.025773
   7 Au:    0.228284   -0.068982
   8 Au:    0.113736   -0.231569
   9 Au:    0.112380   -0.231830
  10 Au:    0.065262   -0.067686
  11 Au:    0.228259   -0.067161
  12 Au:    0.227896   -0.064810
  13 Au:    0.160191   -0.025427
  14 Fe:   -2.001547    3.508704
Sum of atomic charges         :    0.0000000

LOEWDIN ATOMIC CHARGES AND SPIN POPULATIONS
-------------------------------------------
   0 Au:   -0.001571   -0.104200
   1 Au:    0.021148   -0.136622
   2 Au:   -0.002335   -0.104975
   3 Au:   -0.003650   -0.089261
   4 Au:    0.021332   -0.136033
   5 Au:    0.052357   -0.096216
   6 Au:    0.014769   -0.090117
   7 Au:    0.052762   -0.097459
   8 Au:    0.022606   -0.136399
   9 Au:    0.022061   -0.136535
  10 Au:   -0.003560   -0.091185
  11 Au:    0.052846   -0.096193
  12 Au:    0.052640   -0.095212
  13 Au:    0.014524   -0.089584
  14 Fe:   -0.315929    3.499991

  Mayer bond orders larger than 0.100000
B(  0-Au,  1-Au) :   0.2675 B(  0-Au,  2-Au) :   0.1676 B(  0-Au,  3-Au) :   0.2351
B(  0-Au,  9-Au) :   0.2660 B(  0-Au, 10-Au) :   0.2344 B(  0-Au, 14-Fe) :   0.1675
B(  1-Au,  3-Au) :   0.2061 B(  1-Au,  6-Au) :   0.1721 B(  1-Au,  7-Au) :   0.1769
B(  1-Au,  9-Au) :   0.1788 B(  1-Au, 14-Fe) :   0.4542 B(  2-Au,  3-Au) :   0.2349
B(  2-Au,  4-Au) :   0.2674 B(  2-Au,  8-Au) :   0.2664 B(  2-Au, 10-Au) :   0.2351
B(  2-Au, 14-Fe) :   0.1691 B(  3-Au,  4-Au) :   0.2039 B(  3-Au,  6-Au) :   0.2927
B(  3-Au, 14-Fe) :   0.1901 B(  4-Au,  5-Au) :   0.1751 B(  4-Au,  6-Au) :   0.1733
B(  4-Au,  8-Au) :   0.1792 B(  4-Au, 14-Fe) :   0.4547 B(  5-Au,  6-Au) :   0.1820
B(  5-Au, 12-Au) :   0.2600 B(  5-Au, 14-Fe) :   0.4469 B(  6-Au,  7-Au) :   0.1819
B(  6-Au, 14-Fe) :   0.2975 B(  7-Au, 11-Au) :   0.2597 B(  7-Au, 14-Fe) :   0.4469
B(  8-Au, 10-Au) :   0.2030 B(  8-Au, 12-Au) :   0.1749 B(  8-Au, 13-Au) :   0.1708
B(  8-Au, 14-Fe) :   0.4558 B(  9-Au, 10-Au) :   0.2062 B(  9-Au, 11-Au) :   0.1753
B(  9-Au, 13-Au) :   0.1707 B(  9-Au, 14-Fe) :   0.4549 B( 10-Au, 13-Au) :   0.2923
B( 10-Au, 14-Fe) :   0.1928 B( 11-Au, 13-Au) :   0.1819 B( 11-Au, 14-Fe) :   0.4486
B( 12-Au, 13-Au) :   0.1820 B( 12-Au, 14-Fe) :   0.4470 B( 13-Au, 14-Fe) :   0.3008

MP2 TOTAL ENERGY:    -3161.738469467 Eh
FINAL SINGLE POINT ENERGY     -3161.738469467057

DIPOLE MOMENT
-------------
                                X             Y             Z
Electronic contribution:     16.40597      -3.19150     -13.89508
Nuclear contribution   :    -16.64912       3.24151      14.10135
                        -----------------------------------------
Total Dipole Moment    :     -0.24315       0.05001       0.20627
                        -----------------------------------------
Magnitude (a.u.)       :      0.32276
Magnitude (Debye)      :      0.82039

Rotational constants in cm-1:     0.001148     0.001111     0.000935
Rotational constants in MHz :    34.407841    33.315310    28.031694

                             ****ORCA TERMINATED NORMALLY****
TOTAL RUN TIME: 0 days 0 hours 31 minutes 2 seconds 493 msec
