                         Program Version 5.0.3 -  RELEASE  -
|  1> !PBE def2-TZVP VERYSLOWCONV
|  2>
|  3> %pal nprocs 6 end
|  4>
|  5> *xyzfile 0 5 pbe.xyz
|  6>
|  7> $new_job
|  8>
|  9> !PBE def2-TZVP VERYSLOWCONV
| 10>
| 11>
| 12> %pal nprocs 6 end
| 13>
| 14> *xyzfile 0 3 pbe.xyz
| 15>
| 16>
| 17>
| 18>
| 19>
| 20>                          ****END OF INPUT****
 Total Charge           Charge          ....    0
 Multiplicity           Mult            ....    5
 Number of Electrons    NEL             ....  292
FINAL SINGLE POINT ENERGY     -3165.066741847811

CARTESIAN COORDINATES (ANGSTROEM)
---------------------------------
  Au     9.741190    8.238994    6.270333
  Au     7.545962    9.825701    6.933221
  Au     8.541754    5.765737    5.435716
  Au     7.496282    8.223603    4.594513
  Au     5.809648    6.237407    5.717810
  Au     4.005638    7.178552    7.666584
  Au     5.096319    8.981834    5.773001
  Au     5.219948    9.687775    8.513038
  Au     7.207830    4.878069    7.719317
  Au     8.948944    8.472680    8.935510
  Au     9.817758    5.974230    7.918484
  Au     6.586838    8.366917   10.468694
  Au     5.370012    5.853834    9.620848
  Au     8.148206    6.027851   10.138840
  Fe     6.673655    7.492988    7.919773

 Multiplicity           Mult            ....    3
 Number of Electrons    NEL             ....  292
 Basis Dimension        Dim             ....  605

ORBITAL ENERGIES
----------------
                 SPIN UP ORBITALS
  NO   OCC          E(Eh)            E(eV)
   0   1.0000    -254.750558     -6932.1151
   1   1.0000     -29.584433      -805.0333
   2   1.0000     -25.531588      -694.7498
   3   1.0000     -25.521516      -694.4758
   4   1.0000     -25.507479      -694.0938
   5   1.0000      -4.038540      -109.8943
   6   1.0000      -4.038525      -109.8938
   7   1.0000      -4.038415      -109.8909
   8   1.0000      -4.038393      -109.8903
   9   1.0000      -4.027522      -109.5945
  10   1.0000      -4.027462      -109.5928
  11   1.0000      -4.026089      -109.5555
  12   1.0000      -4.025978      -109.5524
  13   1.0000      -4.025882      -109.5498
  14   1.0000      -4.025771      -109.5468
  15   1.0000      -4.022156      -109.4484
  16   1.0000      -4.022036      -109.4452
  17   1.0000      -4.021317      -109.4256
  18   1.0000      -4.021218      -109.4229
  19   1.0000      -3.362851       -91.5078
  20   1.0000      -2.254048       -61.3358
  21   1.0000      -2.253965       -61.3335
  22   1.0000      -2.252736       -61.3001
  23   1.0000      -2.252691       -61.2988
  24   1.0000      -2.252643       -61.2975
  25   1.0000      -2.252596       -61.2963
  26   1.0000      -2.251235       -61.2592
  27   1.0000      -2.251212       -61.2586
  28   1.0000      -2.250082       -61.2278
  29   1.0000      -2.250044       -61.2268
  30   1.0000      -2.248972       -61.1976
  31   1.0000      -2.248935       -61.1966
  32   1.0000      -2.242574       -61.0235
  33   1.0000      -2.242333       -61.0170
  34   1.0000      -2.241934       -61.0061
  35   1.0000      -2.241726       -61.0005
  36   1.0000      -2.240973       -60.9800
  37   1.0000      -2.240741       -60.9737
  38   1.0000      -2.240655       -60.9713
  39   1.0000      -2.240479       -60.9665
  40   1.0000      -2.239646       -60.9439
  41   1.0000      -2.239231       -60.9326
  42   1.0000      -2.239114       -60.9294
  43   1.0000      -2.238595       -60.9153
  44   1.0000      -2.237844       -60.8948
  45   1.0000      -2.237080       -60.8740
  46   1.0000      -2.236984       -60.8714
  47   1.0000      -2.236909       -60.8694
  48   1.0000      -2.236845       -60.8677
  49   1.0000      -2.236824       -60.8671
  50   1.0000      -2.236427       -60.8563
  51   1.0000      -2.235817       -60.8397
  52   1.0000      -2.235442       -60.8295
  53   1.0000      -2.235353       -60.8270
  54   1.0000      -2.235163       -60.8219
  55   1.0000      -2.234930       -60.8155
  56   1.0000      -2.234801       -60.8120
  57   1.0000      -2.234156       -60.7945
  58   1.0000      -2.233201       -60.7685
  59   1.0000      -2.232241       -60.7424
  60   1.0000      -2.230661       -60.6994
  61   1.0000      -2.229784       -60.6755
  62   1.0000      -2.198790       -59.8321
  63   1.0000      -2.179878       -59.3175
  64   1.0000      -2.151802       -58.5535
  65   1.0000      -0.432741       -11.7755
  66   1.0000      -0.389022       -10.5858
  67   1.0000      -0.384697       -10.4681
  68   1.0000      -0.381393       -10.3782
  69   1.0000      -0.376899       -10.2559
  70   1.0000      -0.370352       -10.0778
  71   1.0000      -0.367853       -10.0098
  72   1.0000      -0.365962        -9.9583
  73   1.0000      -0.364879        -9.9289
  74   1.0000      -0.358741        -9.7618
  75   1.0000      -0.357921        -9.7395
  76   1.0000      -0.356567        -9.7027
  77   1.0000      -0.356222        -9.6933
  78   1.0000      -0.354977        -9.6594
  79   1.0000      -0.353869        -9.6293
  80   1.0000      -0.351599        -9.5675
  81   1.0000      -0.349554        -9.5118
  82   1.0000      -0.348519        -9.4837
  83   1.0000      -0.346187        -9.4202
  84   1.0000      -0.341592        -9.2952
  85   1.0000      -0.340916        -9.2768
  86   1.0000      -0.339316        -9.2333
  87   1.0000      -0.335546        -9.1307
  88   1.0000      -0.334918        -9.1136
  89   1.0000      -0.333456        -9.0738
  90   1.0000      -0.333097        -9.0640
  91   1.0000      -0.328125        -8.9287
  92   1.0000      -0.321198        -8.7402
  93   1.0000      -0.319348        -8.6899
  94   1.0000      -0.317187        -8.6311
  95   1.0000      -0.316879        -8.6227
  96   1.0000      -0.316176        -8.6036
  97   1.0000      -0.313681        -8.5357
  98   1.0000      -0.312759        -8.5106
  99   1.0000      -0.310992        -8.4625
 100   1.0000      -0.305177        -8.3043
 101   1.0000      -0.299105        -8.1391
 102   1.0000      -0.295957        -8.0534
 103   1.0000      -0.295833        -8.0500
 104   1.0000      -0.295685        -8.0460
 105   1.0000      -0.294975        -8.0267
 106   1.0000      -0.292953        -7.9717
 107   1.0000      -0.292374        -7.9559
 108   1.0000      -0.284282        -7.7357
 109   1.0000      -0.281196        -7.6517
 110   1.0000      -0.278309        -7.5732
 111   1.0000      -0.277878        -7.5614
 112   1.0000      -0.276427        -7.5220
 113   1.0000      -0.272364        -7.4114
 114   1.0000      -0.270697        -7.3660
 115   1.0000      -0.270390        -7.3577
 116   1.0000      -0.268585        -7.3086
 117   1.0000      -0.267433        -7.2772
 118   1.0000      -0.265363        -7.2209
 119   1.0000      -0.264803        -7.2057
 120   1.0000      -0.264551        -7.1988
 121   1.0000      -0.261965        -7.1284
 122   1.0000      -0.261380        -7.1125
 123   1.0000      -0.260417        -7.0863
 124   1.0000      -0.259519        -7.0619
 125   1.0000      -0.257253        -7.0002
 126   1.0000      -0.256882        -6.9901
 127   1.0000      -0.254490        -6.9250
 128   1.0000      -0.254441        -6.9237
 129   1.0000      -0.253982        -6.9112
 130   1.0000      -0.252591        -6.8733
 131   1.0000      -0.249348        -6.7851
 132   1.0000      -0.247792        -6.7428
 133   1.0000      -0.247776        -6.7423
 134   1.0000      -0.247089        -6.7236
 135   1.0000      -0.246858        -6.7174
 136   1.0000      -0.246804        -6.7159
 137   1.0000      -0.242618        -6.6020
 138   1.0000      -0.241827        -6.5804
 139   1.0000      -0.241684        -6.5765
 140   1.0000      -0.240459        -6.5432
 141   1.0000      -0.240216        -6.5366
 142   1.0000      -0.233971        -6.3667
 143   1.0000      -0.232413        -6.3243
 144   1.0000      -0.208392        -5.6706
 145   1.0000      -0.206494        -5.6190
 146   1.0000      -0.201222        -5.4755
 147   0.0000      -0.191400        -5.2083
 148   0.0000      -0.189464        -5.1556
 149   0.0000      -0.133001        -3.6191
 150   0.0000      -0.125175        -3.4062
 151   0.0000      -0.124827        -3.3967

                 SPIN DOWN ORBITALS
  NO   OCC          E(Eh)            E(eV)
   0   1.0000    -254.749931     -6932.0980
   1   1.0000     -29.528873      -803.5215
   2   1.0000     -25.485778      -693.5033
   3   1.0000     -25.478935      -693.3171
   4   1.0000     -25.470072      -693.0759
   5   1.0000      -4.038474      -109.8925
   6   1.0000      -4.038453      -109.8919
   7   1.0000      -4.038348      -109.8890
   8   1.0000      -4.038321      -109.8883
   9   1.0000      -4.027991      -109.6072
  10   1.0000      -4.027950      -109.6061
  11   1.0000      -4.026206      -109.5586
  12   1.0000      -4.026093      -109.5556
  13   1.0000      -4.025994      -109.5529
  14   1.0000      -4.025884      -109.5499
  15   1.0000      -4.022975      -109.4707
  16   1.0000      -4.022848      -109.4673
  17   1.0000      -4.022037      -109.4452
  18   1.0000      -4.021943      -109.4426
  19   1.0000      -3.236239       -88.0625
  20   1.0000      -2.253805       -61.3292
  21   1.0000      -2.253780       -61.3285
  22   1.0000      -2.252598       -61.2963
  23   1.0000      -2.252553       -61.2951
  24   1.0000      -2.252284       -61.2878
  25   1.0000      -2.252251       -61.2869
  26   1.0000      -2.251238       -61.2593
  27   1.0000      -2.251231       -61.2591
  28   1.0000      -2.250024       -61.2263
  29   1.0000      -2.249983       -61.2252
  30   1.0000      -2.249084       -61.2007
  31   1.0000      -2.249039       -61.1995
  32   1.0000      -2.242830       -61.0305
  33   1.0000      -2.242513       -61.0219
  34   1.0000      -2.241812       -61.0028
  35   1.0000      -2.241455       -60.9931
  36   1.0000      -2.241288       -60.9886
  37   1.0000      -2.241100       -60.9834
  38   1.0000      -2.240904       -60.9781
  39   1.0000      -2.240805       -60.9754
  40   1.0000      -2.239899       -60.9507
  41   1.0000      -2.239836       -60.9490
  42   1.0000      -2.239355       -60.9359
  43   1.0000      -2.239091       -60.9288
  44   1.0000      -2.238564       -60.9144
  45   1.0000      -2.237845       -60.8949
  46   1.0000      -2.237502       -60.8855
  47   1.0000      -2.237287       -60.8797
  48   1.0000      -2.237184       -60.8769
  49   1.0000      -2.237092       -60.8744
  50   1.0000      -2.236943       -60.8703
  51   1.0000      -2.236847       -60.8677
  52   1.0000      -2.236501       -60.8583
  53   1.0000      -2.236271       -60.8520
  54   1.0000      -2.235605       -60.8339
  55   1.0000      -2.235589       -60.8335
  56   1.0000      -2.235226       -60.8236
  57   1.0000      -2.234867       -60.8138
  58   1.0000      -2.233940       -60.7886
  59   1.0000      -2.232899       -60.7603
  60   1.0000      -2.231320       -60.7173
  61   1.0000      -2.230358       -60.6911
  62   1.0000      -2.063092       -56.1396
  63   1.0000      -2.055098       -55.9220
  64   1.0000      -2.040561       -55.5265
  65   1.0000      -0.429767       -11.6945
  66   1.0000      -0.389277       -10.5928
  67   1.0000      -0.384533       -10.4637
  68   1.0000      -0.383077       -10.4241
  69   1.0000      -0.369688       -10.0597
  70   1.0000      -0.365478        -9.9452
  71   1.0000      -0.364539        -9.9196
  72   1.0000      -0.363669        -9.8959
  73   1.0000      -0.360968        -9.8224
  74   1.0000      -0.358550        -9.7566
  75   1.0000      -0.358073        -9.7437
  76   1.0000      -0.357857        -9.7378
  77   1.0000      -0.356343        -9.6966
  78   1.0000      -0.355147        -9.6640
  79   1.0000      -0.354707        -9.6521
  80   1.0000      -0.350795        -9.5456
  81   1.0000      -0.350704        -9.5431
  82   1.0000      -0.348049        -9.4709
  83   1.0000      -0.345944        -9.4136
  84   1.0000      -0.342636        -9.3236
  85   1.0000      -0.342296        -9.3144
  86   1.0000      -0.337429        -9.1819
  87   1.0000      -0.335158        -9.1201
  88   1.0000      -0.335070        -9.1177
  89   1.0000      -0.334151        -9.0927
  90   1.0000      -0.327248        -8.9049
  91   1.0000      -0.322542        -8.7768
  92   1.0000      -0.318820        -8.6755
  93   1.0000      -0.318279        -8.6608
  94   1.0000      -0.317244        -8.6326
  95   1.0000      -0.316256        -8.6058
  96   1.0000      -0.315329        -8.5805
  97   1.0000      -0.313941        -8.5428
  98   1.0000      -0.311034        -8.4637
  99   1.0000      -0.307374        -8.3641
 100   1.0000      -0.305317        -8.3081
 101   1.0000      -0.296894        -8.0789
 102   1.0000      -0.295693        -8.0462
 103   1.0000      -0.294775        -8.0212
 104   1.0000      -0.294010        -8.0004
 105   1.0000      -0.293773        -7.9940
 106   1.0000      -0.293486        -7.9862
 107   1.0000      -0.288612        -7.8535
 108   1.0000      -0.280687        -7.6379
 109   1.0000      -0.280349        -7.6287
 110   1.0000      -0.279392        -7.6027
 111   1.0000      -0.278479        -7.5778
 112   1.0000      -0.274622        -7.4728
 113   1.0000      -0.272899        -7.4259
 114   1.0000      -0.270407        -7.3581
 115   1.0000      -0.269737        -7.3399
 116   1.0000      -0.267843        -7.2884
 117   1.0000      -0.265865        -7.2346
 118   1.0000      -0.265598        -7.2273
 119   1.0000      -0.265449        -7.2232
 120   1.0000      -0.263525        -7.1709
 121   1.0000      -0.263314        -7.1651
 122   1.0000      -0.261962        -7.1283
 123   1.0000      -0.260253        -7.0818
 124   1.0000      -0.258308        -7.0289
 125   1.0000      -0.257830        -7.0159
 126   1.0000      -0.256498        -6.9797
 127   1.0000      -0.255843        -6.9618
 128   1.0000      -0.253507        -6.8983
 129   1.0000      -0.253158        -6.8888
 130   1.0000      -0.248490        -6.7617
 131   1.0000      -0.248472        -6.7613
 132   1.0000      -0.248406        -6.7595
 133   1.0000      -0.245463        -6.6794
 134   1.0000      -0.243314        -6.6209
 135   1.0000      -0.243065        -6.6141
 136   1.0000      -0.242190        -6.5903
 137   1.0000      -0.241774        -6.5790
 138   1.0000      -0.233778        -6.3614
 139   1.0000      -0.216198        -5.8831
 140   1.0000      -0.215796        -5.8721
 141   1.0000      -0.211194        -5.7469
 142   1.0000      -0.209339        -5.6964
 143   1.0000      -0.201302        -5.4777
 144   1.0000      -0.172590        -4.6964
 145   0.0000      -0.163357        -4.4452
 146   0.0000      -0.159244        -4.3333
 147   0.0000      -0.148405        -4.0383
 148   0.0000      -0.142225        -3.8701
 149   0.0000      -0.129371        -3.5204

MULLIKEN ATOMIC CHARGES AND SPIN POPULATIONS
--------------------------------------------
   0 Au:    0.118014   -0.058549
   1 Au:    0.125460   -0.143183
   2 Au:    0.115855   -0.059713
   3 Au:    0.089235   -0.049908
   4 Au:    0.126783   -0.142288
   5 Au:    0.273758   -0.031233
   6 Au:    0.209477   -0.013968
   7 Au:    0.274443   -0.032632
   8 Au:    0.130777   -0.142188
   9 Au:    0.129439   -0.142654
  10 Au:    0.088734   -0.052220
  11 Au:    0.274736   -0.031007
  12 Au:    0.274349   -0.029954
  13 Au:    0.210482   -0.012870
  14 Fe:   -2.441543    2.942367
Sum of atomic charges         :    0.0000000

LOEWDIN ATOMIC CHARGES AND SPIN POPULATIONS
-------------------------------------------
   0 Au:    0.004375   -0.089827
   1 Au:    0.048454   -0.080073
   2 Au:    0.003668   -0.089844
   3 Au:    0.006998   -0.071363
   4 Au:    0.048663   -0.079501
   5 Au:    0.075827   -0.057931
   6 Au:    0.031362   -0.054776
   7 Au:    0.076030   -0.058746
   8 Au:    0.049807   -0.079796
   9 Au:    0.049391   -0.080052
  10 Au:    0.007148   -0.072855
  11 Au:    0.076272   -0.057631
  12 Au:    0.076095   -0.057172
  13 Au:    0.031457   -0.053745
  14 Fe:   -0.585546    2.983311

  Mayer bond orders larger than 0.100000
B(  0-Au,  1-Au) :   0.2811 B(  0-Au,  2-Au) :   0.1955 B(  0-Au,  3-Au) :   0.2728
B(  0-Au,  9-Au) :   0.2799 B(  0-Au, 10-Au) :   0.2724 B(  0-Au, 14-Fe) :   0.1742
B(  1-Au,  3-Au) :   0.2390 B(  1-Au,  6-Au) :   0.2029 B(  1-Au,  7-Au) :   0.2061
B(  1-Au,  9-Au) :   0.1972 B(  1-Au, 14-Fe) :   0.4968 B(  2-Au,  3-Au) :   0.2729
B(  2-Au,  4-Au) :   0.2818 B(  2-Au,  8-Au) :   0.2802 B(  2-Au, 10-Au) :   0.2733
B(  2-Au, 14-Fe) :   0.1756 B(  3-Au,  4-Au) :   0.2372 B(  3-Au,  6-Au) :   0.3159
B(  3-Au, 14-Fe) :   0.2048 B(  4-Au,  5-Au) :   0.2047 B(  4-Au,  6-Au) :   0.2040
B(  4-Au,  8-Au) :   0.1973 B(  4-Au, 14-Fe) :   0.4970 B(  5-Au,  6-Au) :   0.2069
B(  5-Au,  7-Au) :   0.1272 B(  5-Au, 12-Au) :   0.2877 B(  5-Au, 14-Fe) :   0.4652
B(  6-Au,  7-Au) :   0.2069 B(  6-Au, 14-Fe) :   0.3068 B(  7-Au, 11-Au) :   0.2869
B(  7-Au, 14-Fe) :   0.4652 B(  8-Au, 10-Au) :   0.2363 B(  8-Au, 12-Au) :   0.2042
B(  8-Au, 13-Au) :   0.2013 B(  8-Au, 14-Fe) :   0.4980 B(  9-Au, 10-Au) :   0.2388
B(  9-Au, 11-Au) :   0.2047 B(  9-Au, 13-Au) :   0.2011 B(  9-Au, 14-Fe) :   0.4973
B( 10-Au, 13-Au) :   0.3155 B( 10-Au, 14-Fe) :   0.2074 B( 11-Au, 12-Au) :   0.1254
B( 11-Au, 13-Au) :   0.2066 B( 11-Au, 14-Fe) :   0.4672 B( 12-Au, 13-Au) :   0.2071
B( 12-Au, 14-Fe) :   0.4658 B( 13-Au, 14-Fe) :   0.3107

FINAL SINGLE POINT ENERGY     -3165.054154642583

DIPOLE MOMENT
-------------
                                X             Y             Z
Electronic contribution:     16.43303      -3.19728     -13.91858
Nuclear contribution   :    -16.64912       3.24151      14.10135
                        -----------------------------------------
Total Dipole Moment    :     -0.21609       0.04423       0.18277
                        -----------------------------------------
Magnitude (a.u.)       :      0.28646
Magnitude (Debye)      :      0.72812

Rotational constants in cm-1:     0.001148     0.001111     0.000935
Rotational constants in MHz :    34.407841    33.315310    28.031694

                             ****ORCA TERMINATED NORMALLY****
TOTAL RUN TIME: 0 days 0 hours 22 minutes 58 seconds 8 msec
