                         Program Version 5.0.3 -  RELEASE  -
|  1> !R2SCAN def2-TZVP VERYSLOWCONV
|  2>
|  3> %scf
|  4>   AutoTRAHIter 200
|  5>   maxiter 400
|  6> end
|  7>
|  8> %pal nprocs 6 end
|  9>
| 10> *xyzfile 0 5 pbe.xyz
| 11>
| 12> $new_job
| 13>
| 14> !R2SCAN def2-TZVP VERYSLOWCONV
| 15>
| 16>
| 17> %scf
| 18>   AutoTRAHIter 200
| 19>   maxiter 400
| 20> end
| 21>
| 22>
| 23> %pal nprocs 6 end
| 24>
| 25> *xyzfile 0 3 pbe.xyz
| 26>
| 27>
| 28>
| 29>
| 30>
| 31>                          ****END OF INPUT****
 Total Charge           Charge          ....    0
 Multiplicity           Mult            ....    5
 Number of Electrons    NEL             ....  292
FINAL SINGLE POINT ENERGY     -3165.562551107431

CARTESIAN COORDINATES (ANGSTROEM)
---------------------------------
  Au     9.741190    8.238994    6.270333
  Au     7.545962    9.825701    6.933221
  Au     8.541754    5.765737    5.435716
  Au     7.496282    8.223603    4.594513
  Au     5.809648    6.237407    5.717810
  Au     4.005638    7.178552    7.666584
  Au     5.096319    8.981834    5.773001
  Au     5.219948    9.687775    8.513038
  Au     7.207830    4.878069    7.719317
  Au     8.948944    8.472680    8.935510
  Au     9.817758    5.974230    7.918484
  Au     6.586838    8.366917   10.468694
  Au     5.370012    5.853834    9.620848
  Au     8.148206    6.027851   10.138840
  Fe     6.673655    7.492988    7.919773

 Multiplicity           Mult            ....    3
 Number of Electrons    NEL             ....  292
 Basis Dimension        Dim             ....  605

ORBITAL ENERGIES
----------------
                 SPIN UP ORBITALS
  NO   OCC          E(Eh)            E(eV)
   0   1.0000    -255.634627     -6956.1719
   1   1.0000     -29.929688      -814.4282
   2   1.0000     -25.771069      -701.2665
   3   1.0000     -25.763499      -701.0605
   4   1.0000     -25.746105      -700.5871
   5   1.0000      -4.130022      -112.3836
   6   1.0000      -4.130005      -112.3831
   7   1.0000      -4.129871      -112.3795
   8   1.0000      -4.129866      -112.3794
   9   1.0000      -4.118550      -112.0714
  10   1.0000      -4.118481      -112.0696
  11   1.0000      -4.117098      -112.0319
  12   1.0000      -4.116967      -112.0284
  13   1.0000      -4.116868      -112.0257
  14   1.0000      -4.116746      -112.0224
  15   1.0000      -4.112273      -111.9006
  16   1.0000      -4.112149      -111.8973
  17   1.0000      -4.111700      -111.8850
  18   1.0000      -4.111593      -111.8821
  19   1.0000      -3.510517       -95.5260
  20   1.0000      -2.318894       -63.1003
  21   1.0000      -2.318628       -63.0931
  22   1.0000      -2.317314       -63.0573
  23   1.0000      -2.317197       -63.0541
  24   1.0000      -2.316907       -63.0462
  25   1.0000      -2.316832       -63.0442
  26   1.0000      -2.315468       -63.0071
  27   1.0000      -2.315439       -63.0063
  28   1.0000      -2.314466       -62.9798
  29   1.0000      -2.314431       -62.9789
  30   1.0000      -2.313244       -62.9466
  31   1.0000      -2.313214       -62.9458
  32   1.0000      -2.306299       -62.7576
  33   1.0000      -2.306064       -62.7512
  34   1.0000      -2.305935       -62.7477
  35   1.0000      -2.305782       -62.7435
  36   1.0000      -2.304712       -62.7144
  37   1.0000      -2.304476       -62.7080
  38   1.0000      -2.304412       -62.7062
  39   1.0000      -2.304176       -62.6998
  40   1.0000      -2.303313       -62.6763
  41   1.0000      -2.303009       -62.6681
  42   1.0000      -2.302800       -62.6624
  43   1.0000      -2.302380       -62.6510
  44   1.0000      -2.300907       -62.6108
  45   1.0000      -2.300642       -62.6037
  46   1.0000      -2.300553       -62.6012
  47   1.0000      -2.300459       -62.5987
  48   1.0000      -2.300161       -62.5906
  49   1.0000      -2.299852       -62.5821
  50   1.0000      -2.299819       -62.5813
  51   1.0000      -2.299043       -62.5601
  52   1.0000      -2.298671       -62.5500
  53   1.0000      -2.298610       -62.5484
  54   1.0000      -2.298255       -62.5387
  55   1.0000      -2.298102       -62.5345
  56   1.0000      -2.297647       -62.5221
  57   1.0000      -2.296934       -62.5028
  58   1.0000      -2.296751       -62.4978
  59   1.0000      -2.296437       -62.4892
  60   1.0000      -2.295275       -62.4576
  61   1.0000      -2.293984       -62.4225
  62   1.0000      -2.293161       -62.4001
  63   1.0000      -2.282675       -62.1148
  64   1.0000      -2.247148       -61.1480
  65   1.0000      -0.438197       -11.9239
  66   1.0000      -0.394707       -10.7405
  67   1.0000      -0.390975       -10.6390
  68   1.0000      -0.390255       -10.6194
  69   1.0000      -0.387242       -10.5374
  70   1.0000      -0.383468       -10.4347
  71   1.0000      -0.378705       -10.3051
  72   1.0000      -0.378384       -10.2964
  73   1.0000      -0.373785       -10.1712
  74   1.0000      -0.368228       -10.0200
  75   1.0000      -0.366449        -9.9716
  76   1.0000      -0.366062        -9.9610
  77   1.0000      -0.365715        -9.9516
  78   1.0000      -0.363939        -9.9033
  79   1.0000      -0.363591        -9.8938
  80   1.0000      -0.361095        -9.8259
  81   1.0000      -0.358839        -9.7645
  82   1.0000      -0.357979        -9.7411
  83   1.0000      -0.355748        -9.6804
  84   1.0000      -0.351341        -9.5605
  85   1.0000      -0.350485        -9.5372
  86   1.0000      -0.349984        -9.5235
  87   1.0000      -0.345112        -9.3910
  88   1.0000      -0.344312        -9.3692
  89   1.0000      -0.343511        -9.3474
  90   1.0000      -0.342194        -9.3116
  91   1.0000      -0.341185        -9.2841
  92   1.0000      -0.330795        -9.0014
  93   1.0000      -0.330320        -8.9885
  94   1.0000      -0.327040        -8.8992
  95   1.0000      -0.326554        -8.8860
  96   1.0000      -0.324621        -8.8334
  97   1.0000      -0.324440        -8.8284
  98   1.0000      -0.322297        -8.7702
  99   1.0000      -0.320550        -8.7226
 100   1.0000      -0.313762        -8.5379
 101   1.0000      -0.308561        -8.3964
 102   1.0000      -0.307167        -8.3584
 103   1.0000      -0.304622        -8.2892
 104   1.0000      -0.304585        -8.2882
 105   1.0000      -0.304179        -8.2771
 106   1.0000      -0.301946        -8.2164
 107   1.0000      -0.301370        -8.2007
 108   1.0000      -0.300817        -8.1856
 109   1.0000      -0.290101        -7.8940
 110   1.0000      -0.286683        -7.8010
 111   1.0000      -0.286435        -7.7943
 112   1.0000      -0.285714        -7.7747
 113   1.0000      -0.285129        -7.7587
 114   1.0000      -0.280724        -7.6389
 115   1.0000      -0.279329        -7.6009
 116   1.0000      -0.276692        -7.5292
 117   1.0000      -0.275508        -7.4970
 118   1.0000      -0.273427        -7.4403
 119   1.0000      -0.272922        -7.4266
 120   1.0000      -0.272894        -7.4258
 121   1.0000      -0.270194        -7.3524
 122   1.0000      -0.269819        -7.3421
 123   1.0000      -0.268866        -7.3162
 124   1.0000      -0.268825        -7.3151
 125   1.0000      -0.265478        -7.2240
 126   1.0000      -0.265010        -7.2113
 127   1.0000      -0.264711        -7.2031
 128   1.0000      -0.264211        -7.1895
 129   1.0000      -0.262936        -7.1549
 130   1.0000      -0.260986        -7.1018
 131   1.0000      -0.259443        -7.0598
 132   1.0000      -0.258867        -7.0441
 133   1.0000      -0.258313        -7.0291
 134   1.0000      -0.255217        -6.9448
 135   1.0000      -0.254474        -6.9246
 136   1.0000      -0.254368        -6.9217
 137   1.0000      -0.251653        -6.8478
 138   1.0000      -0.250563        -6.8182
 139   1.0000      -0.249015        -6.7761
 140   1.0000      -0.248966        -6.7747
 141   1.0000      -0.247344        -6.7306
 142   1.0000      -0.245616        -6.6835
 143   1.0000      -0.239008        -6.5037
 144   1.0000      -0.210439        -5.7263
 145   1.0000      -0.208804        -5.6818
 146   1.0000      -0.203726        -5.5437
 147   0.0000      -0.191011        -5.1977
 148   0.0000      -0.187637        -5.1059
 149   0.0000      -0.127358        -3.4656
 150   0.0000      -0.120931        -3.2907
 151   0.0000      -0.120748        -3.2857

                 SPIN DOWN ORBITALS
  NO   OCC          E(Eh)            E(eV)
   0   1.0000    -255.633693     -6956.1464
   1   1.0000     -29.853430      -812.3531
   2   1.0000     -25.707754      -699.5435
   3   1.0000     -25.703331      -699.4232
   4   1.0000     -25.695104      -699.1993
   5   1.0000      -4.130181      -112.3879
   6   1.0000      -4.130156      -112.3873
   7   1.0000      -4.130029      -112.3838
   8   1.0000      -4.130015      -112.3834
   9   1.0000      -4.119140      -112.0875
  10   1.0000      -4.119096      -112.0863
  11   1.0000      -4.117383      -112.0397
  12   1.0000      -4.117249      -112.0360
  13   1.0000      -4.117146      -112.0332
  14   1.0000      -4.117025      -112.0299
  15   1.0000      -4.113296      -111.9285
  16   1.0000      -4.113163      -111.9248
  17   1.0000      -4.112580      -111.9090
  18   1.0000      -4.112474      -111.9061
  19   1.0000      -3.339304       -90.8671
  20   1.0000      -2.318346       -63.0854
  21   1.0000      -2.318319       -63.0847
  22   1.0000      -2.316942       -63.0472
  23   1.0000      -2.316895       -63.0459
  24   1.0000      -2.316620       -63.0384
  25   1.0000      -2.316599       -63.0379
  26   1.0000      -2.315640       -63.0118
  27   1.0000      -2.315633       -63.0116
  28   1.0000      -2.314575       -62.9828
  29   1.0000      -2.314534       -62.9817
  30   1.0000      -2.313492       -62.9533
  31   1.0000      -2.313450       -62.9522
  32   1.0000      -2.306664       -62.7675
  33   1.0000      -2.306271       -62.7568
  34   1.0000      -2.305734       -62.7422
  35   1.0000      -2.305476       -62.7352
  36   1.0000      -2.305133       -62.7259
  37   1.0000      -2.305056       -62.7238
  38   1.0000      -2.304726       -62.7148
  39   1.0000      -2.304678       -62.7135
  40   1.0000      -2.303690       -62.6866
  41   1.0000      -2.303584       -62.6837
  42   1.0000      -2.303318       -62.6765
  43   1.0000      -2.302989       -62.6675
  44   1.0000      -2.301722       -62.6330
  45   1.0000      -2.301221       -62.6194
  46   1.0000      -2.300977       -62.6128
  47   1.0000      -2.300827       -62.6087
  48   1.0000      -2.300778       -62.6073
  49   1.0000      -2.300699       -62.6052
  50   1.0000      -2.300693       -62.6050
  51   1.0000      -2.300059       -62.5878
  52   1.0000      -2.299775       -62.5801
  53   1.0000      -2.299475       -62.5719
  54   1.0000      -2.299374       -62.5691
  55   1.0000      -2.299038       -62.5600
  56   1.0000      -2.298657       -62.5496
  57   1.0000      -2.297881       -62.5285
  58   1.0000      -2.297434       -62.5164
  59   1.0000      -2.296116       -62.4805
  60   1.0000      -2.294806       -62.4448
  61   1.0000      -2.293836       -62.4185
  62   1.0000      -2.116626       -57.5963
  63   1.0000      -2.111313       -57.4517
  64   1.0000      -2.095331       -57.0169
  65   1.0000      -0.436408       -11.8753
  66   1.0000      -0.395565       -10.7639
  67   1.0000      -0.391354       -10.6493
  68   1.0000      -0.390125       -10.6158
  69   1.0000      -0.378689       -10.3046
  70   1.0000      -0.374961       -10.2032
  71   1.0000      -0.373087       -10.1522
  72   1.0000      -0.371725       -10.1151
  73   1.0000      -0.370190       -10.0734
  74   1.0000      -0.367807       -10.0085
  75   1.0000      -0.367734       -10.0065
  76   1.0000      -0.367529       -10.0010
  77   1.0000      -0.365827        -9.9546
  78   1.0000      -0.365044        -9.9334
  79   1.0000      -0.364498        -9.9185
  80   1.0000      -0.360550        -9.8111
  81   1.0000      -0.360496        -9.8096
  82   1.0000      -0.357096        -9.7171
  83   1.0000      -0.355611        -9.6767
  84   1.0000      -0.352018        -9.5789
  85   1.0000      -0.351851        -9.5743
  86   1.0000      -0.346933        -9.4405
  87   1.0000      -0.344790        -9.3822
  88   1.0000      -0.344459        -9.3732
  89   1.0000      -0.343458        -9.3460
  90   1.0000      -0.337049        -9.1716
  91   1.0000      -0.332131        -9.0377
  92   1.0000      -0.328451        -8.9376
  93   1.0000      -0.327898        -8.9226
  94   1.0000      -0.326049        -8.8722
  95   1.0000      -0.325763        -8.8645
  96   1.0000      -0.324596        -8.8327
  97   1.0000      -0.323129        -8.7928
  98   1.0000      -0.320255        -8.7146
  99   1.0000      -0.316337        -8.6080
 100   1.0000      -0.314263        -8.5515
 101   1.0000      -0.305831        -8.3221
 102   1.0000      -0.304437        -8.2842
 103   1.0000      -0.303255        -8.2520
 104   1.0000      -0.303011        -8.2454
 105   1.0000      -0.302822        -8.2402
 106   1.0000      -0.302560        -8.2331
 107   1.0000      -0.296869        -8.0782
 108   1.0000      -0.289265        -7.8713
 109   1.0000      -0.289030        -7.8649
 110   1.0000      -0.288125        -7.8403
 111   1.0000      -0.287176        -7.8145
 112   1.0000      -0.282923        -7.6987
 113   1.0000      -0.281147        -7.6504
 114   1.0000      -0.278967        -7.5911
 115   1.0000      -0.278350        -7.5743
 116   1.0000      -0.275843        -7.5061
 117   1.0000      -0.274228        -7.4621
 118   1.0000      -0.274118        -7.4591
 119   1.0000      -0.273713        -7.4481
 120   1.0000      -0.271925        -7.3995
 121   1.0000      -0.271555        -7.3894
 122   1.0000      -0.270561        -7.3624
 123   1.0000      -0.268897        -7.3171
 124   1.0000      -0.266711        -7.2576
 125   1.0000      -0.266301        -7.2464
 126   1.0000      -0.264765        -7.2046
 127   1.0000      -0.263585        -7.1725
 128   1.0000      -0.261647        -7.1198
 129   1.0000      -0.260553        -7.0900
 130   1.0000      -0.256168        -6.9707
 131   1.0000      -0.255924        -6.9640
 132   1.0000      -0.255447        -6.9511
 133   1.0000      -0.252467        -6.8700
 134   1.0000      -0.250877        -6.8267
 135   1.0000      -0.249692        -6.7945
 136   1.0000      -0.249051        -6.7770
 137   1.0000      -0.248794        -6.7700
 138   1.0000      -0.240827        -6.5532
 139   1.0000      -0.218164        -5.9365
 140   1.0000      -0.218064        -5.9338
 141   1.0000      -0.212797        -5.7905
 142   1.0000      -0.211187        -5.7467
 143   1.0000      -0.202930        -5.5220
 144   1.0000      -0.180175        -4.9028
 145   0.0000      -0.154167        -4.1951
 146   0.0000      -0.153383        -4.1738
 147   0.0000      -0.135857        -3.6968
 148   0.0000      -0.131276        -3.5722
 149   0.0000      -0.124551        -3.3892

MULLIKEN ATOMIC CHARGES AND SPIN POPULATIONS
--------------------------------------------
   0 Au:    0.103715   -0.063503
   1 Au:    0.125382   -0.167634
   2 Au:    0.101883   -0.064541
   3 Au:    0.074059   -0.059213
   4 Au:    0.126534   -0.167226
   5 Au:    0.240722   -0.044386
   6 Au:    0.179976   -0.014843
   7 Au:    0.241442   -0.045978
   8 Au:    0.130334   -0.166890
   9 Au:    0.128797   -0.167769
  10 Au:    0.073811   -0.061817
  11 Au:    0.241587   -0.043820
  12 Au:    0.241180   -0.042868
  13 Au:    0.180848   -0.013689
  14 Fe:   -2.190270    3.124178
Sum of atomic charges         :   -0.0000000

LOEWDIN ATOMIC CHARGES AND SPIN POPULATIONS
-------------------------------------------
   0 Au:    0.000599   -0.098220
   1 Au:    0.045142   -0.095383
   2 Au:   -0.000018   -0.098210
   3 Au:    0.002604   -0.080910
   4 Au:    0.045287   -0.094992
   5 Au:    0.067046   -0.069856
   6 Au:    0.025293   -0.061936
   7 Au:    0.067301   -0.070710
   8 Au:    0.046473   -0.095144
   9 Au:    0.045980   -0.095663
  10 Au:    0.002745   -0.082604
  11 Au:    0.067510   -0.069353
  12 Au:    0.067286   -0.069000
  13 Au:    0.025338   -0.060847
  14 Fe:   -0.508586    3.142827

  Mayer bond orders larger than 0.100000
B(  0-Au,  1-Au) :   0.2739 B(  0-Au,  2-Au) :   0.1728 B(  0-Au,  3-Au) :   0.2563
B(  0-Au,  9-Au) :   0.2726 B(  0-Au, 10-Au) :   0.2559 B(  0-Au, 14-Fe) :   0.1603
B(  1-Au,  3-Au) :   0.2221 B(  1-Au,  6-Au) :   0.1857 B(  1-Au,  7-Au) :   0.1938
B(  1-Au,  9-Au) :   0.1959 B(  1-Au, 14-Fe) :   0.4937 B(  2-Au,  3-Au) :   0.2564
B(  2-Au,  4-Au) :   0.2745 B(  2-Au,  8-Au) :   0.2730 B(  2-Au, 10-Au) :   0.2567
B(  2-Au, 14-Fe) :   0.1619 B(  3-Au,  4-Au) :   0.2203 B(  3-Au,  6-Au) :   0.3055
B(  3-Au, 14-Fe) :   0.1897 B(  4-Au,  5-Au) :   0.1922 B(  4-Au,  6-Au) :   0.1867
B(  4-Au,  8-Au) :   0.1960 B(  4-Au, 14-Fe) :   0.4938 B(  5-Au,  6-Au) :   0.1931
B(  5-Au,  7-Au) :   0.1111 B(  5-Au, 12-Au) :   0.2914 B(  5-Au, 14-Fe) :   0.4556
B(  6-Au,  7-Au) :   0.1932 B(  6-Au, 14-Fe) :   0.2932 B(  7-Au, 11-Au) :   0.2907
B(  7-Au, 14-Fe) :   0.4558 B(  8-Au, 10-Au) :   0.2195 B(  8-Au, 12-Au) :   0.1918
B(  8-Au, 13-Au) :   0.1841 B(  8-Au, 14-Fe) :   0.4949 B(  9-Au, 10-Au) :   0.2220
B(  9-Au, 11-Au) :   0.1922 B(  9-Au, 13-Au) :   0.1839 B(  9-Au, 14-Fe) :   0.4939
B( 10-Au, 13-Au) :   0.3052 B( 10-Au, 14-Fe) :   0.1922 B( 11-Au, 12-Au) :   0.1093
B( 11-Au, 13-Au) :   0.1929 B( 11-Au, 14-Fe) :   0.4578 B( 12-Au, 13-Au) :   0.1934
B( 12-Au, 14-Fe) :   0.4564 B( 13-Au, 14-Fe) :   0.2971

FINAL SINGLE POINT ENERGY     -3165.550783931052

DIPOLE MOMENT
-------------
                                X             Y             Z
Electronic contribution:     16.43597      -3.19808     -13.92118
Nuclear contribution   :    -16.64912       3.24151      14.10135
                        -----------------------------------------
Total Dipole Moment    :     -0.21315       0.04343       0.18017
                        -----------------------------------------
Magnitude (a.u.)       :      0.28246
Magnitude (Debye)      :      0.71795

Rotational constants in cm-1:     0.001148     0.001111     0.000935
Rotational constants in MHz :    34.407841    33.315310    28.031694

                             ****ORCA TERMINATED NORMALLY****
TOTAL RUN TIME: 0 days 0 hours 34 minutes 49 seconds 806 msec
