                         Program Version 5.0.3 -  RELEASE  -
|  1> %pal nprocs 1 end
|  2>
|  3> !PBE def2-TZVP OPT UNO
|  4> !SLOWCONV KDIIS
|  5>
|  6> %geom maxiter 300 end
|  7>
|  8> *xyzfile 0 3 4.xyz                           ****END OF INPUT****
 Total Charge           Charge          ....    0
 Multiplicity           Mult            ....    3
 Number of Electrons    NEL             ....  328
FINAL SINGLE POINT ENERGY     -3217.496415953166
FINAL SINGLE POINT ENERGY     -3217.498490906895
FINAL SINGLE POINT ENERGY     -3217.499609508852
FINAL SINGLE POINT ENERGY     -3217.500397969246
FINAL SINGLE POINT ENERGY     -3217.501022193487
FINAL SINGLE POINT ENERGY     -3217.501448860456
FINAL SINGLE POINT ENERGY     -3217.501837211854
FINAL SINGLE POINT ENERGY     -3217.502239588640
FINAL SINGLE POINT ENERGY     -3217.502587506887
FINAL SINGLE POINT ENERGY     -3217.502768978040
FINAL SINGLE POINT ENERGY     -3217.502851313453
FINAL SINGLE POINT ENERGY     -3217.502900937523
FINAL SINGLE POINT ENERGY     -3217.502931370239
FINAL SINGLE POINT ENERGY     -3217.502953423520
FINAL SINGLE POINT ENERGY     -3217.502973155300
FINAL SINGLE POINT ENERGY     -3217.502983925856
FINAL SINGLE POINT ENERGY     -3217.502993093477
FINAL SINGLE POINT ENERGY     -3217.502997032741
                    ***********************HURRAY********************

CARTESIAN COORDINATES (ANGSTROEM)
---------------------------------
  Au    10.596058   10.596744    9.647471
  Au    11.197111    8.269881    6.294588
  Au     9.651014    6.107396    7.068038
  Au     8.036740    6.521042    9.523468
  Au     7.470260    4.481249    7.438075
  Au     5.371975    5.603143    8.882770
  Au     5.687966    8.294371    9.353286
  Au    10.389642    7.926491    8.966261
  Au     8.099488    9.455470    9.537554
  Au     9.406273   10.247092    7.177421
  Au     8.647143    8.483089    5.238423
  Au     7.838872    5.806732    4.934278
  Au     5.993346    7.982926    4.750166
  Au     5.140495    5.504796    6.021321
  Au     4.322884    8.086612    6.974605
  Au     6.652731    9.796729    7.008579
  Cr     6.971739    7.156758    7.166190

 Multiplicity           Mult            ....    3
 Number of Electrons    NEL             ....  328
 Basis Dimension        Dim             ....  685

ORBITAL ENERGIES
----------------
                 SPIN UP ORBITALS
  NO   OCC          E(Eh)            E(eV)
   0   1.0000    -214.502867     -5836.9198
   1   1.0000     -24.303388      -661.3288
   2   1.0000     -20.670047      -562.4606
   3   1.0000     -20.668325      -562.4137
   4   1.0000     -20.662343      -562.2509
   5   1.0000      -4.035259      -109.8050
   6   1.0000      -4.034230      -109.7770
   7   1.0000      -4.034228      -109.7769
   8   1.0000      -4.032345      -109.7257
   9   1.0000      -4.032334      -109.7254
  10   1.0000      -4.031947      -109.7148
  11   1.0000      -4.031886      -109.7132
  12   1.0000      -4.031325      -109.6979
  13   1.0000      -4.025624      -109.5428
  14   1.0000      -4.024032      -109.4995
  15   1.0000      -4.024016      -109.4990
  16   1.0000      -4.023374      -109.4816
  17   1.0000      -4.022138      -109.4479
  18   1.0000      -4.022059      -109.4458
  19   1.0000      -4.016329      -109.2899
  20   1.0000      -4.009617      -109.1072
  21   1.0000      -2.805006       -76.3281
  22   1.0000      -2.250766       -61.2464
  23   1.0000      -2.250514       -61.2396
  24   1.0000      -2.250354       -61.2352
  25   1.0000      -2.250124       -61.2290
  26   1.0000      -2.249900       -61.2229
  27   1.0000      -2.248864       -61.1947
  28   1.0000      -2.247462       -61.1565
  29   1.0000      -2.247451       -61.1562
  30   1.0000      -2.247257       -61.1510
  31   1.0000      -2.247158       -61.1483
  32   1.0000      -2.246809       -61.1388
  33   1.0000      -2.245792       -61.1111
  34   1.0000      -2.245525       -61.1038
  35   1.0000      -2.245437       -61.1014
  36   1.0000      -2.244556       -61.0775
  37   1.0000      -2.244274       -61.0698
  38   1.0000      -2.243543       -61.0499
  39   1.0000      -2.243454       -61.0475
  40   1.0000      -2.243011       -61.0354
  41   1.0000      -2.242971       -61.0344
  42   1.0000      -2.242649       -61.0256
  43   1.0000      -2.242195       -61.0132
  44   1.0000      -2.241751       -61.0011
  45   1.0000      -2.241253       -60.9876
  46   1.0000      -2.241133       -60.9843
  47   1.0000      -2.238892       -60.9233
  48   1.0000      -2.238305       -60.9074
  49   1.0000      -2.238089       -60.9015
  50   1.0000      -2.238044       -60.9003
  51   1.0000      -2.238001       -60.8991
  52   1.0000      -2.237159       -60.8762
  53   1.0000      -2.237021       -60.8724
  54   1.0000      -2.236972       -60.8711
  55   1.0000      -2.236591       -60.8607
  56   1.0000      -2.235689       -60.8362
  57   1.0000      -2.235586       -60.8334
  58   1.0000      -2.235469       -60.8302
  59   1.0000      -2.234867       -60.8138
  60   1.0000      -2.234330       -60.7992
  61   1.0000      -2.233937       -60.7885
  62   1.0000      -2.231050       -60.7099
  63   1.0000      -2.230296       -60.6894
  64   1.0000      -2.230020       -60.6819
  65   1.0000      -2.229522       -60.6684
  66   1.0000      -2.227378       -60.6100
  67   1.0000      -2.225952       -60.5712
  68   1.0000      -2.221158       -60.4408
  69   1.0000      -2.219730       -60.4019
  70   1.0000      -1.798539       -48.9407
  71   1.0000      -1.796697       -48.8906
  72   1.0000      -1.788530       -48.6684
  73   1.0000      -0.434047       -11.8110
  74   1.0000      -0.396517       -10.7898
  75   1.0000      -0.389806       -10.6072
  76   1.0000      -0.389507       -10.5990
  77   1.0000      -0.377937       -10.2842
  78   1.0000      -0.374858       -10.2004
  79   1.0000      -0.369232       -10.0473
  80   1.0000      -0.366918        -9.9844
  81   1.0000      -0.366382        -9.9698
  82   1.0000      -0.365313        -9.9407
  83   1.0000      -0.363646        -9.8953
  84   1.0000      -0.360336        -9.8052
  85   1.0000      -0.357219        -9.7204
  86   1.0000      -0.353726        -9.6254
  87   1.0000      -0.352531        -9.5929
  88   1.0000      -0.349367        -9.5068
  89   1.0000      -0.348143        -9.4734
  90   1.0000      -0.347340        -9.4516
  91   1.0000      -0.346856        -9.4384
  92   1.0000      -0.345803        -9.4098
  93   1.0000      -0.345412        -9.3991
  94   1.0000      -0.337985        -9.1970
  95   1.0000      -0.337866        -9.1938
  96   1.0000      -0.335707        -9.1350
  97   1.0000      -0.335301        -9.1240
  98   1.0000      -0.335129        -9.1193
  99   1.0000      -0.329998        -8.9797
 100   1.0000      -0.328890        -8.9496
 101   1.0000      -0.325114        -8.8468
 102   1.0000      -0.324871        -8.8402
 103   1.0000      -0.322902        -8.7866
 104   1.0000      -0.322604        -8.7785
 105   1.0000      -0.315143        -8.5755
 106   1.0000      -0.312155        -8.4942
 107   1.0000      -0.311890        -8.4870
 108   1.0000      -0.307883        -8.3779
 109   1.0000      -0.306768        -8.3476
 110   1.0000      -0.305609        -8.3161
 111   1.0000      -0.299384        -8.1467
 112   1.0000      -0.299178        -8.1411
 113   1.0000      -0.299129        -8.1397
 114   1.0000      -0.297271        -8.0891
 115   1.0000      -0.293045        -7.9741
 116   1.0000      -0.290900        -7.9158
 117   1.0000      -0.289128        -7.8676
 118   1.0000      -0.288552        -7.8519
 119   1.0000      -0.287812        -7.8318
 120   1.0000      -0.284788        -7.7495
 121   1.0000      -0.279968        -7.6183
 122   1.0000      -0.277876        -7.5614
 123   1.0000      -0.277368        -7.5476
 124   1.0000      -0.275324        -7.4919
 125   1.0000      -0.274650        -7.4736
 126   1.0000      -0.273760        -7.4494
 127   1.0000      -0.273233        -7.4351
 128   1.0000      -0.272883        -7.4255
 129   1.0000      -0.271527        -7.3886
 130   1.0000      -0.270854        -7.3703
 131   1.0000      -0.270099        -7.3498
 132   1.0000      -0.269054        -7.3213
 133   1.0000      -0.267926        -7.2906
 134   1.0000      -0.265330        -7.2200
 135   1.0000      -0.264474        -7.1967
 136   1.0000      -0.264147        -7.1878
 137   1.0000      -0.261518        -7.1163
 138   1.0000      -0.261450        -7.1144
 139   1.0000      -0.260296        -7.0830
 140   1.0000      -0.258313        -7.0291
 141   1.0000      -0.256446        -6.9782
 142   1.0000      -0.255895        -6.9632
 143   1.0000      -0.253344        -6.8939
 144   1.0000      -0.252901        -6.8818
 145   1.0000      -0.252431        -6.8690
 146   1.0000      -0.249991        -6.8026
 147   1.0000      -0.249596        -6.7918
 148   1.0000      -0.248600        -6.7647
 149   1.0000      -0.247880        -6.7452
 150   1.0000      -0.245932        -6.6921
 151   1.0000      -0.245806        -6.6887
 152   1.0000      -0.244481        -6.6527
 153   1.0000      -0.242326        -6.5940
 154   1.0000      -0.241063        -6.5597
 155   1.0000      -0.235889        -6.4189
 156   1.0000      -0.229584        -6.2473
 157   1.0000      -0.228913        -6.2290
 158   1.0000      -0.224942        -6.1210
 159   1.0000      -0.221098        -6.0164
 160   1.0000      -0.217467        -5.9176
 161   1.0000      -0.216998        -5.9048
 162   1.0000      -0.207700        -5.6518
 163   1.0000      -0.199697        -5.4340
 164   1.0000      -0.192272        -5.2320
 165   0.0000      -0.181520        -4.9394
 166   0.0000      -0.179108        -4.8738
 167   0.0000      -0.164297        -4.4708
 168   0.0000      -0.139433        -3.7942
 169   0.0000      -0.136981        -3.7274

                 SPIN DOWN ORBITALS
  NO   OCC          E(Eh)            E(eV)
   0   1.0000    -214.502464     -5836.9088
   1   1.0000     -24.258180      -660.0986
   2   1.0000     -20.638311      -561.5970
   3   1.0000     -20.635094      -561.5095
   4   1.0000     -20.623699      -561.1994
   5   1.0000      -4.035651      -109.8157
   6   1.0000      -4.033784      -109.7648
   7   1.0000      -4.033783      -109.7648
   8   1.0000      -4.032349      -109.7258
   9   1.0000      -4.032336      -109.7254
  10   1.0000      -4.031589      -109.7051
  11   1.0000      -4.031383      -109.6995
  12   1.0000      -4.031328      -109.6980
  13   1.0000      -4.026223      -109.5591
  14   1.0000      -4.023955      -109.4974
  15   1.0000      -4.023939      -109.4969
  16   1.0000      -4.023326      -109.4803
  17   1.0000      -4.022639      -109.4616
  18   1.0000      -4.022558      -109.4594
  19   1.0000      -4.016410      -109.2921
  20   1.0000      -4.010094      -109.1202
  21   1.0000      -2.683329       -73.0171
  22   1.0000      -2.251395       -61.2636
  23   1.0000      -2.250048       -61.2269
  24   1.0000      -2.249847       -61.2214
  25   1.0000      -2.249633       -61.2156
  26   1.0000      -2.249144       -61.2023
  27   1.0000      -2.248642       -61.1886
  28   1.0000      -2.247155       -61.1482
  29   1.0000      -2.247146       -61.1479
  30   1.0000      -2.246963       -61.1430
  31   1.0000      -2.246836       -61.1395
  32   1.0000      -2.246670       -61.1350
  33   1.0000      -2.246072       -61.1187
  34   1.0000      -2.245543       -61.1043
  35   1.0000      -2.245454       -61.1019
  36   1.0000      -2.244565       -61.0777
  37   1.0000      -2.244057       -61.0639
  38   1.0000      -2.243735       -61.0551
  39   1.0000      -2.243493       -61.0486
  40   1.0000      -2.243473       -61.0480
  41   1.0000      -2.242640       -61.0253
  42   1.0000      -2.242566       -61.0233
  43   1.0000      -2.242041       -61.0090
  44   1.0000      -2.241842       -61.0036
  45   1.0000      -2.240961       -60.9796
  46   1.0000      -2.240502       -60.9672
  47   1.0000      -2.238788       -60.9205
  48   1.0000      -2.238733       -60.9190
  49   1.0000      -2.238283       -60.9068
  50   1.0000      -2.237786       -60.8933
  51   1.0000      -2.237636       -60.8892
  52   1.0000      -2.237599       -60.8882
  53   1.0000      -2.237408       -60.8830
  54   1.0000      -2.237155       -60.8761
  55   1.0000      -2.237098       -60.8745
  56   1.0000      -2.236275       -60.8521
  57   1.0000      -2.235789       -60.8389
  58   1.0000      -2.235593       -60.8336
  59   1.0000      -2.235257       -60.8244
  60   1.0000      -2.234381       -60.8006
  61   1.0000      -2.234042       -60.7914
  62   1.0000      -2.231201       -60.7141
  63   1.0000      -2.230396       -60.6921
  64   1.0000      -2.230189       -60.6865
  65   1.0000      -2.229544       -60.6690
  66   1.0000      -2.227572       -60.6153
  67   1.0000      -2.226563       -60.5879
  68   1.0000      -2.221724       -60.4562
  69   1.0000      -2.220075       -60.4113
  70   1.0000      -1.687823       -45.9280
  71   1.0000      -1.681052       -45.7438
  72   1.0000      -1.655119       -45.0381
  73   1.0000      -0.429126       -11.6771
  74   1.0000      -0.396009       -10.7759
  75   1.0000      -0.389966       -10.6115
  76   1.0000      -0.389331       -10.5942
  77   1.0000      -0.374960       -10.2032
  78   1.0000      -0.373665       -10.1680
  79   1.0000      -0.366857        -9.9827
  80   1.0000      -0.364978        -9.9316
  81   1.0000      -0.364855        -9.9282
  82   1.0000      -0.363161        -9.8821
  83   1.0000      -0.362165        -9.8550
  84   1.0000      -0.359417        -9.7802
  85   1.0000      -0.356347        -9.6967
  86   1.0000      -0.353048        -9.6069
  87   1.0000      -0.352996        -9.6055
  88   1.0000      -0.348786        -9.4909
  89   1.0000      -0.348595        -9.4857
  90   1.0000      -0.347566        -9.4578
  91   1.0000      -0.347363        -9.4522
  92   1.0000      -0.346449        -9.4274
  93   1.0000      -0.346159        -9.4195
  94   1.0000      -0.338980        -9.2241
  95   1.0000      -0.338878        -9.2213
  96   1.0000      -0.336260        -9.1501
  97   1.0000      -0.336088        -9.1454
  98   1.0000      -0.335338        -9.1250
  99   1.0000      -0.330850        -9.0029
 100   1.0000      -0.329625        -8.9695
 101   1.0000      -0.325156        -8.8479
 102   1.0000      -0.324788        -8.8379
 103   1.0000      -0.323362        -8.7991
 104   1.0000      -0.321705        -8.7540
 105   1.0000      -0.315798        -8.5933
 106   1.0000      -0.312496        -8.5034
 107   1.0000      -0.311553        -8.4778
 108   1.0000      -0.308247        -8.3878
 109   1.0000      -0.307426        -8.3655
 110   1.0000      -0.303825        -8.2675
 111   1.0000      -0.299022        -8.1368
 112   1.0000      -0.298598        -8.1253
 113   1.0000      -0.297880        -8.1057
 114   1.0000      -0.297414        -8.0930
 115   1.0000      -0.292623        -7.9627
 116   1.0000      -0.289756        -7.8847
 117   1.0000      -0.288763        -7.8576
 118   1.0000      -0.288312        -7.8454
 119   1.0000      -0.286187        -7.7875
 120   1.0000      -0.283742        -7.7210
 121   1.0000      -0.280700        -7.6382
 122   1.0000      -0.278445        -7.5769
 123   1.0000      -0.277830        -7.5601
 124   1.0000      -0.276245        -7.5170
 125   1.0000      -0.275078        -7.4853
 126   1.0000      -0.274775        -7.4770
 127   1.0000      -0.273816        -7.4509
 128   1.0000      -0.273749        -7.4491
 129   1.0000      -0.271986        -7.4011
 130   1.0000      -0.271419        -7.3857
 131   1.0000      -0.270701        -7.3661
 132   1.0000      -0.269866        -7.3434
 133   1.0000      -0.268897        -7.3171
 134   1.0000      -0.266070        -7.2401
 135   1.0000      -0.265256        -7.2180
 136   1.0000      -0.265218        -7.2170
 137   1.0000      -0.262202        -7.1349
 138   1.0000      -0.262031        -7.1302
 139   1.0000      -0.261107        -7.1051
 140   1.0000      -0.259041        -7.0489
 141   1.0000      -0.257571        -7.0089
 142   1.0000      -0.256501        -6.9797
 143   1.0000      -0.254490        -6.9250
 144   1.0000      -0.254103        -6.9145
 145   1.0000      -0.253550        -6.8994
 146   1.0000      -0.250691        -6.8217
 147   1.0000      -0.250321        -6.8116
 148   1.0000      -0.249502        -6.7893
 149   1.0000      -0.248811        -6.7705
 150   1.0000      -0.247288        -6.7291
 151   1.0000      -0.246288        -6.7018
 152   1.0000      -0.245456        -6.6792
 153   1.0000      -0.243220        -6.6184
 154   1.0000      -0.241295        -6.5660
 155   1.0000      -0.236824        -6.4443
 156   1.0000      -0.229844        -6.2544
 157   1.0000      -0.228982        -6.2309
 158   1.0000      -0.222011        -6.0412
 159   1.0000      -0.213573        -5.8116
 160   1.0000      -0.205568        -5.5938
 161   1.0000      -0.204756        -5.5717
 162   1.0000      -0.181668        -4.9434
 163   0.0000      -0.147997        -4.0272
 164   0.0000      -0.144921        -3.9435
 165   0.0000      -0.131020        -3.5652
 166   0.0000      -0.127272        -3.4632
 167   0.0000      -0.121026        -3.2933

MULLIKEN ATOMIC CHARGES AND SPIN POPULATIONS
--------------------------------------------
   0 Au:    0.482651   -0.194116
   1 Au:    0.458285    0.022462
   2 Au:    0.040229   -0.001243
   3 Au:    0.318584   -0.006894
   4 Au:    0.652030   -0.025051
   5 Au:    0.578043   -0.019394
   6 Au:    0.534671   -0.072968
   7 Au:    0.062180    0.021264
   8 Au:   -0.156075   -0.074963
   9 Au:    0.059897    0.020892
  10 Au:    0.040163   -0.001118
  11 Au:    0.624796   -0.066400
  12 Au:    0.652359   -0.024848
  13 Au:    0.434304   -0.135903
  14 Au:    0.578030   -0.019321
  15 Au:    0.320034   -0.007153
  16 Cr:   -5.680183    2.584755
Sum of atomic charges         :   -0.0000000

LOEWDIN ATOMIC CHARGES AND SPIN POPULATIONS
-------------------------------------------
   0 Au:    0.115510   -0.141398
   1 Au:    0.119452    0.016186
   2 Au:    0.037393   -0.027468
   3 Au:    0.121507   -0.053059
   4 Au:    0.144398   -0.087357
   5 Au:    0.134538   -0.065585
   6 Au:    0.116943   -0.126896
   7 Au:   -0.043710   -0.022121
   8 Au:   -0.023427   -0.090178
   9 Au:   -0.044219   -0.022338
  10 Au:    0.037288   -0.027485
  11 Au:    0.148273   -0.120245
  12 Au:    0.144568   -0.087258
  13 Au:    0.114375   -0.119283
  14 Au:    0.134460   -0.065515
  15 Au:    0.121694   -0.053284
  16 Cr:   -1.379043    3.093285

  Mayer bond orders larger than 0.100000
B(  0-Au,  7-Au) :   0.2862 B(  0-Au,  8-Au) :   0.4066 B(  0-Au,  9-Au) :   0.2864
B(  0-Au, 16-Cr) :   0.1209 B(  1-Au,  2-Au) :   0.3286 B(  1-Au,  7-Au) :   0.1925
B(  1-Au,  9-Au) :   0.1934 B(  1-Au, 10-Au) :   0.3288 B(  1-Au, 16-Cr) :   0.2148
B(  2-Au,  3-Au) :   0.1253 B(  2-Au,  4-Au) :   0.2569 B(  2-Au,  7-Au) :   0.3215
B(  2-Au, 10-Au) :   0.1606 B(  2-Au, 11-Au) :   0.1803 B(  2-Au, 16-Cr) :   0.5389
B(  3-Au,  4-Au) :   0.1226 B(  3-Au,  5-Au) :   0.1875 B(  3-Au,  6-Au) :   0.1205
B(  3-Au,  7-Au) :   0.2923 B(  3-Au,  8-Au) :   0.2217 B(  3-Au, 16-Cr) :   0.6373
B(  4-Au,  5-Au) :   0.2172 B(  4-Au, 11-Au) :   0.1688 B(  4-Au, 13-Au) :   0.1544
B(  4-Au, 16-Cr) :   0.5652 B(  5-Au,  6-Au) :   0.2297 B(  5-Au, 13-Au) :   0.1865
B(  5-Au, 16-Cr) :   0.4747 B(  6-Au,  8-Au) :   0.3336 B(  6-Au, 14-Au) :   0.2299
B(  6-Au, 15-Au) :   0.1203 B(  6-Au, 16-Cr) :   0.5236 B(  7-Au,  8-Au) :   0.2567
B(  7-Au,  9-Au) :   0.2319 B(  7-Au, 16-Cr) :   0.3075 B(  8-Au,  9-Au) :   0.2570
B(  8-Au, 15-Au) :   0.2219 B(  8-Au, 16-Cr) :   0.3453 B(  9-Au, 10-Au) :   0.3221
B(  9-Au, 15-Au) :   0.2924 B(  9-Au, 16-Cr) :   0.3083 B( 10-Au, 11-Au) :   0.1815
B( 10-Au, 12-Au) :   0.2574 B( 10-Au, 15-Au) :   0.1233 B( 10-Au, 16-Cr) :   0.5391
B( 11-Au, 12-Au) :   0.1677 B( 11-Au, 13-Au) :   0.1733 B( 11-Au, 16-Cr) :   0.5585
B( 12-Au, 13-Au) :   0.1540 B( 12-Au, 14-Au) :   0.2170 B( 12-Au, 15-Au) :   0.1233
B( 12-Au, 16-Cr) :   0.5663 B( 13-Au, 14-Au) :   0.1870 B( 13-Au, 16-Cr) :   0.4901
B( 14-Au, 15-Au) :   0.1877 B( 14-Au, 16-Cr) :   0.4742 B( 15-Au, 16-Cr) :   0.6365

FINAL SINGLE POINT ENERGY     -3217.502998821251

DIPOLE MOMENT
-------------
                                X             Y             Z
Electronic contribution:     28.32850      18.85569       8.99730
Nuclear contribution   :    -28.57374     -19.09222      -9.16990
                        -----------------------------------------
Total Dipole Moment    :     -0.24524      -0.23654      -0.17260
                        -----------------------------------------
Magnitude (a.u.)       :      0.38195
Magnitude (Debye)      :      0.97084

Rotational constants in cm-1:     0.001085     0.000719     0.000675
Rotational constants in MHz :    32.516087    21.554989    20.227774

                             ****ORCA TERMINATED NORMALLY****
TOTAL RUN TIME: 0 days 4 hours 37 minutes 10 seconds 48 msec
