                         Program Version 5.0.3 -  RELEASE  -
|  1> !RI-B2PLYP def2-TZVP def2-TZVP/C
|  2> !RIJCOSX
|  3> %pal nprocs 16 end
|  4>
|  5> *xyzfile 0 5 pbe.xyz
|  6>
|  7> $new_job
|  8>
|  9> !RI-B2PLYP def2-TZVP def2-TZVP/C
| 10> !RIJCOSX
| 11> %pal nprocs 16 end
| 12>
| 13> *xyzfile 0 3 pbe.xyz
| 14>
| 15>
| 16>
| 17>
| 18>
| 19>                          ****END OF INPUT****
 Total Charge           Charge          ....    0
 Multiplicity           Mult            ....    5
 Number of Electrons    NEL             ....  292
MP2 TOTAL ENERGY:    -3161.735943447 Eh
FINAL SINGLE POINT ENERGY     -3161.735943447321

CARTESIAN COORDINATES (ANGSTROEM)
---------------------------------
  Au     6.305628    9.014371    9.031280
  Au     8.735667    5.904696    8.862535
  Au     9.005907    8.663708    9.383534
  Au     8.375974   10.745516    5.484367
  Au     6.074389    6.247279    8.530792
  Au    10.442262   10.047937    7.214382
  Au    10.755290    7.348018    7.522981
  Au     6.794291    8.572291    4.762463
  Au     8.059735   11.032881    8.258156
  Au     9.049718    5.624010    6.078713
  Au     6.387097    5.956057    5.746341
  Au     5.838479   10.609171    6.628954
  Au     4.817217    8.065891    6.772122
  Au     9.498277    8.225057    5.093071
  Fe     7.813583    7.863510    7.135131

 Multiplicity           Mult            ....    3
 Number of Electrons    NEL             ....  292
 Basis Dimension        Dim             ....  605

ORBITAL ENERGIES
----------------
                 SPIN UP ORBITALS
  NO   OCC          E(Eh)            E(eV)
   0   1.0000    -258.345278     -7029.9324
   1   1.0000     -30.902387      -840.8967
   2   1.0000     -26.619262      -724.3469
   3   1.0000     -26.599262      -723.8027
   4   1.0000     -26.583864      -723.3837
   5   1.0000      -4.412242      -120.0632
   6   1.0000      -4.412077      -120.0587
   7   1.0000      -4.411881      -120.0534
   8   1.0000      -4.411876      -120.0533
   9   1.0000      -4.397117      -119.6516
  10   1.0000      -4.396853      -119.6445
  11   1.0000      -4.396366      -119.6312
  12   1.0000      -4.396192      -119.6265
  13   1.0000      -4.396141      -119.6251
  14   1.0000      -4.395965      -119.6203
  15   1.0000      -4.394189      -119.5720
  16   1.0000      -4.394000      -119.5668
  17   1.0000      -4.390238      -119.4644
  18   1.0000      -4.389821      -119.4531
  19   1.0000      -3.915433      -106.5443
  20   1.0000      -2.662360       -72.4465
  21   1.0000      -2.621429       -71.3327
  22   1.0000      -2.589555       -70.4654
  23   1.0000      -2.534034       -68.9546
  24   1.0000      -2.533927       -68.9517
  25   1.0000      -2.531894       -68.8963
  26   1.0000      -2.531798       -68.8937
  27   1.0000      -2.530489       -68.8581
  28   1.0000      -2.530408       -68.8559
  29   1.0000      -2.528633       -68.8076
  30   1.0000      -2.528551       -68.8054
  31   1.0000      -2.528295       -68.7984
  32   1.0000      -2.528204       -68.7959
  33   1.0000      -2.526116       -68.7391
  34   1.0000      -2.526022       -68.7366
  35   1.0000      -2.517737       -68.5111
  36   1.0000      -2.517411       -68.5022
  37   1.0000      -2.517253       -68.4979
  38   1.0000      -2.516794       -68.4854
  39   1.0000      -2.515196       -68.4420
  40   1.0000      -2.514660       -68.4274
  41   1.0000      -2.514574       -68.4250
  42   1.0000      -2.514216       -68.4153
  43   1.0000      -2.513213       -68.3880
  44   1.0000      -2.513180       -68.3871
  45   1.0000      -2.512961       -68.3811
  46   1.0000      -2.512852       -68.3782
  47   1.0000      -2.512215       -68.3609
  48   1.0000      -2.512175       -68.3598
  49   1.0000      -2.512090       -68.3574
  50   1.0000      -2.511827       -68.3503
  51   1.0000      -2.511259       -68.3348
  52   1.0000      -2.510882       -68.3246
  53   1.0000      -2.510751       -68.3210
  54   1.0000      -2.510106       -68.3035
  55   1.0000      -2.509824       -68.2958
  56   1.0000      -2.509736       -68.2934
  57   1.0000      -2.509239       -68.2799
  58   1.0000      -2.508700       -68.2652
  59   1.0000      -2.507046       -68.2202
  60   1.0000      -2.506715       -68.2112
  61   1.0000      -2.506417       -68.2031
  62   1.0000      -2.506168       -68.1963
  63   1.0000      -2.505837       -68.1873
  64   1.0000      -2.505676       -68.1829
  65   1.0000      -0.566670       -15.4199
  66   1.0000      -0.563679       -15.3385
  67   1.0000      -0.554187       -15.0802
  68   1.0000      -0.536950       -14.6112
  69   1.0000      -0.517451       -14.0806
  70   1.0000      -0.502835       -13.6828
  71   1.0000      -0.469591       -12.7782
  72   1.0000      -0.467470       -12.7205
  73   1.0000      -0.464724       -12.6458
  74   1.0000      -0.463444       -12.6110
  75   1.0000      -0.461538       -12.5591
  76   1.0000      -0.457327       -12.4445
  77   1.0000      -0.457274       -12.4430
  78   1.0000      -0.456405       -12.4194
  79   1.0000      -0.455716       -12.4007
  80   1.0000      -0.454689       -12.3727
  81   1.0000      -0.453161       -12.3311
  82   1.0000      -0.453099       -12.3294
  83   1.0000      -0.450234       -12.2515
  84   1.0000      -0.447661       -12.1815
  85   1.0000      -0.446759       -12.1569
  86   1.0000      -0.446341       -12.1456
  87   1.0000      -0.445151       -12.1132
  88   1.0000      -0.443538       -12.0693
  89   1.0000      -0.440001       -11.9730
  90   1.0000      -0.438816       -11.9408
  91   1.0000      -0.438159       -11.9229
  92   1.0000      -0.434939       -11.8353
  93   1.0000      -0.429777       -11.6948
  94   1.0000      -0.428986       -11.6733
  95   1.0000      -0.427105       -11.6221
  96   1.0000      -0.426874       -11.6158
  97   1.0000      -0.419630       -11.4187
  98   1.0000      -0.416288       -11.3278
  99   1.0000      -0.416026       -11.3206
 100   1.0000      -0.415020       -11.2933
 101   1.0000      -0.408713       -11.1217
 102   1.0000      -0.408309       -11.1107
 103   1.0000      -0.408095       -11.1048
 104   1.0000      -0.400308       -10.8929
 105   1.0000      -0.399937       -10.8828
 106   1.0000      -0.393798       -10.7158
 107   1.0000      -0.390283       -10.6201
 108   1.0000      -0.389055       -10.5867
 109   1.0000      -0.387081       -10.5330
 110   1.0000      -0.383856       -10.4453
 111   1.0000      -0.378461       -10.2984
 112   1.0000      -0.374823       -10.1995
 113   1.0000      -0.374596       -10.1933
 114   1.0000      -0.372663       -10.1407
 115   1.0000      -0.370948       -10.0940
 116   1.0000      -0.370918       -10.0932
 117   1.0000      -0.366765        -9.9802
 118   1.0000      -0.366437        -9.9713
 119   1.0000      -0.364459        -9.9174
 120   1.0000      -0.362849        -9.8736
 121   1.0000      -0.361075        -9.8253
 122   1.0000      -0.358233        -9.7480
 123   1.0000      -0.357014        -9.7148
 124   1.0000      -0.356447        -9.6994
 125   1.0000      -0.354588        -9.6488
 126   1.0000      -0.354195        -9.6381
 127   1.0000      -0.352393        -9.5891
 128   1.0000      -0.349128        -9.5003
 129   1.0000      -0.348474        -9.4825
 130   1.0000      -0.348382        -9.4799
 131   1.0000      -0.344845        -9.3837
 132   1.0000      -0.344319        -9.3694
 133   1.0000      -0.342915        -9.3312
 134   1.0000      -0.341533        -9.2936
 135   1.0000      -0.338574        -9.2131
 136   1.0000      -0.333925        -9.0866
 137   1.0000      -0.329123        -8.9559
 138   1.0000      -0.329038        -8.9536
 139   1.0000      -0.328973        -8.9518
 140   1.0000      -0.316902        -8.6233
 141   1.0000      -0.314624        -8.5614
 142   1.0000      -0.314387        -8.5549
 143   1.0000      -0.295255        -8.0343
 144   1.0000      -0.227013        -6.1774
 145   1.0000      -0.222381        -6.0513
 146   1.0000      -0.219135        -5.9630
 147   0.0000      -0.134545        -3.6611
 148   0.0000      -0.131965        -3.5909
 149   0.0000      -0.075830        -2.0634
 150   0.0000      -0.059970        -1.6319
 151   0.0000      -0.057156        -1.5553

                 SPIN DOWN ORBITALS
  NO   OCC          E(Eh)            E(eV)
   0   1.0000    -258.343381     -7029.8808
   1   1.0000     -30.810190      -838.3879
   2   1.0000     -26.522216      -721.7062
   3   1.0000     -26.515977      -721.5364
   4   1.0000     -26.511625      -721.4180
   5   1.0000      -4.412847      -120.0797
   6   1.0000      -4.412675      -120.0750
   7   1.0000      -4.412490      -120.0700
   8   1.0000      -4.412471      -120.0694
   9   1.0000      -4.397854      -119.6717
  10   1.0000      -4.397590      -119.6645
  11   1.0000      -4.397103      -119.6513
  12   1.0000      -4.396925      -119.6464
  13   1.0000      -4.396899      -119.6457
  14   1.0000      -4.396668      -119.6394
  15   1.0000      -4.395251      -119.6009
  16   1.0000      -4.395064      -119.5958
  17   1.0000      -4.391281      -119.4928
  18   1.0000      -4.390824      -119.4804
  19   1.0000      -3.672358       -99.9299
  20   1.0000      -2.533663       -68.9445
  21   1.0000      -2.533544       -68.9412
  22   1.0000      -2.530671       -68.8631
  23   1.0000      -2.530547       -68.8597
  24   1.0000      -2.530133       -68.8484
  25   1.0000      -2.530058       -68.8464
  26   1.0000      -2.529017       -68.8181
  27   1.0000      -2.528929       -68.8156
  28   1.0000      -2.528460       -68.8029
  29   1.0000      -2.528351       -68.7999
  30   1.0000      -2.526379       -68.7463
  31   1.0000      -2.526263       -68.7431
  32   1.0000      -2.518124       -68.5216
  33   1.0000      -2.517453       -68.5034
  34   1.0000      -2.517341       -68.5003
  35   1.0000      -2.516952       -68.4897
  36   1.0000      -2.516035       -68.4648
  37   1.0000      -2.515298       -68.4447
  38   1.0000      -2.515147       -68.4406
  39   1.0000      -2.515011       -68.4369
  40   1.0000      -2.514473       -68.4223
  41   1.0000      -2.514210       -68.4151
  42   1.0000      -2.513889       -68.4064
  43   1.0000      -2.513706       -68.4014
  44   1.0000      -2.513312       -68.3907
  45   1.0000      -2.513273       -68.3896
  46   1.0000      -2.513148       -68.3862
  47   1.0000      -2.512840       -68.3778
  48   1.0000      -2.512834       -68.3777
  49   1.0000      -2.512636       -68.3723
  50   1.0000      -2.512473       -68.3679
  51   1.0000      -2.510937       -68.3261
  52   1.0000      -2.510595       -68.3168
  53   1.0000      -2.510460       -68.3131
  54   1.0000      -2.510133       -68.3042
  55   1.0000      -2.509334       -68.2824
  56   1.0000      -2.508142       -68.2500
  57   1.0000      -2.507667       -68.2371
  58   1.0000      -2.507243       -68.2255
  59   1.0000      -2.507218       -68.2249
  60   1.0000      -2.506782       -68.2130
  61   1.0000      -2.506582       -68.2076
  62   1.0000      -2.352801       -64.0230
  63   1.0000      -2.348421       -63.9038
  64   1.0000      -2.339520       -63.6616
  65   1.0000      -0.515574       -14.0295
  66   1.0000      -0.480373       -13.0716
  67   1.0000      -0.471600       -12.8329
  68   1.0000      -0.471425       -12.8281
  69   1.0000      -0.470425       -12.8009
  70   1.0000      -0.467877       -12.7316
  71   1.0000      -0.464626       -12.6431
  72   1.0000      -0.462553       -12.5867
  73   1.0000      -0.460273       -12.5247
  74   1.0000      -0.459626       -12.5071
  75   1.0000      -0.459445       -12.5021
  76   1.0000      -0.459139       -12.4938
  77   1.0000      -0.458317       -12.4714
  78   1.0000      -0.458096       -12.4654
  79   1.0000      -0.456580       -12.4242
  80   1.0000      -0.455566       -12.3966
  81   1.0000      -0.453238       -12.3332
  82   1.0000      -0.453126       -12.3302
  83   1.0000      -0.451411       -12.2835
  84   1.0000      -0.449860       -12.2413
  85   1.0000      -0.442642       -12.0449
  86   1.0000      -0.441665       -12.0183
  87   1.0000      -0.440482       -11.9861
  88   1.0000      -0.437459       -11.9039
  89   1.0000      -0.433542       -11.7973
  90   1.0000      -0.431255       -11.7350
  91   1.0000      -0.430720       -11.7205
  92   1.0000      -0.421940       -11.4816
  93   1.0000      -0.420885       -11.4529
  94   1.0000      -0.418860       -11.3978
  95   1.0000      -0.417606       -11.3636
  96   1.0000      -0.415171       -11.2974
  97   1.0000      -0.412589       -11.2271
  98   1.0000      -0.410120       -11.1599
  99   1.0000      -0.409679       -11.1479
 100   1.0000      -0.404792       -11.0150
 101   1.0000      -0.399617       -10.8741
 102   1.0000      -0.395879       -10.7724
 103   1.0000      -0.392970       -10.6933
 104   1.0000      -0.392134       -10.6705
 105   1.0000      -0.391203       -10.6452
 106   1.0000      -0.390271       -10.6198
 107   1.0000      -0.380184       -10.3453
 108   1.0000      -0.377854       -10.2819
 109   1.0000      -0.377449       -10.2709
 110   1.0000      -0.372016       -10.1231
 111   1.0000      -0.371869       -10.1191
 112   1.0000      -0.367784       -10.0079
 113   1.0000      -0.367754       -10.0071
 114   1.0000      -0.367250        -9.9934
 115   1.0000      -0.363726        -9.8975
 116   1.0000      -0.363572        -9.8933
 117   1.0000      -0.361720        -9.8429
 118   1.0000      -0.361156        -9.8275
 119   1.0000      -0.358674        -9.7600
 120   1.0000      -0.357565        -9.7298
 121   1.0000      -0.356648        -9.7049
 122   1.0000      -0.355022        -9.6606
 123   1.0000      -0.353735        -9.6256
 124   1.0000      -0.352009        -9.5787
 125   1.0000      -0.351823        -9.5736
 126   1.0000      -0.350593        -9.5401
 127   1.0000      -0.350387        -9.5345
 128   1.0000      -0.345855        -9.4112
 129   1.0000      -0.344949        -9.3865
 130   1.0000      -0.342791        -9.3278
 131   1.0000      -0.341228        -9.2853
 132   1.0000      -0.336557        -9.1582
 133   1.0000      -0.332003        -9.0343
 134   1.0000      -0.331589        -9.0230
 135   1.0000      -0.328492        -8.9387
 136   1.0000      -0.323912        -8.8141
 137   1.0000      -0.321395        -8.7456
 138   1.0000      -0.316499        -8.6124
 139   1.0000      -0.312928        -8.5152
 140   1.0000      -0.238619        -6.4932
 141   1.0000      -0.229149        -6.2355
 142   1.0000      -0.228533        -6.2187
 143   1.0000      -0.228366        -6.2142
 144   1.0000      -0.224338        -6.1045
 145   0.0000      -0.076251        -2.0749
 146   0.0000      -0.064517        -1.7556
 147   0.0000      -0.061906        -1.6845
 148   0.0000      -0.058558        -1.5934
 149   0.0000      -0.050418        -1.3719

MULLIKEN ATOMIC CHARGES AND SPIN POPULATIONS
--------------------------------------------
   0 Au:    0.156720   -0.243853
   1 Au:    0.204064   -0.057106
   2 Au:    0.162112   -0.249423
   3 Au:    0.066001   -0.074228
   4 Au:    0.201589   -0.065959
   5 Au:    0.093912   -0.058666
   6 Au:    0.136515   -0.012426
   7 Au:    0.156246   -0.242439
   8 Au:    0.065266   -0.071102
   9 Au:    0.201164   -0.053170
  10 Au:    0.202401   -0.063682
  11 Au:    0.096255   -0.058257
  12 Au:    0.141909   -0.015623
  13 Au:    0.162769   -0.249740
  14 Fe:   -2.046922    3.515675
Sum of atomic charges         :   -0.0000000

LOEWDIN ATOMIC CHARGES AND SPIN POPULATIONS
-------------------------------------------
   0 Au:    0.033129   -0.143944
   1 Au:    0.040776   -0.089706
   2 Au:    0.035576   -0.144602
   3 Au:   -0.007523   -0.113899
   4 Au:    0.041848   -0.095135
   5 Au:    0.007481   -0.088008
   6 Au:    0.005568   -0.080109
   7 Au:    0.033198   -0.142979
   8 Au:   -0.007628   -0.113166
   9 Au:    0.039958   -0.088531
  10 Au:    0.041781   -0.093563
  11 Au:    0.005679   -0.085012
  12 Au:    0.008904   -0.084020
  13 Au:    0.035558   -0.144855
  14 Fe:   -0.314304    3.507528

  Mayer bond orders larger than 0.100000
B(  0-Au,  2-Au) :   0.1811 B(  0-Au,  4-Au) :   0.1689 B(  0-Au,  8-Au) :   0.2605
B(  0-Au, 11-Au) :   0.1705 B(  0-Au, 12-Au) :   0.1593 B(  0-Au, 14-Fe) :   0.4521
B(  1-Au,  2-Au) :   0.1753 B(  1-Au,  4-Au) :   0.2753 B(  1-Au,  6-Au) :   0.1869
B(  1-Au,  9-Au) :   0.1307 B(  1-Au, 14-Fe) :   0.4126 B(  2-Au,  5-Au) :   0.1598
B(  2-Au,  6-Au) :   0.1556 B(  2-Au,  8-Au) :   0.2513 B(  2-Au, 14-Fe) :   0.4601
B(  3-Au,  5-Au) :   0.2345 B(  3-Au,  7-Au) :   0.2611 B(  3-Au,  8-Au) :   0.1769
B(  3-Au, 11-Au) :   0.2332 B(  3-Au, 13-Au) :   0.2536 B(  3-Au, 14-Fe) :   0.2189
B(  4-Au, 10-Au) :   0.1312 B(  4-Au, 12-Au) :   0.1847 B(  4-Au, 14-Fe) :   0.4202
B(  5-Au,  6-Au) :   0.3071 B(  5-Au,  8-Au) :   0.2364 B(  5-Au, 13-Au) :   0.1573
B(  5-Au, 14-Fe) :   0.2131 B(  6-Au,  9-Au) :   0.1863 B(  6-Au, 13-Au) :   0.1555
B(  6-Au, 14-Fe) :   0.3185 B(  7-Au, 10-Au) :   0.1677 B(  7-Au, 11-Au) :   0.1683
B(  7-Au, 12-Au) :   0.1605 B(  7-Au, 13-Au) :   0.1816 B(  7-Au, 14-Fe) :   0.4553
B(  8-Au, 11-Au) :   0.2340 B(  8-Au, 14-Fe) :   0.2178 B(  9-Au, 10-Au) :   0.2763
B(  9-Au, 13-Au) :   0.1760 B(  9-Au, 14-Fe) :   0.4134 B( 10-Au, 12-Au) :   0.1863
B( 10-Au, 14-Fe) :   0.4185 B( 11-Au, 12-Au) :   0.2993 B( 11-Au, 14-Fe) :   0.2112
B( 12-Au, 14-Fe) :   0.3140 B( 13-Au, 14-Fe) :   0.4582

MP2 TOTAL ENERGY:    -3161.735646957 Eh
FINAL SINGLE POINT ENERGY     -3161.735646956525

DIPOLE MOMENT
-------------
                                X             Y             Z
Electronic contribution:      2.00896      16.08305      -1.40653
Nuclear contribution   :     -2.04465     -16.27437       1.42392
                        -----------------------------------------
Total Dipole Moment    :     -0.03569      -0.19131       0.01739
                        -----------------------------------------
Magnitude (a.u.)       :      0.19539
Magnitude (Debye)      :      0.49663

Rotational constants in cm-1:     0.001148     0.001112     0.000948
Rotational constants in MHz :    34.412688    33.337662    28.418928

                             ****ORCA TERMINATED NORMALLY****
TOTAL RUN TIME: 0 days 0 hours 27 minutes 17 seconds 827 msec
