                         Program Version 5.0.3 -  RELEASE  -
|  1> !PBE def2-TZVP VERYSLOWCONV
|  2>
|  3> %pal nprocs 16 end
|  4>
|  5> *xyzfile 0 5 pbe.xyz
|  6>
|  7> $new_job
|  8>
|  9> !PBE def2-TZVP VERYSLOWCONV
| 10>
| 11>
| 12> %pal nprocs 16 end
| 13>
| 14> *xyzfile 0 3 pbe.xyz
| 15>
| 16>
| 17>
| 18>
| 19>
| 20>                          ****END OF INPUT****
 Total Charge           Charge          ....    0
 Multiplicity           Mult            ....    5
 Number of Electrons    NEL             ....  292
FINAL SINGLE POINT ENERGY     -3165.069244565925

CARTESIAN COORDINATES (ANGSTROEM)
---------------------------------
  Au     6.305628    9.014371    9.031280
  Au     8.735667    5.904696    8.862535
  Au     9.005907    8.663708    9.383534
  Au     8.375974   10.745516    5.484367
  Au     6.074389    6.247279    8.530792
  Au    10.442262   10.047937    7.214382
  Au    10.755290    7.348018    7.522981
  Au     6.794291    8.572291    4.762463
  Au     8.059735   11.032881    8.258156
  Au     9.049718    5.624010    6.078713
  Au     6.387097    5.956057    5.746341
  Au     5.838479   10.609171    6.628954
  Au     4.817217    8.065891    6.772122
  Au     9.498277    8.225057    5.093071
  Fe     7.813583    7.863510    7.135131

 Multiplicity           Mult            ....    3
 Number of Electrons    NEL             ....  292
 Basis Dimension        Dim             ....  605

ORBITAL ENERGIES
----------------
                 SPIN UP ORBITALS
  NO   OCC          E(Eh)            E(eV)
   0   1.0000    -254.753731     -6932.2014
   1   1.0000     -29.586741      -805.0962
   2   1.0000     -25.531981      -694.7605
   3   1.0000     -25.526161      -694.6022
   4   1.0000     -25.509690      -694.1539
   5   1.0000      -4.038396      -109.8903
   6   1.0000      -4.038303      -109.8878
   7   1.0000      -4.038144      -109.8835
   8   1.0000      -4.038092      -109.8821
   9   1.0000      -4.027984      -109.6070
  10   1.0000      -4.027901      -109.6048
  11   1.0000      -4.026299      -109.5612
  12   1.0000      -4.026120      -109.5563
  13   1.0000      -4.025759      -109.5465
  14   1.0000      -4.025647      -109.5434
  15   1.0000      -4.024348      -109.5081
  16   1.0000      -4.024229      -109.5048
  17   1.0000      -4.021295      -109.4250
  18   1.0000      -4.020923      -109.4149
  19   1.0000      -3.364741       -91.5593
  20   1.0000      -2.254725       -61.3542
  21   1.0000      -2.254614       -61.3512
  22   1.0000      -2.252622       -61.2970
  23   1.0000      -2.252501       -61.2937
  24   1.0000      -2.252240       -61.2866
  25   1.0000      -2.252195       -61.2853
  26   1.0000      -2.251102       -61.2556
  27   1.0000      -2.251039       -61.2539
  28   1.0000      -2.249649       -61.2161
  29   1.0000      -2.249576       -61.2141
  30   1.0000      -2.248276       -61.1787
  31   1.0000      -2.248177       -61.1760
  32   1.0000      -2.243426       -61.0467
  33   1.0000      -2.243120       -61.0384
  34   1.0000      -2.241714       -61.0001
  35   1.0000      -2.241503       -60.9944
  36   1.0000      -2.240899       -60.9779
  37   1.0000      -2.240735       -60.9735
  38   1.0000      -2.240554       -60.9686
  39   1.0000      -2.240459       -60.9660
  40   1.0000      -2.239670       -60.9445
  41   1.0000      -2.239619       -60.9431
  42   1.0000      -2.239381       -60.9367
  43   1.0000      -2.239104       -60.9291
  44   1.0000      -2.238998       -60.9262
  45   1.0000      -2.238862       -60.9225
  46   1.0000      -2.238801       -60.9209
  47   1.0000      -2.238056       -60.9006
  48   1.0000      -2.237999       -60.8990
  49   1.0000      -2.237478       -60.8849
  50   1.0000      -2.236930       -60.8700
  51   1.0000      -2.236829       -60.8672
  52   1.0000      -2.236236       -60.8511
  53   1.0000      -2.235649       -60.8351
  54   1.0000      -2.235064       -60.8192
  55   1.0000      -2.234944       -60.8159
  56   1.0000      -2.234216       -60.7961
  57   1.0000      -2.234144       -60.7942
  58   1.0000      -2.233299       -60.7712
  59   1.0000      -2.232360       -60.7456
  60   1.0000      -2.231940       -60.7342
  61   1.0000      -2.231602       -60.7250
  62   1.0000      -2.196633       -59.7734
  63   1.0000      -2.186361       -59.4939
  64   1.0000      -2.153192       -58.5913
  65   1.0000      -0.434058       -11.8113
  66   1.0000      -0.387967       -10.5571
  67   1.0000      -0.385907       -10.5011
  68   1.0000      -0.383264       -10.4291
  69   1.0000      -0.378137       -10.2896
  70   1.0000      -0.369053       -10.0424
  71   1.0000      -0.368672       -10.0321
  72   1.0000      -0.368187       -10.0189
  73   1.0000      -0.366637        -9.9767
  74   1.0000      -0.360887        -9.8202
  75   1.0000      -0.357480        -9.7275
  76   1.0000      -0.356435        -9.6991
  77   1.0000      -0.355940        -9.6856
  78   1.0000      -0.354719        -9.6524
  79   1.0000      -0.352994        -9.6055
  80   1.0000      -0.349122        -9.5001
  81   1.0000      -0.348935        -9.4950
  82   1.0000      -0.348543        -9.4843
  83   1.0000      -0.347878        -9.4663
  84   1.0000      -0.344810        -9.3828
  85   1.0000      -0.338601        -9.2138
  86   1.0000      -0.338327        -9.2063
  87   1.0000      -0.337944        -9.1959
  88   1.0000      -0.337686        -9.1889
  89   1.0000      -0.334846        -9.1116
  90   1.0000      -0.333797        -9.0831
  91   1.0000      -0.327095        -8.9007
  92   1.0000      -0.326432        -8.8827
  93   1.0000      -0.321796        -8.7565
  94   1.0000      -0.319008        -8.6806
  95   1.0000      -0.317691        -8.6448
  96   1.0000      -0.316711        -8.6181
  97   1.0000      -0.314876        -8.5682
  98   1.0000      -0.313035        -8.5181
  99   1.0000      -0.311361        -8.4726
 100   1.0000      -0.309667        -8.4265
 101   1.0000      -0.298955        -8.1350
 102   1.0000      -0.298654        -8.1268
 103   1.0000      -0.297198        -8.0872
 104   1.0000      -0.294889        -8.0243
 105   1.0000      -0.293767        -7.9938
 106   1.0000      -0.290979        -7.9180
 107   1.0000      -0.290203        -7.8968
 108   1.0000      -0.287816        -7.8319
 109   1.0000      -0.280586        -7.6351
 110   1.0000      -0.279005        -7.5921
 111   1.0000      -0.275385        -7.4936
 112   1.0000      -0.272630        -7.4186
 113   1.0000      -0.271677        -7.3927
 114   1.0000      -0.271319        -7.3830
 115   1.0000      -0.270256        -7.3541
 116   1.0000      -0.268244        -7.2993
 117   1.0000      -0.267207        -7.2711
 118   1.0000      -0.266295        -7.2462
 119   1.0000      -0.265985        -7.2378
 120   1.0000      -0.263922        -7.1817
 121   1.0000      -0.263313        -7.1651
 122   1.0000      -0.262126        -7.1328
 123   1.0000      -0.259531        -7.0622
 124   1.0000      -0.259438        -7.0597
 125   1.0000      -0.257160        -6.9977
 126   1.0000      -0.256703        -6.9853
 127   1.0000      -0.256450        -6.9784
 128   1.0000      -0.256060        -6.9677
 129   1.0000      -0.253931        -6.9098
 130   1.0000      -0.252828        -6.8798
 131   1.0000      -0.251497        -6.8436
 132   1.0000      -0.249300        -6.7838
 133   1.0000      -0.248708        -6.7677
 134   1.0000      -0.247585        -6.7371
 135   1.0000      -0.247304        -6.7295
 136   1.0000      -0.246290        -6.7019
 137   1.0000      -0.243024        -6.6130
 138   1.0000      -0.242533        -6.5997
 139   1.0000      -0.241989        -6.5848
 140   1.0000      -0.241895        -6.5823
 141   1.0000      -0.240377        -6.5410
 142   1.0000      -0.234731        -6.3874
 143   1.0000      -0.231041        -6.2869
 144   1.0000      -0.209296        -5.6952
 145   1.0000      -0.205846        -5.6013
 146   1.0000      -0.199511        -5.4290
 147   0.0000      -0.193477        -5.2648
 148   0.0000      -0.190994        -5.1972
 149   0.0000      -0.134837        -3.6691
 150   0.0000      -0.125378        -3.4117
 151   0.0000      -0.124745        -3.3945

                 SPIN DOWN ORBITALS
  NO   OCC          E(Eh)            E(eV)
   0   1.0000    -254.753115     -6932.1847
   1   1.0000     -29.531764      -803.6002
   2   1.0000     -25.487508      -693.5504
   3   1.0000     -25.482611      -693.4171
   4   1.0000     -25.473242      -693.1622
   5   1.0000      -4.038338      -109.8888
   6   1.0000      -4.038248      -109.8863
   7   1.0000      -4.038104      -109.8824
   8   1.0000      -4.038039      -109.8806
   9   1.0000      -4.028323      -109.6162
  10   1.0000      -4.028197      -109.6128
  11   1.0000      -4.026574      -109.5686
  12   1.0000      -4.026399      -109.5639
  13   1.0000      -4.026053      -109.5545
  14   1.0000      -4.025944      -109.5515
  15   1.0000      -4.025120      -109.5291
  16   1.0000      -4.024999      -109.5258
  17   1.0000      -4.022034      -109.4451
  18   1.0000      -4.021645      -109.4345
  19   1.0000      -3.239372       -88.1478
  20   1.0000      -2.254570       -61.3500
  21   1.0000      -2.254491       -61.3478
  22   1.0000      -2.252214       -61.2859
  23   1.0000      -2.252063       -61.2818
  24   1.0000      -2.251880       -61.2768
  25   1.0000      -2.251858       -61.2762
  26   1.0000      -2.251294       -61.2608
  27   1.0000      -2.251223       -61.2589
  28   1.0000      -2.249673       -61.2167
  29   1.0000      -2.249600       -61.2147
  30   1.0000      -2.248450       -61.1834
  31   1.0000      -2.248342       -61.1805
  32   1.0000      -2.243635       -61.0524
  33   1.0000      -2.243241       -61.0417
  34   1.0000      -2.242121       -61.0112
  35   1.0000      -2.241485       -60.9939
  36   1.0000      -2.241246       -60.9874
  37   1.0000      -2.241131       -60.9843
  38   1.0000      -2.240885       -60.9776
  39   1.0000      -2.240768       -60.9744
  40   1.0000      -2.240554       -60.9686
  41   1.0000      -2.240198       -60.9589
  42   1.0000      -2.239962       -60.9525
  43   1.0000      -2.239504       -60.9400
  44   1.0000      -2.239430       -60.9380
  45   1.0000      -2.239394       -60.9370
  46   1.0000      -2.239284       -60.9340
  47   1.0000      -2.239147       -60.9303
  48   1.0000      -2.238589       -60.9151
  49   1.0000      -2.238059       -60.9007
  50   1.0000      -2.237141       -60.8757
  51   1.0000      -2.237092       -60.8744
  52   1.0000      -2.237032       -60.8727
  53   1.0000      -2.236040       -60.8457
  54   1.0000      -2.235795       -60.8391
  55   1.0000      -2.235389       -60.8280
  56   1.0000      -2.235000       -60.8175
  57   1.0000      -2.234899       -60.8147
  58   1.0000      -2.234058       -60.7918
  59   1.0000      -2.232997       -60.7629
  60   1.0000      -2.232556       -60.7509
  61   1.0000      -2.232245       -60.7425
  62   1.0000      -2.065060       -56.1931
  63   1.0000      -2.058673       -56.0194
  64   1.0000      -2.044261       -55.6272
  65   1.0000      -0.431009       -11.7283
  66   1.0000      -0.387942       -10.5564
  67   1.0000      -0.385917       -10.5013
  68   1.0000      -0.384542       -10.4639
  69   1.0000      -0.370905       -10.0928
  70   1.0000      -0.367264        -9.9938
  71   1.0000      -0.363711        -9.8971
  72   1.0000      -0.363141        -9.8816
  73   1.0000      -0.362636        -9.8678
  74   1.0000      -0.360512        -9.8100
  75   1.0000      -0.357531        -9.7289
  76   1.0000      -0.357480        -9.7275
  77   1.0000      -0.355931        -9.6854
  78   1.0000      -0.355416        -9.6714
  79   1.0000      -0.354079        -9.6350
  80   1.0000      -0.349589        -9.5128
  81   1.0000      -0.349250        -9.5036
  82   1.0000      -0.348863        -9.4930
  83   1.0000      -0.348050        -9.4709
  84   1.0000      -0.346088        -9.4175
  85   1.0000      -0.339510        -9.2385
  86   1.0000      -0.339002        -9.2247
  87   1.0000      -0.338292        -9.2054
  88   1.0000      -0.337403        -9.1812
  89   1.0000      -0.334346        -9.0980
  90   1.0000      -0.330454        -8.9921
  91   1.0000      -0.327711        -8.9175
  92   1.0000      -0.322751        -8.7825
  93   1.0000      -0.319844        -8.7034
  94   1.0000      -0.319048        -8.6817
  95   1.0000      -0.317793        -8.6476
  96   1.0000      -0.314274        -8.5518
  97   1.0000      -0.313030        -8.5180
  98   1.0000      -0.311543        -8.4775
  99   1.0000      -0.310713        -8.4549
 100   1.0000      -0.305999        -8.3266
 101   1.0000      -0.297852        -8.1050
 102   1.0000      -0.296070        -8.0565
 103   1.0000      -0.295990        -8.0543
 104   1.0000      -0.294268        -8.0074
 105   1.0000      -0.292159        -7.9501
 106   1.0000      -0.291282        -7.9262
 107   1.0000      -0.285985        -7.7821
 108   1.0000      -0.281715        -7.6659
 109   1.0000      -0.279797        -7.6137
 110   1.0000      -0.279449        -7.6042
 111   1.0000      -0.276041        -7.5114
 112   1.0000      -0.272662        -7.4195
 113   1.0000      -0.272560        -7.4167
 114   1.0000      -0.271897        -7.3987
 115   1.0000      -0.268989        -7.3196
 116   1.0000      -0.267163        -7.2699
 117   1.0000      -0.266946        -7.2640
 118   1.0000      -0.266309        -7.2466
 119   1.0000      -0.264714        -7.2032
 120   1.0000      -0.264195        -7.1891
 121   1.0000      -0.262935        -7.1548
 122   1.0000      -0.262820        -7.1517
 123   1.0000      -0.260667        -7.0931
 124   1.0000      -0.258693        -7.0394
 125   1.0000      -0.258309        -7.0289
 126   1.0000      -0.257100        -6.9961
 127   1.0000      -0.256477        -6.9791
 128   1.0000      -0.253342        -6.8938
 129   1.0000      -0.251684        -6.8487
 130   1.0000      -0.249464        -6.7883
 131   1.0000      -0.247867        -6.7448
 132   1.0000      -0.247351        -6.7308
 133   1.0000      -0.245162        -6.6712
 134   1.0000      -0.243220        -6.6183
 135   1.0000      -0.243113        -6.6155
 136   1.0000      -0.243037        -6.6134
 137   1.0000      -0.241191        -6.5631
 138   1.0000      -0.232258        -6.3201
 139   1.0000      -0.217014        -5.9052
 140   1.0000      -0.216212        -5.8834
 141   1.0000      -0.209306        -5.6955
 142   1.0000      -0.209204        -5.6927
 143   1.0000      -0.207414        -5.6440
 144   1.0000      -0.174156        -4.7390
 145   0.0000      -0.164675        -4.4810
 146   0.0000      -0.161686        -4.3997
 147   0.0000      -0.147134        -4.0037
 148   0.0000      -0.144176        -3.9232
 149   0.0000      -0.130538        -3.5521

MULLIKEN ATOMIC CHARGES AND SPIN POPULATIONS
--------------------------------------------
   0 Au:    0.170970   -0.149821
   1 Au:    0.247907   -0.031540
   2 Au:    0.176164   -0.153707
   3 Au:    0.092067   -0.066245
   4 Au:    0.245938   -0.035298
   5 Au:    0.118191   -0.041810
   6 Au:    0.186771    0.013306
   7 Au:    0.171335   -0.147523
   8 Au:    0.091911   -0.064018
   9 Au:    0.246286   -0.027929
  10 Au:    0.246266   -0.034322
  11 Au:    0.118971   -0.041177
  12 Au:    0.192145    0.010003
  13 Au:    0.176173   -0.154398
  14 Fe:   -2.481095    2.924478
Sum of atomic charges         :   -0.0000000

LOEWDIN ATOMIC CHARGES AND SPIN POPULATIONS
-------------------------------------------
   0 Au:    0.058307   -0.082909
   1 Au:    0.061901   -0.057416
   2 Au:    0.061249   -0.083358
   3 Au:    0.000325   -0.097747
   4 Au:    0.063383   -0.059456
   5 Au:    0.017275   -0.066412
   6 Au:    0.025998   -0.034374
   7 Au:    0.058606   -0.081441
   8 Au:    0.000406   -0.097403
   9 Au:    0.061532   -0.055863
  10 Au:    0.063308   -0.058751
  11 Au:    0.015678   -0.064331
  12 Au:    0.028626   -0.037793
  13 Au:    0.060990   -0.083806
  14 Fe:   -0.577583    2.961059

  Mayer bond orders larger than 0.100000
B(  0-Au,  2-Au) :   0.2116 B(  0-Au,  4-Au) :   0.1977 B(  0-Au,  8-Au) :   0.2735
B(  0-Au, 11-Au) :   0.1951 B(  0-Au, 12-Au) :   0.1866 B(  0-Au, 14-Fe) :   0.4965
B(  1-Au,  2-Au) :   0.2028 B(  1-Au,  4-Au) :   0.3059 B(  1-Au,  6-Au) :   0.2120
B(  1-Au,  9-Au) :   0.1685 B(  1-Au, 14-Fe) :   0.4247 B(  2-Au,  5-Au) :   0.1842
B(  2-Au,  6-Au) :   0.1829 B(  2-Au,  8-Au) :   0.2660 B(  2-Au, 14-Fe) :   0.5045
B(  3-Au,  5-Au) :   0.2770 B(  3-Au,  7-Au) :   0.2742 B(  3-Au,  8-Au) :   0.2038
B(  3-Au, 11-Au) :   0.2761 B(  3-Au, 13-Au) :   0.2681 B(  3-Au, 14-Fe) :   0.2190
B(  4-Au, 10-Au) :   0.1677 B(  4-Au, 12-Au) :   0.2093 B(  4-Au, 14-Fe) :   0.4337
B(  5-Au,  6-Au) :   0.3307 B(  5-Au,  8-Au) :   0.2790 B(  5-Au, 13-Au) :   0.1819
B(  5-Au, 14-Fe) :   0.2271 B(  6-Au,  9-Au) :   0.2109 B(  6-Au, 13-Au) :   0.1829
B(  6-Au, 14-Fe) :   0.3393 B(  7-Au, 10-Au) :   0.1959 B(  7-Au, 11-Au) :   0.1935
B(  7-Au, 12-Au) :   0.1877 B(  7-Au, 13-Au) :   0.2115 B(  7-Au, 14-Fe) :   0.4992
B(  8-Au, 11-Au) :   0.2767 B(  8-Au, 14-Fe) :   0.2182 B(  9-Au, 10-Au) :   0.3065
B(  9-Au, 13-Au) :   0.2035 B(  9-Au, 14-Fe) :   0.4258 B( 10-Au, 12-Au) :   0.2112
B( 10-Au, 14-Fe) :   0.4320 B( 11-Au, 12-Au) :   0.3227 B( 11-Au, 14-Fe) :   0.2245
B( 12-Au, 14-Fe) :   0.3340 B( 13-Au, 14-Fe) :   0.5027

FINAL SINGLE POINT ENERGY     -3165.051607055304

DIPOLE MOMENT
-------------
                                X             Y             Z
Electronic contribution:      2.01152      16.08060      -1.40606
Nuclear contribution   :     -2.04465     -16.27437       1.42392
                        -----------------------------------------
Total Dipole Moment    :     -0.03313      -0.19377       0.01787
                        -----------------------------------------
Magnitude (a.u.)       :      0.19739
Magnitude (Debye)      :      0.50172

Rotational constants in cm-1:     0.001148     0.001112     0.000948
Rotational constants in MHz :    34.412688    33.337662    28.418928

                             ****ORCA TERMINATED NORMALLY****
TOTAL RUN TIME: 0 days 0 hours 4 minutes 48 seconds 797 msec
