                         Program Version 5.0.3 -  RELEASE  -
|  1> !RI-B2PLYP def2-TZVP def2-TZVP/C
|  2> !RIJCOSX VERYSLOWCONV
|  3>
|  4> %scf
|  5>   AutoTRAHIter 200
|  6>   maxiter 400
|  7> end
|  8>
|  9>
| 10> %pal nprocs 6 end
| 11>
| 12> *xyzfile 0 5 pbe.xyz
| 13>
| 14> $new_job
| 15>
| 16> !RI-B2PLYP def2-TZVP def2-TZVP/C
| 17> !RIJCOSX VERYSLOWCONV
| 18>
| 19> %scf
| 20>   AutoTRAHIter 200
| 21>   maxiter 400
| 22> end
| 23>
| 24>
| 25> %pal nprocs 6 end
| 26>
| 27> *xyzfile 0 3 pbe.xyz
| 28>
| 29>
| 30>
| 31>
| 32>
| 33>                          ****END OF INPUT****
 Total Charge           Charge          ....    0
 Multiplicity           Mult            ....    5
 Number of Electrons    NEL             ....  290
MP2 TOTAL ENERGY:    -2942.520405026 Eh
FINAL SINGLE POINT ENERGY     -2942.520405026336

CARTESIAN COORDINATES (ANGSTROEM)
---------------------------------
  Au     9.469189    6.722900    7.599332
  Au     9.107276    8.813688    9.398724
  Au     7.576726    6.545178    9.732245
  Au     5.248935    7.992222    9.739580
  Au     5.379125    5.638713    8.234522
  Au     6.739793   10.153774    8.817701
  Au     4.543889    9.213872    7.306692
  Au     6.508306    9.508077    5.279159
  Au     8.809817    9.809804    6.771544
  Au     4.889408    7.347146    5.363117
  Au     7.512275    5.358194    6.322504
  Au     8.517758    7.615280    5.000461
  Au     6.644168    6.008626    3.720563
  Au     4.933125    4.624011    5.738766
  Cr     6.950680    7.841657    7.436078

 Multiplicity           Mult            ....    3
 Number of Electrons    NEL             ....  290
 Basis Dimension        Dim             ....  605

ORBITAL ENERGIES
----------------
                 SPIN UP ORBITALS
  NO   OCC          E(Eh)            E(eV)
   0   1.0000    -217.772110     -5925.8804
   1   1.0000     -25.459011      -692.7749
   2   1.0000     -21.600270      -587.7732
   3   1.0000     -21.596237      -587.6635
   4   1.0000     -21.593016      -587.5758
   5   1.0000      -4.404836      -119.8617
   6   1.0000      -4.399773      -119.7239
   7   1.0000      -4.398948      -119.7015
   8   1.0000      -4.398125      -119.6791
   9   1.0000      -4.397965      -119.6747
  10   1.0000      -4.397125      -119.6518
  11   1.0000      -4.395842      -119.6169
  12   1.0000      -4.394988      -119.5937
  13   1.0000      -4.393798      -119.5613
  14   1.0000      -4.393102      -119.5424
  15   1.0000      -4.392518      -119.5265
  16   1.0000      -4.390652      -119.4757
  17   1.0000      -4.388828      -119.4261
  18   1.0000      -4.381489      -119.2264
  19   1.0000      -3.245230       -88.3072
  20   1.0000      -2.526430       -68.7477
  21   1.0000      -2.522452       -68.6394
  22   1.0000      -2.521776       -68.6210
  23   1.0000      -2.520981       -68.5994
  24   1.0000      -2.520832       -68.5953
  25   1.0000      -2.519550       -68.5605
  26   1.0000      -2.518674       -68.5366
  27   1.0000      -2.517908       -68.5158
  28   1.0000      -2.517833       -68.5137
  29   1.0000      -2.517169       -68.4957
  30   1.0000      -2.516607       -68.4804
  31   1.0000      -2.515987       -68.4635
  32   1.0000      -2.515492       -68.4500
  33   1.0000      -2.514846       -68.4324
  34   1.0000      -2.514522       -68.4236
  35   1.0000      -2.514277       -68.4170
  36   1.0000      -2.513842       -68.4051
  37   1.0000      -2.513285       -68.3900
  38   1.0000      -2.513087       -68.3846
  39   1.0000      -2.512895       -68.3794
  40   1.0000      -2.512565       -68.3704
  41   1.0000      -2.512425       -68.3666
  42   1.0000      -2.512280       -68.3626
  43   1.0000      -2.511543       -68.3425
  44   1.0000      -2.511077       -68.3299
  45   1.0000      -2.510397       -68.3114
  46   1.0000      -2.510338       -68.3098
  47   1.0000      -2.509950       -68.2992
  48   1.0000      -2.509674       -68.2917
  49   1.0000      -2.508175       -68.2509
  50   1.0000      -2.507968       -68.2453
  51   1.0000      -2.507773       -68.2400
  52   1.0000      -2.507064       -68.2207
  53   1.0000      -2.506771       -68.2127
  54   1.0000      -2.506485       -68.2049
  55   1.0000      -2.506259       -68.1988
  56   1.0000      -2.505996       -68.1916
  57   1.0000      -2.505199       -68.1699
  58   1.0000      -2.503906       -68.1348
  59   1.0000      -2.499215       -68.0071
  60   1.0000      -2.498506       -67.9878
  61   1.0000      -2.496880       -67.9435
  62   1.0000      -2.136427       -58.1351
  63   1.0000      -2.129803       -57.9549
  64   1.0000      -2.122469       -57.7553
  65   1.0000      -0.498905       -13.5759
  66   1.0000      -0.480539       -13.0761
  67   1.0000      -0.478801       -13.0288
  68   1.0000      -0.473291       -12.8789
  69   1.0000      -0.470808       -12.8113
  70   1.0000      -0.468220       -12.7409
  71   1.0000      -0.467243       -12.7143
  72   1.0000      -0.463033       -12.5998
  73   1.0000      -0.460222       -12.5233
  74   1.0000      -0.458053       -12.4642
  75   1.0000      -0.455993       -12.4082
  76   1.0000      -0.452181       -12.3045
  77   1.0000      -0.451742       -12.2925
  78   1.0000      -0.448092       -12.1932
  79   1.0000      -0.446032       -12.1371
  80   1.0000      -0.443933       -12.0800
  81   1.0000      -0.442367       -12.0374
  82   1.0000      -0.438570       -11.9341
  83   1.0000      -0.436739       -11.8843
  84   1.0000      -0.436316       -11.8728
  85   1.0000      -0.431846       -11.7511
  86   1.0000      -0.431165       -11.7326
  87   1.0000      -0.429144       -11.6776
  88   1.0000      -0.428067       -11.6483
  89   1.0000      -0.423931       -11.5357
  90   1.0000      -0.420103       -11.4316
  91   1.0000      -0.418284       -11.3821
  92   1.0000      -0.416262       -11.3271
  93   1.0000      -0.415287       -11.3005
  94   1.0000      -0.413963       -11.2645
  95   1.0000      -0.410719       -11.1762
  96   1.0000      -0.409140       -11.1333
  97   1.0000      -0.403661       -10.9842
  98   1.0000      -0.401235       -10.9182
  99   1.0000      -0.400955       -10.9105
 100   1.0000      -0.396510       -10.7896
 101   1.0000      -0.393825       -10.7165
 102   1.0000      -0.390956       -10.6384
 103   1.0000      -0.389199       -10.5906
 104   1.0000      -0.388801       -10.5798
 105   1.0000      -0.382495       -10.4082
 106   1.0000      -0.382356       -10.4044
 107   1.0000      -0.380084       -10.3426
 108   1.0000      -0.377485       -10.2719
 109   1.0000      -0.373544       -10.1646
 110   1.0000      -0.372493       -10.1361
 111   1.0000      -0.370857       -10.0915
 112   1.0000      -0.369209       -10.0467
 113   1.0000      -0.367863       -10.0101
 114   1.0000      -0.366638        -9.9767
 115   1.0000      -0.365835        -9.9549
 116   1.0000      -0.363111        -9.8808
 117   1.0000      -0.360712        -9.8155
 118   1.0000      -0.358769        -9.7626
 119   1.0000      -0.355821        -9.6824
 120   1.0000      -0.355317        -9.6687
 121   1.0000      -0.354125        -9.6362
 122   1.0000      -0.352770        -9.5994
 123   1.0000      -0.350835        -9.5467
 124   1.0000      -0.348607        -9.4861
 125   1.0000      -0.347934        -9.4678
 126   1.0000      -0.346332        -9.4242
 127   1.0000      -0.345026        -9.3886
 128   1.0000      -0.342770        -9.3273
 129   1.0000      -0.341831        -9.3017
 130   1.0000      -0.341501        -9.2927
 131   1.0000      -0.339268        -9.2320
 132   1.0000      -0.338959        -9.2235
 133   1.0000      -0.337224        -9.1763
 134   1.0000      -0.336533        -9.1575
 135   1.0000      -0.331680        -9.0255
 136   1.0000      -0.328205        -8.9309
 137   1.0000      -0.325782        -8.8650
 138   1.0000      -0.322783        -8.7834
 139   1.0000      -0.317248        -8.6327
 140   1.0000      -0.309877        -8.4322
 141   1.0000      -0.301456        -8.2030
 142   1.0000      -0.296877        -8.0784
 143   1.0000      -0.243810        -6.6344
 144   1.0000      -0.232763        -6.3338
 145   1.0000      -0.218861        -5.9555
 146   0.0000      -0.126968        -3.4550
 147   0.0000      -0.098508        -2.6805
 148   0.0000      -0.082225        -2.2375
 149   0.0000      -0.067384        -1.8336
 150   0.0000      -0.065302        -1.7769

                 SPIN DOWN ORBITALS
  NO   OCC          E(Eh)            E(eV)
   0   1.0000    -217.770803     -5925.8448
   1   1.0000     -25.389367      -690.8798
   2   1.0000     -21.545005      -586.2694
   3   1.0000     -21.531560      -585.9035
   4   1.0000     -21.519965      -585.5880
   5   1.0000      -4.405185      -119.8712
   6   1.0000      -4.400435      -119.7419
   7   1.0000      -4.399146      -119.7068
   8   1.0000      -4.398315      -119.6842
   9   1.0000      -4.398162      -119.6801
  10   1.0000      -4.396943      -119.6469
  11   1.0000      -4.396038      -119.6223
  12   1.0000      -4.394881      -119.5908
  13   1.0000      -4.394016      -119.5672
  14   1.0000      -4.393148      -119.5436
  15   1.0000      -4.393003      -119.5397
  16   1.0000      -4.391243      -119.4918
  17   1.0000      -4.389178      -119.4356
  18   1.0000      -4.382126      -119.2437
  19   1.0000      -3.032911       -82.5297
  20   1.0000      -2.526079       -68.7381
  21   1.0000      -2.521543       -68.6147
  22   1.0000      -2.521191       -68.6051
  23   1.0000      -2.520762       -68.5934
  24   1.0000      -2.520011       -68.5730
  25   1.0000      -2.519683       -68.5640
  26   1.0000      -2.517681       -68.5096
  27   1.0000      -2.517555       -68.5061
  28   1.0000      -2.517403       -68.5020
  29   1.0000      -2.516923       -68.4890
  30   1.0000      -2.516356       -68.4735
  31   1.0000      -2.515632       -68.4538
  32   1.0000      -2.515492       -68.4500
  33   1.0000      -2.514708       -68.4287
  34   1.0000      -2.514181       -68.4143
  35   1.0000      -2.513822       -68.4046
  36   1.0000      -2.513269       -68.3895
  37   1.0000      -2.512890       -68.3792
  38   1.0000      -2.512613       -68.3717
  39   1.0000      -2.512565       -68.3704
  40   1.0000      -2.512211       -68.3607
  41   1.0000      -2.512127       -68.3584
  42   1.0000      -2.511799       -68.3495
  43   1.0000      -2.511502       -68.3414
  44   1.0000      -2.510700       -68.3196
  45   1.0000      -2.510421       -68.3120
  46   1.0000      -2.510393       -68.3113
  47   1.0000      -2.509783       -68.2947
  48   1.0000      -2.509635       -68.2906
  49   1.0000      -2.508813       -68.2683
  50   1.0000      -2.508288       -68.2540
  51   1.0000      -2.507895       -68.2433
  52   1.0000      -2.507503       -68.2326
  53   1.0000      -2.507018       -68.2194
  54   1.0000      -2.506569       -68.2072
  55   1.0000      -2.506352       -68.2013
  56   1.0000      -2.506076       -68.1938
  57   1.0000      -2.505249       -68.1713
  58   1.0000      -2.504597       -68.1535
  59   1.0000      -2.500342       -68.0378
  60   1.0000      -2.499097       -68.0039
  61   1.0000      -2.497795       -67.9684
  62   1.0000      -1.914602       -52.0990
  63   1.0000      -1.884063       -51.2680
  64   1.0000      -1.857903       -50.5561
  65   1.0000      -0.495849       -13.4927
  66   1.0000      -0.473333       -12.8800
  67   1.0000      -0.472385       -12.8542
  68   1.0000      -0.467016       -12.7082
  69   1.0000      -0.465623       -12.6702
  70   1.0000      -0.462308       -12.5800
  71   1.0000      -0.460486       -12.5305
  72   1.0000      -0.458869       -12.4865
  73   1.0000      -0.458238       -12.4693
  74   1.0000      -0.454536       -12.3686
  75   1.0000      -0.452652       -12.3173
  76   1.0000      -0.451042       -12.2735
  77   1.0000      -0.448213       -12.1965
  78   1.0000      -0.446244       -12.1429
  79   1.0000      -0.444722       -12.1015
  80   1.0000      -0.443463       -12.0672
  81   1.0000      -0.442509       -12.0413
  82   1.0000      -0.440013       -11.9734
  83   1.0000      -0.437441       -11.9034
  84   1.0000      -0.435826       -11.8594
  85   1.0000      -0.432989       -11.7822
  86   1.0000      -0.432137       -11.7591
  87   1.0000      -0.430416       -11.7122
  88   1.0000      -0.427715       -11.6387
  89   1.0000      -0.423348       -11.5199
  90   1.0000      -0.420181       -11.4337
  91   1.0000      -0.418813       -11.3965
  92   1.0000      -0.416242       -11.3265
  93   1.0000      -0.414498       -11.2791
  94   1.0000      -0.411030       -11.1847
  95   1.0000      -0.408527       -11.1166
  96   1.0000      -0.402986       -10.9658
  97   1.0000      -0.401332       -10.9208
  98   1.0000      -0.396921       -10.8008
  99   1.0000      -0.393582       -10.7099
 100   1.0000      -0.392310       -10.6753
 101   1.0000      -0.388927       -10.5832
 102   1.0000      -0.387806       -10.5527
 103   1.0000      -0.385923       -10.5015
 104   1.0000      -0.383063       -10.4237
 105   1.0000      -0.382642       -10.4122
 106   1.0000      -0.378859       -10.3093
 107   1.0000      -0.377137       -10.2624
 108   1.0000      -0.374151       -10.1812
 109   1.0000      -0.373044       -10.1510
 110   1.0000      -0.371975       -10.1220
 111   1.0000      -0.369673       -10.0593
 112   1.0000      -0.368364       -10.0237
 113   1.0000      -0.366991        -9.9863
 114   1.0000      -0.365938        -9.9577
 115   1.0000      -0.365257        -9.9392
 116   1.0000      -0.362247        -9.8572
 117   1.0000      -0.360969        -9.8225
 118   1.0000      -0.357780        -9.7357
 119   1.0000      -0.356933        -9.7126
 120   1.0000      -0.355936        -9.6855
 121   1.0000      -0.354234        -9.6392
 122   1.0000      -0.352770        -9.5993
 123   1.0000      -0.349707        -9.5160
 124   1.0000      -0.347039        -9.4434
 125   1.0000      -0.346246        -9.4218
 126   1.0000      -0.345325        -9.3968
 127   1.0000      -0.343989        -9.3604
 128   1.0000      -0.342349        -9.3158
 129   1.0000      -0.341852        -9.3023
 130   1.0000      -0.339531        -9.2391
 131   1.0000      -0.338006        -9.1976
 132   1.0000      -0.333739        -9.0815
 133   1.0000      -0.330337        -8.9889
 134   1.0000      -0.328011        -8.9256
 135   1.0000      -0.320280        -8.7153
 136   1.0000      -0.315108        -8.5745
 137   1.0000      -0.312751        -8.5104
 138   1.0000      -0.310294        -8.4435
 139   1.0000      -0.250754        -6.8234
 140   1.0000      -0.234487        -6.3807
 141   1.0000      -0.233501        -6.3539
 142   1.0000      -0.224993        -6.1224
 143   1.0000      -0.191316        -5.2060
 144   0.0000      -0.086324        -2.3490
 145   0.0000      -0.071230        -1.9383
 146   0.0000      -0.065531        -1.7832
 147   0.0000      -0.051926        -1.4130
 148   0.0000      -0.049952        -1.3593

MULLIKEN ATOMIC CHARGES AND SPIN POPULATIONS
--------------------------------------------
   0 Au:    0.498698   -0.092096
   1 Au:    0.486972   -0.034683
   2 Au:    0.452631   -0.118818
   3 Au:    0.474345   -0.111377
   4 Au:    0.265419   -0.003873
   5 Au:    0.454744   -0.075835
   6 Au:    0.492082   -0.097768
   7 Au:    0.552261   -0.103714
   8 Au:    0.467929   -0.042302
   9 Au:    0.036125   -0.099414
  10 Au:    0.151724   -0.178684
  11 Au:    0.267429   -0.047956
  12 Au:    0.231632    0.046972
  13 Au:    0.374482    0.022667
  14 Cr:   -5.206476    2.936880
Sum of atomic charges         :   -0.0000000

LOEWDIN ATOMIC CHARGES AND SPIN POPULATIONS
-------------------------------------------
   0 Au:    0.120814   -0.146205
   1 Au:    0.106033   -0.065461
   2 Au:    0.099178   -0.132094
   3 Au:    0.113477   -0.165030
   4 Au:    0.070967   -0.090556
   5 Au:    0.096888   -0.108665
   6 Au:    0.129619   -0.158501
   7 Au:    0.109288   -0.127049
   8 Au:    0.104572   -0.100910
   9 Au:   -0.007943   -0.071766
  10 Au:   -0.000125   -0.109903
  11 Au:    0.055011   -0.105428
  12 Au:    0.093442   -0.005649
  13 Au:    0.122170   -0.026064
  14 Cr:   -1.213393    3.413280

  Mayer bond orders larger than 0.100000
B(  0-Au,  1-Au) :   0.1987 B(  0-Au,  2-Au) :   0.1235 B(  0-Au, 10-Au) :   0.2133
B(  0-Au, 11-Au) :   0.1487 B(  0-Au, 14-Cr) :   0.5412 B(  1-Au,  2-Au) :   0.1912
B(  1-Au,  5-Au) :   0.1787 B(  1-Au,  8-Au) :   0.1849 B(  1-Au, 14-Cr) :   0.3718
B(  2-Au,  3-Au) :   0.1869 B(  2-Au,  4-Au) :   0.1772 B(  2-Au, 14-Cr) :   0.5026
B(  3-Au,  4-Au) :   0.2001 B(  3-Au,  5-Au) :   0.1588 B(  3-Au,  6-Au) :   0.1691
B(  3-Au, 14-Cr) :   0.5008 B(  4-Au, 10-Au) :   0.1603 B(  4-Au, 13-Au) :   0.2572
B(  4-Au, 14-Cr) :   0.5817 B(  5-Au,  6-Au) :   0.1555 B(  5-Au,  8-Au) :   0.1329
B(  5-Au, 14-Cr) :   0.4167 B(  6-Au,  7-Au) :   0.1410 B(  6-Au,  9-Au) :   0.2449
B(  6-Au, 14-Cr) :   0.5415 B(  7-Au,  8-Au) :   0.1698 B(  7-Au,  9-Au) :   0.2031
B(  7-Au, 11-Au) :   0.1426 B(  7-Au, 14-Cr) :   0.5426 B(  8-Au, 11-Au) :   0.1823
B(  8-Au, 14-Cr) :   0.5379 B(  9-Au, 10-Au) :   0.1022 B(  9-Au, 12-Au) :   0.2594
B(  9-Au, 13-Au) :   0.2527 B(  9-Au, 14-Cr) :   0.4558 B( 10-Au, 11-Au) :   0.1592
B( 10-Au, 12-Au) :   0.2025 B( 10-Au, 13-Au) :   0.2546 B( 10-Au, 14-Cr) :   0.5076
B( 11-Au, 12-Au) :   0.2734 B( 11-Au, 14-Cr) :   0.5286 B( 12-Au, 14-Cr) :   0.3914
B( 13-Au, 14-Cr) :   0.3725

MP2 TOTAL ENERGY:    -2942.506162092 Eh
FINAL SINGLE POINT ENERGY     -2942.506162091585

DIPOLE MOMENT
-------------
                                X             Y             Z
Electronic contribution:     -3.63306     -11.16419     -12.70906
Nuclear contribution   :      3.59583      11.14589      12.77682
                        -----------------------------------------
Total Dipole Moment    :     -0.03723      -0.01829       0.06777
                        -----------------------------------------
Magnitude (a.u.)       :      0.07945
Magnitude (Debye)      :      0.20195

Rotational constants in cm-1:     0.001250     0.000948     0.000895
Rotational constants in MHz :    37.485101    28.412728    26.840706

                             ****ORCA TERMINATED NORMALLY****
TOTAL RUN TIME: 0 days 4 hours 1 minutes 10 seconds 416 msec
