                         Program Version 5.0.3 -  RELEASE  -
|  1> !PBE def2-TZVP VERYSLOWCONV
|  2>
|  3> %scf
|  4>   AutoTRAHIter 200
|  5>   maxiter 400
|  6> end
|  7>
|  8>
|  9> %pal nprocs 6 end
| 10>
| 11> *xyzfile 0 5 pbe.xyz
| 12>
| 13> $new_job
| 14>
| 15> !PBE def2-TZVP VERYSLOWCONV
| 16>
| 17> %scf
| 18>   AutoTRAHIter 200
| 19>   maxiter 400
| 20> end
| 21>
| 22>
| 23> %pal nprocs 6 end
| 24>
| 25> *xyzfile 0 3 pbe.xyz
| 26>
| 27>
| 28>
| 29>
| 30>
| 31>                          ****END OF INPUT****
 Total Charge           Charge          ....    0
 Multiplicity           Mult            ....    5
 Number of Electrons    NEL             ....  290
FINAL SINGLE POINT ENERGY     -2945.830511768717

CARTESIAN COORDINATES (ANGSTROEM)
---------------------------------
  Au     9.469189    6.722900    7.599332
  Au     9.107276    8.813688    9.398724
  Au     7.576726    6.545178    9.732245
  Au     5.248935    7.992222    9.739580
  Au     5.379125    5.638713    8.234522
  Au     6.739793   10.153774    8.817701
  Au     4.543889    9.213872    7.306692
  Au     6.508306    9.508077    5.279159
  Au     8.809817    9.809804    6.771544
  Au     4.889408    7.347146    5.363117
  Au     7.512275    5.358194    6.322504
  Au     8.517758    7.615280    5.000461
  Au     6.644168    6.008626    3.720563
  Au     4.933125    4.624011    5.738766
  Cr     6.950680    7.841657    7.436078

 Multiplicity           Mult            ....    3
 Number of Electrons    NEL             ....  290
 Basis Dimension        Dim             ....  605

ORBITAL ENERGIES
----------------
                 SPIN UP ORBITALS
  NO   OCC          E(Eh)            E(eV)
   0   1.0000    -214.509856     -5837.1099
   1   1.0000     -24.310846      -661.5317
   2   1.0000     -20.677799      -562.6715
   3   1.0000     -20.673194      -562.5462
   4   1.0000     -20.672419      -562.5251
   5   1.0000      -4.033308      -109.7519
   6   1.0000      -4.028851      -109.6306
   7   1.0000      -4.028072      -109.6094
   8   1.0000      -4.028021      -109.6080
   9   1.0000      -4.027897      -109.6047
  10   1.0000      -4.026599      -109.5693
  11   1.0000      -4.025570      -109.5413
  12   1.0000      -4.025143      -109.5297
  13   1.0000      -4.025097      -109.5285
  14   1.0000      -4.024588      -109.5146
  15   1.0000      -4.021157      -109.4212
  16   1.0000      -4.019570      -109.3781
  17   1.0000      -4.018897      -109.3598
  18   1.0000      -4.009939      -109.1160
  19   1.0000      -2.809527       -76.4511
  20   1.0000      -2.250741       -61.2458
  21   1.0000      -2.247611       -61.1606
  22   1.0000      -2.245617       -61.1063
  23   1.0000      -2.244491       -61.0757
  24   1.0000      -2.244370       -61.0724
  25   1.0000      -2.243650       -61.0528
  26   1.0000      -2.243399       -61.0460
  27   1.0000      -2.243157       -61.0394
  28   1.0000      -2.242789       -61.0294
  29   1.0000      -2.242005       -61.0081
  30   1.0000      -2.241761       -61.0014
  31   1.0000      -2.241516       -60.9947
  32   1.0000      -2.240706       -60.9727
  33   1.0000      -2.240635       -60.9708
  34   1.0000      -2.240221       -60.9595
  35   1.0000      -2.239509       -60.9401
  36   1.0000      -2.239183       -60.9313
  37   1.0000      -2.238786       -60.9205
  38   1.0000      -2.238660       -60.9170
  39   1.0000      -2.238154       -60.9033
  40   1.0000      -2.238076       -60.9011
  41   1.0000      -2.237977       -60.8985
  42   1.0000      -2.237819       -60.8941
  43   1.0000      -2.237695       -60.8908
  44   1.0000      -2.236845       -60.8677
  45   1.0000      -2.236071       -60.8466
  46   1.0000      -2.235737       -60.8375
  47   1.0000      -2.235054       -60.8189
  48   1.0000      -2.234736       -60.8103
  49   1.0000      -2.234288       -60.7981
  50   1.0000      -2.233475       -60.7760
  51   1.0000      -2.233216       -60.7689
  52   1.0000      -2.232854       -60.7590
  53   1.0000      -2.232476       -60.7487
  54   1.0000      -2.232244       -60.7425
  55   1.0000      -2.231637       -60.7259
  56   1.0000      -2.231251       -60.7154
  57   1.0000      -2.230911       -60.7062
  58   1.0000      -2.230064       -60.6831
  59   1.0000      -2.223845       -60.5139
  60   1.0000      -2.223283       -60.4986
  61   1.0000      -2.221135       -60.4401
  62   1.0000      -1.802728       -49.0547
  63   1.0000      -1.797023       -48.8995
  64   1.0000      -1.796305       -48.8800
  65   1.0000      -0.425863       -11.5883
  66   1.0000      -0.386908       -10.5283
  67   1.0000      -0.382687       -10.4134
  68   1.0000      -0.378647       -10.3035
  69   1.0000      -0.371764       -10.1162
  70   1.0000      -0.369017       -10.0415
  71   1.0000      -0.365659        -9.9501
  72   1.0000      -0.361615        -9.8400
  73   1.0000      -0.359289        -9.7767
  74   1.0000      -0.356302        -9.6955
  75   1.0000      -0.353937        -9.6311
  76   1.0000      -0.351718        -9.5707
  77   1.0000      -0.349001        -9.4968
  78   1.0000      -0.347020        -9.4429
  79   1.0000      -0.344209        -9.3664
  80   1.0000      -0.342293        -9.3143
  81   1.0000      -0.339215        -9.2305
  82   1.0000      -0.336223        -9.1491
  83   1.0000      -0.334577        -9.1043
  84   1.0000      -0.333430        -9.0731
  85   1.0000      -0.331815        -9.0292
  86   1.0000      -0.329503        -8.9662
  87   1.0000      -0.328313        -8.9338
  88   1.0000      -0.326196        -8.8762
  89   1.0000      -0.324164        -8.8210
  90   1.0000      -0.320088        -8.7100
  91   1.0000      -0.319279        -8.6880
  92   1.0000      -0.317714        -8.6454
  93   1.0000      -0.314214        -8.5502
  94   1.0000      -0.312270        -8.4973
  95   1.0000      -0.309473        -8.4212
  96   1.0000      -0.306775        -8.3478
  97   1.0000      -0.303245        -8.2517
  98   1.0000      -0.302283        -8.2255
  99   1.0000      -0.296373        -8.0647
 100   1.0000      -0.295894        -8.0517
 101   1.0000      -0.295214        -8.0332
 102   1.0000      -0.291039        -7.9196
 103   1.0000      -0.290157        -7.8956
 104   1.0000      -0.288914        -7.8618
 105   1.0000      -0.285858        -7.7786
 106   1.0000      -0.283164        -7.7053
 107   1.0000      -0.280306        -7.6275
 108   1.0000      -0.277833        -7.5602
 109   1.0000      -0.276766        -7.5312
 110   1.0000      -0.276254        -7.5173
 111   1.0000      -0.273782        -7.4500
 112   1.0000      -0.272021        -7.4021
 113   1.0000      -0.271187        -7.3794
 114   1.0000      -0.270762        -7.3678
 115   1.0000      -0.269672        -7.3381
 116   1.0000      -0.266402        -7.2492
 117   1.0000      -0.265491        -7.2244
 118   1.0000      -0.264356        -7.1935
 119   1.0000      -0.261626        -7.1192
 120   1.0000      -0.260726        -7.0947
 121   1.0000      -0.259803        -7.0696
 122   1.0000      -0.257491        -7.0067
 123   1.0000      -0.256655        -6.9839
 124   1.0000      -0.255429        -6.9506
 125   1.0000      -0.253151        -6.8886
 126   1.0000      -0.252222        -6.8633
 127   1.0000      -0.250994        -6.8299
 128   1.0000      -0.249524        -6.7899
 129   1.0000      -0.249326        -6.7845
 130   1.0000      -0.248457        -6.7609
 131   1.0000      -0.247638        -6.7386
 132   1.0000      -0.246694        -6.7129
 133   1.0000      -0.244827        -6.6621
 134   1.0000      -0.243431        -6.6241
 135   1.0000      -0.243188        -6.6175
 136   1.0000      -0.239558        -6.5187
 137   1.0000      -0.234402        -6.3784
 138   1.0000      -0.229853        -6.2546
 139   1.0000      -0.225346        -6.1320
 140   1.0000      -0.223559        -6.0833
 141   1.0000      -0.220067        -5.9883
 142   1.0000      -0.219415        -5.9706
 143   1.0000      -0.215243        -5.8571
 144   1.0000      -0.200520        -5.4564
 145   1.0000      -0.193884        -5.2758
 146   0.0000      -0.183549        -4.9946
 147   0.0000      -0.176927        -4.8144
 148   0.0000      -0.162694        -4.4271
 149   0.0000      -0.142417        -3.8754
 150   0.0000      -0.129543        -3.5250

                 SPIN DOWN ORBITALS
  NO   OCC          E(Eh)            E(eV)
   0   1.0000    -214.509457     -5837.0991
   1   1.0000     -24.266801      -660.3332
   2   1.0000     -20.647298      -561.8415
   3   1.0000     -20.639210      -561.6214
   4   1.0000     -20.635945      -561.5326
   5   1.0000      -4.033132      -109.7471
   6   1.0000      -4.028874      -109.6312
   7   1.0000      -4.028101      -109.6102
   8   1.0000      -4.027907      -109.6049
   9   1.0000      -4.027784      -109.6016
  10   1.0000      -4.026631      -109.5702
  11   1.0000      -4.025502      -109.5395
  12   1.0000      -4.025093      -109.5283
  13   1.0000      -4.025073      -109.5278
  14   1.0000      -4.024625      -109.5156
  15   1.0000      -4.021206      -109.4226
  16   1.0000      -4.020115      -109.3929
  17   1.0000      -4.019204      -109.3681
  18   1.0000      -4.010288      -109.1255
  19   1.0000      -2.691310       -73.2343
  20   1.0000      -2.250581       -61.2414
  21   1.0000      -2.247413       -61.1552
  22   1.0000      -2.245368       -61.0996
  23   1.0000      -2.244419       -61.0737
  24   1.0000      -2.244251       -61.0692
  25   1.0000      -2.243552       -61.0502
  26   1.0000      -2.243402       -61.0461
  27   1.0000      -2.243105       -61.0380
  28   1.0000      -2.242739       -61.0280
  29   1.0000      -2.241870       -61.0044
  30   1.0000      -2.241737       -61.0008
  31   1.0000      -2.241559       -60.9959
  32   1.0000      -2.240787       -60.9749
  33   1.0000      -2.240632       -60.9707
  34   1.0000      -2.239863       -60.9498
  35   1.0000      -2.239462       -60.9389
  36   1.0000      -2.239114       -60.9294
  37   1.0000      -2.238784       -60.9204
  38   1.0000      -2.238476       -60.9120
  39   1.0000      -2.238171       -60.9037
  40   1.0000      -2.238071       -60.9010
  41   1.0000      -2.237949       -60.8977
  42   1.0000      -2.237634       -60.8891
  43   1.0000      -2.237399       -60.8827
  44   1.0000      -2.236781       -60.8659
  45   1.0000      -2.236116       -60.8478
  46   1.0000      -2.235805       -60.8394
  47   1.0000      -2.235099       -60.8201
  48   1.0000      -2.234830       -60.8128
  49   1.0000      -2.234345       -60.7996
  50   1.0000      -2.234041       -60.7913
  51   1.0000      -2.233381       -60.7734
  52   1.0000      -2.232986       -60.7626
  53   1.0000      -2.232785       -60.7572
  54   1.0000      -2.232752       -60.7563
  55   1.0000      -2.231839       -60.7314
  56   1.0000      -2.231451       -60.7209
  57   1.0000      -2.231389       -60.7192
  58   1.0000      -2.230389       -60.6920
  59   1.0000      -2.224264       -60.5253
  60   1.0000      -2.223543       -60.5057
  61   1.0000      -2.221630       -60.4536
  62   1.0000      -1.696602       -46.1669
  63   1.0000      -1.679144       -45.6918
  64   1.0000      -1.670979       -45.4696
  65   1.0000      -0.421142       -11.4598
  66   1.0000      -0.386147       -10.5076
  67   1.0000      -0.383268       -10.4293
  68   1.0000      -0.378659       -10.3038
  69   1.0000      -0.369230       -10.0473
  70   1.0000      -0.366091        -9.9618
  71   1.0000      -0.364302        -9.9132
  72   1.0000      -0.360969        -9.8225
  73   1.0000      -0.356940        -9.7128
  74   1.0000      -0.355470        -9.6728
  75   1.0000      -0.354219        -9.6388
  76   1.0000      -0.349753        -9.5173
  77   1.0000      -0.347328        -9.4513
  78   1.0000      -0.346088        -9.4175
  79   1.0000      -0.344259        -9.3678
  80   1.0000      -0.341940        -9.3047
  81   1.0000      -0.339374        -9.2348
  82   1.0000      -0.337307        -9.1786
  83   1.0000      -0.334975        -9.1151
  84   1.0000      -0.334062        -9.0903
  85   1.0000      -0.332335        -9.0433
  86   1.0000      -0.330100        -8.9825
  87   1.0000      -0.329109        -8.9555
  88   1.0000      -0.326914        -8.8958
  89   1.0000      -0.324058        -8.8181
  90   1.0000      -0.320132        -8.7112
  91   1.0000      -0.319886        -8.7045
  92   1.0000      -0.318382        -8.6636
  93   1.0000      -0.314929        -8.5697
  94   1.0000      -0.311401        -8.4737
  95   1.0000      -0.310041        -8.4366
  96   1.0000      -0.304583        -8.2881
  97   1.0000      -0.302615        -8.2346
  98   1.0000      -0.302078        -8.2200
  99   1.0000      -0.296849        -8.0777
 100   1.0000      -0.295172        -8.0320
 101   1.0000      -0.293800        -7.9947
 102   1.0000      -0.290313        -7.8998
 103   1.0000      -0.289827        -7.8866
 104   1.0000      -0.287757        -7.8303
 105   1.0000      -0.285604        -7.7717
 106   1.0000      -0.283622        -7.7178
 107   1.0000      -0.280052        -7.6206
 108   1.0000      -0.277947        -7.5633
 109   1.0000      -0.277597        -7.5538
 110   1.0000      -0.277059        -7.5392
 111   1.0000      -0.274653        -7.4737
 112   1.0000      -0.272205        -7.4071
 113   1.0000      -0.271874        -7.3981
 114   1.0000      -0.271398        -7.3851
 115   1.0000      -0.270038        -7.3481
 116   1.0000      -0.266601        -7.2546
 117   1.0000      -0.266368        -7.2482
 118   1.0000      -0.264791        -7.2053
 119   1.0000      -0.262303        -7.1376
 120   1.0000      -0.261862        -7.1256
 121   1.0000      -0.260623        -7.0919
 122   1.0000      -0.258498        -7.0341
 123   1.0000      -0.257537        -7.0079
 124   1.0000      -0.256481        -6.9792
 125   1.0000      -0.253907        -6.9092
 126   1.0000      -0.252859        -6.8806
 127   1.0000      -0.251844        -6.8530
 128   1.0000      -0.250369        -6.8129
 129   1.0000      -0.250022        -6.8034
 130   1.0000      -0.249354        -6.7853
 131   1.0000      -0.248670        -6.7667
 132   1.0000      -0.247318        -6.7299
 133   1.0000      -0.246323        -6.7028
 134   1.0000      -0.244558        -6.6548
 135   1.0000      -0.244327        -6.6485
 136   1.0000      -0.240257        -6.5377
 137   1.0000      -0.234995        -6.3945
 138   1.0000      -0.229600        -6.2477
 139   1.0000      -0.221471        -6.0265
 140   1.0000      -0.213557        -5.8112
 141   1.0000      -0.210974        -5.7409
 142   1.0000      -0.204036        -5.5521
 143   1.0000      -0.180637        -4.9154
 144   0.0000      -0.149128        -4.0580
 145   0.0000      -0.138308        -3.7636
 146   0.0000      -0.129723        -3.5299
 147   0.0000      -0.124592        -3.3903
 148   0.0000      -0.123537        -3.3616

MULLIKEN ATOMIC CHARGES AND SPIN POPULATIONS
--------------------------------------------
   0 Au:    0.507074   -0.063618
   1 Au:    0.492355   -0.038268
   2 Au:    0.444667   -0.054807
   3 Au:    0.508777   -0.071471
   4 Au:    0.296820   -0.013369
   5 Au:    0.492329   -0.052361
   6 Au:    0.489906   -0.057311
   7 Au:    0.545583   -0.070421
   8 Au:    0.488809   -0.047955
   9 Au:    0.054780   -0.078359
  10 Au:    0.150813   -0.083549
  11 Au:    0.298338   -0.034348
  12 Au:    0.260748    0.062438
  13 Au:    0.390184    0.014357
  14 Cr:   -5.421181    2.589042
Sum of atomic charges         :    0.0000000

LOEWDIN ATOMIC CHARGES AND SPIN POPULATIONS
-------------------------------------------
   0 Au:    0.136626   -0.102862
   1 Au:    0.110454   -0.070298
   2 Au:    0.116794   -0.091588
   3 Au:    0.116487   -0.099534
   4 Au:    0.092523   -0.061104
   5 Au:    0.114539   -0.075753
   6 Au:    0.143583   -0.111802
   7 Au:    0.132926   -0.104631
   8 Au:    0.124250   -0.088033
   9 Au:    0.014451   -0.049374
  10 Au:    0.021052   -0.055165
  11 Au:    0.064149   -0.059657
  12 Au:    0.078687    0.019112
  13 Au:    0.106745   -0.023419
  14 Cr:   -1.373266    2.974107

  Mayer bond orders larger than 0.100000
B(  0-Au,  1-Au) :   0.2379 B(  0-Au,  2-Au) :   0.1579 B(  0-Au, 10-Au) :   0.2807
B(  0-Au, 11-Au) :   0.1846 B(  0-Au, 14-Cr) :   0.6202 B(  1-Au,  2-Au) :   0.2400
B(  1-Au,  5-Au) :   0.2336 B(  1-Au,  8-Au) :   0.2344 B(  1-Au, 14-Cr) :   0.3805
B(  2-Au,  3-Au) :   0.2475 B(  2-Au,  4-Au) :   0.2079 B(  2-Au, 14-Cr) :   0.6204
B(  3-Au,  4-Au) :   0.2379 B(  3-Au,  5-Au) :   0.2078 B(  3-Au,  6-Au) :   0.2058
B(  3-Au, 14-Cr) :   0.5175 B(  4-Au, 10-Au) :   0.1748 B(  4-Au, 13-Au) :   0.3013
B(  4-Au, 14-Cr) :   0.5931 B(  5-Au,  6-Au) :   0.1905 B(  5-Au,  8-Au) :   0.1581
B(  5-Au, 10-Au) :   0.1009 B(  5-Au, 14-Cr) :   0.5126 B(  6-Au,  7-Au) :   0.1887
B(  6-Au,  9-Au) :   0.2747 B(  6-Au, 14-Cr) :   0.6362 B(  7-Au,  8-Au) :   0.2140
B(  7-Au,  9-Au) :   0.2502 B(  7-Au, 11-Au) :   0.1935 B(  7-Au, 14-Cr) :   0.6658
B(  8-Au, 11-Au) :   0.2107 B(  8-Au, 14-Cr) :   0.5730 B(  9-Au, 12-Au) :   0.3087
B(  9-Au, 13-Au) :   0.3105 B(  9-Au, 14-Cr) :   0.4166 B( 10-Au, 11-Au) :   0.1874
B( 10-Au, 12-Au) :   0.2282 B( 10-Au, 13-Au) :   0.2953 B( 10-Au, 14-Cr) :   0.5872
B( 11-Au, 12-Au) :   0.3090 B( 11-Au, 14-Cr) :   0.5289 B( 12-Au, 13-Au) :   0.1314
B( 12-Au, 14-Cr) :   0.3698 B( 13-Au, 14-Cr) :   0.3265

FINAL SINGLE POINT ENERGY     -2945.827495438005

DIPOLE MOMENT
-------------
                                X             Y             Z
Electronic contribution:     -3.57326     -11.09516     -12.68096
Nuclear contribution   :      3.59583      11.14589      12.77682
                        -----------------------------------------
Total Dipole Moment    :      0.02258       0.05074       0.09586
                        -----------------------------------------
Magnitude (a.u.)       :      0.11079
Magnitude (Debye)      :      0.28160

Rotational constants in cm-1:     0.001250     0.000948     0.000895
Rotational constants in MHz :    37.485101    28.412728    26.840706

                             ****ORCA TERMINATED NORMALLY****
TOTAL RUN TIME: 0 days 1 hours 26 minutes 6 seconds 737 msec
