                         Program Version 5.0.3 -  RELEASE  -
|  1> !R2SCAN def2-TZVP VERYSLOWCONV
|  2> !KDIIS
|  3> %scf
|  4>   AutoTRAHIter 200
|  5>   maxiter 400
|  6> end
|  7>
|  8> %pal nprocs 6 end
|  9>
| 10> *xyzfile 0 5 pbe.xyz
| 11>
| 12> $new_job
| 13>
| 14> !R2SCAN def2-TZVP VERYSLOWCONV
| 15> !KDIIS
| 16> %scf
| 17>   AutoTRAHIter 200
| 18>   maxiter 400
| 19> end
| 20>
| 21>
| 22> %pal nprocs 6 end
| 23>
| 24> *xyzfile 0 3 pbe.xyz
| 25>
| 26>
| 27>
| 28>
| 29>
| 30>                          ****END OF INPUT****
 Total Charge           Charge          ....    0
 Multiplicity           Mult            ....    5
 Number of Electrons    NEL             ....  290
FINAL SINGLE POINT ENERGY     -2946.314811926035

CARTESIAN COORDINATES (ANGSTROEM)
---------------------------------
  Au     9.469189    6.722900    7.599332
  Au     9.107276    8.813688    9.398724
  Au     7.576726    6.545178    9.732245
  Au     5.248935    7.992222    9.739580
  Au     5.379125    5.638713    8.234522
  Au     6.739793   10.153774    8.817701
  Au     4.543889    9.213872    7.306692
  Au     6.508306    9.508077    5.279159
  Au     8.809817    9.809804    6.771544
  Au     4.889408    7.347146    5.363117
  Au     7.512275    5.358194    6.322504
  Au     8.517758    7.615280    5.000461
  Au     6.644168    6.008626    3.720563
  Au     4.933125    4.624011    5.738766
  Cr     6.950680    7.841657    7.436078

 Multiplicity           Mult            ....    3
 Number of Electrons    NEL             ....  290
 Basis Dimension        Dim             ....  605

ORBITAL ENERGIES
----------------
                 SPIN UP ORBITALS
  NO   OCC          E(Eh)            E(eV)
   0   1.0000    -215.306945     -5858.7998
   1   1.0000     -24.608118      -669.6209
   2   1.0000     -20.877007      -568.0922
   3   1.0000     -20.873302      -567.9914
   4   1.0000     -20.873083      -567.9855
   5   1.0000      -4.123759      -112.2132
   6   1.0000      -4.119427      -112.0953
   7   1.0000      -4.118848      -112.0795
   8   1.0000      -4.118527      -112.0708
   9   1.0000      -4.118409      -112.0676
  10   1.0000      -4.117432      -112.0410
  11   1.0000      -4.115978      -112.0015
  12   1.0000      -4.115957      -112.0009
  13   1.0000      -4.115813      -111.9970
  14   1.0000      -4.115140      -111.9787
  15   1.0000      -4.111737      -111.8860
  16   1.0000      -4.110430      -111.8505
  17   1.0000      -4.109564      -111.8269
  18   1.0000      -4.100050      -111.5680
  19   1.0000      -2.924330       -79.5751
  20   1.0000      -2.314001       -62.9672
  21   1.0000      -2.311228       -62.8917
  22   1.0000      -2.308990       -62.8308
  23   1.0000      -2.307839       -62.7995
  24   1.0000      -2.307823       -62.7991
  25   1.0000      -2.307072       -62.7786
  26   1.0000      -2.306841       -62.7723
  27   1.0000      -2.306612       -62.7661
  28   1.0000      -2.306084       -62.7517
  29   1.0000      -2.305595       -62.7384
  30   1.0000      -2.305160       -62.7266
  31   1.0000      -2.305040       -62.7233
  32   1.0000      -2.303987       -62.6947
  33   1.0000      -2.303916       -62.6927
  34   1.0000      -2.303651       -62.6855
  35   1.0000      -2.302973       -62.6671
  36   1.0000      -2.302678       -62.6591
  37   1.0000      -2.302282       -62.6483
  38   1.0000      -2.302234       -62.6470
  39   1.0000      -2.301844       -62.6364
  40   1.0000      -2.301676       -62.6318
  41   1.0000      -2.301476       -62.6263
  42   1.0000      -2.301226       -62.6195
  43   1.0000      -2.301040       -62.6145
  44   1.0000      -2.300435       -62.5980
  45   1.0000      -2.299737       -62.5790
  46   1.0000      -2.299213       -62.5648
  47   1.0000      -2.298527       -62.5461
  48   1.0000      -2.298381       -62.5421
  49   1.0000      -2.297928       -62.5298
  50   1.0000      -2.297021       -62.5051
  51   1.0000      -2.296650       -62.4950
  52   1.0000      -2.296573       -62.4929
  53   1.0000      -2.295807       -62.4721
  54   1.0000      -2.295689       -62.4689
  55   1.0000      -2.295132       -62.4537
  56   1.0000      -2.294718       -62.4425
  57   1.0000      -2.294486       -62.4361
  58   1.0000      -2.293534       -62.4102
  59   1.0000      -2.286535       -62.2198
  60   1.0000      -2.286110       -62.2082
  61   1.0000      -2.283928       -62.1488
  62   1.0000      -1.872444       -50.9518
  63   1.0000      -1.870092       -50.8878
  64   1.0000      -1.869617       -50.8749
  65   1.0000      -0.430653       -11.7187
  66   1.0000      -0.392325       -10.6757
  67   1.0000      -0.389188       -10.5903
  68   1.0000      -0.384713       -10.4686
  69   1.0000      -0.379544       -10.3279
  70   1.0000      -0.377095       -10.2613
  71   1.0000      -0.373551       -10.1648
  72   1.0000      -0.369929       -10.0663
  73   1.0000      -0.367993       -10.0136
  74   1.0000      -0.365072        -9.9341
  75   1.0000      -0.363049        -9.8791
  76   1.0000      -0.360717        -9.8156
  77   1.0000      -0.357907        -9.7391
  78   1.0000      -0.356028        -9.6880
  79   1.0000      -0.353040        -9.6067
  80   1.0000      -0.351361        -9.5610
  81   1.0000      -0.348178        -9.4744
  82   1.0000      -0.345298        -9.3960
  83   1.0000      -0.343609        -9.3501
  84   1.0000      -0.342466        -9.3190
  85   1.0000      -0.340746        -9.2722
  86   1.0000      -0.338488        -9.2107
  87   1.0000      -0.337270        -9.1776
  88   1.0000      -0.335028        -9.1166
  89   1.0000      -0.332850        -9.0573
  90   1.0000      -0.328743        -8.9456
  91   1.0000      -0.327811        -8.9202
  92   1.0000      -0.326534        -8.8854
  93   1.0000      -0.322823        -8.7845
  94   1.0000      -0.320826        -8.7301
  95   1.0000      -0.318126        -8.6566
  96   1.0000      -0.315243        -8.5782
  97   1.0000      -0.311421        -8.4742
  98   1.0000      -0.310904        -8.4601
  99   1.0000      -0.304893        -8.2966
 100   1.0000      -0.304377        -8.2825
 101   1.0000      -0.303517        -8.2591
 102   1.0000      -0.299644        -8.1537
 103   1.0000      -0.298780        -8.1302
 104   1.0000      -0.297381        -8.0922
 105   1.0000      -0.294003        -8.0002
 106   1.0000      -0.291522        -7.9327
 107   1.0000      -0.288637        -7.8542
 108   1.0000      -0.286224        -7.7886
 109   1.0000      -0.285032        -7.7561
 110   1.0000      -0.284069        -7.7299
 111   1.0000      -0.281906        -7.6711
 112   1.0000      -0.279843        -7.6149
 113   1.0000      -0.279379        -7.6023
 114   1.0000      -0.278668        -7.5829
 115   1.0000      -0.277865        -7.5611
 116   1.0000      -0.274501        -7.4696
 117   1.0000      -0.273491        -7.4421
 118   1.0000      -0.272304        -7.4098
 119   1.0000      -0.269246        -7.3266
 120   1.0000      -0.268764        -7.3134
 121   1.0000      -0.267599        -7.2818
 122   1.0000      -0.265391        -7.2217
 123   1.0000      -0.264082        -7.1860
 124   1.0000      -0.262690        -7.1482
 125   1.0000      -0.260618        -7.0918
 126   1.0000      -0.259721        -7.0674
 127   1.0000      -0.258180        -7.0254
 128   1.0000      -0.256934        -6.9915
 129   1.0000      -0.256605        -6.9826
 130   1.0000      -0.255749        -6.9593
 131   1.0000      -0.254720        -6.9313
 132   1.0000      -0.253686        -6.9032
 133   1.0000      -0.251302        -6.8383
 134   1.0000      -0.249415        -6.7869
 135   1.0000      -0.248480        -6.7615
 136   1.0000      -0.245636        -6.6841
 137   1.0000      -0.240724        -6.5504
 138   1.0000      -0.236703        -6.4410
 139   1.0000      -0.234754        -6.3880
 140   1.0000      -0.230040        -6.2597
 141   1.0000      -0.226432        -6.1615
 142   1.0000      -0.225046        -6.1238
 143   1.0000      -0.223601        -6.0845
 144   1.0000      -0.206472        -5.6184
 145   1.0000      -0.197370        -5.3707
 146   0.0000      -0.182208        -4.9581
 147   0.0000      -0.175712        -4.7814
 148   0.0000      -0.159842        -4.3495
 149   0.0000      -0.137684        -3.7466
 150   0.0000      -0.125379        -3.4117

                 SPIN DOWN ORBITALS
  NO   OCC          E(Eh)            E(eV)
   0   1.0000    -215.306352     -5858.7837
   1   1.0000     -24.547594      -667.9740
   2   1.0000     -20.833941      -566.9204
   3   1.0000     -20.826096      -566.7069
   4   1.0000     -20.823537      -566.6373
   5   1.0000      -4.123813      -112.2147
   6   1.0000      -4.119665      -112.1018
   7   1.0000      -4.118753      -112.0770
   8   1.0000      -4.118738      -112.0766
   9   1.0000      -4.118607      -112.0730
  10   1.0000      -4.117595      -112.0455
  11   1.0000      -4.116059      -112.0036
  12   1.0000      -4.116004      -112.0022
  13   1.0000      -4.115939      -112.0004
  14   1.0000      -4.115445      -111.9869
  15   1.0000      -4.111953      -111.8919
  16   1.0000      -4.111050      -111.8674
  17   1.0000      -4.110012      -111.8391
  18   1.0000      -4.100404      -111.5777
  19   1.0000      -2.766837       -75.2895
  20   1.0000      -2.313910       -62.9647
  21   1.0000      -2.311101       -62.8883
  22   1.0000      -2.308868       -62.8275
  23   1.0000      -2.307854       -62.7999
  24   1.0000      -2.307823       -62.7990
  25   1.0000      -2.307032       -62.7775
  26   1.0000      -2.306873       -62.7732
  27   1.0000      -2.306565       -62.7648
  28   1.0000      -2.306044       -62.7506
  29   1.0000      -2.305606       -62.7387
  30   1.0000      -2.305147       -62.7262
  31   1.0000      -2.305019       -62.7228
  32   1.0000      -2.304047       -62.6963
  33   1.0000      -2.303902       -62.6924
  34   1.0000      -2.303491       -62.6812
  35   1.0000      -2.302967       -62.6669
  36   1.0000      -2.302664       -62.6587
  37   1.0000      -2.302230       -62.6469
  38   1.0000      -2.302141       -62.6444
  39   1.0000      -2.301723       -62.6331
  40   1.0000      -2.301604       -62.6298
  41   1.0000      -2.301427       -62.6250
  42   1.0000      -2.301246       -62.6201
  43   1.0000      -2.301030       -62.6142
  44   1.0000      -2.300320       -62.5949
  45   1.0000      -2.299773       -62.5800
  46   1.0000      -2.299293       -62.5669
  47   1.0000      -2.298658       -62.5497
  48   1.0000      -2.298455       -62.5441
  49   1.0000      -2.297975       -62.5311
  50   1.0000      -2.297658       -62.5225
  51   1.0000      -2.296816       -62.4995
  52   1.0000      -2.296723       -62.4970
  53   1.0000      -2.296384       -62.4878
  54   1.0000      -2.296214       -62.4831
  55   1.0000      -2.295440       -62.4621
  56   1.0000      -2.295113       -62.4532
  57   1.0000      -2.294807       -62.4449
  58   1.0000      -2.293930       -62.4210
  59   1.0000      -2.287054       -62.2339
  60   1.0000      -2.286436       -62.2171
  61   1.0000      -2.284529       -62.1652
  62   1.0000      -1.726712       -46.9862
  63   1.0000      -1.709881       -46.5282
  64   1.0000      -1.703655       -46.3588
  65   1.0000      -0.426046       -11.5933
  66   1.0000      -0.392153       -10.6710
  67   1.0000      -0.390294       -10.6204
  68   1.0000      -0.385326       -10.4853
  69   1.0000      -0.376936       -10.2570
  70   1.0000      -0.373884       -10.1739
  71   1.0000      -0.372618       -10.1395
  72   1.0000      -0.369506       -10.0548
  73   1.0000      -0.365248        -9.9389
  74   1.0000      -0.364426        -9.9165
  75   1.0000      -0.363309        -9.8862
  76   1.0000      -0.358738        -9.7618
  77   1.0000      -0.356379        -9.6976
  78   1.0000      -0.354892        -9.6571
  79   1.0000      -0.353325        -9.6145
  80   1.0000      -0.351074        -9.5532
  81   1.0000      -0.348726        -9.4893
  82   1.0000      -0.346827        -9.4376
  83   1.0000      -0.344354        -9.3704
  84   1.0000      -0.343411        -9.3447
  85   1.0000      -0.341598        -9.2954
  86   1.0000      -0.339375        -9.2349
  87   1.0000      -0.338466        -9.2101
  88   1.0000      -0.336124        -9.1464
  89   1.0000      -0.333099        -9.0641
  90   1.0000      -0.329125        -8.9560
  91   1.0000      -0.328985        -8.9521
  92   1.0000      -0.327418        -8.9095
  93   1.0000      -0.323955        -8.8153
  94   1.0000      -0.320160        -8.7120
  95   1.0000      -0.318871        -8.6769
  96   1.0000      -0.313075        -8.5192
  97   1.0000      -0.311460        -8.4753
  98   1.0000      -0.310164        -8.4400
  99   1.0000      -0.305501        -8.3131
 100   1.0000      -0.303559        -8.2603
 101   1.0000      -0.302143        -8.2217
 102   1.0000      -0.299013        -8.1366
 103   1.0000      -0.298364        -8.1189
 104   1.0000      -0.296168        -8.0591
 105   1.0000      -0.294128        -8.0036
 106   1.0000      -0.292183        -7.9507
 107   1.0000      -0.288598        -7.8531
 108   1.0000      -0.286529        -7.7968
 109   1.0000      -0.286281        -7.7901
 110   1.0000      -0.285366        -7.7652
 111   1.0000      -0.283213        -7.7066
 112   1.0000      -0.280603        -7.6356
 113   1.0000      -0.280308        -7.6276
 114   1.0000      -0.279537        -7.6066
 115   1.0000      -0.278378        -7.5751
 116   1.0000      -0.274916        -7.4809
 117   1.0000      -0.274763        -7.4767
 118   1.0000      -0.273121        -7.4320
 119   1.0000      -0.270335        -7.3562
 120   1.0000      -0.270284        -7.3548
 121   1.0000      -0.268706        -7.3119
 122   1.0000      -0.266658        -7.2561
 123   1.0000      -0.265470        -7.2238
 124   1.0000      -0.264338        -7.1930
 125   1.0000      -0.261835        -7.1249
 126   1.0000      -0.260519        -7.0891
 127   1.0000      -0.259723        -7.0674
 128   1.0000      -0.258186        -7.0256
 129   1.0000      -0.257778        -7.0145
 130   1.0000      -0.256936        -6.9916
 131   1.0000      -0.256209        -6.9718
 132   1.0000      -0.254586        -6.9276
 133   1.0000      -0.253214        -6.8903
 134   1.0000      -0.251540        -6.8447
 135   1.0000      -0.251167        -6.8346
 136   1.0000      -0.247031        -6.7221
 137   1.0000      -0.241491        -6.5713
 138   1.0000      -0.235567        -6.4101
 139   1.0000      -0.224441        -6.1074
 140   1.0000      -0.215396        -5.8612
 141   1.0000      -0.212774        -5.7899
 142   1.0000      -0.205179        -5.5832
 143   1.0000      -0.179958        -4.8969
 144   0.0000      -0.144465        -3.9311
 145   0.0000      -0.132947        -3.6177
 146   0.0000      -0.125068        -3.4033
 147   0.0000      -0.114503        -3.1158
 148   0.0000      -0.110151        -2.9974

MULLIKEN ATOMIC CHARGES AND SPIN POPULATIONS
--------------------------------------------
   0 Au:    0.464488   -0.089955
   1 Au:    0.440667   -0.052986
   2 Au:    0.400391   -0.084998
   3 Au:    0.455558   -0.100373
   4 Au:    0.257513   -0.033324
   5 Au:    0.436104   -0.087334
   6 Au:    0.449424   -0.084435
   7 Au:    0.484777   -0.109120
   8 Au:    0.438236   -0.072312
   9 Au:    0.061995   -0.107779
  10 Au:    0.144451   -0.120330
  11 Au:    0.270937   -0.052982
  12 Au:    0.213027    0.072446
  13 Au:    0.361567    0.016622
  14 Cr:   -4.879135    2.906859
Sum of atomic charges         :   -0.0000000

LOEWDIN ATOMIC CHARGES AND SPIN POPULATIONS
-------------------------------------------
   0 Au:    0.132347   -0.121458
   1 Au:    0.106775   -0.083021
   2 Au:    0.111990   -0.109496
   3 Au:    0.111797   -0.120426
   4 Au:    0.088367   -0.076503
   5 Au:    0.108626   -0.094515
   6 Au:    0.139860   -0.132726
   7 Au:    0.127999   -0.126113
   8 Au:    0.119500   -0.106257
   9 Au:    0.013141   -0.067215
  10 Au:    0.017832   -0.072160
  11 Au:    0.060992   -0.076058
  12 Au:    0.072875    0.019345
  13 Au:    0.106027   -0.028720
  14 Cr:   -1.318127    3.195322

  Mayer bond orders larger than 0.100000
B(  0-Au,  1-Au) :   0.2310 B(  0-Au,  2-Au) :   0.1444 B(  0-Au, 10-Au) :   0.2803
B(  0-Au, 11-Au) :   0.1792 B(  0-Au, 14-Cr) :   0.6261 B(  1-Au,  2-Au) :   0.2319
B(  1-Au,  5-Au) :   0.2253 B(  1-Au,  8-Au) :   0.2295 B(  1-Au, 14-Cr) :   0.3760
B(  2-Au,  3-Au) :   0.2400 B(  2-Au,  4-Au) :   0.2029 B(  2-Au, 14-Cr) :   0.6337
B(  3-Au,  4-Au) :   0.2310 B(  3-Au,  5-Au) :   0.1984 B(  3-Au,  6-Au) :   0.1975
B(  3-Au, 14-Cr) :   0.5253 B(  4-Au, 10-Au) :   0.1663 B(  4-Au, 13-Au) :   0.3038
B(  4-Au, 14-Cr) :   0.6034 B(  5-Au,  6-Au) :   0.1825 B(  5-Au,  8-Au) :   0.1454
B(  5-Au, 14-Cr) :   0.5383 B(  6-Au,  7-Au) :   0.1818 B(  6-Au,  9-Au) :   0.2757
B(  6-Au, 14-Cr) :   0.6438 B(  7-Au,  8-Au) :   0.2081 B(  7-Au,  9-Au) :   0.2433
B(  7-Au, 11-Au) :   0.1825 B(  7-Au, 14-Cr) :   0.6927 B(  8-Au, 11-Au) :   0.2071
B(  8-Au, 14-Cr) :   0.5817 B(  9-Au, 12-Au) :   0.3008 B(  9-Au, 13-Au) :   0.3023
B(  9-Au, 14-Cr) :   0.4118 B( 10-Au, 11-Au) :   0.1726 B( 10-Au, 12-Au) :   0.2100
B( 10-Au, 13-Au) :   0.2829 B( 10-Au, 14-Cr) :   0.6008 B( 11-Au, 12-Au) :   0.3076
B( 11-Au, 14-Cr) :   0.5296 B( 12-Au, 13-Au) :   0.1115 B( 12-Au, 14-Cr) :   0.3505
B( 13-Au, 14-Cr) :   0.3050

FINAL SINGLE POINT ENERGY     -2946.307606390757

DIPOLE MOMENT
-------------
                                X             Y             Z
Electronic contribution:     -3.57970     -11.09097     -12.67225
Nuclear contribution   :      3.59583      11.14589      12.77682
                        -----------------------------------------
Total Dipole Moment    :      0.01614       0.05493       0.10457
                        -----------------------------------------
Magnitude (a.u.)       :      0.11922
Magnitude (Debye)      :      0.30303

Rotational constants in cm-1:     0.001250     0.000948     0.000895
Rotational constants in MHz :    37.485101    28.412728    26.840706

                             ****ORCA TERMINATED NORMALLY****
TOTAL RUN TIME: 0 days 0 hours 39 minutes 5 seconds 116 msec
