                         Program Version 5.0.3 -  RELEASE  -
|  1> !RI-B2PLYP def2-TZVP def2-TZVP/C
|  2> !RIJCOSX VERYSLOWCONV
|  3>
|  4> %scf
|  5>   AutoTRAHIter 200
|  6>   maxiter 400
|  7> end
|  8>
|  9>
| 10> %pal nprocs 6 end
| 11>
| 12> *xyzfile 0 5 pbe.xyz
| 13>
| 14> $new_job
| 15>
| 16> !RI-B2PLYP def2-TZVP def2-TZVP/C
| 17> !RIJCOSX VERYSLOWCONV
| 18>
| 19> %scf
| 20>   AutoTRAHIter 200
| 21>   maxiter 400
| 22> end
| 23>
| 24>
| 25> %pal nprocs 6 end
| 26>
| 27> *xyzfile 0 3 pbe.xyz
| 28>
| 29>
| 30>
| 31>
| 32>
| 33>                          ****END OF INPUT****
 Total Charge           Charge          ....    0
 Multiplicity           Mult            ....    5
 Number of Electrons    NEL             ....  252
MP2 TOTAL ENERGY:    -2671.278027541 Eh
FINAL SINGLE POINT ENERGY     -2671.278027541421

CARTESIAN COORDINATES (ANGSTROEM)
---------------------------------
  Au     6.526965    6.891918    6.395766
  Au     8.548713    9.320054    7.230632
  Au    11.109181    4.874686    7.025001
  Au    10.362362    7.454501    6.617299
  Au     8.318612    4.913463    6.545557
  Au    10.461058    6.004981    9.538437
  Au     9.418373    3.496036    8.737846
  Au     5.730061    9.238759    7.502775
  Au     6.215891    7.407533    9.608422
  Au     7.281659   10.031829    9.660405
  Au     7.350668    4.988010    9.666505
  Au     9.285959    8.297974   10.252400
  Cr     8.383698    6.910689    8.232537

 Multiplicity           Mult            ....    3
 Number of Electrons    NEL             ....  252
 Basis Dimension        Dim             ....  525

ORBITAL ENERGIES
----------------
                 SPIN UP ORBITALS
  NO   OCC          E(Eh)            E(eV)
   0   1.0000    -217.736276     -5924.9053
   1   1.0000     -25.424651      -691.8399
   2   1.0000     -21.563130      -586.7626
   3   1.0000     -21.563089      -586.7615
   4   1.0000     -21.559535      -586.6648
   5   1.0000      -4.393896      -119.5640
   6   1.0000      -4.393804      -119.5615
   7   1.0000      -4.393630      -119.5568
   8   1.0000      -4.393607      -119.5561
   9   1.0000      -4.392788      -119.5338
  10   1.0000      -4.392774      -119.5335
  11   1.0000      -4.392706      -119.5316
  12   1.0000      -4.392664      -119.5305
  13   1.0000      -4.386030      -119.3499
  14   1.0000      -4.386011      -119.3494
  15   1.0000      -4.386008      -119.3493
  16   1.0000      -4.385975      -119.3484
  17   1.0000      -3.212817       -87.4252
  18   1.0000      -2.516362       -68.4737
  19   1.0000      -2.515927       -68.4619
  20   1.0000      -2.515698       -68.4556
  21   1.0000      -2.515684       -68.4552
  22   1.0000      -2.515253       -68.4435
  23   1.0000      -2.514448       -68.4216
  24   1.0000      -2.513537       -68.3968
  25   1.0000      -2.513365       -68.3921
  26   1.0000      -2.512720       -68.3746
  27   1.0000      -2.512684       -68.3736
  28   1.0000      -2.512206       -68.3606
  29   1.0000      -2.512193       -68.3602
  30   1.0000      -2.510241       -68.3071
  31   1.0000      -2.510190       -68.3058
  32   1.0000      -2.510172       -68.3053
  33   1.0000      -2.510123       -68.3039
  34   1.0000      -2.510031       -68.3014
  35   1.0000      -2.509165       -68.2778
  36   1.0000      -2.508625       -68.2631
  37   1.0000      -2.508600       -68.2625
  38   1.0000      -2.506282       -68.1994
  39   1.0000      -2.506268       -68.1990
  40   1.0000      -2.506241       -68.1983
  41   1.0000      -2.506210       -68.1974
  42   1.0000      -2.505462       -68.1771
  43   1.0000      -2.505438       -68.1764
  44   1.0000      -2.505369       -68.1745
  45   1.0000      -2.505320       -68.1732
  46   1.0000      -2.502712       -68.1023
  47   1.0000      -2.502507       -68.0967
  48   1.0000      -2.502481       -68.0960
  49   1.0000      -2.502425       -68.0944
  50   1.0000      -2.497431       -67.9586
  51   1.0000      -2.497420       -67.9582
  52   1.0000      -2.497391       -67.9575
  53   1.0000      -2.497377       -67.9571
  54   1.0000      -2.103344       -57.2349
  55   1.0000      -2.095432       -57.0196
  56   1.0000      -2.095371       -57.0179
  57   1.0000      -0.479069       -13.0361
  58   1.0000      -0.469686       -12.7808
  59   1.0000      -0.463113       -12.6019
  60   1.0000      -0.454818       -12.3762
  61   1.0000      -0.454604       -12.3704
  62   1.0000      -0.454590       -12.3700
  63   1.0000      -0.454078       -12.3561
  64   1.0000      -0.453252       -12.3336
  65   1.0000      -0.453133       -12.3304
  66   1.0000      -0.453082       -12.3290
  67   1.0000      -0.442790       -12.0489
  68   1.0000      -0.440018       -11.9735
  69   1.0000      -0.434610       -11.8264
  70   1.0000      -0.433750       -11.8029
  71   1.0000      -0.433739       -11.8026
  72   1.0000      -0.428389       -11.6571
  73   1.0000      -0.426249       -11.5988
  74   1.0000      -0.425769       -11.5858
  75   1.0000      -0.425684       -11.5835
  76   1.0000      -0.419952       -11.4275
  77   1.0000      -0.419709       -11.4209
  78   1.0000      -0.419653       -11.4193
  79   1.0000      -0.414520       -11.2797
  80   1.0000      -0.414486       -11.2787
  81   1.0000      -0.407398       -11.0859
  82   1.0000      -0.404447       -11.0056
  83   1.0000      -0.404333       -11.0025
  84   1.0000      -0.400735       -10.9046
  85   1.0000      -0.392676       -10.6853
  86   1.0000      -0.386218       -10.5095
  87   1.0000      -0.383438       -10.4339
  88   1.0000      -0.383413       -10.4332
  89   1.0000      -0.382046       -10.3960
  90   1.0000      -0.380104       -10.3432
  91   1.0000      -0.379515       -10.3271
  92   1.0000      -0.373696       -10.1688
  93   1.0000      -0.373628       -10.1669
  94   1.0000      -0.372529       -10.1370
  95   1.0000      -0.372485       -10.1358
  96   1.0000      -0.371645       -10.1130
  97   1.0000      -0.371468       -10.1082
  98   1.0000      -0.368995       -10.0409
  99   1.0000      -0.364680        -9.9235
 100   1.0000      -0.361659        -9.8412
 101   1.0000      -0.361645        -9.8409
 102   1.0000      -0.359929        -9.7942
 103   1.0000      -0.357102        -9.7172
 104   1.0000      -0.355808        -9.6820
 105   1.0000      -0.355783        -9.6813
 106   1.0000      -0.354439        -9.6448
 107   1.0000      -0.352362        -9.5882
 108   1.0000      -0.348525        -9.4839
 109   1.0000      -0.344864        -9.3842
 110   1.0000      -0.344649        -9.3784
 111   1.0000      -0.344572        -9.3763
 112   1.0000      -0.338763        -9.2182
 113   1.0000      -0.338683        -9.2160
 114   1.0000      -0.337878        -9.1941
 115   1.0000      -0.329897        -8.9769
 116   1.0000      -0.329764        -8.9733
 117   1.0000      -0.329678        -8.9710
 118   1.0000      -0.328997        -8.9525
 119   1.0000      -0.317719        -8.6456
 120   1.0000      -0.314349        -8.5539
 121   1.0000      -0.289807        -7.8860
 122   1.0000      -0.289661        -7.8821
 123   1.0000      -0.273706        -7.4479
 124   1.0000      -0.273678        -7.4471
 125   1.0000      -0.241900        -6.5824
 126   1.0000      -0.238072        -6.4783
 127   0.0000      -0.119161        -3.2425
 128   0.0000      -0.119080        -3.2403
 129   0.0000      -0.071485        -1.9452
 130   0.0000      -0.062152        -1.6912
 131   0.0000      -0.054219        -1.4754

                 SPIN DOWN ORBITALS
  NO   OCC          E(Eh)            E(eV)
   0   1.0000    -217.734914     -5924.8682
   1   1.0000     -25.355237      -689.9511
   2   1.0000     -21.502586      -585.1151
   3   1.0000     -21.502452      -585.1115
   4   1.0000     -21.488489      -584.7315
   5   1.0000      -4.395182      -119.5990
   6   1.0000      -4.395093      -119.5966
   7   1.0000      -4.394918      -119.5918
   8   1.0000      -4.394902      -119.5914
   9   1.0000      -4.393064      -119.5413
  10   1.0000      -4.393044      -119.5408
  11   1.0000      -4.392984      -119.5392
  12   1.0000      -4.392936      -119.5379
  13   1.0000      -4.385379      -119.3322
  14   1.0000      -4.385357      -119.3316
  15   1.0000      -4.385357      -119.3316
  16   1.0000      -4.385319      -119.3306
  17   1.0000      -2.998355       -81.5894
  18   1.0000      -2.516943       -68.4895
  19   1.0000      -2.516594       -68.4800
  20   1.0000      -2.515086       -68.4390
  21   1.0000      -2.514943       -68.4351
  22   1.0000      -2.514924       -68.4346
  23   1.0000      -2.513600       -68.3985
  24   1.0000      -2.513276       -68.3897
  25   1.0000      -2.512813       -68.3771
  26   1.0000      -2.512780       -68.3762
  27   1.0000      -2.512294       -68.3630
  28   1.0000      -2.511659       -68.3457
  29   1.0000      -2.511654       -68.3456
  30   1.0000      -2.511339       -68.3370
  31   1.0000      -2.511327       -68.3367
  32   1.0000      -2.511074       -68.3298
  33   1.0000      -2.511032       -68.3287
  34   1.0000      -2.509535       -68.2879
  35   1.0000      -2.509093       -68.2759
  36   1.0000      -2.508849       -68.2693
  37   1.0000      -2.508823       -68.2685
  38   1.0000      -2.506302       -68.1999
  39   1.0000      -2.506290       -68.1996
  40   1.0000      -2.506141       -68.1956
  41   1.0000      -2.506099       -68.1944
  42   1.0000      -2.504844       -68.1603
  43   1.0000      -2.504806       -68.1592
  44   1.0000      -2.504789       -68.1588
  45   1.0000      -2.504772       -68.1583
  46   1.0000      -2.501936       -68.0811
  47   1.0000      -2.501777       -68.0768
  48   1.0000      -2.501754       -68.0762
  49   1.0000      -2.501716       -68.0751
  50   1.0000      -2.496842       -67.9425
  51   1.0000      -2.496827       -67.9421
  52   1.0000      -2.496795       -67.9413
  53   1.0000      -2.496778       -67.9408
  54   1.0000      -1.861956       -50.6664
  55   1.0000      -1.861639       -50.6578
  56   1.0000      -1.830790       -49.8183
  57   1.0000      -0.475207       -12.9310
  58   1.0000      -0.466559       -12.6957
  59   1.0000      -0.458487       -12.4761
  60   1.0000      -0.455854       -12.4044
  61   1.0000      -0.455836       -12.4039
  62   1.0000      -0.454140       -12.3578
  63   1.0000      -0.453407       -12.3378
  64   1.0000      -0.443397       -12.0654
  65   1.0000      -0.443146       -12.0586
  66   1.0000      -0.443089       -12.0571
  67   1.0000      -0.440805       -11.9949
  68   1.0000      -0.438140       -11.9224
  69   1.0000      -0.434571       -11.8253
  70   1.0000      -0.434550       -11.8247
  71   1.0000      -0.429608       -11.6902
  72   1.0000      -0.424838       -11.5604
  73   1.0000      -0.424394       -11.5484
  74   1.0000      -0.423901       -11.5349
  75   1.0000      -0.423791       -11.5319
  76   1.0000      -0.420541       -11.4435
  77   1.0000      -0.420493       -11.4422
  78   1.0000      -0.419712       -11.4210
  79   1.0000      -0.417350       -11.3567
  80   1.0000      -0.417303       -11.3554
  81   1.0000      -0.410069       -11.1585
  82   1.0000      -0.402903       -10.9635
  83   1.0000      -0.396102       -10.7785
  84   1.0000      -0.386923       -10.5287
  85   1.0000      -0.386870       -10.5273
  86   1.0000      -0.384268       -10.4565
  87   1.0000      -0.384087       -10.4515
  88   1.0000      -0.384063       -10.4509
  89   1.0000      -0.381741       -10.3877
  90   1.0000      -0.380119       -10.3436
  91   1.0000      -0.374937       -10.2025
  92   1.0000      -0.374468       -10.1898
  93   1.0000      -0.374391       -10.1877
  94   1.0000      -0.373722       -10.1695
  95   1.0000      -0.370862       -10.0917
  96   1.0000      -0.370505       -10.0820
  97   1.0000      -0.370462       -10.0808
  98   1.0000      -0.365308        -9.9405
  99   1.0000      -0.364712        -9.9243
 100   1.0000      -0.362260        -9.8576
 101   1.0000      -0.362232        -9.8568
 102   1.0000      -0.358083        -9.7439
 103   1.0000      -0.357669        -9.7327
 104   1.0000      -0.357641        -9.7319
 105   1.0000      -0.356927        -9.7125
 106   1.0000      -0.355065        -9.6618
 107   1.0000      -0.354790        -9.6543
 108   1.0000      -0.348454        -9.4819
 109   1.0000      -0.346071        -9.4171
 110   1.0000      -0.345996        -9.4150
 111   1.0000      -0.337712        -9.1896
 112   1.0000      -0.337679        -9.1887
 113   1.0000      -0.335743        -9.1360
 114   1.0000      -0.334634        -9.1058
 115   1.0000      -0.328745        -8.9456
 116   1.0000      -0.328413        -8.9366
 117   1.0000      -0.328283        -8.9330
 118   1.0000      -0.325191        -8.8489
 119   1.0000      -0.289394        -7.8748
 120   1.0000      -0.289375        -7.8743
 121   1.0000      -0.244896        -6.6639
 122   1.0000      -0.222852        -6.0641
 123   1.0000      -0.222800        -6.0627
 124   1.0000      -0.222204        -6.0465
 125   0.0000      -0.073145        -1.9904
 126   0.0000      -0.072254        -1.9661
 127   0.0000      -0.063780        -1.7356
 128   0.0000      -0.063712        -1.7337
 129   0.0000      -0.042546        -1.1577

MULLIKEN ATOMIC CHARGES AND SPIN POPULATIONS
--------------------------------------------
   0 Au:    0.294572   -0.045536
   1 Au:    0.117145   -0.134067
   2 Au:    0.342498   -0.230872
   3 Au:    0.291503   -0.045880
   4 Au:    0.121430   -0.134363
   5 Au:    0.119036   -0.134355
   6 Au:    0.341767   -0.232390
   7 Au:    0.342204   -0.231784
   8 Au:    0.123537   -0.135001
   9 Au:    0.342447   -0.232012
  10 Au:    0.294506   -0.044727
  11 Au:    0.292950   -0.045229
  12 Cr:   -3.023594    3.646215
Sum of atomic charges         :   -0.0000000

LOEWDIN ATOMIC CHARGES AND SPIN POPULATIONS
-------------------------------------------
   0 Au:    0.108952   -0.098180
   1 Au:    0.049796   -0.121838
   2 Au:    0.109172   -0.187430
   3 Au:    0.108741   -0.097721
   4 Au:    0.049514   -0.122516
   5 Au:    0.049654   -0.122318
   6 Au:    0.108275   -0.187898
   7 Au:    0.108658   -0.187843
   8 Au:    0.049580   -0.123050
   9 Au:    0.108704   -0.187924
  10 Au:    0.109174   -0.098287
  11 Au:    0.109053   -0.097984
  12 Cr:   -1.069273    3.632991

  Mayer bond orders larger than 0.100000
B(  0-Au,  4-Au) :   0.4660 B(  0-Au,  7-Au) :   0.1979 B(  0-Au, 12-Cr) :   0.7312
B(  1-Au,  3-Au) :   0.4699 B(  1-Au,  7-Au) :   0.1875 B(  1-Au,  9-Au) :   0.1874
B(  1-Au, 12-Cr) :   0.4315 B(  2-Au,  3-Au) :   0.1970 B(  2-Au,  4-Au) :   0.1884
B(  2-Au,  5-Au) :   0.1883 B(  2-Au,  6-Au) :   0.1969 B(  2-Au, 12-Cr) :   0.3356
B(  3-Au, 12-Cr) :   0.7270 B(  4-Au,  6-Au) :   0.1873 B(  4-Au, 12-Cr) :   0.4334
B(  5-Au,  6-Au) :   0.1873 B(  5-Au, 11-Au) :   0.4682 B(  5-Au, 12-Cr) :   0.4319
B(  6-Au, 10-Au) :   0.1979 B(  6-Au, 12-Cr) :   0.3372 B(  7-Au,  8-Au) :   0.1877
B(  7-Au,  9-Au) :   0.1967 B(  7-Au, 12-Cr) :   0.3363 B(  8-Au,  9-Au) :   0.1879
B(  8-Au, 10-Au) :   0.4647 B(  8-Au, 12-Cr) :   0.4332 B(  9-Au, 11-Au) :   0.1972
B(  9-Au, 12-Cr) :   0.3359 B( 10-Au, 12-Cr) :   0.7326 B( 11-Au, 12-Cr) :   0.7291

MP2 TOTAL ENERGY:    -2671.296031320 Eh
FINAL SINGLE POINT ENERGY     -2671.296031319968

DIPOLE MOMENT
-------------
                                X             Y             Z
Electronic contribution:      0.01590      -0.02511      -0.02858
Nuclear contribution   :     -0.01501       0.02495       0.02751
                        -----------------------------------------
Total Dipole Moment    :      0.00089      -0.00016      -0.00108
                        -----------------------------------------
Magnitude (a.u.)       :      0.00141
Magnitude (Debye)      :      0.00358

Rotational constants in cm-1:     0.001825     0.001029     0.001029
Rotational constants in MHz :    54.712874    30.842859    30.839811

                             ****ORCA TERMINATED NORMALLY****
TOTAL RUN TIME: 0 days 2 hours 12 minutes 0 seconds 783 msec
