                         Program Version 5.0.3 -  RELEASE  -
|  1> !PBE def2-TZVP VERYSLOWCONV
|  2>
|  3> %scf
|  4>   AutoTRAHIter 200
|  5>   maxiter 400
|  6> end
|  7>
|  8>
|  9> %pal nprocs 6 end
| 10>
| 11> *xyzfile 0 5 pbe.xyz
| 12>
| 13> $new_job
| 14>
| 15> !PBE def2-TZVP VERYSLOWCONV
| 16>
| 17> %scf
| 18>   AutoTRAHIter 200
| 19>   maxiter 400
| 20> end
| 21>
| 22>
| 23> %pal nprocs 6 end
| 24>
| 25> *xyzfile 0 3 pbe.xyz
| 26>
| 27>
| 28>
| 29>
| 30>
| 31>                          ****END OF INPUT****
 Total Charge           Charge          ....    0
 Multiplicity           Mult            ....    5
 Number of Electrons    NEL             ....  252
FINAL SINGLE POINT ENERGY     -2674.133538803205

CARTESIAN COORDINATES (ANGSTROEM)
---------------------------------
  Au     6.526965    6.891918    6.395766
  Au     8.548713    9.320054    7.230632
  Au    11.109181    4.874686    7.025001
  Au    10.362362    7.454501    6.617299
  Au     8.318612    4.913463    6.545557
  Au    10.461058    6.004981    9.538437
  Au     9.418373    3.496036    8.737846
  Au     5.730061    9.238759    7.502775
  Au     6.215891    7.407533    9.608422
  Au     7.281659   10.031829    9.660405
  Au     7.350668    4.988010    9.666505
  Au     9.285959    8.297974   10.252400
  Cr     8.383698    6.910689    8.232537

 Multiplicity           Mult            ....    3
 Number of Electrons    NEL             ....  252
 Basis Dimension        Dim             ....  525

ORBITAL ENERGIES
----------------
                 SPIN UP ORBITALS
  NO   OCC          E(Eh)            E(eV)
   0   1.0000    -214.514991     -5837.2497
   1   1.0000     -24.319985      -661.7804
   2   1.0000     -20.684415      -562.8515
   3   1.0000     -20.683567      -562.8285
   4   1.0000     -20.683560      -562.8283
   5   1.0000      -4.026531      -109.5675
   6   1.0000      -4.026527      -109.5674
   7   1.0000      -4.026487      -109.5663
   8   1.0000      -4.026476      -109.5660
   9   1.0000      -4.021058      -109.4186
  10   1.0000      -4.020996      -109.4169
  11   1.0000      -4.020984      -109.4165
  12   1.0000      -4.020978      -109.4164
  13   1.0000      -4.017000      -109.3081
  14   1.0000      -4.016949      -109.3067
  15   1.0000      -4.016809      -109.3029
  16   1.0000      -4.016800      -109.3027
  17   1.0000      -2.811864       -76.5147
  18   1.0000      -2.245522       -61.1038
  19   1.0000      -2.245516       -61.1036
  20   1.0000      -2.245491       -61.1029
  21   1.0000      -2.245457       -61.1020
  22   1.0000      -2.240788       -60.9750
  23   1.0000      -2.240743       -60.9737
  24   1.0000      -2.240623       -60.9704
  25   1.0000      -2.240604       -60.9699
  26   1.0000      -2.238855       -60.9223
  27   1.0000      -2.238752       -60.9195
  28   1.0000      -2.238733       -60.9190
  29   1.0000      -2.238691       -60.9179
  30   1.0000      -2.236270       -60.8520
  31   1.0000      -2.236196       -60.8500
  32   1.0000      -2.236073       -60.8466
  33   1.0000      -2.236048       -60.8460
  34   1.0000      -2.233288       -60.7708
  35   1.0000      -2.233259       -60.7701
  36   1.0000      -2.233178       -60.7679
  37   1.0000      -2.233171       -60.7677
  38   1.0000      -2.232872       -60.7595
  39   1.0000      -2.232579       -60.7516
  40   1.0000      -2.230331       -60.6904
  41   1.0000      -2.230308       -60.6898
  42   1.0000      -2.229437       -60.6661
  43   1.0000      -2.229247       -60.6609
  44   1.0000      -2.228460       -60.6395
  45   1.0000      -2.228447       -60.6391
  46   1.0000      -2.228305       -60.6353
  47   1.0000      -2.228265       -60.6342
  48   1.0000      -2.227988       -60.6266
  49   1.0000      -2.227976       -60.6263
  50   1.0000      -2.225807       -60.5673
  51   1.0000      -2.225739       -60.5654
  52   1.0000      -2.225726       -60.5651
  53   1.0000      -2.225699       -60.5643
  54   1.0000      -1.802054       -49.0364
  55   1.0000      -1.800214       -48.9863
  56   1.0000      -1.800202       -48.9860
  57   1.0000      -0.410168       -11.1612
  58   1.0000      -0.378139       -10.2897
  59   1.0000      -0.368924       -10.0389
  60   1.0000      -0.364719        -9.9245
  61   1.0000      -0.364684        -9.9236
  62   1.0000      -0.362632        -9.8677
  63   1.0000      -0.359089        -9.7713
  64   1.0000      -0.349859        -9.5202
  65   1.0000      -0.349832        -9.5194
  66   1.0000      -0.347862        -9.4658
  67   1.0000      -0.340160        -9.2562
  68   1.0000      -0.338061        -9.1991
  69   1.0000      -0.338049        -9.1988
  70   1.0000      -0.336960        -9.1692
  71   1.0000      -0.333941        -9.0870
  72   1.0000      -0.329166        -8.9571
  73   1.0000      -0.325183        -8.8487
  74   1.0000      -0.325093        -8.8462
  75   1.0000      -0.323559        -8.8045
  76   1.0000      -0.323547        -8.8042
  77   1.0000      -0.321203        -8.7404
  78   1.0000      -0.317553        -8.6411
  79   1.0000      -0.313611        -8.5338
  80   1.0000      -0.313587        -8.5331
  81   1.0000      -0.313550        -8.5321
  82   1.0000      -0.308001        -8.3811
  83   1.0000      -0.303063        -8.2468
  84   1.0000      -0.302985        -8.2447
  85   1.0000      -0.300710        -8.1827
  86   1.0000      -0.297832        -8.1044
  87   1.0000      -0.287202        -7.8152
  88   1.0000      -0.287190        -7.8148
  89   1.0000      -0.283154        -7.7050
  90   1.0000      -0.281042        -7.6475
  91   1.0000      -0.280501        -7.6328
  92   1.0000      -0.279748        -7.6123
  93   1.0000      -0.276604        -7.5268
  94   1.0000      -0.275333        -7.4922
  95   1.0000      -0.275285        -7.4909
  96   1.0000      -0.274456        -7.4683
  97   1.0000      -0.274419        -7.4673
  98   1.0000      -0.273147        -7.4327
  99   1.0000      -0.269213        -7.3257
 100   1.0000      -0.265868        -7.2346
 101   1.0000      -0.265839        -7.2338
 102   1.0000      -0.264321        -7.1926
 103   1.0000      -0.263513        -7.1706
 104   1.0000      -0.261575        -7.1178
 105   1.0000      -0.261552        -7.1172
 106   1.0000      -0.258363        -7.0304
 107   1.0000      -0.257803        -7.0152
 108   1.0000      -0.256020        -6.9666
 109   1.0000      -0.255403        -6.9499
 110   1.0000      -0.255322        -6.9477
 111   1.0000      -0.248284        -6.7562
 112   1.0000      -0.248204        -6.7540
 113   1.0000      -0.246696        -6.7129
 114   1.0000      -0.245302        -6.6750
 115   1.0000      -0.240287        -6.5386
 116   1.0000      -0.239634        -6.5208
 117   1.0000      -0.239271        -6.5109
 118   1.0000      -0.239235        -6.5099
 119   1.0000      -0.234788        -6.3889
 120   1.0000      -0.234765        -6.3883
 121   1.0000      -0.223636        -6.0854
 122   1.0000      -0.217631        -5.9220
 123   1.0000      -0.217479        -5.9179
 124   1.0000      -0.209025        -5.6878
 125   1.0000      -0.206426        -5.6171
 126   1.0000      -0.206406        -5.6166
 127   0.0000      -0.175830        -4.7846
 128   0.0000      -0.175773        -4.7830
 129   0.0000      -0.162106        -4.4111
 130   0.0000      -0.134105        -3.6492
 131   0.0000      -0.128917        -3.5080

                 SPIN DOWN ORBITALS
  NO   OCC          E(Eh)            E(eV)
   0   1.0000    -214.514580     -5837.2385
   1   1.0000     -24.279994      -660.6922
   2   1.0000     -20.653402      -562.0076
   3   1.0000     -20.653391      -562.0073
   4   1.0000     -20.653034      -561.9976
   5   1.0000      -4.026319      -109.5617
   6   1.0000      -4.026317      -109.5617
   7   1.0000      -4.026275      -109.5605
   8   1.0000      -4.026264      -109.5602
   9   1.0000      -4.020654      -109.4076
  10   1.0000      -4.020588      -109.4058
  11   1.0000      -4.020578      -109.4055
  12   1.0000      -4.020571      -109.4053
  13   1.0000      -4.017282      -109.3158
  14   1.0000      -4.017231      -109.3144
  15   1.0000      -4.017091      -109.3106
  16   1.0000      -4.017083      -109.3104
  17   1.0000      -2.704782       -73.6008
  18   1.0000      -2.245050       -61.0909
  19   1.0000      -2.245043       -61.0907
  20   1.0000      -2.245020       -61.0901
  21   1.0000      -2.244986       -61.0892
  22   1.0000      -2.240246       -60.9602
  23   1.0000      -2.240227       -60.9597
  24   1.0000      -2.240070       -60.9554
  25   1.0000      -2.240050       -60.9549
  26   1.0000      -2.238305       -60.9074
  27   1.0000      -2.238227       -60.9052
  28   1.0000      -2.238201       -60.9046
  29   1.0000      -2.238193       -60.9043
  30   1.0000      -2.236177       -60.8495
  31   1.0000      -2.236119       -60.8479
  32   1.0000      -2.235988       -60.8443
  33   1.0000      -2.235961       -60.8436
  34   1.0000      -2.233423       -60.7745
  35   1.0000      -2.233396       -60.7738
  36   1.0000      -2.233308       -60.7714
  37   1.0000      -2.233299       -60.7712
  38   1.0000      -2.233113       -60.7661
  39   1.0000      -2.232800       -60.7576
  40   1.0000      -2.230528       -60.6958
  41   1.0000      -2.230505       -60.6951
  42   1.0000      -2.229700       -60.6732
  43   1.0000      -2.229503       -60.6679
  44   1.0000      -2.228797       -60.6487
  45   1.0000      -2.228784       -60.6483
  46   1.0000      -2.228593       -60.6431
  47   1.0000      -2.228554       -60.6420
  48   1.0000      -2.228275       -60.6344
  49   1.0000      -2.228266       -60.6342
  50   1.0000      -2.225357       -60.5550
  51   1.0000      -2.225283       -60.5530
  52   1.0000      -2.225273       -60.5527
  53   1.0000      -2.225244       -60.5520
  54   1.0000      -1.695938       -46.1488
  55   1.0000      -1.695915       -46.1482
  56   1.0000      -1.694646       -46.1137
  57   1.0000      -0.405310       -11.0290
  58   1.0000      -0.378199       -10.2913
  59   1.0000      -0.365055        -9.9337
  60   1.0000      -0.365021        -9.9327
  61   1.0000      -0.363303        -9.8860
  62   1.0000      -0.361400        -9.8342
  63   1.0000      -0.356830        -9.7098
  64   1.0000      -0.346114        -9.4182
  65   1.0000      -0.346075        -9.4172
  66   1.0000      -0.343801        -9.3553
  67   1.0000      -0.337691        -9.1890
  68   1.0000      -0.337460        -9.1827
  69   1.0000      -0.337444        -9.1823
  70   1.0000      -0.332435        -9.0460
  71   1.0000      -0.331519        -9.0211
  72   1.0000      -0.328801        -8.9471
  73   1.0000      -0.324400        -8.8274
  74   1.0000      -0.324359        -8.8263
  75   1.0000      -0.323173        -8.7940
  76   1.0000      -0.323094        -8.7918
  77   1.0000      -0.322161        -8.7665
  78   1.0000      -0.317830        -8.6486
  79   1.0000      -0.314262        -8.5515
  80   1.0000      -0.314245        -8.5510
  81   1.0000      -0.312855        -8.5132
  82   1.0000      -0.308950        -8.4070
  83   1.0000      -0.301461        -8.2032
  84   1.0000      -0.298133        -8.1126
  85   1.0000      -0.298053        -8.1104
  86   1.0000      -0.295197        -8.0327
  87   1.0000      -0.287925        -7.8348
  88   1.0000      -0.287912        -7.8345
  89   1.0000      -0.283733        -7.7208
  90   1.0000      -0.281550        -7.6614
  91   1.0000      -0.280829        -7.6417
  92   1.0000      -0.277950        -7.5634
  93   1.0000      -0.276013        -7.5107
  94   1.0000      -0.275979        -7.5098
  95   1.0000      -0.275127        -7.4866
  96   1.0000      -0.274452        -7.4682
  97   1.0000      -0.274404        -7.4669
  98   1.0000      -0.273943        -7.4544
  99   1.0000      -0.269724        -7.3396
 100   1.0000      -0.266478        -7.2512
 101   1.0000      -0.266449        -7.2505
 102   1.0000      -0.264448        -7.1960
 103   1.0000      -0.264107        -7.1867
 104   1.0000      -0.262274        -7.1368
 105   1.0000      -0.262250        -7.1362
 106   1.0000      -0.258886        -7.0446
 107   1.0000      -0.258437        -7.0324
 108   1.0000      -0.257165        -6.9978
 109   1.0000      -0.255871        -6.9626
 110   1.0000      -0.255798        -6.9606
 111   1.0000      -0.248014        -6.7488
 112   1.0000      -0.247936        -6.7467
 113   1.0000      -0.245879        -6.6907
 114   1.0000      -0.245791        -6.6883
 115   1.0000      -0.241405        -6.5690
 116   1.0000      -0.240525        -6.5450
 117   1.0000      -0.240256        -6.5377
 118   1.0000      -0.240221        -6.5368
 119   1.0000      -0.236437        -6.4338
 120   1.0000      -0.236420        -6.4333
 121   1.0000      -0.221436        -6.0256
 122   1.0000      -0.206517        -5.6196
 123   1.0000      -0.199123        -5.4184
 124   1.0000      -0.199086        -5.4174
 125   0.0000      -0.134890        -3.6705
 126   0.0000      -0.134818        -3.6686
 127   0.0000      -0.130978        -3.5641
 128   0.0000      -0.130930        -3.5628
 129   0.0000      -0.129824        -3.5327

MULLIKEN ATOMIC CHARGES AND SPIN POPULATIONS
--------------------------------------------
   0 Au:    0.307151   -0.026212
   1 Au:    0.146295   -0.069668
   2 Au:    0.361445   -0.087174
   3 Au:    0.303762   -0.026055
   4 Au:    0.150355   -0.069967
   5 Au:    0.147897   -0.069992
   6 Au:    0.359886   -0.087959
   7 Au:    0.360632   -0.087679
   8 Au:    0.152450   -0.069920
   9 Au:    0.361205   -0.087621
  10 Au:    0.308731   -0.025952
  11 Au:    0.304678   -0.025876
  12 Cr:   -3.264487    2.734074
Sum of atomic charges         :   -0.0000000

LOEWDIN ATOMIC CHARGES AND SPIN POPULATIONS
-------------------------------------------
   0 Au:    0.141944   -0.048572
   1 Au:    0.082822   -0.057028
   2 Au:    0.072558   -0.081361
   3 Au:    0.141687   -0.048392
   4 Au:    0.082218   -0.057291
   5 Au:    0.082401   -0.057202
   6 Au:    0.072011   -0.081754
   7 Au:    0.072232   -0.081631
   8 Au:    0.082241   -0.057437
   9 Au:    0.072257   -0.081545
  10 Au:    0.142118   -0.048526
  11 Au:    0.142000   -0.048337
  12 Cr:   -1.186489    2.749075

  Mayer bond orders larger than 0.100000
B(  0-Au,  4-Au) :   0.4759 B(  0-Au,  7-Au) :   0.2569 B(  0-Au, 12-Cr) :   0.8754
B(  1-Au,  3-Au) :   0.4794 B(  1-Au,  7-Au) :   0.2179 B(  1-Au,  9-Au) :   0.2186
B(  1-Au, 12-Cr) :   0.5541 B(  2-Au,  3-Au) :   0.2559 B(  2-Au,  4-Au) :   0.2189
B(  2-Au,  5-Au) :   0.2187 B(  2-Au,  6-Au) :   0.2302 B(  2-Au, 12-Cr) :   0.3412
B(  3-Au, 12-Cr) :   0.8720 B(  4-Au,  6-Au) :   0.2185 B(  4-Au, 12-Cr) :   0.5557
B(  5-Au,  6-Au) :   0.2182 B(  5-Au, 11-Au) :   0.4780 B(  5-Au, 12-Cr) :   0.5541
B(  6-Au, 10-Au) :   0.2569 B(  6-Au, 12-Cr) :   0.3432 B(  7-Au,  8-Au) :   0.2187
B(  7-Au,  9-Au) :   0.2305 B(  7-Au, 12-Cr) :   0.3421 B(  8-Au,  9-Au) :   0.2184
B(  8-Au, 10-Au) :   0.4749 B(  8-Au, 12-Cr) :   0.5567 B(  9-Au, 11-Au) :   0.2563
B(  9-Au, 12-Cr) :   0.3418 B( 10-Au, 12-Cr) :   0.8765 B( 11-Au, 12-Cr) :   0.8735

FINAL SINGLE POINT ENERGY     -2674.154158986366

DIPOLE MOMENT
-------------
                                X             Y             Z
Electronic contribution:      0.01700      -0.02397      -0.02911
Nuclear contribution   :     -0.01501       0.02495       0.02751
                        -----------------------------------------
Total Dipole Moment    :      0.00199       0.00098      -0.00160
                        -----------------------------------------
Magnitude (a.u.)       :      0.00274
Magnitude (Debye)      :      0.00695

Rotational constants in cm-1:     0.001825     0.001029     0.001029
Rotational constants in MHz :    54.712874    30.842859    30.839811

                             ****ORCA TERMINATED NORMALLY****
TOTAL RUN TIME: 0 days 1 hours 36 minutes 29 seconds 430 msec
