                         Program Version 5.0.3 -  RELEASE  -
|  1> !R2SCAN def2-TZVP VERYSLOWCONV
|  2> !KDIIS
|  3> %scf
|  4>   AutoTRAHIter 200
|  5>   maxiter 400
|  6> end
|  7>
|  8> %pal nprocs 6 end
|  9>
| 10> *xyzfile 0 5 pbe.xyz
| 11>
| 12> $new_job
| 13>
| 14> !R2SCAN def2-TZVP VERYSLOWCONV
| 15> !KDIIS
| 16> %scf
| 17>   AutoTRAHIter 200
| 18>   maxiter 400
| 19> end
| 20>
| 21>
| 22> %pal nprocs 6 end
| 23>
| 24> *xyzfile 0 3 pbe.xyz
| 25>
| 26>
| 27>
| 28>
| 29>
| 30>                          ****END OF INPUT****
 Total Charge           Charge          ....    0
 Multiplicity           Mult            ....    5
 Number of Electrons    NEL             ....  252
FINAL SINGLE POINT ENERGY     -2674.569010240484

CARTESIAN COORDINATES (ANGSTROEM)
---------------------------------
  Au     6.526965    6.891918    6.395766
  Au     8.548713    9.320054    7.230632
  Au    11.109181    4.874686    7.025001
  Au    10.362362    7.454501    6.617299
  Au     8.318612    4.913463    6.545557
  Au    10.461058    6.004981    9.538437
  Au     9.418373    3.496036    8.737846
  Au     5.730061    9.238759    7.502775
  Au     6.215891    7.407533    9.608422
  Au     7.281659   10.031829    9.660405
  Au     7.350668    4.988010    9.666505
  Au     9.285959    8.297974   10.252400
  Cr     8.383698    6.910689    8.232537

 Multiplicity           Mult            ....    3
 Number of Electrons    NEL             ....  252
 Basis Dimension        Dim             ....  525

ORBITAL ENERGIES
----------------
                 SPIN UP ORBITALS
  NO   OCC          E(Eh)            E(eV)
   0   1.0000    -215.311317     -5858.9188
   1   1.0000     -24.616426      -669.8470
   2   1.0000     -20.883400      -568.2662
   3   1.0000     -20.883043      -568.2565
   4   1.0000     -20.883037      -568.2563
   5   1.0000      -4.116483      -112.0152
   6   1.0000      -4.116481      -112.0151
   7   1.0000      -4.116432      -112.0138
   8   1.0000      -4.116423      -112.0136
   9   1.0000      -4.111053      -111.8674
  10   1.0000      -4.111001      -111.8660
  11   1.0000      -4.110986      -111.8656
  12   1.0000      -4.110976      -111.8653
  13   1.0000      -4.108251      -111.7912
  14   1.0000      -4.108201      -111.7898
  15   1.0000      -4.108045      -111.7856
  16   1.0000      -4.108036      -111.7853
  17   1.0000      -2.925233       -79.5996
  18   1.0000      -2.308132       -62.8075
  19   1.0000      -2.308123       -62.8072
  20   1.0000      -2.308094       -62.8064
  21   1.0000      -2.308060       -62.8055
  22   1.0000      -2.303562       -62.6831
  23   1.0000      -2.303551       -62.6828
  24   1.0000      -2.303359       -62.6776
  25   1.0000      -2.303342       -62.6771
  26   1.0000      -2.301321       -62.6221
  27   1.0000      -2.301206       -62.6190
  28   1.0000      -2.301188       -62.6185
  29   1.0000      -2.301166       -62.6179
  30   1.0000      -2.299355       -62.5686
  31   1.0000      -2.299332       -62.5680
  32   1.0000      -2.299017       -62.5594
  33   1.0000      -2.298997       -62.5589
  34   1.0000      -2.296645       -62.4949
  35   1.0000      -2.296510       -62.4912
  36   1.0000      -2.296476       -62.4903
  37   1.0000      -2.296358       -62.4871
  38   1.0000      -2.296352       -62.4869
  39   1.0000      -2.296124       -62.4807
  40   1.0000      -2.293911       -62.4205
  41   1.0000      -2.293888       -62.4199
  42   1.0000      -2.293426       -62.4073
  43   1.0000      -2.293124       -62.3991
  44   1.0000      -2.292506       -62.3823
  45   1.0000      -2.292497       -62.3820
  46   1.0000      -2.292351       -62.3780
  47   1.0000      -2.292316       -62.3771
  48   1.0000      -2.292017       -62.3689
  49   1.0000      -2.292004       -62.3686
  50   1.0000      -2.289075       -62.2889
  51   1.0000      -2.289016       -62.2873
  52   1.0000      -2.289002       -62.2869
  53   1.0000      -2.288971       -62.2861
  54   1.0000      -1.872680       -50.9582
  55   1.0000      -1.870727       -50.9051
  56   1.0000      -1.870720       -50.9049
  57   1.0000      -0.414179       -11.2704
  58   1.0000      -0.382486       -10.4080
  59   1.0000      -0.377582       -10.2745
  60   1.0000      -0.371785       -10.1168
  61   1.0000      -0.371755       -10.1160
  62   1.0000      -0.370533       -10.0827
  63   1.0000      -0.367342        -9.9959
  64   1.0000      -0.357851        -9.7376
  65   1.0000      -0.357823        -9.7369
  66   1.0000      -0.356544        -9.7021
  67   1.0000      -0.350176        -9.5288
  68   1.0000      -0.345992        -9.4149
  69   1.0000      -0.345985        -9.4147
  70   1.0000      -0.345925        -9.4131
  71   1.0000      -0.341975        -9.3056
  72   1.0000      -0.338448        -9.2096
  73   1.0000      -0.333482        -9.0745
  74   1.0000      -0.333382        -9.0718
  75   1.0000      -0.331660        -9.0249
  76   1.0000      -0.331654        -9.0248
  77   1.0000      -0.330233        -8.9861
  78   1.0000      -0.326331        -8.8799
  79   1.0000      -0.322302        -8.7703
  80   1.0000      -0.322288        -8.7699
  81   1.0000      -0.321371        -8.7449
  82   1.0000      -0.316612        -8.6155
  83   1.0000      -0.311027        -8.4635
  84   1.0000      -0.310945        -8.4612
  85   1.0000      -0.308799        -8.4028
  86   1.0000      -0.304932        -8.2976
  87   1.0000      -0.295222        -8.0334
  88   1.0000      -0.295209        -8.0331
  89   1.0000      -0.290298        -7.8994
  90   1.0000      -0.289254        -7.8710
  91   1.0000      -0.288790        -7.8584
  92   1.0000      -0.288215        -7.8427
  93   1.0000      -0.284687        -7.7467
  94   1.0000      -0.283655        -7.7187
  95   1.0000      -0.283614        -7.7175
  96   1.0000      -0.282332        -7.6826
  97   1.0000      -0.282293        -7.6816
  98   1.0000      -0.281233        -7.6527
  99   1.0000      -0.277216        -7.5434
 100   1.0000      -0.273681        -7.4473
 101   1.0000      -0.273653        -7.4465
 102   1.0000      -0.272103        -7.4043
 103   1.0000      -0.271106        -7.3772
 104   1.0000      -0.269218        -7.3258
 105   1.0000      -0.269195        -7.3252
 106   1.0000      -0.266779        -7.2594
 107   1.0000      -0.264854        -7.2070
 108   1.0000      -0.264067        -7.1856
 109   1.0000      -0.262825        -7.1518
 110   1.0000      -0.262744        -7.1496
 111   1.0000      -0.255352        -6.9485
 112   1.0000      -0.255273        -6.9463
 113   1.0000      -0.254098        -6.9144
 114   1.0000      -0.251557        -6.8452
 115   1.0000      -0.247501        -6.7348
 116   1.0000      -0.246919        -6.7190
 117   1.0000      -0.246283        -6.7017
 118   1.0000      -0.246245        -6.7007
 119   1.0000      -0.238301        -6.4845
 120   1.0000      -0.238277        -6.4838
 121   1.0000      -0.232358        -6.3228
 122   1.0000      -0.229734        -6.2514
 123   1.0000      -0.221306        -6.0220
 124   1.0000      -0.215374        -5.8606
 125   1.0000      -0.209897        -5.7116
 126   1.0000      -0.209874        -5.7110
 127   0.0000      -0.174803        -4.7566
 128   0.0000      -0.174742        -4.7550
 129   0.0000      -0.159229        -4.3328
 130   0.0000      -0.129673        -3.5286
 131   0.0000      -0.122185        -3.3248

                 SPIN DOWN ORBITALS
  NO   OCC          E(Eh)            E(eV)
   0   1.0000    -215.310688     -5858.9017
   1   1.0000     -24.560390      -668.3222
   2   1.0000     -20.840507      -567.0990
   3   1.0000     -20.840496      -567.0987
   4   1.0000     -20.838901      -567.0553
   5   1.0000      -4.116469      -112.0148
   6   1.0000      -4.116464      -112.0147
   7   1.0000      -4.116417      -112.0134
   8   1.0000      -4.116407      -112.0131
   9   1.0000      -4.110726      -111.8585
  10   1.0000      -4.110669      -111.8570
  11   1.0000      -4.110660      -111.8567
  12   1.0000      -4.110648      -111.8564
  13   1.0000      -4.108721      -111.8040
  14   1.0000      -4.108672      -111.8027
  15   1.0000      -4.108517      -111.7984
  16   1.0000      -4.108510      -111.7982
  17   1.0000      -2.779312       -75.6289
  18   1.0000      -2.307646       -62.7942
  19   1.0000      -2.307635       -62.7939
  20   1.0000      -2.307609       -62.7932
  21   1.0000      -2.307576       -62.7923
  22   1.0000      -2.303131       -62.6714
  23   1.0000      -2.303098       -62.6705
  24   1.0000      -2.302881       -62.6646
  25   1.0000      -2.302863       -62.6641
  26   1.0000      -2.300808       -62.6082
  27   1.0000      -2.300675       -62.6046
  28   1.0000      -2.300644       -62.6037
  29   1.0000      -2.300644       -62.6037
  30   1.0000      -2.299277       -62.5665
  31   1.0000      -2.299221       -62.5650
  32   1.0000      -2.298856       -62.5550
  33   1.0000      -2.298833       -62.5544
  34   1.0000      -2.296979       -62.5040
  35   1.0000      -2.296752       -62.4978
  36   1.0000      -2.296719       -62.4969
  37   1.0000      -2.296588       -62.4934
  38   1.0000      -2.296582       -62.4932
  39   1.0000      -2.296366       -62.4873
  40   1.0000      -2.294082       -62.4251
  41   1.0000      -2.294058       -62.4245
  42   1.0000      -2.293659       -62.4136
  43   1.0000      -2.293336       -62.4049
  44   1.0000      -2.293007       -62.3959
  45   1.0000      -2.293001       -62.3957
  46   1.0000      -2.292723       -62.3882
  47   1.0000      -2.292689       -62.3872
  48   1.0000      -2.292396       -62.3793
  49   1.0000      -2.292386       -62.3790
  50   1.0000      -2.288628       -62.2767
  51   1.0000      -2.288563       -62.2750
  52   1.0000      -2.288553       -62.2747
  53   1.0000      -2.288519       -62.2738
  54   1.0000      -1.726987       -46.9937
  55   1.0000      -1.726961       -46.9930
  56   1.0000      -1.723322       -46.8940
  57   1.0000      -0.409642       -11.1469
  58   1.0000      -0.383542       -10.4367
  59   1.0000      -0.372457       -10.1351
  60   1.0000      -0.372429       -10.1343
  61   1.0000      -0.370956       -10.0942
  62   1.0000      -0.369223       -10.0471
  63   1.0000      -0.365227        -9.9383
  64   1.0000      -0.353821        -9.6280
  65   1.0000      -0.353777        -9.6268
  66   1.0000      -0.352586        -9.5943
  67   1.0000      -0.346957        -9.4412
  68   1.0000      -0.346161        -9.4195
  69   1.0000      -0.346153        -9.4193
  70   1.0000      -0.340716        -9.2714
  71   1.0000      -0.340555        -9.2670
  72   1.0000      -0.336871        -9.1667
  73   1.0000      -0.332728        -9.0540
  74   1.0000      -0.332692        -9.0530
  75   1.0000      -0.331983        -9.0337
  76   1.0000      -0.331894        -9.0313
  77   1.0000      -0.331591        -9.0231
  78   1.0000      -0.326914        -8.8958
  79   1.0000      -0.323408        -8.8004
  80   1.0000      -0.323390        -8.7999
  81   1.0000      -0.321349        -8.7444
  82   1.0000      -0.317962        -8.6522
  83   1.0000      -0.310002        -8.4356
  84   1.0000      -0.305606        -8.3160
  85   1.0000      -0.305532        -8.3139
  86   1.0000      -0.302377        -8.2281
  87   1.0000      -0.296619        -8.0714
  88   1.0000      -0.296607        -8.0711
  89   1.0000      -0.291744        -7.9387
  90   1.0000      -0.290336        -7.9005
  91   1.0000      -0.289907        -7.8888
  92   1.0000      -0.286077        -7.7846
  93   1.0000      -0.284695        -7.7469
  94   1.0000      -0.284658        -7.7459
  95   1.0000      -0.282952        -7.6995
  96   1.0000      -0.282763        -7.6944
  97   1.0000      -0.282704        -7.6928
  98   1.0000      -0.282431        -7.6854
  99   1.0000      -0.278456        -7.5772
 100   1.0000      -0.274842        -7.4788
 101   1.0000      -0.274814        -7.4781
 102   1.0000      -0.272757        -7.4221
 103   1.0000      -0.272026        -7.4022
 104   1.0000      -0.270467        -7.3598
 105   1.0000      -0.270444        -7.3592
 106   1.0000      -0.267420        -7.2769
 107   1.0000      -0.265910        -7.2358
 108   1.0000      -0.265781        -7.2323
 109   1.0000      -0.263418        -7.1680
 110   1.0000      -0.263342        -7.1659
 111   1.0000      -0.255090        -6.9413
 112   1.0000      -0.255018        -6.9394
 113   1.0000      -0.252546        -6.8721
 114   1.0000      -0.252490        -6.8706
 115   1.0000      -0.249245        -6.7823
 116   1.0000      -0.248237        -6.7549
 117   1.0000      -0.247865        -6.7447
 118   1.0000      -0.247825        -6.7437
 119   1.0000      -0.242171        -6.5898
 120   1.0000      -0.242158        -6.5895
 121   1.0000      -0.223494        -6.0816
 122   1.0000      -0.208402        -5.6709
 123   1.0000      -0.201119        -5.4727
 124   1.0000      -0.201079        -5.4716
 125   0.0000      -0.130790        -3.5590
 126   0.0000      -0.129919        -3.5353
 127   0.0000      -0.123239        -3.3535
 128   0.0000      -0.123168        -3.3516
 129   0.0000      -0.114095        -3.1047

MULLIKEN ATOMIC CHARGES AND SPIN POPULATIONS
--------------------------------------------
   0 Au:    0.267579   -0.044027
   1 Au:    0.137758   -0.097429
   2 Au:    0.320625   -0.126040
   3 Au:    0.264610   -0.043758
   4 Au:    0.141364   -0.097867
   5 Au:    0.139207   -0.097835
   6 Au:    0.319350   -0.127094
   7 Au:    0.320013   -0.126683
   8 Au:    0.143386   -0.097847
   9 Au:    0.320491   -0.126738
  10 Au:    0.269108   -0.043832
  11 Au:    0.265305   -0.043554
  12 Cr:   -2.908798    3.072705
Sum of atomic charges         :    0.0000000

LOEWDIN ATOMIC CHARGES AND SPIN POPULATIONS
-------------------------------------------
   0 Au:    0.134159   -0.068099
   1 Au:    0.076147   -0.079100
   2 Au:    0.073821   -0.107186
   3 Au:    0.133896   -0.067883
   4 Au:    0.075576   -0.079397
   5 Au:    0.075760   -0.079283
   6 Au:    0.073251   -0.107670
   7 Au:    0.073485   -0.107465
   8 Au:    0.075615   -0.079578
   9 Au:    0.073500   -0.107426
  10 Au:    0.134296   -0.068093
  11 Au:    0.134219   -0.067829
  12 Cr:   -1.133725    3.019011

  Mayer bond orders larger than 0.100000
B(  0-Au,  4-Au) :   0.4775 B(  0-Au,  7-Au) :   0.2512 B(  0-Au, 12-Cr) :   0.8493
B(  1-Au,  3-Au) :   0.4810 B(  1-Au,  7-Au) :   0.2059 B(  1-Au,  9-Au) :   0.2064
B(  1-Au, 12-Cr) :   0.5464 B(  2-Au,  3-Au) :   0.2500 B(  2-Au,  4-Au) :   0.2069
B(  2-Au,  5-Au) :   0.2068 B(  2-Au,  6-Au) :   0.2190 B(  2-Au, 12-Cr) :   0.3296
B(  3-Au, 12-Cr) :   0.8461 B(  4-Au,  6-Au) :   0.2063 B(  4-Au, 12-Cr) :   0.5483
B(  5-Au,  6-Au) :   0.2060 B(  5-Au, 11-Au) :   0.4796 B(  5-Au, 12-Cr) :   0.5469
B(  6-Au, 10-Au) :   0.2513 B(  6-Au, 12-Cr) :   0.3315 B(  7-Au,  8-Au) :   0.2065
B(  7-Au,  9-Au) :   0.2193 B(  7-Au, 12-Cr) :   0.3304 B(  8-Au,  9-Au) :   0.2064
B(  8-Au, 10-Au) :   0.4764 B(  8-Au, 12-Cr) :   0.5493 B(  9-Au, 11-Au) :   0.2506
B(  9-Au, 12-Cr) :   0.3302 B( 10-Au, 12-Cr) :   0.8503 B( 11-Au, 12-Cr) :   0.8479

FINAL SINGLE POINT ENERGY     -2674.585914716676

DIPOLE MOMENT
-------------
                                X             Y             Z
Electronic contribution:      0.01696      -0.02396      -0.02906
Nuclear contribution   :     -0.01501       0.02495       0.02751
                        -----------------------------------------
Total Dipole Moment    :      0.00195       0.00099      -0.00156
                        -----------------------------------------
Magnitude (a.u.)       :      0.00268
Magnitude (Debye)      :      0.00682

Rotational constants in cm-1:     0.001825     0.001029     0.001029
Rotational constants in MHz :    54.712874    30.842859    30.839811

                             ****ORCA TERMINATED NORMALLY****
TOTAL RUN TIME: 0 days 1 hours 14 minutes 45 seconds 884 msec
