                         Program Version 5.0.3 -  RELEASE  -
|  1> !CASSCF def2-TZVP def2-TZVP/C
|  2> !MOREAD RIJCOSX
|  3> %maxcore 6000
|  4> %moinp "pbe.qro"
|  5> %pal nprocs 2 end
|  6>
|  7> %casscf
|  8>  mult 5,3
|  9>  bweight 1,1
| 10>  nroots 5,45
| 11>  nel 6
| 12>  norb 5
| 13> end
| 14>
| 15>
| 16> *xyzfile 0 5 pbe.xyz
| 17>
| 18>
| 19>                          ****END OF INPUT****

CARTESIAN COORDINATES (ANGSTROEM)
---------------------------------
  Au     7.221887    5.093497    9.176052
  Au     9.672516    4.843526   10.476512
  Au     6.884466    7.342379    7.556069
  Au     9.552865    4.709874    7.689469
  Au     9.321348    7.346444   11.643546
  Au    11.566009    6.598246    7.262665
  Au    11.555516    6.861887   10.041858
  Au     8.888209    9.490515    9.908496
  Au    11.217908    9.108767    8.419239
  Au     8.767218    9.358625    7.121098
  Au     9.119367    6.854428    5.956148
  Au     6.874363    7.602012   10.336425
  Fe     9.219478    7.100242    8.800503

 Total Charge           Charge          ....    0
 Multiplicity           Mult            ....    5
 Number of Electrons    NEL             ....  254
 Basis Dimension        Dim             ....  525

ORBITAL ENERGIES
----------------

  NO   OCC          E(Eh)            E(eV)
   0   2.0000    -261.398686     -7113.0199
   1   2.0000     -31.959433      -869.6604
   2   2.0000     -27.439681      -746.6717
   3   2.0000     -27.439545      -746.6680
   4   2.0000     -27.439542      -746.6679
   5   2.0000      -4.716220      -128.3349
   6   2.0000      -4.716199      -128.3343
   7   2.0000      -4.716179      -128.3338
   8   2.0000      -4.716169      -128.3335
   9   2.0000      -4.712924      -128.2452
  10   2.0000      -4.712889      -128.2442
  11   2.0000      -4.712736      -128.2401
  12   2.0000      -4.712710      -128.2394
  13   2.0000      -4.712708      -128.2393
  14   2.0000      -4.712681      -128.2386
  15   2.0000      -4.712516      -128.2341
  16   2.0000      -4.712494      -128.2335
  17   2.0000      -4.193420      -114.1088
  18   2.0000      -2.773432       -75.4689
  19   2.0000      -2.773426       -75.4688
  20   2.0000      -2.772220       -75.4359
  21   2.0000      -2.755417       -74.9787
  22   2.0000      -2.755158       -74.9717
  23   2.0000      -2.755030       -74.9682
  24   2.0000      -2.754551       -74.9552
  25   2.0000      -2.754531       -74.9546
  26   2.0000      -2.754239       -74.9467
  27   2.0000      -2.754020       -74.9407
  28   2.0000      -2.754006       -74.9403
  29   2.0000      -2.752256       -74.8927
  30   2.0000      -2.751900       -74.8830
  31   2.0000      -2.751879       -74.8824
  32   2.0000      -2.751594       -74.8747
  33   2.0000      -2.751185       -74.8635
  34   2.0000      -2.750528       -74.8457
  35   2.0000      -2.750450       -74.8435
  36   2.0000      -2.750445       -74.8434
  37   2.0000      -2.749872       -74.8278
  38   2.0000      -2.749497       -74.8176
  39   2.0000      -2.749468       -74.8168
  40   2.0000      -2.749306       -74.8124
  41   2.0000      -2.748447       -74.7890
  42   2.0000      -2.748400       -74.7878
  43   2.0000      -2.747615       -74.7664
  44   2.0000      -2.747046       -74.7509
  45   2.0000      -2.746731       -74.7423
  46   2.0000      -2.746299       -74.7306
  47   2.0000      -2.746286       -74.7302
  48   2.0000      -2.745738       -74.7153
  49   2.0000      -2.744920       -74.6931
  50   2.0000      -2.744916       -74.6930
  51   2.0000      -2.744879       -74.6920
  52   2.0000      -2.744829       -74.6906
  53   2.0000      -2.744316       -74.6766
  54   2.0000      -2.743863       -74.6643
  55   2.0000      -2.743858       -74.6642
  56   2.0000      -2.743739       -74.6609
  57   2.0000      -0.589893       -16.0518
  58   2.0000      -0.556951       -15.1554
  59   2.0000      -0.550065       -14.9680
  60   2.0000      -0.549778       -14.9602
  61   2.0000      -0.547146       -14.8886
  62   2.0000      -0.545589       -14.8462
  63   2.0000      -0.545210       -14.8359
  64   2.0000      -0.538746       -14.6600
  65   2.0000      -0.538644       -14.6572
  66   2.0000      -0.538447       -14.6519
  67   2.0000      -0.536197       -14.5907
  68   2.0000      -0.535871       -14.5818
  69   2.0000      -0.532427       -14.4881
  70   2.0000      -0.532173       -14.4812
  71   2.0000      -0.528342       -14.3769
  72   2.0000      -0.525589       -14.3020
  73   2.0000      -0.525511       -14.2999
  74   2.0000      -0.521607       -14.1937
  75   2.0000      -0.518193       -14.1007
  76   2.0000      -0.511274       -13.9125
  77   2.0000      -0.507697       -13.8151
  78   2.0000      -0.507401       -13.8071
  79   2.0000      -0.505705       -13.7609
  80   2.0000      -0.503731       -13.7072
  81   2.0000      -0.503279       -13.6949
  82   2.0000      -0.498340       -13.5605
  83   2.0000      -0.498162       -13.5557
  84   2.0000      -0.494779       -13.4636
  85   2.0000      -0.491345       -13.3702
  86   2.0000      -0.479924       -13.0594
  87   2.0000      -0.479568       -13.0497
  88   2.0000      -0.479473       -13.0471
  89   2.0000      -0.478687       -13.0257
  90   2.0000      -0.473211       -12.8767
  91   2.0000      -0.473137       -12.8747
  92   2.0000      -0.462816       -12.5939
  93   2.0000      -0.462788       -12.5931
  94   2.0000      -0.462081       -12.5739
  95   2.0000      -0.459232       -12.4963
  96   2.0000      -0.455420       -12.3926
  97   2.0000      -0.453312       -12.3353
  98   2.0000      -0.453227       -12.3329
  99   2.0000      -0.452541       -12.3143
 100   2.0000      -0.440945       -11.9987
 101   2.0000      -0.440014       -11.9734
 102   2.0000      -0.439916       -11.9707
 103   2.0000      -0.436782       -11.8854
 104   2.0000      -0.434010       -11.8100
 105   2.0000      -0.432749       -11.7757
 106   2.0000      -0.427741       -11.6394
 107   2.0000      -0.426164       -11.5965
 108   2.0000      -0.424266       -11.5449
 109   2.0000      -0.424180       -11.5425
 110   2.0000      -0.424115       -11.5408
 111   2.0000      -0.421403       -11.4670
 112   2.0000      -0.421395       -11.4667
 113   2.0000      -0.421115       -11.4591
 114   2.0000      -0.416508       -11.3338
 115   2.0000      -0.416229       -11.3262
 116   2.0000      -0.415126       -11.2961
 117   2.0000      -0.380237       -10.3468
 118   2.0000      -0.347642        -9.4598
 119   2.0000      -0.341782        -9.3004
 120   2.0000      -0.341369        -9.2891
 121   2.0000      -0.241050        -6.5593
 122   2.0000      -0.240766        -6.5516
 123   2.0000      -0.236020        -6.4224
 124   1.2000      -0.258953        -7.0465
 125   1.2000      -0.273264        -7.4359
 126   1.2000      -0.275108        -7.4861
 127   1.2000      -0.273942        -7.4543
 128   1.2000      -0.266252        -7.2451
 129   0.0000      -0.038475        -1.0470
 130   0.0000      -0.033900        -0.9225
 131   0.0000      -0.011989        -0.3262
 132   0.0000       0.002685         0.0731
 133   0.0000       0.038005         1.0342

MULLIKEN ATOMIC CHARGES AND SPIN DENSITIES
------------------------------------------
   0 Au:    0.222487    0.006730
   1 Au:    0.218376    0.006844
   2 Au:    0.102889    0.010395
   3 Au:    0.102853    0.010394
   4 Au:    0.222515    0.006733
   5 Au:    0.218009    0.006819
   6 Au:    0.102917    0.010412
   7 Au:    0.102829    0.010426
   8 Au:    0.222117    0.006706
   9 Au:    0.217928    0.006814
  10 Au:    0.221875    0.006724
  11 Au:    0.218508    0.006838
  12 Fe:   -2.173302    2.904163
Sum of atomic charges       :    0.0000000

LOEWDIN ATOMIC CHARGES AND SPIN DENSITIES
-----------------------------------------
   0 Au:    0.038296    0.008747
   1 Au:    0.037101    0.008872
   2 Au:    0.006287    0.012720
   3 Au:    0.006316    0.012718
   4 Au:    0.038406    0.008750
   5 Au:    0.036960    0.008844
   6 Au:    0.006289    0.012739
   7 Au:    0.006279    0.012754
   8 Au:    0.038187    0.008720
   9 Au:    0.036953    0.008839
  10 Au:    0.037973    0.008741
  11 Au:    0.037211    0.008865
  12 Fe:   -0.326257    2.878691

  Mayer bond orders larger than 0.100000
B(  0-Au,  1-Au) :   0.2132 B(  0-Au,  2-Au) :   0.2195 B(  0-Au,  3-Au) :   0.2197
B(  0-Au, 11-Au) :   0.2130 B(  0-Au, 12-Fe) :   0.3831 B(  1-Au,  3-Au) :   0.2197
B(  1-Au,  4-Au) :   0.2136 B(  1-Au,  6-Au) :   0.2193 B(  1-Au, 12-Fe) :   0.3857
B(  2-Au,  9-Au) :   0.2200 B(  2-Au, 10-Au) :   0.2197 B(  2-Au, 11-Au) :   0.2202
B(  2-Au, 12-Fe) :   0.4563 B(  3-Au,  5-Au) :   0.2200 B(  3-Au, 10-Au) :   0.2198
B(  3-Au, 12-Fe) :   0.4564 B(  4-Au,  6-Au) :   0.2195 B(  4-Au,  7-Au) :   0.2194
B(  4-Au, 11-Au) :   0.2127 B(  4-Au, 12-Fe) :   0.3833 B(  5-Au,  6-Au) :   0.2207
B(  5-Au,  8-Au) :   0.2129 B(  5-Au, 10-Au) :   0.2131 B(  5-Au, 12-Fe) :   0.3851
B(  6-Au,  8-Au) :   0.2198 B(  6-Au, 12-Fe) :   0.4565 B(  7-Au,  8-Au) :   0.2201
B(  7-Au,  9-Au) :   0.2199 B(  7-Au, 11-Au) :   0.2196 B(  7-Au, 12-Fe) :   0.4568
B(  8-Au,  9-Au) :   0.2135 B(  8-Au, 12-Fe) :   0.3825 B(  9-Au, 10-Au) :   0.2136
B(  9-Au, 12-Fe) :   0.3848 B( 10-Au, 12-Fe) :   0.3832 B( 11-Au, 12-Fe) :   0.3857

FINAL SINGLE POINT ENERGY     -2880.101478827758

DIPOLE MOMENT
-------------
                                X             Y             Z
Electronic contribution:      0.02476       0.02309      -0.05713
Nuclear contribution   :     -0.02515      -0.02315       0.05855
                        -----------------------------------------
Total Dipole Moment    :     -0.00039      -0.00006       0.00142
                        -----------------------------------------
Magnitude (a.u.)       :      0.00147
Magnitude (Debye)      :      0.00374

Rotational constants in cm-1:     0.001444     0.001346     0.001341
Rotational constants in MHz :    43.302946    40.339927    40.206470

                             ****ORCA TERMINATED NORMALLY****
TOTAL RUN TIME: 0 days 2 hours 48 minutes 6 seconds 847 msec
