                         Program Version 5.0.3 -  RELEASE  -
|  1> %pal nprocs 16 end
|  2>
|  3> !PBE def2-TZVP OPT UNO
|  4> !SLOWCONV
|  5>
|  6> *xyzfile 0 5 3-2.xyz
|  7>
|  8>                          ****END OF INPUT****
 Total Charge           Charge          ....    0
 Multiplicity           Mult            ....    5
 Number of Electrons    NEL             ....  310
FINAL SINGLE POINT ENERGY     -3188.214221166473
FINAL SINGLE POINT ENERGY     -3188.214400535221
FINAL SINGLE POINT ENERGY     -3188.214647816091
FINAL SINGLE POINT ENERGY     -3188.214880681548
FINAL SINGLE POINT ENERGY     -3188.215118312562
FINAL SINGLE POINT ENERGY     -3188.215365226361
FINAL SINGLE POINT ENERGY     -3188.215655962533
FINAL SINGLE POINT ENERGY     -3188.215970039463
FINAL SINGLE POINT ENERGY     -3188.216275610894
FINAL SINGLE POINT ENERGY     -3188.216586536228
FINAL SINGLE POINT ENERGY     -3188.218988167147
FINAL SINGLE POINT ENERGY     -3188.219182965035
FINAL SINGLE POINT ENERGY     -3188.219352393814
FINAL SINGLE POINT ENERGY     -3188.219491570503
FINAL SINGLE POINT ENERGY     -3188.219600538446
FINAL SINGLE POINT ENERGY     -3188.219680230905
FINAL SINGLE POINT ENERGY     -3188.219730482820
FINAL SINGLE POINT ENERGY     -3188.219750245317
FINAL SINGLE POINT ENERGY     -3188.219759366942
                    ***********************HURRAY********************

CARTESIAN COORDINATES (ANGSTROEM)
---------------------------------
  Au     9.500647    7.402941    5.870041
  Au     7.573918    5.476222    5.912149
  Au     6.725024   10.859080    8.221073
  Au     4.979751    8.530179    8.312495
  Au     5.195221    6.937067    6.051360
  Au     6.349161    9.399230    5.912692
  Au     5.934660    5.323828    8.120800
  Au     8.535794    7.396550   10.384801
  Au    10.410086    8.118575    8.418508
  Au     7.608740    4.791817   10.226433
  Au     9.236642    5.598582    8.152879
  Au     8.958974    9.935625    6.785146
  Au     5.637401    6.799201   10.419770
  Au     6.432329    9.400345   10.566407
  Au     8.967079   10.082054    9.655665
  Mn     7.519020    7.737498    7.836883

 Multiplicity           Mult            ....    5
 Number of Electrons    NEL             ....  310
 Basis Dimension        Dim             ....  645

ORBITAL ENERGIES
----------------
                 SPIN UP ORBITALS
  NO   OCC          E(Eh)            E(eV)
   0   1.0000    -234.209837     -6373.1737
   1   1.0000     -26.902118      -732.0438
   2   1.0000     -23.051031      -627.2504
   3   1.0000     -23.050582      -627.2382
   4   1.0000     -23.049807      -627.2171
   5   1.0000      -4.041133      -109.9648
   6   1.0000      -4.038311      -109.8880
   7   1.0000      -4.035458      -109.8104
   8   1.0000      -4.032149      -109.7204
   9   1.0000      -4.031189      -109.6942
  10   1.0000      -4.030792      -109.6834
  11   1.0000      -4.028715      -109.6269
  12   1.0000      -4.028277      -109.6150
  13   1.0000      -4.027449      -109.5925
  14   1.0000      -4.027235      -109.5866
  15   1.0000      -4.026769      -109.5740
  16   1.0000      -4.026223      -109.5591
  17   1.0000      -4.025130      -109.5293
  18   1.0000      -4.025112      -109.5289
  19   1.0000      -4.024956      -109.5246
  20   1.0000      -3.114572       -84.7518
  21   1.0000      -2.256030       -61.3897
  22   1.0000      -2.254430       -61.3462
  23   1.0000      -2.252997       -61.3072
  24   1.0000      -2.251954       -61.2788
  25   1.0000      -2.251742       -61.2730
  26   1.0000      -2.250529       -61.2400
  27   1.0000      -2.248910       -61.1960
  28   1.0000      -2.248630       -61.1883
  29   1.0000      -2.247994       -61.1710
  30   1.0000      -2.247388       -61.1545
  31   1.0000      -2.247233       -61.1503
  32   1.0000      -2.246068       -61.1186
  33   1.0000      -2.245875       -61.1134
  34   1.0000      -2.244719       -61.0819
  35   1.0000      -2.244430       -61.0741
  36   1.0000      -2.244054       -61.0638
  37   1.0000      -2.243345       -61.0445
  38   1.0000      -2.243115       -61.0383
  39   1.0000      -2.243007       -61.0353
  40   1.0000      -2.242726       -61.0277
  41   1.0000      -2.242468       -61.0207
  42   1.0000      -2.241738       -61.0008
  43   1.0000      -2.241646       -60.9983
  44   1.0000      -2.241482       -60.9938
  45   1.0000      -2.240996       -60.9806
  46   1.0000      -2.240760       -60.9742
  47   1.0000      -2.240532       -60.9680
  48   1.0000      -2.239925       -60.9515
  49   1.0000      -2.239627       -60.9433
  50   1.0000      -2.239264       -60.9335
  51   1.0000      -2.238820       -60.9214
  52   1.0000      -2.238392       -60.9097
  53   1.0000      -2.238216       -60.9050
  54   1.0000      -2.238188       -60.9042
  55   1.0000      -2.238090       -60.9015
  56   1.0000      -2.237942       -60.8975
  57   1.0000      -2.237775       -60.8930
  58   1.0000      -2.237716       -60.8914
  59   1.0000      -2.237486       -60.8851
  60   1.0000      -2.237213       -60.8777
  61   1.0000      -2.236976       -60.8712
  62   1.0000      -2.236438       -60.8566
  63   1.0000      -2.236000       -60.8446
  64   1.0000      -2.235438       -60.8294
  65   1.0000      -2.234978       -60.8168
  66   1.0000      -2.018317       -54.9212
  67   1.0000      -2.017234       -54.8917
  68   1.0000      -2.016217       -54.8640
  69   1.0000      -0.435938       -11.8625
  70   1.0000      -0.392392       -10.6775
  71   1.0000      -0.391416       -10.6510
  72   1.0000      -0.388626       -10.5750
  73   1.0000      -0.376955       -10.2575
  74   1.0000      -0.376368       -10.2415
  75   1.0000      -0.374884       -10.2011
  76   1.0000      -0.372091       -10.1251
  77   1.0000      -0.369603       -10.0574
  78   1.0000      -0.364610        -9.9215
  79   1.0000      -0.360271        -9.8035
  80   1.0000      -0.360045        -9.7973
  81   1.0000      -0.358261        -9.7488
  82   1.0000      -0.356166        -9.6918
  83   1.0000      -0.354297        -9.6409
  84   1.0000      -0.353548        -9.6205
  85   1.0000      -0.351035        -9.5521
  86   1.0000      -0.350263        -9.5311
  87   1.0000      -0.348161        -9.4739
  88   1.0000      -0.345852        -9.4111
  89   1.0000      -0.344051        -9.3621
  90   1.0000      -0.343479        -9.3465
  91   1.0000      -0.342305        -9.3146
  92   1.0000      -0.341242        -9.2857
  93   1.0000      -0.338864        -9.2210
  94   1.0000      -0.335155        -9.1200
  95   1.0000      -0.334507        -9.1024
  96   1.0000      -0.331809        -9.0290
  97   1.0000      -0.329693        -8.9714
  98   1.0000      -0.328790        -8.9468
  99   1.0000      -0.327560        -8.9133
 100   1.0000      -0.321457        -8.7473
 101   1.0000      -0.317909        -8.6507
 102   1.0000      -0.316430        -8.6105
 103   1.0000      -0.315118        -8.5748
 104   1.0000      -0.312573        -8.5056
 105   1.0000      -0.307923        -8.3790
 106   1.0000      -0.305625        -8.3165
 107   1.0000      -0.304098        -8.2749
 108   1.0000      -0.301546        -8.2055
 109   1.0000      -0.300611        -8.1800
 110   1.0000      -0.294466        -8.0128
 111   1.0000      -0.291509        -7.9324
 112   1.0000      -0.289485        -7.8773
 113   1.0000      -0.287327        -7.8186
 114   1.0000      -0.285907        -7.7799
 115   1.0000      -0.282630        -7.6908
 116   1.0000      -0.280630        -7.6363
 117   1.0000      -0.279189        -7.5971
 118   1.0000      -0.279011        -7.5923
 119   1.0000      -0.278255        -7.5717
 120   1.0000      -0.276129        -7.5138
 121   1.0000      -0.274419        -7.4673
 122   1.0000      -0.272801        -7.4233
 123   1.0000      -0.272137        -7.4052
 124   1.0000      -0.271485        -7.3875
 125   1.0000      -0.270230        -7.3533
 126   1.0000      -0.268947        -7.3184
 127   1.0000      -0.267545        -7.2803
 128   1.0000      -0.266954        -7.2642
 129   1.0000      -0.265536        -7.2256
 130   1.0000      -0.264130        -7.1874
 131   1.0000      -0.263637        -7.1739
 132   1.0000      -0.260440        -7.0869
 133   1.0000      -0.260281        -7.0826
 134   1.0000      -0.259276        -7.0553
 135   1.0000      -0.258630        -7.0377
 136   1.0000      -0.257425        -7.0049
 137   1.0000      -0.255365        -6.9488
 138   1.0000      -0.254934        -6.9371
 139   1.0000      -0.252852        -6.8805
 140   1.0000      -0.251562        -6.8454
 141   1.0000      -0.251276        -6.8376
 142   1.0000      -0.250866        -6.8264
 143   1.0000      -0.249767        -6.7965
 144   1.0000      -0.249204        -6.7812
 145   1.0000      -0.248486        -6.7617
 146   1.0000      -0.247325        -6.7301
 147   1.0000      -0.245991        -6.6937
 148   1.0000      -0.245652        -6.6845
 149   1.0000      -0.243390        -6.6230
 150   1.0000      -0.241646        -6.5755
 151   1.0000      -0.239965        -6.5298
 152   1.0000      -0.233170        -6.3449
 153   1.0000      -0.219003        -5.9594
 154   1.0000      -0.211198        -5.7470
 155   1.0000      -0.209630        -5.7043
 156   1.0000      -0.202874        -5.5205
 157   0.0000      -0.186715        -5.0808
 158   0.0000      -0.153985        -4.1901
 159   0.0000      -0.135687        -3.6922
 160   0.0000      -0.133096        -3.6217
 161   0.0000      -0.126860        -3.4520

                 SPIN DOWN ORBITALS
  NO   OCC          E(Eh)            E(eV)
   0   1.0000    -234.209137     -6373.1546
   1   1.0000     -26.833971      -730.1895
   2   1.0000     -22.999506      -625.8484
   3   1.0000     -22.998472      -625.8202
   4   1.0000     -22.998246      -625.8141
   5   1.0000      -4.040526      -109.9483
   6   1.0000      -4.037973      -109.8788
   7   1.0000      -4.035089      -109.8004
   8   1.0000      -4.031642      -109.7066
   9   1.0000      -4.031258      -109.6961
  10   1.0000      -4.030518      -109.6760
  11   1.0000      -4.028427      -109.6191
  12   1.0000      -4.027983      -109.6070
  13   1.0000      -4.027774      -109.6013
  14   1.0000      -4.027341      -109.5895
  15   1.0000      -4.026999      -109.5802
  16   1.0000      -4.026606      -109.5695
  17   1.0000      -4.025659      -109.5437
  18   1.0000      -4.025245      -109.5325
  19   1.0000      -4.024816      -109.5208
  20   1.0000      -2.946973       -80.1912
  21   1.0000      -2.255340       -61.3709
  22   1.0000      -2.253615       -61.3240
  23   1.0000      -2.252527       -61.2944
  24   1.0000      -2.251337       -61.2620
  25   1.0000      -2.251274       -61.2603
  26   1.0000      -2.250084       -61.2279
  27   1.0000      -2.248899       -61.1957
  28   1.0000      -2.248505       -61.1849
  29   1.0000      -2.247659       -61.1619
  30   1.0000      -2.247035       -61.1449
  31   1.0000      -2.246943       -61.1424
  32   1.0000      -2.246021       -61.1173
  33   1.0000      -2.245580       -61.1053
  34   1.0000      -2.244770       -61.0833
  35   1.0000      -2.244166       -61.0669
  36   1.0000      -2.243680       -61.0536
  37   1.0000      -2.243291       -61.0430
  38   1.0000      -2.242746       -61.0282
  39   1.0000      -2.242709       -61.0272
  40   1.0000      -2.242439       -61.0199
  41   1.0000      -2.242252       -61.0148
  42   1.0000      -2.241750       -61.0011
  43   1.0000      -2.241456       -60.9931
  44   1.0000      -2.241368       -60.9907
  45   1.0000      -2.241118       -60.9839
  46   1.0000      -2.240723       -60.9732
  47   1.0000      -2.240518       -60.9676
  48   1.0000      -2.240163       -60.9579
  49   1.0000      -2.239960       -60.9524
  50   1.0000      -2.239427       -60.9379
  51   1.0000      -2.239010       -60.9266
  52   1.0000      -2.238774       -60.9201
  53   1.0000      -2.238469       -60.9118
  54   1.0000      -2.238292       -60.9070
  55   1.0000      -2.238237       -60.9055
  56   1.0000      -2.238084       -60.9014
  57   1.0000      -2.237992       -60.8989
  58   1.0000      -2.237749       -60.8923
  59   1.0000      -2.237614       -60.8886
  60   1.0000      -2.237460       -60.8844
  61   1.0000      -2.237085       -60.8742
  62   1.0000      -2.236639       -60.8620
  63   1.0000      -2.236542       -60.8594
  64   1.0000      -2.235422       -60.8289
  65   1.0000      -2.234983       -60.8170
  66   1.0000      -1.854017       -50.4504
  67   1.0000      -1.852589       -50.4115
  68   1.0000      -1.851352       -50.3778
  69   1.0000      -0.430097       -11.7035
  70   1.0000      -0.391653       -10.6574
  71   1.0000      -0.390700       -10.6315
  72   1.0000      -0.387100       -10.5335
  73   1.0000      -0.373521       -10.1640
  74   1.0000      -0.371148       -10.0995
  75   1.0000      -0.369808       -10.0630
  76   1.0000      -0.367524       -10.0008
  77   1.0000      -0.366371        -9.9695
  78   1.0000      -0.363154        -9.8819
  79   1.0000      -0.360051        -9.7975
  80   1.0000      -0.359356        -9.7786
  81   1.0000      -0.357336        -9.7236
  82   1.0000      -0.355048        -9.6614
  83   1.0000      -0.353508        -9.6194
  84   1.0000      -0.353367        -9.6156
  85   1.0000      -0.350851        -9.5472
  86   1.0000      -0.349282        -9.5044
  87   1.0000      -0.347719        -9.4619
  88   1.0000      -0.344878        -9.3846
  89   1.0000      -0.342824        -9.3287
  90   1.0000      -0.342335        -9.3154
  91   1.0000      -0.341581        -9.2949
  92   1.0000      -0.339163        -9.2291
  93   1.0000      -0.337655        -9.1881
  94   1.0000      -0.334416        -9.0999
  95   1.0000      -0.333061        -9.0631
  96   1.0000      -0.329800        -8.9743
  97   1.0000      -0.328206        -8.9309
  98   1.0000      -0.326664        -8.8890
  99   1.0000      -0.326457        -8.8833
 100   1.0000      -0.320972        -8.7341
 101   1.0000      -0.315986        -8.5984
 102   1.0000      -0.313623        -8.5341
 103   1.0000      -0.311994        -8.4898
 104   1.0000      -0.310524        -8.4498
 105   1.0000      -0.304993        -8.2993
 106   1.0000      -0.301738        -8.2107
 107   1.0000      -0.298898        -8.1334
 108   1.0000      -0.298216        -8.1149
 109   1.0000      -0.295133        -8.0310
 110   1.0000      -0.290331        -7.9003
 111   1.0000      -0.289176        -7.8689
 112   1.0000      -0.289129        -7.8676
 113   1.0000      -0.285668        -7.7734
 114   1.0000      -0.283983        -7.7276
 115   1.0000      -0.281610        -7.6630
 116   1.0000      -0.278971        -7.5912
 117   1.0000      -0.278585        -7.5807
 118   1.0000      -0.278266        -7.5720
 119   1.0000      -0.276169        -7.5149
 120   1.0000      -0.274773        -7.4769
 121   1.0000      -0.273621        -7.4456
 122   1.0000      -0.272614        -7.4182
 123   1.0000      -0.271392        -7.3850
 124   1.0000      -0.271057        -7.3758
 125   1.0000      -0.269578        -7.3356
 126   1.0000      -0.268958        -7.3187
 127   1.0000      -0.266957        -7.2643
 128   1.0000      -0.265883        -7.2351
 129   1.0000      -0.264465        -7.1965
 130   1.0000      -0.262148        -7.1334
 131   1.0000      -0.261636        -7.1195
 132   1.0000      -0.260352        -7.0845
 133   1.0000      -0.258721        -7.0401
 134   1.0000      -0.257442        -7.0054
 135   1.0000      -0.255546        -6.9538
 136   1.0000      -0.254222        -6.9177
 137   1.0000      -0.251938        -6.8556
 138   1.0000      -0.251470        -6.8429
 139   1.0000      -0.249715        -6.7951
 140   1.0000      -0.248791        -6.7699
 141   1.0000      -0.247803        -6.7431
 142   1.0000      -0.246684        -6.7126
 143   1.0000      -0.246298        -6.7021
 144   1.0000      -0.244798        -6.6613
 145   1.0000      -0.242249        -6.5919
 146   1.0000      -0.240437        -6.5426
 147   1.0000      -0.233777        -6.3614
 148   1.0000      -0.225515        -6.1366
 149   1.0000      -0.219406        -5.9703
 150   1.0000      -0.216174        -5.8824
 151   1.0000      -0.212552        -5.7838
 152   1.0000      -0.197834        -5.3833
 153   0.0000      -0.151852        -4.1321
 154   0.0000      -0.138741        -3.7753
 155   0.0000      -0.136501        -3.7144
 156   0.0000      -0.133741        -3.6393
 157   0.0000      -0.133095        -3.6217

MULLIKEN ATOMIC CHARGES AND SPIN POPULATIONS
--------------------------------------------
   0 Au:    0.290804    0.010810
   1 Au:    0.276359   -0.007980
   2 Au:    0.176194   -0.011425
   3 Au:    0.086584   -0.078812
   4 Au:    0.296647   -0.011058
   5 Au:    0.237571   -0.044524
   6 Au:   -0.069636    0.010197
   7 Au:   -0.195984   -0.072067
   8 Au:    0.212972   -0.040892
   9 Au:    0.424366    0.006422
  10 Au:    0.072746   -0.020859
  11 Au:    0.189325    0.045265
  12 Au:    0.129141   -0.000205
  13 Au:    0.159215   -0.021050
  14 Au:    0.227511    0.033788
  15 Mn:   -2.513816    4.202387
Sum of atomic charges         :    0.0000000

LOEWDIN ATOMIC CHARGES AND SPIN POPULATIONS
-------------------------------------------
   0 Au:    0.072698   -0.023240
   1 Au:    0.054959   -0.024328
   2 Au:    0.012061   -0.003483
   3 Au:    0.021310   -0.025327
   4 Au:    0.063995   -0.040346
   5 Au:    0.068400   -0.045722
   6 Au:   -0.035817    0.016846
   7 Au:   -0.003933   -0.032678
   8 Au:    0.037524   -0.017134
   9 Au:    0.092903   -0.019275
  10 Au:    0.009612    0.001002
  11 Au:    0.016264    0.014831
  12 Au:    0.014550   -0.035453
  13 Au:    0.028185   -0.043829
  14 Au:    0.019753    0.001173
  15 Mn:   -0.472465    4.276966

  Mayer bond orders larger than 0.100000
B(  0-Au,  1-Au) :   0.2546 B(  0-Au,  8-Au) :   0.1897 B(  0-Au, 10-Au) :   0.1523
B(  0-Au, 11-Au) :   0.2682 B(  0-Au, 15-Mn) :   0.4097 B(  1-Au,  4-Au) :   0.2018
B(  1-Au,  6-Au) :   0.2577 B(  1-Au, 10-Au) :   0.2099 B(  1-Au, 15-Mn) :   0.3303
B(  2-Au,  3-Au) :   0.1791 B(  2-Au,  5-Au) :   0.2812 B(  2-Au, 11-Au) :   0.2252
B(  2-Au, 13-Au) :   0.2648 B(  2-Au, 14-Au) :   0.2437 B(  2-Au, 15-Mn) :   0.2675
B(  3-Au,  4-Au) :   0.2522 B(  3-Au,  5-Au) :   0.1701 B(  3-Au, 12-Au) :   0.2156
B(  3-Au, 13-Au) :   0.2202 B(  3-Au, 15-Mn) :   0.4984 B(  4-Au,  5-Au) :   0.2625
B(  4-Au,  6-Au) :   0.3151 B(  4-Au, 15-Mn) :   0.2940 B(  5-Au, 11-Au) :   0.1823
B(  5-Au, 15-Mn) :   0.4138 B(  6-Au,  9-Au) :   0.2949 B(  6-Au, 10-Au) :   0.1401
B(  6-Au, 12-Au) :   0.3037 B(  6-Au, 15-Mn) :   0.3736 B(  7-Au,  8-Au) :   0.2468
B(  7-Au,  9-Au) :   0.3436 B(  7-Au, 10-Au) :   0.1690 B(  7-Au, 12-Au) :   0.1974
B(  7-Au, 13-Au) :   0.2200 B(  7-Au, 14-Au) :   0.2705 B(  7-Au, 15-Mn) :   0.4568
B(  8-Au, 10-Au) :   0.2136 B(  8-Au, 11-Au) :   0.1939 B(  8-Au, 14-Au) :   0.2637
B(  8-Au, 15-Mn) :   0.3858 B(  9-Au, 10-Au) :   0.2930 B(  9-Au, 12-Au) :   0.2121
B( 10-Au, 15-Mn) :   0.4424 B( 11-Au, 14-Au) :   0.2269 B( 11-Au, 15-Mn) :   0.3837
B( 12-Au, 13-Au) :   0.3269 B( 12-Au, 15-Mn) :   0.2272 B( 13-Au, 14-Au) :   0.2517
B( 13-Au, 15-Mn) :   0.2249 B( 14-Au, 15-Mn) :   0.1902

FINAL SINGLE POINT ENERGY     -3188.219765245463

DIPOLE MOMENT
-------------
                                X             Y             Z
Electronic contribution:     -1.76736      -0.17620      13.34692
Nuclear contribution   :      1.80276       0.02722     -13.29632
                        -----------------------------------------
Total Dipole Moment    :      0.03540      -0.14898       0.05060
                        -----------------------------------------
Magnitude (a.u.)       :      0.16127
Magnitude (Debye)      :      0.40991

Rotational constants in cm-1:     0.001003     0.000915     0.000882
Rotational constants in MHz :    30.067231    27.429494    26.444937

                             ****ORCA TERMINATED NORMALLY****
TOTAL RUN TIME: 0 days 1 hours 29 minutes 39 seconds 130 msec
