                         Program Version 5.0.3 -  RELEASE  -
|  1> %pal nprocs 1 end
|  2>
|  3> !PBE def2-TZVP OPT UNO
|  4> !SLOWCONV
|  5>
|  6> *xyzfile 0 4 0.xyz                           ****END OF INPUT****
 Total Charge           Charge          ....    0
 Multiplicity           Mult            ....    4
 Number of Electrons    NEL             ....  311
FINAL SINGLE POINT ENERGY     -3300.909216150807
FINAL SINGLE POINT ENERGY     -3300.911790441844
FINAL SINGLE POINT ENERGY     -3300.912581405794
FINAL SINGLE POINT ENERGY     -3300.912818864281
FINAL SINGLE POINT ENERGY     -3300.912928304982
FINAL SINGLE POINT ENERGY     -3300.913023444975
FINAL SINGLE POINT ENERGY     -3300.913136008408
FINAL SINGLE POINT ENERGY     -3300.913202449238
FINAL SINGLE POINT ENERGY     -3300.913268236094
FINAL SINGLE POINT ENERGY     -3300.913298818324
FINAL SINGLE POINT ENERGY     -3300.913365737337
FINAL SINGLE POINT ENERGY     -3300.913395204128
FINAL SINGLE POINT ENERGY     -3300.913427003049
FINAL SINGLE POINT ENERGY     -3300.913507955630
FINAL SINGLE POINT ENERGY     -3300.913533087409
FINAL SINGLE POINT ENERGY     -3300.913550166487
FINAL SINGLE POINT ENERGY     -3300.913564854684
FINAL SINGLE POINT ENERGY     -3300.913570817496
FINAL SINGLE POINT ENERGY     -3300.913575521234
                    ***********************HURRAY********************

CARTESIAN COORDINATES (ANGSTROEM)
---------------------------------
  Au     5.839519    7.640475    6.352083
  Au     8.487067    7.712724    5.479422
  Au     9.787321    9.930869    6.866947
  Au     7.064485   10.158374    6.330896
  Au    10.399795    7.256073    7.543557
  Au     7.975602    5.674376    7.342465
  Au     5.506384    9.537731    8.518293
  Au     8.035081   10.845354    8.910250
  Au     3.913629    7.250806    8.374083
  Au     6.366360    6.308195    9.603727
  Au     5.286864    5.076011    7.316375
  Au     4.791247    8.204616   10.870980
  Au     7.472520    8.790877   10.773149
  Au     9.088841    6.383742    9.863883
  Au    10.032202    9.038419    9.720428
  Fe     7.937782    8.259554    8.123400

 Multiplicity           Mult            ....    4
 Number of Electrons    NEL             ....  311
 Basis Dimension        Dim             ....  645

ORBITAL ENERGIES
----------------
                 SPIN UP ORBITALS
  NO   OCC          E(Eh)            E(eV)
   0   1.0000    -254.752418     -6932.1657
   1   1.0000     -29.588591      -805.1465
   2   1.0000     -25.530418      -694.7180
   3   1.0000     -25.526790      -694.6193
   4   1.0000     -25.515039      -694.2995
   5   1.0000      -4.038164      -109.8840
   6   1.0000      -4.033555      -109.7586
   7   1.0000      -4.032350      -109.7258
   8   1.0000      -4.031515      -109.7031
   9   1.0000      -4.031473      -109.7019
  10   1.0000      -4.031201      -109.6945
  11   1.0000      -4.031179      -109.6939
  12   1.0000      -4.030216      -109.6677
  13   1.0000      -4.028020      -109.6080
  14   1.0000      -4.027615      -109.5970
  15   1.0000      -4.026723      -109.5727
  16   1.0000      -4.024309      -109.5070
  17   1.0000      -4.021080      -109.4191
  18   1.0000      -4.018744      -109.3556
  19   1.0000      -4.018378      -109.3456
  20   1.0000      -3.367681       -91.6392
  21   1.0000      -2.253689       -61.3260
  22   1.0000      -2.251702       -61.2719
  23   1.0000      -2.250903       -61.2502
  24   1.0000      -2.249262       -61.2055
  25   1.0000      -2.248827       -61.1937
  26   1.0000      -2.248001       -61.1712
  27   1.0000      -2.247201       -61.1494
  28   1.0000      -2.246775       -61.1379
  29   1.0000      -2.246381       -61.1271
  30   1.0000      -2.245967       -61.1159
  31   1.0000      -2.245273       -61.0970
  32   1.0000      -2.245032       -61.0904
  33   1.0000      -2.244783       -61.0837
  34   1.0000      -2.244430       -61.0740
  35   1.0000      -2.244132       -61.0659
  36   1.0000      -2.243672       -61.0534
  37   1.0000      -2.243539       -61.0498
  38   1.0000      -2.243102       -61.0379
  39   1.0000      -2.243051       -61.0365
  40   1.0000      -2.242994       -61.0350
  41   1.0000      -2.242353       -61.0175
  42   1.0000      -2.242090       -61.0104
  43   1.0000      -2.241768       -61.0016
  44   1.0000      -2.241439       -60.9926
  45   1.0000      -2.240974       -60.9800
  46   1.0000      -2.240752       -60.9740
  47   1.0000      -2.240275       -60.9610
  48   1.0000      -2.239975       -60.9528
  49   1.0000      -2.239665       -60.9444
  50   1.0000      -2.239468       -60.9390
  51   1.0000      -2.238756       -60.9197
  52   1.0000      -2.238590       -60.9151
  53   1.0000      -2.238212       -60.9048
  54   1.0000      -2.237462       -60.8844
  55   1.0000      -2.237154       -60.8761
  56   1.0000      -2.235550       -60.8324
  57   1.0000      -2.234570       -60.8057
  58   1.0000      -2.234480       -60.8033
  59   1.0000      -2.233750       -60.7834
  60   1.0000      -2.232958       -60.7619
  61   1.0000      -2.232606       -60.7523
  62   1.0000      -2.231743       -60.7288
  63   1.0000      -2.230909       -60.7061
  64   1.0000      -2.229517       -60.6682
  65   1.0000      -2.229171       -60.6588
  66   1.0000      -2.194429       -59.7134
  67   1.0000      -2.187391       -59.5219
  68   1.0000      -2.163009       -58.8585
  69   1.0000      -0.442952       -12.0533
  70   1.0000      -0.397223       -10.8090
  71   1.0000      -0.393009       -10.6943
  72   1.0000      -0.390553       -10.6275
  73   1.0000      -0.382493       -10.4082
  74   1.0000      -0.378230       -10.2922
  75   1.0000      -0.376475       -10.2444
  76   1.0000      -0.373733       -10.1698
  77   1.0000      -0.371623       -10.1124
  78   1.0000      -0.366407        -9.9704
  79   1.0000      -0.362461        -9.8631
  80   1.0000      -0.361912        -9.8481
  81   1.0000      -0.355576        -9.6757
  82   1.0000      -0.353864        -9.6291
  83   1.0000      -0.352796        -9.6001
  84   1.0000      -0.352239        -9.5849
  85   1.0000      -0.349066        -9.4986
  86   1.0000      -0.347011        -9.4427
  87   1.0000      -0.345978        -9.4146
  88   1.0000      -0.344070        -9.3626
  89   1.0000      -0.343154        -9.3377
  90   1.0000      -0.341407        -9.2902
  91   1.0000      -0.339828        -9.2472
  92   1.0000      -0.337805        -9.1921
  93   1.0000      -0.333987        -9.0883
  94   1.0000      -0.332540        -9.0489
  95   1.0000      -0.331534        -9.0215
  96   1.0000      -0.327688        -8.9169
  97   1.0000      -0.324512        -8.8304
  98   1.0000      -0.321112        -8.7379
  99   1.0000      -0.318933        -8.6786
 100   1.0000      -0.317672        -8.6443
 101   1.0000      -0.315448        -8.5838
 102   1.0000      -0.312826        -8.5124
 103   1.0000      -0.310438        -8.4475
 104   1.0000      -0.308809        -8.4031
 105   1.0000      -0.305488        -8.3128
 106   1.0000      -0.304493        -8.2857
 107   1.0000      -0.301011        -8.1909
 108   1.0000      -0.299997        -8.1633
 109   1.0000      -0.296505        -8.0683
 110   1.0000      -0.291318        -7.9272
 111   1.0000      -0.289773        -7.8851
 112   1.0000      -0.288029        -7.8377
 113   1.0000      -0.285801        -7.7770
 114   1.0000      -0.284703        -7.7472
 115   1.0000      -0.284433        -7.7398
 116   1.0000      -0.282556        -7.6887
 117   1.0000      -0.278540        -7.5795
 118   1.0000      -0.278225        -7.5709
 119   1.0000      -0.276733        -7.5303
 120   1.0000      -0.275733        -7.5031
 121   1.0000      -0.274682        -7.4745
 122   1.0000      -0.272405        -7.4125
 123   1.0000      -0.271452        -7.3866
 124   1.0000      -0.270955        -7.3731
 125   1.0000      -0.269357        -7.3296
 126   1.0000      -0.268919        -7.3177
 127   1.0000      -0.268204        -7.2982
 128   1.0000      -0.265381        -7.2214
 129   1.0000      -0.264692        -7.2026
 130   1.0000      -0.263896        -7.1810
 131   1.0000      -0.262893        -7.1537
 132   1.0000      -0.261804        -7.1240
 133   1.0000      -0.259642        -7.0652
 134   1.0000      -0.257460        -7.0058
 135   1.0000      -0.256656        -6.9840
 136   1.0000      -0.254432        -6.9234
 137   1.0000      -0.254098        -6.9144
 138   1.0000      -0.253078        -6.8866
 139   1.0000      -0.252085        -6.8596
 140   1.0000      -0.251585        -6.8460
 141   1.0000      -0.251140        -6.8339
 142   1.0000      -0.250373        -6.8130
 143   1.0000      -0.249904        -6.8002
 144   1.0000      -0.248654        -6.7662
 145   1.0000      -0.248052        -6.7498
 146   1.0000      -0.245958        -6.6929
 147   1.0000      -0.244081        -6.6418
 148   1.0000      -0.242661        -6.6031
 149   1.0000      -0.239687        -6.5222
 150   1.0000      -0.238318        -6.4850
 151   1.0000      -0.235598        -6.4109
 152   1.0000      -0.233608        -6.3568
 153   1.0000      -0.218741        -5.9523
 154   1.0000      -0.212146        -5.7728
 155   1.0000      -0.200491        -5.4556
 156   1.0000      -0.192792        -5.2461
 157   0.0000      -0.186110        -5.0643
 158   0.0000      -0.149854        -4.0777
 159   0.0000      -0.140315        -3.8182
 160   0.0000      -0.136337        -3.7099
 161   0.0000      -0.125460        -3.4139

                 SPIN DOWN ORBITALS
  NO   OCC          E(Eh)            E(eV)
   0   1.0000    -254.751769     -6932.1480
   1   1.0000     -29.531136      -803.5831
   2   1.0000     -25.484600      -693.4712
   3   1.0000     -25.482251      -693.4073
   4   1.0000     -25.475281      -693.2176
   5   1.0000      -4.037788      -109.8738
   6   1.0000      -4.033470      -109.7563
   7   1.0000      -4.031730      -109.7090
   8   1.0000      -4.031566      -109.7045
   9   1.0000      -4.031301      -109.6973
  10   1.0000      -4.031162      -109.6935
  11   1.0000      -4.030933      -109.6873
  12   1.0000      -4.030007      -109.6621
  13   1.0000      -4.027808      -109.6022
  14   1.0000      -4.027295      -109.5883
  15   1.0000      -4.026716      -109.5725
  16   1.0000      -4.024965      -109.5249
  17   1.0000      -4.021273      -109.4244
  18   1.0000      -4.018828      -109.3579
  19   1.0000      -4.018260      -109.3424
  20   1.0000      -3.237389       -88.0938
  21   1.0000      -2.253173       -61.3119
  22   1.0000      -2.251110       -61.2558
  23   1.0000      -2.250842       -61.2485
  24   1.0000      -2.248680       -61.1897
  25   1.0000      -2.248426       -61.1828
  26   1.0000      -2.248100       -61.1739
  27   1.0000      -2.247299       -61.1521
  28   1.0000      -2.246386       -61.1273
  29   1.0000      -2.246113       -61.1198
  30   1.0000      -2.245813       -61.1117
  31   1.0000      -2.245031       -61.0904
  32   1.0000      -2.244465       -61.0750
  33   1.0000      -2.244215       -61.0682
  34   1.0000      -2.244121       -61.0656
  35   1.0000      -2.243643       -61.0526
  36   1.0000      -2.243542       -61.0499
  37   1.0000      -2.243438       -61.0471
  38   1.0000      -2.242962       -61.0341
  39   1.0000      -2.242938       -61.0335
  40   1.0000      -2.242826       -61.0304
  41   1.0000      -2.242233       -61.0143
  42   1.0000      -2.241741       -61.0009
  43   1.0000      -2.241443       -60.9928
  44   1.0000      -2.241123       -60.9840
  45   1.0000      -2.240855       -60.9768
  46   1.0000      -2.240667       -60.9716
  47   1.0000      -2.240217       -60.9594
  48   1.0000      -2.240056       -60.9550
  49   1.0000      -2.239351       -60.9358
  50   1.0000      -2.239240       -60.9328
  51   1.0000      -2.239159       -60.9306
  52   1.0000      -2.238684       -60.9177
  53   1.0000      -2.238302       -60.9073
  54   1.0000      -2.237655       -60.8897
  55   1.0000      -2.237233       -60.8782
  56   1.0000      -2.236474       -60.8575
  57   1.0000      -2.234699       -60.8092
  58   1.0000      -2.234640       -60.8077
  59   1.0000      -2.233758       -60.7836
  60   1.0000      -2.233274       -60.7705
  61   1.0000      -2.232520       -60.7500
  62   1.0000      -2.231731       -60.7285
  63   1.0000      -2.230996       -60.7085
  64   1.0000      -2.229540       -60.6689
  65   1.0000      -2.229027       -60.6549
  66   1.0000      -2.060017       -56.0559
  67   1.0000      -2.056935       -55.9721
  68   1.0000      -2.045181       -55.6522
  69   1.0000      -0.439053       -11.9472
  70   1.0000      -0.396568       -10.7912
  71   1.0000      -0.392890       -10.6911
  72   1.0000      -0.389988       -10.6121
  73   1.0000      -0.376680       -10.2500
  74   1.0000      -0.372104       -10.1255
  75   1.0000      -0.370572       -10.0838
  76   1.0000      -0.368830       -10.0364
  77   1.0000      -0.367997       -10.0137
  78   1.0000      -0.364890        -9.9292
  79   1.0000      -0.360685        -9.8147
  80   1.0000      -0.358638        -9.7590
  81   1.0000      -0.355137        -9.6638
  82   1.0000      -0.352676        -9.5968
  83   1.0000      -0.352251        -9.5852
  84   1.0000      -0.351895        -9.5756
  85   1.0000      -0.348171        -9.4742
  86   1.0000      -0.345891        -9.4122
  87   1.0000      -0.344754        -9.3812
  88   1.0000      -0.343568        -9.3490
  89   1.0000      -0.342908        -9.3310
  90   1.0000      -0.341084        -9.2814
  91   1.0000      -0.339215        -9.2305
  92   1.0000      -0.338113        -9.2005
  93   1.0000      -0.333832        -9.0840
  94   1.0000      -0.331659        -9.0249
  95   1.0000      -0.330896        -9.0041
  96   1.0000      -0.326701        -8.8900
  97   1.0000      -0.324212        -8.8223
  98   1.0000      -0.320352        -8.7172
  99   1.0000      -0.316606        -8.6153
 100   1.0000      -0.315788        -8.5930
 101   1.0000      -0.313819        -8.5395
 102   1.0000      -0.311489        -8.4760
 103   1.0000      -0.309006        -8.4085
 104   1.0000      -0.305375        -8.3097
 105   1.0000      -0.304192        -8.2775
 106   1.0000      -0.299471        -8.1490
 107   1.0000      -0.294218        -8.0061
 108   1.0000      -0.293019        -7.9735
 109   1.0000      -0.290883        -7.9153
 110   1.0000      -0.287241        -7.8162
 111   1.0000      -0.286957        -7.8085
 112   1.0000      -0.285120        -7.7585
 113   1.0000      -0.284168        -7.7326
 114   1.0000      -0.283473        -7.7137
 115   1.0000      -0.281907        -7.6711
 116   1.0000      -0.280676        -7.6376
 117   1.0000      -0.277385        -7.5480
 118   1.0000      -0.277204        -7.5431
 119   1.0000      -0.275010        -7.4834
 120   1.0000      -0.274541        -7.4707
 121   1.0000      -0.273547        -7.4436
 122   1.0000      -0.271455        -7.3867
 123   1.0000      -0.271009        -7.3745
 124   1.0000      -0.270113        -7.3501
 125   1.0000      -0.268715        -7.3121
 126   1.0000      -0.268555        -7.3077
 127   1.0000      -0.267540        -7.2801
 128   1.0000      -0.265076        -7.2131
 129   1.0000      -0.264262        -7.1909
 130   1.0000      -0.263609        -7.1732
 131   1.0000      -0.262524        -7.1436
 132   1.0000      -0.261397        -7.1130
 133   1.0000      -0.258393        -7.0312
 134   1.0000      -0.256492        -6.9795
 135   1.0000      -0.255494        -6.9523
 136   1.0000      -0.253742        -6.9047
 137   1.0000      -0.253453        -6.8968
 138   1.0000      -0.251767        -6.8509
 139   1.0000      -0.251494        -6.8435
 140   1.0000      -0.248999        -6.7756
 141   1.0000      -0.248274        -6.7559
 142   1.0000      -0.246519        -6.7081
 143   1.0000      -0.244698        -6.6586
 144   1.0000      -0.243236        -6.6188
 145   1.0000      -0.240869        -6.5544
 146   1.0000      -0.239692        -6.5223
 147   1.0000      -0.234442        -6.3795
 148   1.0000      -0.222882        -6.0649
 149   1.0000      -0.219445        -5.9714
 150   1.0000      -0.208581        -5.6758
 151   1.0000      -0.204733        -5.5711
 152   1.0000      -0.202109        -5.4997
 153   1.0000      -0.174622        -4.7517
 154   0.0000      -0.159631        -4.3438
 155   0.0000      -0.158504        -4.3131
 156   0.0000      -0.157439        -4.2841
 157   0.0000      -0.148325        -4.0361
 158   0.0000      -0.142469        -3.8768

MULLIKEN ATOMIC CHARGES AND SPIN POPULATIONS
--------------------------------------------
   0 Au:   -0.203041    0.024003
   1 Au:    0.322358    0.041475
   2 Au:    0.235350    0.012498
   3 Au:    0.382903    0.010942
   4 Au:    0.352615   -0.029971
   5 Au:    0.094766   -0.066859
   6 Au:   -0.177993   -0.054197
   7 Au:    0.372297   -0.037869
   8 Au:    0.278099   -0.030035
   9 Au:   -0.354659    0.023046
  10 Au:    0.396621    0.040595
  11 Au:    0.405576   -0.010100
  12 Au:    0.022656    0.069569
  13 Au:    0.297670    0.014661
  14 Au:    0.338410    0.025379
  15 Fe:   -2.763627    2.966862
Sum of atomic charges         :    0.0000000

LOEWDIN ATOMIC CHARGES AND SPIN POPULATIONS
-------------------------------------------
   0 Au:   -0.025981    0.006608
   1 Au:    0.091045   -0.005036
   2 Au:    0.049101   -0.007888
   3 Au:    0.083679   -0.017550
   4 Au:    0.070878   -0.024175
   5 Au:    0.023218   -0.013037
   6 Au:   -0.011864   -0.027807
   7 Au:    0.085073   -0.015921
   8 Au:    0.002032   -0.011373
   9 Au:   -0.074766   -0.002214
  10 Au:    0.093785    0.028632
  11 Au:    0.109294   -0.023978
  12 Au:    0.021361    0.021118
  13 Au:    0.090638   -0.017206
  14 Au:    0.062932    0.010895
  15 Fe:   -0.670425    3.098930

  Mayer bond orders larger than 0.100000
B(  0-Au,  1-Au) :   0.2367 B(  0-Au,  3-Au) :   0.2028 B(  0-Au,  5-Au) :   0.1685
B(  0-Au,  6-Au) :   0.2189 B(  0-Au,  8-Au) :   0.2811 B(  0-Au,  9-Au) :   0.1235
B(  0-Au, 10-Au) :   0.2690 B(  0-Au, 15-Fe) :   0.4651 B(  1-Au,  2-Au) :   0.1528
B(  1-Au,  4-Au) :   0.1606 B(  1-Au,  5-Au) :   0.2076 B(  1-Au, 15-Fe) :   0.4603
B(  2-Au,  3-Au) :   0.2488 B(  2-Au,  4-Au) :   0.1980 B(  2-Au,  7-Au) :   0.2148
B(  2-Au, 14-Au) :   0.1132 B(  2-Au, 15-Fe) :   0.4141 B(  3-Au,  6-Au) :   0.2933
B(  3-Au,  7-Au) :   0.1445 B(  3-Au, 15-Fe) :   0.4248 B(  4-Au,  5-Au) :   0.1709
B(  4-Au, 13-Au) :   0.1974 B(  4-Au, 14-Au) :   0.2039 B(  4-Au, 15-Fe) :   0.4068
B(  5-Au,  9-Au) :   0.2475 B(  5-Au, 10-Au) :   0.3187 B(  5-Au, 13-Au) :   0.1570
B(  5-Au, 15-Fe) :   0.4767 B(  6-Au,  7-Au) :   0.1538 B(  6-Au,  8-Au) :   0.2880
B(  6-Au,  9-Au) :   0.1254 B(  6-Au, 11-Au) :   0.2704 B(  6-Au, 12-Au) :   0.1417
B(  6-Au, 15-Fe) :   0.4830 B(  7-Au, 12-Au) :   0.1839 B(  7-Au, 14-Au) :   0.1794
B(  7-Au, 15-Fe) :   0.4499 B(  8-Au,  9-Au) :   0.2148 B(  8-Au, 10-Au) :   0.2463
B(  8-Au, 11-Au) :   0.2198 B(  9-Au, 10-Au) :   0.2927 B(  9-Au, 11-Au) :   0.3145
B(  9-Au, 12-Au) :   0.1519 B(  9-Au, 13-Au) :   0.3208 B(  9-Au, 15-Fe) :   0.3446
B( 11-Au, 12-Au) :   0.3527 B( 12-Au, 14-Au) :   0.2833 B( 12-Au, 15-Fe) :   0.4962
B( 13-Au, 14-Au) :   0.1758 B( 13-Au, 15-Fe) :   0.4781 B( 14-Au, 15-Fe) :   0.4072

FINAL SINGLE POINT ENERGY     -3300.913579860003

DIPOLE MOMENT
-------------
                                X             Y             Z
Electronic contribution:    -22.97606     -10.44463       5.19307
Nuclear contribution   :     22.98813      10.41028      -5.13684
                        -----------------------------------------
Total Dipole Moment    :      0.01206      -0.03435       0.05623
                        -----------------------------------------
Magnitude (a.u.)       :      0.06699
Magnitude (Debye)      :      0.17026

Rotational constants in cm-1:     0.001134     0.000887     0.000825
Rotational constants in MHz :    33.996785    26.579139    24.735057

                             ****ORCA TERMINATED NORMALLY****
TOTAL RUN TIME: 0 days 6 hours 32 minutes 48 seconds 322 msec
