                         Program Version 5.0.3 -  RELEASE  -
|  1> !RI-B2PLYP def2-TZVP def2-TZVP/C
|  2> !RIJCOSX VERYSLOWCONV
|  3>
|  4> %scf
|  5>   AutoTRAHIter 200
|  6>   maxiter 400
|  7> end
|  8>
|  9>
| 10> %pal nprocs 6 end
| 11>
| 12> *xyzfile 0 5 pbe.xyz
| 13>
| 14> $new_job
| 15>
| 16> !RI-B2PLYP def2-TZVP def2-TZVP/C
| 17> !RIJCOSX VERYSLOWCONV
| 18>
| 19> %scf
| 20>   AutoTRAHIter 200
| 21>   maxiter 400
| 22> end
| 23>
| 24>
| 25> %pal nprocs 6 end
| 26>
| 27> *xyzfile 0 3 pbe.xyz
| 28>
| 29>
| 30>
| 31>
| 32>
| 33>                          ****END OF INPUT****
 Total Charge           Charge          ....    0
 Multiplicity           Mult            ....    5
 Number of Electrons    NEL             ....  254
MP2 TOTAL ENERGY:    -2890.538661469 Eh
FINAL SINGLE POINT ENERGY     -2890.538661468961

CARTESIAN COORDINATES (ANGSTROEM)
---------------------------------
  Au     6.029159    5.985135    8.200795
  Au     6.735772    8.319751    6.729576
  Au     6.207776    8.269865    9.646008
  Au     6.824230    3.688658    6.919889
  Au     8.209965    5.946300    6.187802
  Au     9.683936    8.205883    6.445952
  Au    10.039245    6.109177   10.347350
  Au    10.758792    8.592988    8.902349
  Au    11.211308    8.239674   11.589825
  Au     8.575700    8.623227   10.913862
  Au     8.308418    9.953230    8.408998
  Au     8.581044    4.598664    8.800915
  Fe     8.414923    7.241966    8.574389

 Multiplicity           Mult            ....    3
 Number of Electrons    NEL             ....  254
 Basis Dimension        Dim             ....  525

ORBITAL ENERGIES
----------------
                 SPIN UP ORBITALS
  NO   OCC          E(Eh)            E(eV)
   0   1.0000    -258.332046     -7029.5724
   1   1.0000     -30.893039      -840.6423
   2   1.0000     -26.609632      -724.0849
   3   1.0000     -26.589943      -723.5491
   4   1.0000     -26.573870      -723.1118
   5   1.0000      -4.399833      -119.7256
   6   1.0000      -4.399041      -119.7040
   7   1.0000      -4.398997      -119.7028
   8   1.0000      -4.398699      -119.6947
   9   1.0000      -4.398641      -119.6931
  10   1.0000      -4.396448      -119.6334
  11   1.0000      -4.393703      -119.5587
  12   1.0000      -4.393498      -119.5532
  13   1.0000      -4.393357      -119.5493
  14   1.0000      -4.393263      -119.5468
  15   1.0000      -4.388168      -119.4081
  16   1.0000      -4.388048      -119.4049
  17   1.0000      -3.905138      -106.2642
  18   1.0000      -2.651692       -72.1562
  19   1.0000      -2.611416       -71.0602
  20   1.0000      -2.577518       -70.1378
  21   1.0000      -2.522538       -68.6418
  22   1.0000      -2.522394       -68.6378
  23   1.0000      -2.521291       -68.6078
  24   1.0000      -2.520657       -68.5906
  25   1.0000      -2.519159       -68.5498
  26   1.0000      -2.518666       -68.5364
  27   1.0000      -2.518588       -68.5343
  28   1.0000      -2.518072       -68.5202
  29   1.0000      -2.516609       -68.4804
  30   1.0000      -2.516300       -68.4720
  31   1.0000      -2.515434       -68.4484
  32   1.0000      -2.515228       -68.4428
  33   1.0000      -2.514966       -68.4357
  34   1.0000      -2.514505       -68.4231
  35   1.0000      -2.513689       -68.4010
  36   1.0000      -2.513537       -68.3968
  37   1.0000      -2.513087       -68.3846
  38   1.0000      -2.512672       -68.3733
  39   1.0000      -2.512422       -68.3665
  40   1.0000      -2.512163       -68.3594
  41   1.0000      -2.511813       -68.3499
  42   1.0000      -2.511432       -68.3395
  43   1.0000      -2.510746       -68.3209
  44   1.0000      -2.509853       -68.2966
  45   1.0000      -2.509790       -68.2949
  46   1.0000      -2.508542       -68.2609
  47   1.0000      -2.508231       -68.2524
  48   1.0000      -2.507269       -68.2263
  49   1.0000      -2.506806       -68.2137
  50   1.0000      -2.505749       -68.1849
  51   1.0000      -2.504913       -68.1621
  52   1.0000      -2.504219       -68.1433
  53   1.0000      -2.502920       -68.1079
  54   1.0000      -2.502815       -68.1051
  55   1.0000      -2.502791       -68.1044
  56   1.0000      -2.502463       -68.0955
  57   1.0000      -0.557506       -15.1705
  58   1.0000      -0.556426       -15.1411
  59   1.0000      -0.540892       -14.7184
  60   1.0000      -0.530713       -14.4414
  61   1.0000      -0.512258       -13.9393
  62   1.0000      -0.498383       -13.5617
  63   1.0000      -0.478674       -13.0254
  64   1.0000      -0.468669       -12.7531
  65   1.0000      -0.459820       -12.5123
  66   1.0000      -0.457203       -12.4411
  67   1.0000      -0.455897       -12.4056
  68   1.0000      -0.453024       -12.3274
  69   1.0000      -0.452278       -12.3071
  70   1.0000      -0.449388       -12.2285
  71   1.0000      -0.446040       -12.1374
  72   1.0000      -0.441593       -12.0164
  73   1.0000      -0.440873       -11.9968
  74   1.0000      -0.437608       -11.9079
  75   1.0000      -0.433776       -11.8036
  76   1.0000      -0.433469       -11.7953
  77   1.0000      -0.428343       -11.6558
  78   1.0000      -0.426379       -11.6024
  79   1.0000      -0.425949       -11.5907
  80   1.0000      -0.424653       -11.5554
  81   1.0000      -0.423042       -11.5116
  82   1.0000      -0.421011       -11.4563
  83   1.0000      -0.408358       -11.1120
  84   1.0000      -0.407420       -11.0865
  85   1.0000      -0.401281       -10.9194
  86   1.0000      -0.398201       -10.8356
  87   1.0000      -0.395654       -10.7663
  88   1.0000      -0.394739       -10.7414
  89   1.0000      -0.394505       -10.7350
  90   1.0000      -0.392360       -10.6766
  91   1.0000      -0.387782       -10.5521
  92   1.0000      -0.385721       -10.4960
  93   1.0000      -0.383610       -10.4386
  94   1.0000      -0.382934       -10.4202
  95   1.0000      -0.379473       -10.3260
  96   1.0000      -0.376208       -10.2371
  97   1.0000      -0.373921       -10.1749
  98   1.0000      -0.368847       -10.0368
  99   1.0000      -0.368759       -10.0344
 100   1.0000      -0.368129       -10.0173
 101   1.0000      -0.366660        -9.9773
 102   1.0000      -0.366652        -9.9771
 103   1.0000      -0.366121        -9.9626
 104   1.0000      -0.363412        -9.8889
 105   1.0000      -0.363265        -9.8850
 106   1.0000      -0.360939        -9.8216
 107   1.0000      -0.359502        -9.7825
 108   1.0000      -0.358770        -9.7626
 109   1.0000      -0.356812        -9.7093
 110   1.0000      -0.355149        -9.6641
 111   1.0000      -0.351548        -9.5661
 112   1.0000      -0.351331        -9.5602
 113   1.0000      -0.349829        -9.5193
 114   1.0000      -0.348387        -9.4801
 115   1.0000      -0.344386        -9.3712
 116   1.0000      -0.341952        -9.3050
 117   1.0000      -0.340579        -9.2676
 118   1.0000      -0.340370        -9.2620
 119   1.0000      -0.335379        -9.1261
 120   1.0000      -0.329749        -8.9729
 121   1.0000      -0.325274        -8.8511
 122   1.0000      -0.322077        -8.7642
 123   1.0000      -0.314204        -8.5499
 124   1.0000      -0.303655        -8.2629
 125   1.0000      -0.268475        -7.3056
 126   1.0000      -0.238010        -6.4766
 127   1.0000      -0.219583        -5.9751
 128   0.0000      -0.112290        -3.0556
 129   0.0000      -0.100201        -2.7266
 130   0.0000      -0.075642        -2.0583
 131   0.0000      -0.066842        -1.8189
 132   0.0000      -0.064732        -1.7615

                 SPIN DOWN ORBITALS
  NO   OCC          E(Eh)            E(eV)
   0   1.0000    -258.330010     -7029.5169
   1   1.0000     -30.800703      -838.1297
   2   1.0000     -26.511936      -721.4265
   3   1.0000     -26.506587      -721.2809
   4   1.0000     -26.501966      -721.1552
   5   1.0000      -4.399990      -119.7298
   6   1.0000      -4.399466      -119.7156
   7   1.0000      -4.399403      -119.7138
   8   1.0000      -4.399298      -119.7110
   9   1.0000      -4.399244      -119.7095
  10   1.0000      -4.397241      -119.6550
  11   1.0000      -4.394961      -119.5930
  12   1.0000      -4.394820      -119.5891
  13   1.0000      -4.393207      -119.5452
  14   1.0000      -4.392762      -119.5331
  15   1.0000      -4.388482      -119.4167
  16   1.0000      -4.388365      -119.4135
  17   1.0000      -3.661944       -99.6466
  18   1.0000      -2.522068       -68.6290
  19   1.0000      -2.521471       -68.6127
  20   1.0000      -2.521194       -68.6052
  21   1.0000      -2.520436       -68.5846
  22   1.0000      -2.518426       -68.5299
  23   1.0000      -2.518092       -68.5208
  24   1.0000      -2.517595       -68.5072
  25   1.0000      -2.517153       -68.4952
  26   1.0000      -2.515917       -68.4616
  27   1.0000      -2.515722       -68.4563
  28   1.0000      -2.515540       -68.4513
  29   1.0000      -2.515093       -68.4392
  30   1.0000      -2.514897       -68.4338
  31   1.0000      -2.514218       -68.4154
  32   1.0000      -2.514181       -68.4143
  33   1.0000      -2.513833       -68.4049
  34   1.0000      -2.513505       -68.3959
  35   1.0000      -2.512791       -68.3765
  36   1.0000      -2.512776       -68.3761
  37   1.0000      -2.512333       -68.3641
  38   1.0000      -2.511760       -68.3485
  39   1.0000      -2.511327       -68.3367
  40   1.0000      -2.510169       -68.3052
  41   1.0000      -2.510143       -68.3045
  42   1.0000      -2.510046       -68.3018
  43   1.0000      -2.509894       -68.2977
  44   1.0000      -2.509544       -68.2882
  45   1.0000      -2.508936       -68.2716
  46   1.0000      -2.507126       -68.2224
  47   1.0000      -2.505898       -68.1890
  48   1.0000      -2.505031       -68.1654
  49   1.0000      -2.504333       -68.1464
  50   1.0000      -2.503656       -68.1279
  51   1.0000      -2.503552       -68.1251
  52   1.0000      -2.503006       -68.1103
  53   1.0000      -2.502547       -68.0978
  54   1.0000      -2.342985       -63.7559
  55   1.0000      -2.337500       -63.6066
  56   1.0000      -2.327336       -63.3300
  57   1.0000      -0.509410       -13.8617
  58   1.0000      -0.481597       -13.1049
  59   1.0000      -0.471892       -12.8408
  60   1.0000      -0.471685       -12.8352
  61   1.0000      -0.467699       -12.7267
  62   1.0000      -0.464916       -12.6510
  63   1.0000      -0.463815       -12.6210
  64   1.0000      -0.461422       -12.5559
  65   1.0000      -0.453465       -12.3394
  66   1.0000      -0.450795       -12.2668
  67   1.0000      -0.450520       -12.2593
  68   1.0000      -0.447428       -12.1751
  69   1.0000      -0.444900       -12.1063
  70   1.0000      -0.439369       -11.9558
  71   1.0000      -0.437340       -11.9006
  72   1.0000      -0.436341       -11.8734
  73   1.0000      -0.430664       -11.7190
  74   1.0000      -0.430131       -11.7045
  75   1.0000      -0.429693       -11.6925
  76   1.0000      -0.426475       -11.6050
  77   1.0000      -0.424965       -11.5639
  78   1.0000      -0.422901       -11.5077
  79   1.0000      -0.413500       -11.2519
  80   1.0000      -0.411033       -11.1848
  81   1.0000      -0.409970       -11.1559
  82   1.0000      -0.401939       -10.9373
  83   1.0000      -0.401057       -10.9133
  84   1.0000      -0.399128       -10.8608
  85   1.0000      -0.397025       -10.8036
  86   1.0000      -0.394792       -10.7428
  87   1.0000      -0.391539       -10.6543
  88   1.0000      -0.386482       -10.5167
  89   1.0000      -0.385527       -10.4907
  90   1.0000      -0.383729       -10.4418
  91   1.0000      -0.381154       -10.3717
  92   1.0000      -0.376924       -10.2566
  93   1.0000      -0.375089       -10.2067
  94   1.0000      -0.374654       -10.1949
  95   1.0000      -0.374370       -10.1871
  96   1.0000      -0.372406       -10.1337
  97   1.0000      -0.369390       -10.0516
  98   1.0000      -0.368797       -10.0355
  99   1.0000      -0.367179        -9.9914
 100   1.0000      -0.364912        -9.9298
 101   1.0000      -0.363821        -9.9001
 102   1.0000      -0.361654        -9.8411
 103   1.0000      -0.359886        -9.7930
 104   1.0000      -0.358034        -9.7426
 105   1.0000      -0.357337        -9.7236
 106   1.0000      -0.354863        -9.6563
 107   1.0000      -0.354028        -9.6336
 108   1.0000      -0.353388        -9.6162
 109   1.0000      -0.351615        -9.5679
 110   1.0000      -0.348931        -9.4949
 111   1.0000      -0.346558        -9.4303
 112   1.0000      -0.342878        -9.3302
 113   1.0000      -0.341750        -9.2995
 114   1.0000      -0.338870        -9.2211
 115   1.0000      -0.333761        -9.0821
 116   1.0000      -0.333113        -9.0645
 117   1.0000      -0.325430        -8.8554
 118   1.0000      -0.324927        -8.8417
 119   1.0000      -0.315765        -8.5924
 120   1.0000      -0.310914        -8.4604
 121   1.0000      -0.292856        -7.9690
 122   1.0000      -0.243960        -6.6385
 123   1.0000      -0.233657        -6.3581
 124   1.0000      -0.213222        -5.8021
 125   1.0000      -0.206475        -5.6185
 126   0.0000      -0.081583        -2.2200
 127   0.0000      -0.075062        -2.0426
 128   0.0000      -0.070730        -1.9247
 129   0.0000      -0.044859        -1.2207
 130   0.0000      -0.041982        -1.1424

MULLIKEN ATOMIC CHARGES AND SPIN POPULATIONS
--------------------------------------------
   0 Au:    0.019059   -0.246589
   1 Au:    0.169886   -0.201732
   2 Au:    0.325958   -0.090378
   3 Au:    0.344957    0.017603
   4 Au:    0.025344   -0.243417
   5 Au:    0.331191   -0.097851
   6 Au:    0.008267   -0.011422
   7 Au:    0.024868   -0.242927
   8 Au:    0.345504    0.017179
   9 Au:    0.018654   -0.246627
  10 Au:    0.169506   -0.201472
  11 Au:    0.008988   -0.011536
  12 Fe:   -1.792182    3.559170
Sum of atomic charges         :   -0.0000000

LOEWDIN ATOMIC CHARGES AND SPIN POPULATIONS
-------------------------------------------
   0 Au:   -0.033908   -0.143602
   1 Au:    0.026047   -0.186996
   2 Au:    0.088271   -0.196081
   3 Au:    0.121132   -0.017817
   4 Au:   -0.034564   -0.144890
   5 Au:    0.087324   -0.211664
   6 Au:   -0.007976   -0.040678
   7 Au:   -0.035058   -0.144749
   8 Au:    0.121213   -0.018006
   9 Au:   -0.033944   -0.143510
  10 Au:    0.026029   -0.186870
  11 Au:   -0.007737   -0.040582
  12 Fe:   -0.316829    3.475445

  Mayer bond orders larger than 0.100000
B(  0-Au,  1-Au) :   0.1690 B(  0-Au,  2-Au) :   0.3143 B(  0-Au,  3-Au) :   0.3245
B(  0-Au,  4-Au) :   0.1677 B(  0-Au, 11-Au) :   0.1300 B(  0-Au, 12-Fe) :   0.3923
B(  1-Au,  4-Au) :   0.1663 B(  1-Au, 10-Au) :   0.2270 B(  1-Au, 12-Fe) :   0.4763
B(  2-Au,  9-Au) :   0.3148 B(  2-Au, 12-Fe) :   0.4386 B(  3-Au,  4-Au) :   0.3144
B(  3-Au, 11-Au) :   0.3348 B(  4-Au,  5-Au) :   0.3151 B(  4-Au, 11-Au) :   0.1299
B(  4-Au, 12-Fe) :   0.3917 B(  5-Au,  7-Au) :   0.3158 B(  5-Au, 12-Fe) :   0.4067
B(  6-Au,  7-Au) :   0.1299 B(  6-Au,  8-Au) :   0.3346 B(  6-Au,  9-Au) :   0.1303
B(  6-Au, 11-Au) :   0.4563 B(  6-Au, 12-Fe) :   0.5330 B(  7-Au,  8-Au) :   0.3146
B(  7-Au,  9-Au) :   0.1678 B(  7-Au, 10-Au) :   0.1668 B(  7-Au, 12-Fe) :   0.3912
B(  8-Au,  9-Au) :   0.3246 B(  9-Au, 10-Au) :   0.1692 B(  9-Au, 12-Fe) :   0.3926
B( 10-Au, 12-Fe) :   0.4756 B( 11-Au, 12-Fe) :   0.5324

MP2 TOTAL ENERGY:    -2890.535847438 Eh
FINAL SINGLE POINT ENERGY     -2890.535847438251

DIPOLE MOMENT
-------------
                                X             Y             Z
Electronic contribution:      0.53504      -1.08140       0.59179
Nuclear contribution   :     -0.59068       1.17658      -0.63627
                        -----------------------------------------
Total Dipole Moment    :     -0.05564       0.09518      -0.04448
                        -----------------------------------------
Magnitude (a.u.)       :      0.11888
Magnitude (Debye)      :      0.30218

Rotational constants in cm-1:     0.001733     0.001082     0.000967
Rotational constants in MHz :    51.944645    32.447054    28.985232

                             ****ORCA TERMINATED NORMALLY****
TOTAL RUN TIME: 0 days 1 hours 50 minutes 12 seconds 402 msec
