                         Program Version 5.0.3 -  RELEASE  -
|  1> !R2SCAN def2-TZVP VERYSLOWCONV
|  2> !KDIIS
|  3> %scf
|  4>   AutoTRAHIter 200
|  5>   maxiter 400
|  6> end
|  7>
|  8> %pal nprocs 6 end
|  9>
| 10> *xyzfile 0 5 pbe.xyz
| 11>
| 12> $new_job
| 13>
| 14> !R2SCAN def2-TZVP VERYSLOWCONV
| 15> !KDIIS
| 16> %scf
| 17>   AutoTRAHIter 200
| 18>   maxiter 400
| 19> end
| 20>
| 21>
| 22> %pal nprocs 6 end
| 23>
| 24> *xyzfile 0 3 pbe.xyz
| 25>
| 26>
| 27>
| 28>
| 29>
| 30>                          ****END OF INPUT****
 Total Charge           Charge          ....    0
 Multiplicity           Mult            ....    5
 Number of Electrons    NEL             ....  254
FINAL SINGLE POINT ENERGY     -2893.811596899201

CARTESIAN COORDINATES (ANGSTROEM)
---------------------------------
  Au     6.029159    5.985135    8.200795
  Au     6.735772    8.319751    6.729576
  Au     6.207776    8.269865    9.646008
  Au     6.824230    3.688658    6.919889
  Au     8.209965    5.946300    6.187802
  Au     9.683936    8.205883    6.445952
  Au    10.039245    6.109177   10.347350
  Au    10.758792    8.592988    8.902349
  Au    11.211308    8.239674   11.589825
  Au     8.575700    8.623227   10.913862
  Au     8.308418    9.953230    8.408998
  Au     8.581044    4.598664    8.800915
  Fe     8.414923    7.241966    8.574389

 Multiplicity           Mult            ....    3
 Number of Electrons    NEL             ....  254
 Basis Dimension        Dim             ....  525

ORBITAL ENERGIES
----------------
                 SPIN UP ORBITALS
  NO   OCC          E(Eh)            E(eV)
   0   1.0000    -255.631371     -6956.0832
   1   1.0000     -29.930133      -814.4403
   2   1.0000     -25.775407      -701.3845
   3   1.0000     -25.753544      -700.7896
   4   1.0000     -25.752716      -700.7670
   5   1.0000      -4.119374      -112.0939
   6   1.0000      -4.119367      -112.0937
   7   1.0000      -4.119296      -112.0917
   8   1.0000      -4.119290      -112.0916
   9   1.0000      -4.114929      -111.9729
  10   1.0000      -4.114762      -111.9684
  11   1.0000      -4.112344      -111.9026
  12   1.0000      -4.111961      -111.8922
  13   1.0000      -4.111529      -111.8804
  14   1.0000      -4.111409      -111.8771
  15   1.0000      -4.109942      -111.8372
  16   1.0000      -4.109927      -111.8368
  17   1.0000      -3.508920       -95.4826
  18   1.0000      -2.310918       -62.8833
  19   1.0000      -2.310109       -62.8613
  20   1.0000      -2.310021       -62.8589
  21   1.0000      -2.309620       -62.8480
  22   1.0000      -2.308206       -62.8095
  23   1.0000      -2.307536       -62.7912
  24   1.0000      -2.306664       -62.7675
  25   1.0000      -2.305488       -62.7355
  26   1.0000      -2.305379       -62.7326
  27   1.0000      -2.303873       -62.6916
  28   1.0000      -2.302307       -62.6489
  29   1.0000      -2.302140       -62.6444
  30   1.0000      -2.302037       -62.6416
  31   1.0000      -2.301644       -62.6309
  32   1.0000      -2.301491       -62.6267
  33   1.0000      -2.301173       -62.6181
  34   1.0000      -2.300686       -62.6048
  35   1.0000      -2.300344       -62.5955
  36   1.0000      -2.300212       -62.5920
  37   1.0000      -2.299915       -62.5839
  38   1.0000      -2.299256       -62.5659
  39   1.0000      -2.299053       -62.5604
  40   1.0000      -2.298504       -62.5455
  41   1.0000      -2.298146       -62.5357
  42   1.0000      -2.297265       -62.5117
  43   1.0000      -2.297195       -62.5099
  44   1.0000      -2.297136       -62.5083
  45   1.0000      -2.296313       -62.4859
  46   1.0000      -2.295447       -62.4623
  47   1.0000      -2.295138       -62.4539
  48   1.0000      -2.294591       -62.4390
  49   1.0000      -2.293428       -62.4073
  50   1.0000      -2.293411       -62.4069
  51   1.0000      -2.293066       -62.3975
  52   1.0000      -2.292912       -62.3933
  53   1.0000      -2.290355       -62.3237
  54   1.0000      -2.289690       -62.3056
  55   1.0000      -2.259530       -61.4849
  56   1.0000      -2.256627       -61.4059
  57   1.0000      -0.433201       -11.7880
  58   1.0000      -0.395580       -10.7643
  59   1.0000      -0.394809       -10.7433
  60   1.0000      -0.385344       -10.4858
  61   1.0000      -0.383964       -10.4482
  62   1.0000      -0.383342       -10.4313
  63   1.0000      -0.381346       -10.3770
  64   1.0000      -0.376063       -10.2332
  65   1.0000      -0.361557        -9.8385
  66   1.0000      -0.359775        -9.7900
  67   1.0000      -0.354934        -9.6582
  68   1.0000      -0.353959        -9.6317
  69   1.0000      -0.347564        -9.4577
  70   1.0000      -0.347382        -9.4528
  71   1.0000      -0.345868        -9.4115
  72   1.0000      -0.345354        -9.3976
  73   1.0000      -0.341195        -9.2844
  74   1.0000      -0.340439        -9.2638
  75   1.0000      -0.337909        -9.1950
  76   1.0000      -0.332808        -9.0562
  77   1.0000      -0.331942        -9.0326
  78   1.0000      -0.330167        -8.9843
  79   1.0000      -0.328250        -8.9321
  80   1.0000      -0.327574        -8.9137
  81   1.0000      -0.319760        -8.7011
  82   1.0000      -0.319127        -8.6839
  83   1.0000      -0.318884        -8.6773
  84   1.0000      -0.308009        -8.3814
  85   1.0000      -0.306227        -8.3329
  86   1.0000      -0.304165        -8.2768
  87   1.0000      -0.299286        -8.1440
  88   1.0000      -0.298765        -8.1298
  89   1.0000      -0.298499        -8.1226
  90   1.0000      -0.296657        -8.0724
  91   1.0000      -0.295395        -8.0381
  92   1.0000      -0.293294        -7.9809
  93   1.0000      -0.291826        -7.9410
  94   1.0000      -0.287150        -7.8138
  95   1.0000      -0.286918        -7.8074
  96   1.0000      -0.285943        -7.7809
  97   1.0000      -0.285730        -7.7751
  98   1.0000      -0.284326        -7.7369
  99   1.0000      -0.280681        -7.6377
 100   1.0000      -0.279136        -7.5957
 101   1.0000      -0.277367        -7.5475
 102   1.0000      -0.274164        -7.4604
 103   1.0000      -0.271697        -7.3933
 104   1.0000      -0.270491        -7.3604
 105   1.0000      -0.269752        -7.3403
 106   1.0000      -0.268770        -7.3136
 107   1.0000      -0.267560        -7.2807
 108   1.0000      -0.267539        -7.2801
 109   1.0000      -0.265431        -7.2227
 110   1.0000      -0.264583        -7.1997
 111   1.0000      -0.264213        -7.1896
 112   1.0000      -0.264047        -7.1851
 113   1.0000      -0.261706        -7.1214
 114   1.0000      -0.258918        -7.0455
 115   1.0000      -0.256571        -6.9817
 116   1.0000      -0.254539        -6.9263
 117   1.0000      -0.254263        -6.9188
 118   1.0000      -0.252121        -6.8606
 119   1.0000      -0.251613        -6.8467
 120   1.0000      -0.250961        -6.8290
 121   1.0000      -0.249368        -6.7857
 122   1.0000      -0.242764        -6.6059
 123   1.0000      -0.242178        -6.5900
 124   1.0000      -0.237292        -6.4570
 125   1.0000      -0.231479        -6.2989
 126   1.0000      -0.216459        -5.8902
 127   1.0000      -0.201637        -5.4868
 128   0.0000      -0.175162        -4.7664
 129   0.0000      -0.164594        -4.4788
 130   0.0000      -0.134239        -3.6528
 131   0.0000      -0.128715        -3.5025
 132   0.0000      -0.127022        -3.4564

                 SPIN DOWN ORBITALS
  NO   OCC          E(Eh)            E(eV)
   0   1.0000    -255.630367     -6956.0559
   1   1.0000     -29.853199      -812.3469
   2   1.0000     -25.708144      -699.5542
   3   1.0000     -25.698970      -699.3045
   4   1.0000     -25.698486      -699.2914
   5   1.0000      -4.119257      -112.0907
   6   1.0000      -4.119249      -112.0905
   7   1.0000      -4.119186      -112.0888
   8   1.0000      -4.119178      -112.0885
   9   1.0000      -4.115656      -111.9927
  10   1.0000      -4.115484      -111.9880
  11   1.0000      -4.112590      -111.9093
  12   1.0000      -4.112469      -111.9060
  13   1.0000      -4.111819      -111.8883
  14   1.0000      -4.111437      -111.8779
  15   1.0000      -4.110335      -111.8479
  16   1.0000      -4.110318      -111.8474
  17   1.0000      -3.339202       -90.8643
  18   1.0000      -2.310193       -62.8636
  19   1.0000      -2.309734       -62.8510
  20   1.0000      -2.309575       -62.8467
  21   1.0000      -2.309043       -62.8323
  22   1.0000      -2.306641       -62.7669
  23   1.0000      -2.306291       -62.7574
  24   1.0000      -2.305724       -62.7419
  25   1.0000      -2.304603       -62.7114
  26   1.0000      -2.304535       -62.7096
  27   1.0000      -2.302513       -62.6546
  28   1.0000      -2.302405       -62.6516
  29   1.0000      -2.302206       -62.6462
  30   1.0000      -2.302119       -62.6439
  31   1.0000      -2.301615       -62.6301
  32   1.0000      -2.301395       -62.6242
  33   1.0000      -2.300762       -62.6069
  34   1.0000      -2.300562       -62.6015
  35   1.0000      -2.300375       -62.5964
  36   1.0000      -2.299891       -62.5832
  37   1.0000      -2.299363       -62.5689
  38   1.0000      -2.299079       -62.5611
  39   1.0000      -2.298547       -62.5466
  40   1.0000      -2.298311       -62.5402
  41   1.0000      -2.297659       -62.5225
  42   1.0000      -2.297550       -62.5195
  43   1.0000      -2.297350       -62.5141
  44   1.0000      -2.297003       -62.5046
  45   1.0000      -2.296790       -62.4988
  46   1.0000      -2.296582       -62.4932
  47   1.0000      -2.295745       -62.4704
  48   1.0000      -2.294160       -62.4273
  49   1.0000      -2.294141       -62.4268
  50   1.0000      -2.293339       -62.4049
  51   1.0000      -2.293125       -62.3991
  52   1.0000      -2.290620       -62.3309
  53   1.0000      -2.289953       -62.3128
  54   1.0000      -2.115018       -57.5526
  55   1.0000      -2.103188       -57.2307
  56   1.0000      -2.101890       -57.1953
  57   1.0000      -0.430963       -11.7271
  58   1.0000      -0.396497       -10.7892
  59   1.0000      -0.394263       -10.7285
  60   1.0000      -0.383895       -10.4463
  61   1.0000      -0.375861       -10.2277
  62   1.0000      -0.375023       -10.2049
  63   1.0000      -0.373944       -10.1755
  64   1.0000      -0.369513       -10.0550
  65   1.0000      -0.359684        -9.7875
  66   1.0000      -0.357553        -9.7295
  67   1.0000      -0.354371        -9.6429
  68   1.0000      -0.353065        -9.6074
  69   1.0000      -0.349878        -9.5207
  70   1.0000      -0.345076        -9.3900
  71   1.0000      -0.341715        -9.2985
  72   1.0000      -0.340744        -9.2721
  73   1.0000      -0.338247        -9.2042
  74   1.0000      -0.338140        -9.2013
  75   1.0000      -0.335350        -9.1253
  76   1.0000      -0.334648        -9.1062
  77   1.0000      -0.331346        -9.0164
  78   1.0000      -0.328932        -8.9507
  79   1.0000      -0.322971        -8.7885
  80   1.0000      -0.319179        -8.6853
  81   1.0000      -0.318138        -8.6570
  82   1.0000      -0.314223        -8.5504
  83   1.0000      -0.310273        -8.4430
  84   1.0000      -0.307254        -8.3608
  85   1.0000      -0.306908        -8.3514
  86   1.0000      -0.303273        -8.2525
  87   1.0000      -0.301111        -8.1936
  88   1.0000      -0.299215        -8.1420
  89   1.0000      -0.296030        -8.0554
  90   1.0000      -0.295131        -8.0309
  91   1.0000      -0.291536        -7.9331
  92   1.0000      -0.291148        -7.9225
  93   1.0000      -0.286919        -7.8075
  94   1.0000      -0.285152        -7.7594
  95   1.0000      -0.284945        -7.7538
  96   1.0000      -0.284917        -7.7530
  97   1.0000      -0.283692        -7.7197
  98   1.0000      -0.283368        -7.7108
  99   1.0000      -0.279750        -7.6124
 100   1.0000      -0.279116        -7.5951
 101   1.0000      -0.276706        -7.5295
 102   1.0000      -0.273978        -7.4553
 103   1.0000      -0.273876        -7.4525
 104   1.0000      -0.270404        -7.3581
 105   1.0000      -0.269950        -7.3457
 106   1.0000      -0.269607        -7.3364
 107   1.0000      -0.268303        -7.3009
 108   1.0000      -0.266542        -7.2530
 109   1.0000      -0.265057        -7.2126
 110   1.0000      -0.264967        -7.2101
 111   1.0000      -0.261654        -7.1200
 112   1.0000      -0.259858        -7.0711
 113   1.0000      -0.256740        -6.9862
 114   1.0000      -0.256507        -6.9799
 115   1.0000      -0.254319        -6.9204
 116   1.0000      -0.254148        -6.9157
 117   1.0000      -0.251052        -6.8315
 118   1.0000      -0.243882        -6.6364
 119   1.0000      -0.242866        -6.6087
 120   1.0000      -0.240174        -6.5355
 121   1.0000      -0.223773        -6.0892
 122   1.0000      -0.210183        -5.7194
 123   1.0000      -0.197997        -5.3878
 124   1.0000      -0.187703        -5.1076
 125   1.0000      -0.176835        -4.8119
 126   0.0000      -0.154603        -4.2070
 127   0.0000      -0.145677        -3.9641
 128   0.0000      -0.143025        -3.8919
 129   0.0000      -0.129390        -3.5209
 130   0.0000      -0.128396        -3.4938

MULLIKEN ATOMIC CHARGES AND SPIN POPULATIONS
--------------------------------------------
   0 Au:    0.063245   -0.153103
   1 Au:    0.171866   -0.185999
   2 Au:    0.320026   -0.104605
   3 Au:    0.353247    0.035915
   4 Au:    0.064081   -0.153248
   5 Au:    0.318658   -0.105287
   6 Au:    0.034835    0.011144
   7 Au:    0.063746   -0.152424
   8 Au:    0.353445    0.035855
   9 Au:    0.062994   -0.153541
  10 Au:    0.171698   -0.185852
  11 Au:    0.035037    0.011073
  12 Fe:   -2.012877    3.100073
Sum of atomic charges         :   -0.0000000

LOEWDIN ATOMIC CHARGES AND SPIN POPULATIONS
-------------------------------------------
   0 Au:   -0.002655   -0.090470
   1 Au:    0.044900   -0.164527
   2 Au:    0.103543   -0.168981
   3 Au:    0.100266   -0.006216
   4 Au:   -0.002813   -0.090634
   5 Au:    0.103462   -0.168800
   6 Au:    0.021580   -0.020342
   7 Au:   -0.003195   -0.090331
   8 Au:    0.100418   -0.006157
   9 Au:   -0.002607   -0.090568
  10 Au:    0.044906   -0.164475
  11 Au:    0.021675   -0.020295
  12 Fe:   -0.529481    3.081796

  Mayer bond orders larger than 0.100000
B(  0-Au,  1-Au) :   0.1932 B(  0-Au,  2-Au) :   0.3350 B(  0-Au,  3-Au) :   0.3364
B(  0-Au,  4-Au) :   0.1567 B(  0-Au, 11-Au) :   0.1206 B(  0-Au, 12-Fe) :   0.4798
B(  1-Au,  4-Au) :   0.1952 B(  1-Au, 10-Au) :   0.2340 B(  1-Au, 12-Fe) :   0.5070
B(  2-Au,  9-Au) :   0.3355 B(  2-Au, 12-Fe) :   0.4440 B(  3-Au,  4-Au) :   0.3349
B(  3-Au, 11-Au) :   0.3441 B(  4-Au,  5-Au) :   0.3340 B(  4-Au, 11-Au) :   0.1209
B(  4-Au, 12-Fe) :   0.4785 B(  5-Au,  7-Au) :   0.3347 B(  5-Au, 12-Fe) :   0.4455
B(  6-Au,  7-Au) :   0.1211 B(  6-Au,  8-Au) :   0.3439 B(  6-Au,  9-Au) :   0.1208
B(  6-Au, 11-Au) :   0.4880 B(  6-Au, 12-Fe) :   0.5571 B(  7-Au,  8-Au) :   0.3354
B(  7-Au,  9-Au) :   0.1567 B(  7-Au, 10-Au) :   0.1958 B(  7-Au, 12-Fe) :   0.4776
B(  8-Au,  9-Au) :   0.3360 B(  9-Au, 10-Au) :   0.1929 B(  9-Au, 12-Fe) :   0.4802
B( 10-Au, 12-Fe) :   0.5066 B( 11-Au, 12-Fe) :   0.5567

FINAL SINGLE POINT ENERGY     -2893.842048640156

DIPOLE MOMENT
-------------
                                X             Y             Z
Electronic contribution:      0.53179      -1.05469       0.57276
Nuclear contribution   :     -0.59068       1.17658      -0.63627
                        -----------------------------------------
Total Dipole Moment    :     -0.05890       0.12189      -0.06351
                        -----------------------------------------
Magnitude (a.u.)       :      0.14954
Magnitude (Debye)      :      0.38009

Rotational constants in cm-1:     0.001733     0.001082     0.000967
Rotational constants in MHz :    51.944645    32.447054    28.985232

                             ****ORCA TERMINATED NORMALLY****
TOTAL RUN TIME: 0 days 0 hours 5 minutes 8 seconds 515 msec
