                         Program Version 5.0.3 -  RELEASE  -
|  1> %pal nprocs 1 end
|  2>
|  3> !PBE def2-TZVP OPT UNO
|  4> !SLOWCONV KDIIS
|  5>
|  6> %geom maxiter 300 end
|  7>
|  8> *xyzfile 0 5 3.xyz                           ****END OF INPUT****
 Total Charge           Charge          ....    0
 Multiplicity           Mult            ....    5
 Number of Electrons    NEL             ....  252
FINAL SINGLE POINT ENERGY     -2674.147482421399
FINAL SINGLE POINT ENERGY     -2674.148764879379
FINAL SINGLE POINT ENERGY     -2674.149737294456
FINAL SINGLE POINT ENERGY     -2674.150409064141
FINAL SINGLE POINT ENERGY     -2674.151060208587
FINAL SINGLE POINT ENERGY     -2674.151733566097
FINAL SINGLE POINT ENERGY     -2674.152399662580
FINAL SINGLE POINT ENERGY     -2674.152886913444
FINAL SINGLE POINT ENERGY     -2674.153195934093
FINAL SINGLE POINT ENERGY     -2674.153452419816
FINAL SINGLE POINT ENERGY     -2674.155200423297
FINAL SINGLE POINT ENERGY     -2674.155207239410
FINAL SINGLE POINT ENERGY     -2674.155215950590
FINAL SINGLE POINT ENERGY     -2674.155221680068
FINAL SINGLE POINT ENERGY     -2674.155224727659
FINAL SINGLE POINT ENERGY     -2674.155226753261
FINAL SINGLE POINT ENERGY     -2674.155228901298
FINAL SINGLE POINT ENERGY     -2674.155230748845
FINAL SINGLE POINT ENERGY     -2674.155231899506
                    ***********************HURRAY********************

CARTESIAN COORDINATES (ANGSTROEM)
---------------------------------
  Au     5.568225   10.654325    6.908268
  Au     6.707828   10.017025   10.874113
  Au     9.771579    8.185229    7.450001
  Au     7.393595    7.085246    5.725351
  Au     9.599364    8.229084    4.693930
  Au     4.963516    7.957749    6.648424
  Au     8.154734   10.093442    6.121497
  Au     9.161243    9.121290    9.848369
  Au     7.689785   11.230085    8.595430
  Au     4.577492    9.247494    9.096527
  Au     6.083491    7.262682   10.377872
  Au     6.420726    5.980095    8.029376
  Cr     7.104557    8.593466    8.236307

 Multiplicity           Mult            ....    5
 Number of Electrons    NEL             ....  252
 Basis Dimension        Dim             ....  525

ORBITAL ENERGIES
----------------
                 SPIN UP ORBITALS
  NO   OCC          E(Eh)            E(eV)
   0   1.0000    -214.486239     -5836.4673
   1   1.0000     -24.286633      -660.8729
   2   1.0000     -20.653098      -561.9994
   3   1.0000     -20.650397      -561.9259
   4   1.0000     -20.645752      -561.7995
   5   1.0000      -4.030306      -109.6702
   6   1.0000      -4.028568      -109.6229
   7   1.0000      -4.028170      -109.6121
   8   1.0000      -4.027831      -109.6029
   9   1.0000      -4.023843      -109.4943
  10   1.0000      -4.021838      -109.4398
  11   1.0000      -4.020996      -109.4169
  12   1.0000      -4.020696      -109.4087
  13   1.0000      -4.018844      -109.3583
  14   1.0000      -4.018317      -109.3440
  15   1.0000      -4.017526      -109.3224
  16   1.0000      -4.013978      -109.2259
  17   1.0000      -2.793006       -76.0016
  18   1.0000      -2.248956       -61.1972
  19   1.0000      -2.244632       -61.0795
  20   1.0000      -2.243997       -61.0623
  21   1.0000      -2.243841       -61.0580
  22   1.0000      -2.242942       -61.0336
  23   1.0000      -2.242225       -61.0140
  24   1.0000      -2.241983       -61.0075
  25   1.0000      -2.241305       -60.9890
  26   1.0000      -2.240130       -60.9570
  27   1.0000      -2.240031       -60.9543
  28   1.0000      -2.239123       -60.9296
  29   1.0000      -2.238758       -60.9197
  30   1.0000      -2.238573       -60.9147
  31   1.0000      -2.237933       -60.8973
  32   1.0000      -2.237744       -60.8921
  33   1.0000      -2.237363       -60.8818
  34   1.0000      -2.237135       -60.8755
  35   1.0000      -2.236534       -60.8592
  36   1.0000      -2.236321       -60.8534
  37   1.0000      -2.234936       -60.8157
  38   1.0000      -2.233753       -60.7835
  39   1.0000      -2.233483       -60.7762
  40   1.0000      -2.232561       -60.7511
  41   1.0000      -2.231943       -60.7343
  42   1.0000      -2.231586       -60.7245
  43   1.0000      -2.230887       -60.7055
  44   1.0000      -2.230593       -60.6975
  45   1.0000      -2.229891       -60.6784
  46   1.0000      -2.229235       -60.6606
  47   1.0000      -2.228645       -60.6445
  48   1.0000      -2.228004       -60.6271
  49   1.0000      -2.227630       -60.6169
  50   1.0000      -2.226569       -60.5880
  51   1.0000      -2.225895       -60.5697
  52   1.0000      -2.225788       -60.5668
  53   1.0000      -2.225443       -60.5574
  54   1.0000      -1.787233       -48.6331
  55   1.0000      -1.783717       -48.5374
  56   1.0000      -1.777410       -48.3658
  57   1.0000      -0.417343       -11.3565
  58   1.0000      -0.382399       -10.4056
  59   1.0000      -0.379058       -10.3147
  60   1.0000      -0.371057       -10.0970
  61   1.0000      -0.367266        -9.9938
  62   1.0000      -0.362194        -9.8558
  63   1.0000      -0.357378        -9.7248
  64   1.0000      -0.352875        -9.6022
  65   1.0000      -0.349534        -9.5113
  66   1.0000      -0.347838        -9.4652
  67   1.0000      -0.344662        -9.3787
  68   1.0000      -0.342234        -9.3127
  69   1.0000      -0.338070        -9.1993
  70   1.0000      -0.337344        -9.1796
  71   1.0000      -0.336038        -9.1440
  72   1.0000      -0.330208        -8.9854
  73   1.0000      -0.327788        -8.9196
  74   1.0000      -0.324996        -8.8436
  75   1.0000      -0.324231        -8.8228
  76   1.0000      -0.322231        -8.7683
  77   1.0000      -0.319713        -8.6998
  78   1.0000      -0.317829        -8.6486
  79   1.0000      -0.316038        -8.5998
  80   1.0000      -0.314224        -8.5505
  81   1.0000      -0.312147        -8.4939
  82   1.0000      -0.308324        -8.3899
  83   1.0000      -0.306618        -8.3435
  84   1.0000      -0.302284        -8.2256
  85   1.0000      -0.300464        -8.1760
  86   1.0000      -0.297479        -8.0948
  87   1.0000      -0.295428        -8.0390
  88   1.0000      -0.293255        -7.9799
  89   1.0000      -0.289026        -7.8648
  90   1.0000      -0.287914        -7.8345
  91   1.0000      -0.285018        -7.7557
  92   1.0000      -0.283494        -7.7143
  93   1.0000      -0.281341        -7.6557
  94   1.0000      -0.278139        -7.5685
  95   1.0000      -0.274946        -7.4817
  96   1.0000      -0.273600        -7.4450
  97   1.0000      -0.272713        -7.4209
  98   1.0000      -0.271933        -7.3997
  99   1.0000      -0.269766        -7.3407
 100   1.0000      -0.269199        -7.3253
 101   1.0000      -0.267279        -7.2730
 102   1.0000      -0.264732        -7.2037
 103   1.0000      -0.261621        -7.1191
 104   1.0000      -0.260548        -7.0899
 105   1.0000      -0.259214        -7.0536
 106   1.0000      -0.256425        -6.9777
 107   1.0000      -0.256247        -6.9728
 108   1.0000      -0.254275        -6.9192
 109   1.0000      -0.252666        -6.8754
 110   1.0000      -0.251908        -6.8548
 111   1.0000      -0.251073        -6.8320
 112   1.0000      -0.249707        -6.7949
 113   1.0000      -0.247951        -6.7471
 114   1.0000      -0.246431        -6.7057
 115   1.0000      -0.245516        -6.6808
 116   1.0000      -0.241975        -6.5845
 117   1.0000      -0.241289        -6.5658
 118   1.0000      -0.240280        -6.5384
 119   1.0000      -0.238397        -6.4871
 120   1.0000      -0.227401        -6.1879
 121   1.0000      -0.223099        -6.0708
 122   1.0000      -0.216388        -5.8882
 123   1.0000      -0.213655        -5.8138
 124   1.0000      -0.211046        -5.7429
 125   1.0000      -0.202056        -5.4982
 126   1.0000      -0.187804        -5.1104
 127   1.0000      -0.174718        -4.7543
 128   0.0000      -0.167450        -4.5565
 129   0.0000      -0.154876        -4.2144
 130   0.0000      -0.146116        -3.9760
 131   0.0000      -0.142742        -3.8842
 132   0.0000      -0.116626        -3.1736

                 SPIN DOWN ORBITALS
  NO   OCC          E(Eh)            E(eV)
   0   1.0000    -214.485812     -5836.4557
   1   1.0000     -24.238891      -659.5738
   2   1.0000     -20.618543      -561.0591
   3   1.0000     -20.615188      -560.9678
   4   1.0000     -20.606103      -560.7206
   5   1.0000      -4.029442      -109.6467
   6   1.0000      -4.027994      -109.6073
   7   1.0000      -4.027538      -109.5949
   8   1.0000      -4.027095      -109.5828
   9   1.0000      -4.023125      -109.4748
  10   1.0000      -4.020935      -109.4152
  11   1.0000      -4.020368      -109.3998
  12   1.0000      -4.019841      -109.3854
  13   1.0000      -4.017628      -109.3252
  14   1.0000      -4.017175      -109.3129
  15   1.0000      -4.016685      -109.2995
  16   1.0000      -4.013179      -109.2042
  17   1.0000      -2.664081       -72.4933
  18   1.0000      -2.247897       -61.1684
  19   1.0000      -2.243909       -61.0599
  20   1.0000      -2.243150       -61.0392
  21   1.0000      -2.243119       -61.0384
  22   1.0000      -2.241972       -61.0072
  23   1.0000      -2.241460       -60.9932
  24   1.0000      -2.241270       -60.9881
  25   1.0000      -2.240336       -60.9627
  26   1.0000      -2.239429       -60.9380
  27   1.0000      -2.239058       -60.9279
  28   1.0000      -2.238210       -60.9048
  29   1.0000      -2.237965       -60.8981
  30   1.0000      -2.237849       -60.8950
  31   1.0000      -2.237118       -60.8751
  32   1.0000      -2.236994       -60.8717
  33   1.0000      -2.236659       -60.8626
  34   1.0000      -2.236176       -60.8494
  35   1.0000      -2.235503       -60.8311
  36   1.0000      -2.235344       -60.8268
  37   1.0000      -2.233969       -60.7894
  38   1.0000      -2.233067       -60.7648
  39   1.0000      -2.232510       -60.7497
  40   1.0000      -2.231402       -60.7195
  41   1.0000      -2.231178       -60.7134
  42   1.0000      -2.230489       -60.6947
  43   1.0000      -2.229971       -60.6806
  44   1.0000      -2.229780       -60.6754
  45   1.0000      -2.228950       -60.6528
  46   1.0000      -2.228418       -60.6383
  47   1.0000      -2.227342       -60.6090
  48   1.0000      -2.226957       -60.5986
  49   1.0000      -2.226856       -60.5958
  50   1.0000      -2.225614       -60.5620
  51   1.0000      -2.224985       -60.5449
  52   1.0000      -2.224883       -60.5421
  53   1.0000      -2.224443       -60.5302
  54   1.0000      -1.666448       -45.3464
  55   1.0000      -1.660713       -45.1903
  56   1.0000      -1.639909       -44.6242
  57   1.0000      -0.410191       -11.1619
  58   1.0000      -0.379682       -10.3317
  59   1.0000      -0.376422       -10.2430
  60   1.0000      -0.367561       -10.0019
  61   1.0000      -0.364648        -9.9226
  62   1.0000      -0.358402        -9.7526
  63   1.0000      -0.353636        -9.6229
  64   1.0000      -0.349651        -9.5145
  65   1.0000      -0.346974        -9.4416
  66   1.0000      -0.345224        -9.3940
  67   1.0000      -0.341904        -9.3037
  68   1.0000      -0.338654        -9.2153
  69   1.0000      -0.336584        -9.1589
  70   1.0000      -0.335265        -9.1230
  71   1.0000      -0.335092        -9.1183
  72   1.0000      -0.329324        -8.9614
  73   1.0000      -0.325833        -8.8664
  74   1.0000      -0.322811        -8.7841
  75   1.0000      -0.322708        -8.7813
  76   1.0000      -0.321061        -8.7365
  77   1.0000      -0.317492        -8.6394
  78   1.0000      -0.315115        -8.5747
  79   1.0000      -0.314361        -8.5542
  80   1.0000      -0.311871        -8.4864
  81   1.0000      -0.309258        -8.4153
  82   1.0000      -0.307353        -8.3635
  83   1.0000      -0.304214        -8.2781
  84   1.0000      -0.299064        -8.1379
  85   1.0000      -0.297123        -8.0851
  86   1.0000      -0.296655        -8.0724
  87   1.0000      -0.293682        -7.9915
  88   1.0000      -0.290472        -7.9041
  89   1.0000      -0.287656        -7.8275
  90   1.0000      -0.285385        -7.7657
  91   1.0000      -0.283681        -7.7193
  92   1.0000      -0.282133        -7.6772
  93   1.0000      -0.279888        -7.6162
  94   1.0000      -0.277129        -7.5411
  95   1.0000      -0.273720        -7.4483
  96   1.0000      -0.272584        -7.4174
  97   1.0000      -0.271936        -7.3998
  98   1.0000      -0.270720        -7.3667
  99   1.0000      -0.268702        -7.3118
 100   1.0000      -0.268494        -7.3061
 101   1.0000      -0.266731        -7.2581
 102   1.0000      -0.263727        -7.1764
 103   1.0000      -0.260822        -7.0973
 104   1.0000      -0.259785        -7.0691
 105   1.0000      -0.258348        -7.0300
 106   1.0000      -0.255543        -6.9537
 107   1.0000      -0.255070        -6.9408
 108   1.0000      -0.253590        -6.9005
 109   1.0000      -0.251961        -6.8562
 110   1.0000      -0.250960        -6.8290
 111   1.0000      -0.250331        -6.8119
 112   1.0000      -0.248583        -6.7643
 113   1.0000      -0.246968        -6.7204
 114   1.0000      -0.245030        -6.6676
 115   1.0000      -0.244280        -6.6472
 116   1.0000      -0.240591        -6.5468
 117   1.0000      -0.240129        -6.5343
 118   1.0000      -0.238435        -6.4882
 119   1.0000      -0.236941        -6.4475
 120   1.0000      -0.225709        -6.1419
 121   1.0000      -0.219050        -5.9606
 122   1.0000      -0.205325        -5.5872
 123   1.0000      -0.198837        -5.4106
 124   0.0000      -0.170057        -4.6275
 125   0.0000      -0.154256        -4.1975
 126   0.0000      -0.146875        -3.9967
 127   0.0000      -0.113409        -3.0860
 128   0.0000      -0.112587        -3.0636

MULLIKEN ATOMIC CHARGES AND SPIN POPULATIONS
--------------------------------------------
   0 Au:    0.359274    0.021035
   1 Au:    0.407977    0.084601
   2 Au:    0.178699    0.038152
   3 Au:    0.217012    0.109574
   4 Au:    0.334710    0.136293
   5 Au:    0.489717    0.006611
   6 Au:    0.201907   -0.000764
   7 Au:    0.326891    0.011335
   8 Au:    0.477687    0.022241
   9 Au:    0.384615    0.034891
  10 Au:    0.332236    0.023684
  11 Au:    0.333516    0.007944
  12 Cr:   -4.044241    3.504404
Sum of atomic charges         :   -0.0000000

LOEWDIN ATOMIC CHARGES AND SPIN POPULATIONS
-------------------------------------------
   0 Au:    0.135990    0.013262
   1 Au:    0.078693    0.061517
   2 Au:    0.065090    0.043964
   3 Au:    0.014837    0.090178
   4 Au:    0.131002    0.107426
   5 Au:    0.114180    0.007643
   6 Au:    0.044015    0.024930
   7 Au:    0.138287    0.015754
   8 Au:    0.107495    0.008078
   9 Au:    0.098724    0.017335
  10 Au:    0.124595    0.017078
  11 Au:    0.146964    0.016374
  12 Cr:   -1.199871    3.576463

  Mayer bond orders larger than 0.100000
B(  0-Au,  5-Au) :   0.2487 B(  0-Au,  6-Au) :   0.3118 B(  0-Au,  8-Au) :   0.2426
B(  0-Au,  9-Au) :   0.2803 B(  0-Au, 12-Cr) :   0.3812 B(  1-Au,  7-Au) :   0.2230
B(  1-Au,  8-Au) :   0.2747 B(  1-Au,  9-Au) :   0.2042 B(  1-Au, 10-Au) :   0.1836
B(  1-Au, 12-Cr) :   0.4618 B(  2-Au,  4-Au) :   0.3059 B(  2-Au,  6-Au) :   0.1838
B(  2-Au,  7-Au) :   0.4984 B(  2-Au, 12-Cr) :   0.5876 B(  3-Au,  4-Au) :   0.3650
B(  3-Au,  5-Au) :   0.2796 B(  3-Au, 11-Au) :   0.2930 B(  3-Au, 12-Cr) :   0.4694
B(  4-Au,  6-Au) :   0.3686 B(  4-Au, 12-Cr) :   0.3186 B(  5-Au,  9-Au) :   0.2181
B(  5-Au, 11-Au) :   0.1616 B(  5-Au, 12-Cr) :   0.6424 B(  6-Au,  8-Au) :   0.2601
B(  6-Au, 12-Cr) :   0.6081 B(  7-Au,  8-Au) :   0.1161 B(  7-Au, 12-Cr) :   0.6773
B(  8-Au, 12-Cr) :   0.6256 B(  9-Au, 10-Au) :   0.2100 B(  9-Au, 12-Cr) :   0.5943
B( 10-Au, 11-Au) :   0.3811 B( 10-Au, 12-Cr) :   0.6135 B( 11-Au, 12-Cr) :   0.6240

FINAL SINGLE POINT ENERGY     -2674.155232485229

DIPOLE MOMENT
-------------
                                X             Y             Z
Electronic contribution:      2.37022       5.86335     -13.22280
Nuclear contribution   :     -2.44804      -5.68115      13.06540
                        -----------------------------------------
Total Dipole Moment    :     -0.07783       0.18219      -0.15740
                        -----------------------------------------
Magnitude (a.u.)       :      0.25303
Magnitude (Debye)      :      0.64316

Rotational constants in cm-1:     0.001583     0.001177     0.001076
Rotational constants in MHz :    47.458984    35.294942    32.260521

                             ****ORCA TERMINATED NORMALLY****
TOTAL RUN TIME: 0 days 4 hours 20 minutes 15 seconds 462 msec
