                         Program Version 5.0.3 -  RELEASE  -
|  1> !SC-NEVPT2 def2-TZVP def2-TZVP/C
|  2> !MOREAD RIJCOSX def2/J
|  3> %maxcore 4000
|  4> %moinp "casscf.gbw"
|  5> %pal nprocs 6 end
|  6>
|  7> %casscf
|  8>  mult 6,4
|  9>  bweight 1,1
| 10>  nroots 1,24
| 11>  nel 5
| 12>  norb 5
| 13>  ptsettings
| 14>   d4tpre 1e-14 # default = 1e-10
| 15>   d3tpre 1e-14
| 16>  end
| 17>  rel
| 18>    dosoc true
| 19>    gtensor true
| 20>  end
| 21> end
| 22>
| 23>
| 24> *xyzfile 0 6 pbe.xyz
| 25>
| 26>
| 27>                          ****END OF INPUT****

CARTESIAN COORDINATES (ANGSTROEM)
---------------------------------
  Au     8.223142    8.974742   10.708606
  Au     9.919438    7.524330    8.956072
  Au     6.517022    7.546549    8.946978
  Au     9.937985   10.408418    8.960451
  Au     6.536043   10.430427    8.951372
  Au     6.543204   10.434449    6.252537
  Au     9.945682   10.412232    6.261583
  Au     6.524406    7.550424    6.248161
  Au     9.926890    7.528421    6.257178
  Au     8.239523    8.983912    4.500083
  Mn     8.231338    8.979337    7.604210

 Total Charge           Charge          ....    0
 Multiplicity           Mult            ....    6
 Number of Electrons    NEL             ....  215
 Basis Dimension        Dim             ....  445

ORBITAL ENERGIES
----------------

  NO   OCC          E(Eh)            E(eV)
   0   2.0000    -240.531262     -6545.1884
   1   2.0000     -29.110788      -792.1448
   2   2.0000     -24.816517      -675.2918
   3   2.0000     -24.815807      -675.2724
   4   2.0000     -24.815039      -675.2515
   5   2.0000      -4.710781      -128.1869
   6   2.0000      -4.710778      -128.1868
   7   2.0000      -4.710664      -128.1837
   8   2.0000      -4.710660      -128.1836
   9   2.0000      -4.710454      -128.1780
  10   2.0000      -4.710449      -128.1778
  11   2.0000      -4.710333      -128.1747
  12   2.0000      -4.710328      -128.1745
  13   2.0000      -4.694213      -127.7360
  14   2.0000      -4.694211      -127.7360
  15   2.0000      -3.800166      -103.4078
  16   2.0000      -2.752856       -74.9090
  17   2.0000      -2.752726       -74.9055
  18   2.0000      -2.752199       -74.8911
  19   2.0000      -2.751956       -74.8845
  20   2.0000      -2.750665       -74.8494
  21   2.0000      -2.750354       -74.8409
  22   2.0000      -2.749762       -74.8248
  23   2.0000      -2.749695       -74.8230
  24   2.0000      -2.748559       -74.7921
  25   2.0000      -2.748156       -74.7811
  26   2.0000      -2.747983       -74.7764
  27   2.0000      -2.747319       -74.7583
  28   2.0000      -2.745161       -74.6996
  29   2.0000      -2.744738       -74.6881
  30   2.0000      -2.744735       -74.6880
  31   2.0000      -2.744443       -74.6801
  32   2.0000      -2.743420       -74.6523
  33   2.0000      -2.743325       -74.6497
  34   2.0000      -2.743181       -74.6457
  35   2.0000      -2.743141       -74.6447
  36   2.0000      -2.742924       -74.6387
  37   2.0000      -2.742799       -74.6354
  38   2.0000      -2.742517       -74.6277
  39   2.0000      -2.742335       -74.6227
  40   2.0000      -2.729570       -74.2754
  41   2.0000      -2.729466       -74.2726
  42   2.0000      -2.727982       -74.2322
  43   2.0000      -2.727885       -74.2295
  44   2.0000      -2.727844       -74.2284
  45   2.0000      -2.727769       -74.2264
  46   2.0000      -2.469482       -67.1980
  47   2.0000      -2.467856       -67.1538
  48   2.0000      -2.466921       -67.1283
  49   2.0000      -0.563112       -15.3230
  50   2.0000      -0.547436       -14.8965
  51   2.0000      -0.539533       -14.6814
  52   2.0000      -0.533574       -14.5193
  53   2.0000      -0.528461       -14.3802
  54   2.0000      -0.528016       -14.3680
  55   2.0000      -0.526667       -14.3313
  56   2.0000      -0.526287       -14.3210
  57   2.0000      -0.524188       -14.2639
  58   2.0000      -0.522348       -14.2138
  59   2.0000      -0.519719       -14.1423
  60   2.0000      -0.519250       -14.1295
  61   2.0000      -0.516696       -14.0600
  62   2.0000      -0.513697       -13.9784
  63   2.0000      -0.512288       -13.9401
  64   2.0000      -0.508819       -13.8457
  65   2.0000      -0.501481       -13.6460
  66   2.0000      -0.496792       -13.5184
  67   2.0000      -0.491587       -13.3768
  68   2.0000      -0.491560       -13.3760
  69   2.0000      -0.485487       -13.2108
  70   2.0000      -0.482938       -13.1414
  71   2.0000      -0.482761       -13.1366
  72   2.0000      -0.479876       -13.0581
  73   2.0000      -0.476727       -12.9724
  74   2.0000      -0.473470       -12.8838
  75   2.0000      -0.469917       -12.7871
  76   2.0000      -0.468748       -12.7553
  77   2.0000      -0.467662       -12.7257
  78   2.0000      -0.466072       -12.6825
  79   2.0000      -0.462866       -12.5952
  80   2.0000      -0.459606       -12.5065
  81   2.0000      -0.448752       -12.2112
  82   2.0000      -0.448136       -12.1944
  83   2.0000      -0.443280       -12.0623
  84   2.0000      -0.442660       -12.0454
  85   2.0000      -0.440280       -11.9806
  86   2.0000      -0.440098       -11.9757
  87   2.0000      -0.435624       -11.8539
  88   2.0000      -0.434035       -11.8107
  89   2.0000      -0.432508       -11.7691
  90   2.0000      -0.431562       -11.7434
  91   2.0000      -0.430600       -11.7172
  92   2.0000      -0.426796       -11.6137
  93   2.0000      -0.426067       -11.5939
  94   2.0000      -0.423572       -11.5260
  95   2.0000      -0.423144       -11.5143
  96   2.0000      -0.418230       -11.3806
  97   2.0000      -0.412770       -11.2320
  98   2.0000      -0.406238       -11.0543
  99   2.0000      -0.390422       -10.6239
 100   2.0000      -0.336780        -9.1643
 101   2.0000      -0.320026        -8.7083
 102   2.0000      -0.295244        -8.0340
 103   2.0000      -0.271515        -7.3883
 104   2.0000      -0.215261        -5.8575
 105   1.0000      -0.116748        -3.1769
 106   1.0000      -0.122967        -3.3461
 107   1.0000      -0.150641        -4.0991
 108   1.0000      -0.127332        -3.4649
 109   1.0000      -0.081387        -2.2147
 110   0.0000      -0.021163        -0.5759
 111   0.0000      -0.020585        -0.5601
 112   0.0000       0.005719         0.1556
 113   0.0000       0.029702         0.8082
 114   0.0000       0.032669         0.8890

MULLIKEN ATOMIC CHARGES AND SPIN DENSITIES
------------------------------------------
   0 Au:    0.115683    0.055215
   1 Au:    0.268511    0.083247
   2 Au:    0.268418    0.083251
   3 Au:    0.268552    0.083218
   4 Au:    0.268460    0.083242
   5 Au:    0.268560    0.083229
   6 Au:    0.268476    0.083229
   7 Au:    0.268585    0.083219
   8 Au:    0.268499    0.083240
   9 Au:    0.115688    0.055221
  10 Mn:   -2.379434    3.223690
Sum of atomic charges       :    0.0000000

LOEWDIN ATOMIC CHARGES AND SPIN DENSITIES
-----------------------------------------
   0 Au:   -0.011824    0.103320
   1 Au:    0.066126    0.078079
   2 Au:    0.066138    0.078165
   3 Au:    0.066108    0.078061
   4 Au:    0.066118    0.078158
   5 Au:    0.066138    0.078073
   6 Au:    0.066156    0.078155
   7 Au:    0.066131    0.078066
   8 Au:    0.066140    0.078161
   9 Au:   -0.011840    0.103325
  10 Mn:   -0.505391    3.168437

  Mayer bond orders larger than 0.100000
B(  0-Au,  1-Au) :   0.1732 B(  0-Au,  2-Au) :   0.1730 B(  0-Au,  3-Au) :   0.1733
B(  0-Au,  4-Au) :   0.1731 B(  0-Au,  9-Au) :   0.1082 B(  0-Au, 10-Mn) :   0.3854
B(  1-Au,  3-Au) :   0.1507 B(  1-Au,  8-Au) :   0.2603 B(  1-Au, 10-Mn) :   0.4734
B(  2-Au,  4-Au) :   0.1509 B(  2-Au,  7-Au) :   0.2604 B(  2-Au, 10-Mn) :   0.4735
B(  3-Au,  6-Au) :   0.2604 B(  3-Au, 10-Mn) :   0.4734 B(  4-Au,  5-Au) :   0.2604
B(  4-Au, 10-Mn) :   0.4734 B(  5-Au,  7-Au) :   0.1508 B(  5-Au,  9-Au) :   0.1732
B(  5-Au, 10-Mn) :   0.4734 B(  6-Au,  8-Au) :   0.1509 B(  6-Au,  9-Au) :   0.1729
B(  6-Au, 10-Mn) :   0.4735 B(  7-Au,  9-Au) :   0.1733 B(  7-Au, 10-Mn) :   0.4734
B(  8-Au,  9-Au) :   0.1730 B(  8-Au, 10-Mn) :   0.4734 B(  9-Au, 10-Mn) :   0.3855

FINAL SINGLE POINT ENERGY     -2503.030736166384

DIPOLE MOMENT
-------------
                                X             Y             Z
Electronic contribution:     -0.00018       0.00201       0.00329
Nuclear contribution   :      0.00018      -0.00193      -0.00334
                        -----------------------------------------
Total Dipole Moment    :      0.00000       0.00007      -0.00004
                        -----------------------------------------
Magnitude (a.u.)       :      0.00008
Magnitude (Debye)      :      0.00021

Rotational constants in cm-1:     0.002151     0.001696     0.001502
Rotational constants in MHz :    64.487260    50.832463    45.019299

                             ****ORCA TERMINATED NORMALLY****
TOTAL RUN TIME: 0 days 0 hours 38 minutes 48 seconds 320 msec
