                         Program Version 5.0.3 -  RELEASE  -
|  1> !SC-NEVPT2 def2-TZVP def2-TZVP/C
|  2> !MOREAD RIJCOSX def2/J
|  3> %maxcore 4000
|  4> %moinp "casscf.gbw"
|  5> %pal nprocs 8 end
|  6>
|  7> %casscf
|  8>  mult 5,3
|  9>  bweight 1,1
| 10>  nroots 5,45
| 11>  nel 6
| 12>  norb 5
| 13>  ptsettings
| 14>   d4tpre 1e-14 # default = 1e-10
| 15>   d3tpre 1e-14
| 16>  end
| 17>  rel
| 18>    dosoc true
| 19>    gtensor true
| 20>  end
| 21> end
| 22>
| 23>
| 24> *xyzfile 0 5 pbe.xyz
| 25>
| 26>
| 27>                          ****END OF INPUT****

CARTESIAN COORDINATES (ANGSTROEM)
---------------------------------
  Au     5.797307    5.483055    9.391583
  Au     3.978372    7.177994    8.038326
  Au     5.288848    9.708976    7.538700
  Au     5.888735    8.260405    9.917036
  Au     7.785270   10.810436    7.606747
  Au    12.368103    9.629094    7.396142
  Au    10.287591   10.934695    8.715105
  Au     8.355469    6.632646    9.458288
  Au    10.542899    8.026308    8.654934
  Au     8.366344    9.403981    9.929150
  Au     9.183753    6.887248    6.538437
  Au     9.919745    9.525791    6.180485
  Au     7.547871    4.790223    7.366661
  Au     6.951336    6.221013    5.012244
  Au     7.343808    9.058309    5.458673
  Au     4.790440    7.897206    5.425005
  Cr     6.600936    7.332310    7.464670

 Total Charge           Charge          ....    0
 Multiplicity           Mult            ....    5
 Number of Electrons    NEL             ....  328
 Basis Dimension        Dim             ....  685

ORBITAL ENERGIES
----------------

  NO   OCC          E(Eh)            E(eV)
   0   2.0000    -220.527322     -6000.8535
   1   2.0000     -26.369010      -717.5372
   2   2.0000     -22.302334      -606.8774
   3   2.0000     -22.300294      -606.8219
   4   2.0000     -22.290974      -606.5682
   5   2.0000      -4.727458      -128.6407
   6   2.0000      -4.719880      -128.4345
   7   2.0000      -4.714024      -128.2751
   8   2.0000      -4.713948      -128.2731
   9   2.0000      -4.712405      -128.2310
  10   2.0000      -4.711645      -128.2104
  11   2.0000      -4.711568      -128.2083
  12   2.0000      -4.710618      -128.1824
  13   2.0000      -4.710364      -128.1755
  14   2.0000      -4.708218      -128.1171
  15   2.0000      -4.708150      -128.1153
  16   2.0000      -4.702843      -127.9709
  17   2.0000      -4.702692      -127.9667
  18   2.0000      -4.702598      -127.9642
  19   2.0000      -4.697843      -127.8348
  20   2.0000      -4.697597      -127.8281
  21   2.0000      -3.420123       -93.0663
  22   2.0000      -2.767526       -75.3082
  23   2.0000      -2.764708       -75.2315
  24   2.0000      -2.762989       -75.1848
  25   2.0000      -2.760911       -75.1282
  26   2.0000      -2.756735       -75.0146
  27   2.0000      -2.755322       -74.9761
  28   2.0000      -2.754085       -74.9425
  29   2.0000      -2.753962       -74.9391
  30   2.0000      -2.752924       -74.9109
  31   2.0000      -2.750504       -74.8450
  32   2.0000      -2.750293       -74.8393
  33   2.0000      -2.749656       -74.8219
  34   2.0000      -2.749466       -74.8168
  35   2.0000      -2.749054       -74.8055
  36   2.0000      -2.748958       -74.8030
  37   2.0000      -2.748346       -74.7863
  38   2.0000      -2.748213       -74.7827
  39   2.0000      -2.747829       -74.7722
  40   2.0000      -2.747700       -74.7687
  41   2.0000      -2.747305       -74.7580
  42   2.0000      -2.746568       -74.7379
  43   2.0000      -2.746468       -74.7352
  44   2.0000      -2.746040       -74.7236
  45   2.0000      -2.745898       -74.7197
  46   2.0000      -2.745391       -74.7059
  47   2.0000      -2.744158       -74.6723
  48   2.0000      -2.743895       -74.6652
  49   2.0000      -2.743401       -74.6517
  50   2.0000      -2.743274       -74.6483
  51   2.0000      -2.742832       -74.6363
  52   2.0000      -2.742648       -74.6312
  53   2.0000      -2.741846       -74.6094
  54   2.0000      -2.741811       -74.6085
  55   2.0000      -2.741368       -74.5964
  56   2.0000      -2.740580       -74.5750
  57   2.0000      -2.739396       -74.5428
  58   2.0000      -2.738208       -74.5104
  59   2.0000      -2.738159       -74.5091
  60   2.0000      -2.737542       -74.4923
  61   2.0000      -2.736313       -74.4589
  62   2.0000      -2.735929       -74.4484
  63   2.0000      -2.734687       -74.4146
  64   2.0000      -2.734342       -74.4052
  65   2.0000      -2.733271       -74.3761
  66   2.0000      -2.732998       -74.3687
  67   2.0000      -2.732211       -74.3472
  68   2.0000      -2.731963       -74.3405
  69   2.0000      -2.729408       -74.2710
  70   2.0000      -2.184102       -59.4324
  71   2.0000      -2.182750       -59.3957
  72   2.0000      -2.172511       -59.1170
  73   2.0000      -0.563336       -15.3291
  74   2.0000      -0.559819       -15.2335
  75   2.0000      -0.554438       -15.0870
  76   2.0000      -0.550465       -14.9789
  77   2.0000      -0.548871       -14.9355
  78   2.0000      -0.548450       -14.9241
  79   2.0000      -0.543715       -14.7952
  80   2.0000      -0.541829       -14.7439
  81   2.0000      -0.541368       -14.7314
  82   2.0000      -0.539933       -14.6923
  83   2.0000      -0.536182       -14.5902
  84   2.0000      -0.535603       -14.5745
  85   2.0000      -0.535051       -14.5595
  86   2.0000      -0.533653       -14.5214
  87   2.0000      -0.533579       -14.5194
  88   2.0000      -0.531288       -14.4571
  89   2.0000      -0.529743       -14.4150
  90   2.0000      -0.528770       -14.3886
  91   2.0000      -0.528323       -14.3764
  92   2.0000      -0.526542       -14.3279
  93   2.0000      -0.521337       -14.1863
  94   2.0000      -0.518379       -14.1058
  95   2.0000      -0.518066       -14.0973
  96   2.0000      -0.514164       -13.9911
  97   2.0000      -0.513901       -13.9839
  98   2.0000      -0.511536       -13.9196
  99   2.0000      -0.508209       -13.8291
 100   2.0000      -0.506740       -13.7891
 101   2.0000      -0.503418       -13.6987
 102   2.0000      -0.502435       -13.6719
 103   2.0000      -0.501240       -13.6394
 104   2.0000      -0.496457       -13.5093
 105   2.0000      -0.494340       -13.4517
 106   2.0000      -0.492997       -13.4151
 107   2.0000      -0.491584       -13.3767
 108   2.0000      -0.487436       -13.2638
 109   2.0000      -0.487174       -13.2567
 110   2.0000      -0.483756       -13.1637
 111   2.0000      -0.479043       -13.0354
 112   2.0000      -0.477373       -12.9900
 113   2.0000      -0.473622       -12.8879
 114   2.0000      -0.471273       -12.8240
 115   2.0000      -0.469928       -12.7874
 116   2.0000      -0.466535       -12.6951
 117   2.0000      -0.464137       -12.6298
 118   2.0000      -0.462948       -12.5975
 119   2.0000      -0.460439       -12.5292
 120   2.0000      -0.459807       -12.5120
 121   2.0000      -0.457543       -12.4504
 122   2.0000      -0.453710       -12.3461
 123   2.0000      -0.453113       -12.3298
 124   2.0000      -0.451048       -12.2737
 125   2.0000      -0.449417       -12.2293
 126   2.0000      -0.447047       -12.1648
 127   2.0000      -0.446074       -12.1383
 128   2.0000      -0.444944       -12.1076
 129   2.0000      -0.442674       -12.0458
 130   2.0000      -0.442155       -12.0317
 131   2.0000      -0.439555       -11.9609
 132   2.0000      -0.438622       -11.9355
 133   2.0000      -0.437460       -11.9039
 134   2.0000      -0.436274       -11.8716
 135   2.0000      -0.436194       -11.8694
 136   2.0000      -0.434370       -11.8198
 137   2.0000      -0.432085       -11.7576
 138   2.0000      -0.429275       -11.6812
 139   2.0000      -0.428590       -11.6625
 140   2.0000      -0.427244       -11.6259
 141   2.0000      -0.426056       -11.5936
 142   2.0000      -0.423607       -11.5269
 143   2.0000      -0.421163       -11.4604
 144   2.0000      -0.417544       -11.3619
 145   2.0000      -0.413352       -11.2479
 146   2.0000      -0.412014       -11.2115
 147   2.0000      -0.411717       -11.2034
 148   2.0000      -0.407376       -11.0853
 149   2.0000      -0.406035       -11.0488
 150   2.0000      -0.404491       -11.0068
 151   2.0000      -0.401163       -10.9162
 152   2.0000      -0.388058       -10.5596
 153   2.0000      -0.387106       -10.5337
 154   2.0000      -0.376950       -10.2573
 155   2.0000      -0.350626        -9.5410
 156   2.0000      -0.342027        -9.3070
 157   2.0000      -0.283187        -7.7059
 158   2.0000      -0.248144        -6.7523
 159   2.0000      -0.236262        -6.4290
 160   2.0000      -0.220270        -5.9939
 161   1.2000      -0.102979        -2.8022
 162   1.2000      -0.110147        -2.9972
 163   1.2000      -0.125893        -3.4257
 164   1.2000      -0.111537        -3.0351
 165   1.2000      -0.148853        -4.0505
 166   0.0000      -0.025525        -0.6946
 167   0.0000      -0.012800        -0.3483
 168   0.0000      -0.006037        -0.1643
 169   0.0000       0.001683         0.0458
 170   0.0000       0.011072         0.3013

MULLIKEN ATOMIC CHARGES AND SPIN DENSITIES
------------------------------------------
   0 Au:    0.605326    0.029469
   1 Au:    0.628397    0.018896
   2 Au:    0.519554    0.025440
   3 Au:    0.518214    0.025661
   4 Au:   -0.070001    0.013159
   5 Au:    0.668246    0.009125
   6 Au:    0.274132    0.005725
   7 Au:    0.198883    0.024549
   8 Au:   -0.200889    0.010337
   9 Au:   -0.074250    0.013216
  10 Au:    0.153255    0.026170
  11 Au:   -0.196145    0.010255
  12 Au:    0.545199    0.023328
  13 Au:    0.546229    0.023855
  14 Au:    0.195069    0.024887
  15 Au:    0.605692    0.029835
  16 Cr:   -4.916912    2.686095
Sum of atomic charges       :    0.0000000

LOEWDIN ATOMIC CHARGES AND SPIN DENSITIES
-----------------------------------------
   0 Au:    0.144954    0.053385
   1 Au:    0.214226    0.051634
   2 Au:    0.083077    0.064104
   3 Au:    0.082062    0.064032
   4 Au:   -0.002221    0.022635
   5 Au:    0.250800    0.011234
   6 Au:    0.012245    0.010494
   7 Au:    0.026851    0.050263
   8 Au:   -0.061468    0.013953
   9 Au:   -0.002433    0.022753
  10 Au:    0.010655    0.051477
  11 Au:   -0.060956    0.013841
  12 Au:    0.129742    0.063131
  13 Au:    0.129510    0.063545
  14 Au:    0.026446    0.050435
  15 Au:    0.144960    0.054048
  16 Cr:   -1.128448    2.339036

  Mayer bond orders larger than 0.100000
B(  0-Au,  1-Au) :   0.1085 B(  0-Au,  3-Au) :   0.1056 B(  0-Au,  7-Au) :   0.1311
B(  0-Au, 12-Au) :   0.1829 B(  0-Au, 14-Au) :   0.1268 B(  0-Au, 16-Cr) :   0.3420
B(  1-Au,  3-Au) :   0.1002 B(  1-Au, 10-Au) :   0.1459 B(  1-Au, 15-Au) :   0.1090
B(  1-Au, 16-Cr) :   0.2278 B(  2-Au,  3-Au) :   0.1583 B(  2-Au,  4-Au) :   0.1356
B(  2-Au, 12-Au) :   0.1864 B(  2-Au, 14-Au) :   0.1121 B(  2-Au, 15-Au) :   0.1055
B(  2-Au, 16-Cr) :   0.2908 B(  3-Au,  7-Au) :   0.1123 B(  3-Au,  9-Au) :   0.1373
B(  3-Au, 13-Au) :   0.1866 B(  3-Au, 16-Cr) :   0.2915 B(  4-Au,  6-Au) :   0.3090
B(  4-Au,  9-Au) :   0.2899 B(  4-Au, 11-Au) :   0.1581 B(  4-Au, 14-Au) :   0.2147
B(  4-Au, 16-Cr) :   0.3253 B(  5-Au,  6-Au) :   0.1370 B(  5-Au,  8-Au) :   0.2663
B(  5-Au, 11-Au) :   0.2657 B(  6-Au,  8-Au) :   0.2022 B(  6-Au,  9-Au) :   0.3112
B(  6-Au, 11-Au) :   0.2008 B(  7-Au,  8-Au) :   0.3724 B(  7-Au,  9-Au) :   0.2125
B(  7-Au, 10-Au) :   0.1524 B(  7-Au, 15-Au) :   0.1280 B(  7-Au, 16-Cr) :   0.3194
B(  8-Au,  9-Au) :   0.1582 B(  8-Au, 10-Au) :   0.1611 B(  8-Au, 11-Au) :   0.4675
B(  8-Au, 16-Cr) :   0.2121 B(  9-Au, 16-Cr) :   0.3268 B( 10-Au, 11-Au) :   0.1613
B( 10-Au, 12-Au) :   0.1302 B( 10-Au, 13-Au) :   0.1308 B( 10-Au, 14-Au) :   0.1537
B( 10-Au, 16-Cr) :   0.2448 B( 11-Au, 14-Au) :   0.3722 B( 11-Au, 16-Cr) :   0.2091
B( 12-Au, 13-Au) :   0.2045 B( 12-Au, 16-Cr) :   0.3533 B( 13-Au, 15-Au) :   0.1820
B( 13-Au, 16-Cr) :   0.3531 B( 14-Au, 15-Au) :   0.1308 B( 14-Au, 16-Cr) :   0.3189
B( 15-Au, 16-Cr) :   0.3428

FINAL SINGLE POINT ENERGY     -3208.221925192065

DIPOLE MOMENT
-------------
                                X             Y             Z
Electronic contribution:     41.30809      28.71014       6.91724
Nuclear contribution   :    -41.42608     -28.96247      -7.04251
                        -----------------------------------------
Total Dipole Moment    :     -0.11799      -0.25233      -0.12527
                        -----------------------------------------
Magnitude (a.u.)       :      0.30542
Magnitude (Debye)      :      0.77632

Rotational constants in cm-1:     0.001098     0.000650     0.000649
Rotational constants in MHz :    32.910697    19.473954    19.466722

                             ****ORCA TERMINATED NORMALLY****
TOTAL RUN TIME: 0 days 2 hours 5 minutes 13 seconds 68 msec
