                         Program Version 5.0.3 -  RELEASE  -
|  1> %pal nprocs 1 end
|  2>
|  3> !PBE def2-TZVP OPT UNO
|  4> !SLOWCONV
|  5>
|  6> *xyz 0 3
|  7> Au  6.89390120979644      6.07360748571219      5.23513562302615
|  8> Au  6.39042673811475      9.04231675953343      5.91688667481937
|  9> Au  8.78236988692296      7.97896308020377      4.75419396615442
| 10> Au  8.03424953125682      4.90121742274537      8.98996652611592
| 11> Au  10.33807587470007      8.72831863996447      7.03452632926852
| 12> Au  8.71679449774113     10.59316632617838      5.62313189200335
| 13> Au  9.28019928068161      6.08974635834033      6.71705052831460
| 14> Au  4.56326330231360      7.03192032984328      6.49980006510371
| 15> Au  9.36114742279191      7.40225207327828      9.24322269300216
| 16> Au  6.85091867273047      7.12386578860739     10.40874299280775
| 17> Au  5.35412103666950      8.89679440427299      8.66347246431356
| 18> Au  5.79958338841830      4.58560012471438      7.37453396608868
| 19> Au  4.51890820381478      6.28974455781078      9.21295466773755
| 20> Au  7.96856212006139      9.59757949860358      8.18940923674645
| 21> Fe  6.95888093398595      7.00037085019118      7.76673372449756
| 22> *
| 23>
| 24>                          ****END OF INPUT****
 Total Charge           Charge          ....    0
 Multiplicity           Mult            ....    3
 Number of Electrons    NEL             ....  292
FINAL SINGLE POINT ENERGY     -3165.064141653078
                    ***********************HURRAY********************

CARTESIAN COORDINATES (ANGSTROEM)
---------------------------------
  Au     6.894476    6.074521    5.235777
  Au     6.390499    9.041762    5.917489
  Au     8.783417    7.978239    4.754697
  Au     8.033257    4.900685    8.990103
  Au    10.338393    8.729339    7.034326
  Au     8.716446   10.592788    5.620706
  Au     9.280462    6.089016    6.717776
  Au     4.562736    7.033207    6.500389
  Au     9.360308    7.402762    9.242671
  Au     6.851395    7.123399   10.409214
  Au     5.354608    8.896621    8.665226
  Au     5.799429    4.585790    7.372787
  Au     4.518613    6.288413    9.212249
  Au     7.968289    9.598898    8.188772
  Fe     6.959074    7.000024    7.767579

 Multiplicity           Mult            ....    3
 Number of Electrons    NEL             ....  292
 Basis Dimension        Dim             ....  605

ORBITAL ENERGIES
----------------
                 SPIN UP ORBITALS
  NO   OCC          E(Eh)            E(eV)
   0   1.0000    -254.749331     -6932.0817
   1   1.0000     -29.584643      -805.0391
   2   1.0000     -25.526446      -694.6099
   3   1.0000     -25.523267      -694.5234
   4   1.0000     -25.511476      -694.2026
   5   1.0000      -4.033143      -109.7474
   6   1.0000      -4.032517      -109.7304
   7   1.0000      -4.032220      -109.7223
   8   1.0000      -4.032108      -109.7192
   9   1.0000      -4.031261      -109.6962
  10   1.0000      -4.028508      -109.6213
  11   1.0000      -4.028273      -109.6149
  12   1.0000      -4.026577      -109.5687
  13   1.0000      -4.025781      -109.5471
  14   1.0000      -4.022996      -109.4713
  15   1.0000      -4.018631      -109.3525
  16   1.0000      -4.017707      -109.3274
  17   1.0000      -4.016910      -109.3057
  18   1.0000      -4.012943      -109.1977
  19   1.0000      -3.361484       -91.4706
  20   1.0000      -2.248625       -61.1882
  21   1.0000      -2.248244       -61.1778
  22   1.0000      -2.248127       -61.1746
  23   1.0000      -2.247375       -61.1542
  24   1.0000      -2.246915       -61.1417
  25   1.0000      -2.246820       -61.1391
  26   1.0000      -2.246436       -61.1286
  27   1.0000      -2.245834       -61.1122
  28   1.0000      -2.245476       -61.1025
  29   1.0000      -2.244800       -61.0841
  30   1.0000      -2.244206       -61.0679
  31   1.0000      -2.244065       -61.0641
  32   1.0000      -2.243354       -61.0448
  33   1.0000      -2.242857       -61.0312
  34   1.0000      -2.242724       -61.0276
  35   1.0000      -2.242285       -61.0157
  36   1.0000      -2.242031       -61.0088
  37   1.0000      -2.241469       -60.9935
  38   1.0000      -2.241264       -60.9879
  39   1.0000      -2.241176       -60.9855
  40   1.0000      -2.240628       -60.9706
  41   1.0000      -2.240333       -60.9626
  42   1.0000      -2.238937       -60.9246
  43   1.0000      -2.238876       -60.9229
  44   1.0000      -2.238311       -60.9075
  45   1.0000      -2.237454       -60.8842
  46   1.0000      -2.236536       -60.8592
  47   1.0000      -2.235317       -60.8261
  48   1.0000      -2.235155       -60.8217
  49   1.0000      -2.234963       -60.8164
  50   1.0000      -2.234466       -60.8029
  51   1.0000      -2.232304       -60.7441
  52   1.0000      -2.231617       -60.7254
  53   1.0000      -2.231382       -60.7190
  54   1.0000      -2.230702       -60.7005
  55   1.0000      -2.230068       -60.6832
  56   1.0000      -2.228625       -60.6440
  57   1.0000      -2.228499       -60.6405
  58   1.0000      -2.226802       -60.5944
  59   1.0000      -2.226440       -60.5845
  60   1.0000      -2.225182       -60.5503
  61   1.0000      -2.224778       -60.5393
  62   1.0000      -2.187891       -59.5355
  63   1.0000      -2.180986       -59.3477
  64   1.0000      -2.157410       -58.7061
  65   1.0000      -0.433947       -11.8083
  66   1.0000      -0.388717       -10.5775
  67   1.0000      -0.384294       -10.4572
  68   1.0000      -0.380879       -10.3642
  69   1.0000      -0.375602       -10.2207
  70   1.0000      -0.371671       -10.1137
  71   1.0000      -0.371147       -10.0994
  72   1.0000      -0.366626        -9.9764
  73   1.0000      -0.361220        -9.8293
  74   1.0000      -0.360627        -9.8132
  75   1.0000      -0.356324        -9.6961
  76   1.0000      -0.354319        -9.6415
  77   1.0000      -0.350951        -9.5499
  78   1.0000      -0.350830        -9.5466
  79   1.0000      -0.348364        -9.4795
  80   1.0000      -0.347190        -9.4475
  81   1.0000      -0.344366        -9.3707
  82   1.0000      -0.343991        -9.3605
  83   1.0000      -0.340197        -9.2572
  84   1.0000      -0.339591        -9.2407
  85   1.0000      -0.335741        -9.1360
  86   1.0000      -0.332219        -9.0401
  87   1.0000      -0.330749        -9.0001
  88   1.0000      -0.329909        -8.9773
  89   1.0000      -0.327712        -8.9175
  90   1.0000      -0.323760        -8.8100
  91   1.0000      -0.321157        -8.7391
  92   1.0000      -0.319489        -8.6937
  93   1.0000      -0.318194        -8.6585
  94   1.0000      -0.315230        -8.5778
  95   1.0000      -0.311857        -8.4861
  96   1.0000      -0.311362        -8.4726
  97   1.0000      -0.308786        -8.4025
  98   1.0000      -0.305991        -8.3265
  99   1.0000      -0.303584        -8.2609
 100   1.0000      -0.301866        -8.2142
 101   1.0000      -0.299457        -8.1487
 102   1.0000      -0.297361        -8.0916
 103   1.0000      -0.292882        -7.9697
 104   1.0000      -0.292407        -7.9568
 105   1.0000      -0.289921        -7.8891
 106   1.0000      -0.289423        -7.8756
 107   1.0000      -0.285253        -7.7621
 108   1.0000      -0.283862        -7.7243
 109   1.0000      -0.282635        -7.6909
 110   1.0000      -0.278337        -7.5739
 111   1.0000      -0.275636        -7.5004
 112   1.0000      -0.272828        -7.4240
 113   1.0000      -0.271857        -7.3976
 114   1.0000      -0.270030        -7.3479
 115   1.0000      -0.268462        -7.3052
 116   1.0000      -0.267216        -7.2713
 117   1.0000      -0.264859        -7.2072
 118   1.0000      -0.263627        -7.1737
 119   1.0000      -0.261909        -7.1269
 120   1.0000      -0.261423        -7.1137
 121   1.0000      -0.260775        -7.0960
 122   1.0000      -0.259271        -7.0551
 123   1.0000      -0.258252        -7.0274
 124   1.0000      -0.257209        -6.9990
 125   1.0000      -0.256156        -6.9704
 126   1.0000      -0.254796        -6.9333
 127   1.0000      -0.253766        -6.9053
 128   1.0000      -0.252322        -6.8660
 129   1.0000      -0.250984        -6.8296
 130   1.0000      -0.250544        -6.8177
 131   1.0000      -0.250076        -6.8049
 132   1.0000      -0.247925        -6.7464
 133   1.0000      -0.247777        -6.7423
 134   1.0000      -0.246376        -6.7042
 135   1.0000      -0.245446        -6.6789
 136   1.0000      -0.242668        -6.6033
 137   1.0000      -0.242253        -6.5920
 138   1.0000      -0.240498        -6.5443
 139   1.0000      -0.240105        -6.5336
 140   1.0000      -0.238502        -6.4900
 141   1.0000      -0.236434        -6.4337
 142   1.0000      -0.232770        -6.3340
 143   1.0000      -0.231071        -6.2878
 144   1.0000      -0.212132        -5.7724
 145   1.0000      -0.203015        -5.5243
 146   1.0000      -0.201085        -5.4718
 147   0.0000      -0.181724        -4.9450
 148   0.0000      -0.180453        -4.9104
 149   0.0000      -0.138964        -3.7814
 150   0.0000      -0.132312        -3.6004
 151   0.0000      -0.127183        -3.4608

                 SPIN DOWN ORBITALS
  NO   OCC          E(Eh)            E(eV)
   0   1.0000    -254.748690     -6932.0643
   1   1.0000     -29.529378      -803.5352
   2   1.0000     -25.482459      -693.4130
   3   1.0000     -25.480903      -693.3706
   4   1.0000     -25.472648      -693.1460
   5   1.0000      -4.033415      -109.7548
   6   1.0000      -4.032518      -109.7304
   7   1.0000      -4.032205      -109.7219
   8   1.0000      -4.032083      -109.7186
   9   1.0000      -4.030990      -109.6888
  10   1.0000      -4.029015      -109.6351
  11   1.0000      -4.028871      -109.6311
  12   1.0000      -4.026554      -109.5681
  13   1.0000      -4.025850      -109.5489
  14   1.0000      -4.023134      -109.4750
  15   1.0000      -4.019125      -109.3660
  16   1.0000      -4.018187      -109.3404
  17   1.0000      -4.017366      -109.3181
  18   1.0000      -4.013488      -109.2126
  19   1.0000      -3.236255       -88.0630
  20   1.0000      -2.248597       -61.1874
  21   1.0000      -2.248384       -61.1816
  22   1.0000      -2.248119       -61.1744
  23   1.0000      -2.247250       -61.1508
  24   1.0000      -2.246743       -61.1370
  25   1.0000      -2.246610       -61.1334
  26   1.0000      -2.246336       -61.1259
  27   1.0000      -2.245891       -61.1138
  28   1.0000      -2.245373       -61.0997
  29   1.0000      -2.244827       -61.0848
  30   1.0000      -2.244418       -61.0737
  31   1.0000      -2.243999       -61.0623
  32   1.0000      -2.243700       -61.0542
  33   1.0000      -2.243476       -61.0481
  34   1.0000      -2.242979       -61.0346
  35   1.0000      -2.242234       -61.0143
  36   1.0000      -2.242012       -61.0083
  37   1.0000      -2.241486       -60.9939
  38   1.0000      -2.241394       -60.9914
  39   1.0000      -2.241005       -60.9808
  40   1.0000      -2.240760       -60.9742
  41   1.0000      -2.240576       -60.9692
  42   1.0000      -2.239234       -60.9326
  43   1.0000      -2.239122       -60.9296
  44   1.0000      -2.238685       -60.9177
  45   1.0000      -2.237294       -60.8799
  46   1.0000      -2.236904       -60.8693
  47   1.0000      -2.235833       -60.8401
  48   1.0000      -2.235567       -60.8329
  49   1.0000      -2.235215       -60.8233
  50   1.0000      -2.234812       -60.8123
  51   1.0000      -2.232941       -60.7614
  52   1.0000      -2.232120       -60.7391
  53   1.0000      -2.232031       -60.7366
  54   1.0000      -2.231408       -60.7197
  55   1.0000      -2.230715       -60.7008
  56   1.0000      -2.228925       -60.6521
  57   1.0000      -2.228897       -60.6514
  58   1.0000      -2.227188       -60.6049
  59   1.0000      -2.226876       -60.5964
  60   1.0000      -2.225888       -60.5695
  61   1.0000      -2.225152       -60.5495
  62   1.0000      -2.059002       -56.0283
  63   1.0000      -2.056776       -55.9677
  64   1.0000      -2.042720       -55.5852
  65   1.0000      -0.430785       -11.7223
  66   1.0000      -0.388529       -10.5724
  67   1.0000      -0.384804       -10.4710
  68   1.0000      -0.381037       -10.3685
  69   1.0000      -0.369636       -10.0583
  70   1.0000      -0.367006        -9.9867
  71   1.0000      -0.365151        -9.9363
  72   1.0000      -0.362168        -9.8551
  73   1.0000      -0.361303        -9.8316
  74   1.0000      -0.359288        -9.7767
  75   1.0000      -0.354184        -9.6378
  76   1.0000      -0.353087        -9.6080
  77   1.0000      -0.351945        -9.5769
  78   1.0000      -0.350168        -9.5285
  79   1.0000      -0.348839        -9.4924
  80   1.0000      -0.347031        -9.4432
  81   1.0000      -0.344817        -9.3829
  82   1.0000      -0.343556        -9.3486
  83   1.0000      -0.341236        -9.2855
  84   1.0000      -0.339906        -9.2493
  85   1.0000      -0.335804        -9.1377
  86   1.0000      -0.333122        -9.0647
  87   1.0000      -0.331031        -9.0078
  88   1.0000      -0.329908        -8.9773
  89   1.0000      -0.327579        -8.9139
  90   1.0000      -0.322958        -8.7881
  91   1.0000      -0.320933        -8.7330
  92   1.0000      -0.318820        -8.6755
  93   1.0000      -0.317185        -8.6310
  94   1.0000      -0.315610        -8.5882
  95   1.0000      -0.311295        -8.4708
  96   1.0000      -0.308518        -8.3952
  97   1.0000      -0.305087        -8.3019
  98   1.0000      -0.303796        -8.2667
  99   1.0000      -0.299433        -8.1480
 100   1.0000      -0.298994        -8.1360
 101   1.0000      -0.296398        -8.0654
 102   1.0000      -0.294311        -8.0086
 103   1.0000      -0.292826        -7.9682
 104   1.0000      -0.289820        -7.8864
 105   1.0000      -0.288491        -7.8502
 106   1.0000      -0.286484        -7.7956
 107   1.0000      -0.283955        -7.7268
 108   1.0000      -0.283254        -7.7077
 109   1.0000      -0.280461        -7.6317
 110   1.0000      -0.278920        -7.5898
 111   1.0000      -0.276159        -7.5147
 112   1.0000      -0.273374        -7.4389
 113   1.0000      -0.271846        -7.3973
 114   1.0000      -0.270071        -7.3490
 115   1.0000      -0.268688        -7.3114
 116   1.0000      -0.267140        -7.2693
 117   1.0000      -0.265136        -7.2147
 118   1.0000      -0.263648        -7.1742
 119   1.0000      -0.262416        -7.1407
 120   1.0000      -0.261831        -7.1248
 121   1.0000      -0.260839        -7.0978
 122   1.0000      -0.259811        -7.0698
 123   1.0000      -0.258590        -7.0366
 124   1.0000      -0.257709        -7.0126
 125   1.0000      -0.256056        -6.9676
 126   1.0000      -0.254953        -6.9376
 127   1.0000      -0.253676        -6.9029
 128   1.0000      -0.252395        -6.8680
 129   1.0000      -0.250904        -6.8274
 130   1.0000      -0.249907        -6.8003
 131   1.0000      -0.248532        -6.7629
 132   1.0000      -0.246661        -6.7120
 133   1.0000      -0.243799        -6.6341
 134   1.0000      -0.242663        -6.6032
 135   1.0000      -0.241593        -6.5741
 136   1.0000      -0.240175        -6.5355
 137   1.0000      -0.238867        -6.4999
 138   1.0000      -0.234571        -6.3830
 139   1.0000      -0.218627        -5.9491
 140   1.0000      -0.210962        -5.7406
 141   1.0000      -0.209372        -5.6973
 142   1.0000      -0.200337        -5.4515
 143   1.0000      -0.197978        -5.3873
 144   1.0000      -0.174784        -4.7561
 145   0.0000      -0.155978        -4.2444
 146   0.0000      -0.155088        -4.2202
 147   0.0000      -0.149481        -4.0676
 148   0.0000      -0.145696        -3.9646
 149   0.0000      -0.136150        -3.7048

MULLIKEN ATOMIC CHARGES AND SPIN POPULATIONS
--------------------------------------------
   0 Au:    0.167452   -0.102810
   1 Au:   -0.165352   -0.087729
   2 Au:    0.098983    0.020241
   3 Au:    0.303436   -0.067289
   4 Au:    0.163423    0.042535
   5 Au:    0.332889   -0.075884
   6 Au:    0.086238   -0.082801
   7 Au:    0.363294   -0.071003
   8 Au:    0.156307   -0.083700
   9 Au:    0.288163   -0.082092
  10 Au:    0.338464   -0.087930
  11 Au:    0.311855   -0.046800
  12 Au:    0.240656    0.010801
  13 Au:   -0.078954   -0.118660
  14 Fe:   -2.606856    2.833120
Sum of atomic charges         :   -0.0000000

LOEWDIN ATOMIC CHARGES AND SPIN POPULATIONS
-------------------------------------------
   0 Au:    0.071842   -0.083453
   1 Au:   -0.004403   -0.100178
   2 Au:   -0.026479   -0.022229
   3 Au:    0.105344   -0.094514
   4 Au:   -0.006728    0.001246
   5 Au:    0.066633   -0.058355
   6 Au:    0.041158   -0.050773
   7 Au:    0.077203   -0.078616
   8 Au:    0.051348   -0.094364
   9 Au:    0.075936   -0.079671
  10 Au:    0.099052   -0.087188
  11 Au:    0.075320   -0.061764
  12 Au:    0.040602   -0.017808
  13 Au:   -0.006575   -0.088704
  14 Fe:   -0.660253    2.916373

  Mayer bond orders larger than 0.100000
B(  0-Au,  1-Au) :   0.1277 B(  0-Au,  2-Au) :   0.3450 B(  0-Au,  6-Au) :   0.1927
B(  0-Au,  7-Au) :   0.1607 B(  0-Au, 11-Au) :   0.1919 B(  0-Au, 14-Fe) :   0.5207
B(  1-Au,  2-Au) :   0.2683 B(  1-Au,  5-Au) :   0.3569 B(  1-Au,  7-Au) :   0.2735
B(  1-Au, 10-Au) :   0.1324 B(  1-Au, 13-Au) :   0.2573 B(  1-Au, 14-Fe) :   0.4669
B(  2-Au,  4-Au) :   0.2470 B(  2-Au,  5-Au) :   0.2851 B(  2-Au,  6-Au) :   0.3004
B(  2-Au, 14-Fe) :   0.1385 B(  3-Au,  6-Au) :   0.1793 B(  3-Au,  8-Au) :   0.1682
B(  3-Au,  9-Au) :   0.1462 B(  3-Au, 11-Au) :   0.2504 B(  3-Au, 14-Fe) :   0.5053
B(  4-Au,  5-Au) :   0.2228 B(  4-Au,  6-Au) :   0.2622 B(  4-Au,  8-Au) :   0.3542
B(  4-Au, 13-Au) :   0.3097 B(  4-Au, 14-Fe) :   0.1128 B(  5-Au, 13-Au) :   0.2527
B(  6-Au,  8-Au) :   0.1792 B(  6-Au, 14-Fe) :   0.5154 B(  7-Au, 11-Au) :   0.1555
B(  7-Au, 12-Au) :   0.2216 B(  7-Au, 14-Fe) :   0.4739 B(  8-Au,  9-Au) :   0.2157
B(  8-Au, 13-Au) :   0.2331 B(  8-Au, 14-Fe) :   0.4437 B(  9-Au, 10-Au) :   0.1534
B(  9-Au, 12-Au) :   0.2629 B(  9-Au, 14-Fe) :   0.5196 B( 10-Au, 12-Au) :   0.2315
B( 10-Au, 13-Au) :   0.2577 B( 10-Au, 14-Fe) :   0.4867 B( 11-Au, 12-Au) :   0.2078
B( 11-Au, 14-Fe) :   0.4360 B( 12-Au, 14-Fe) :   0.3622 B( 13-Au, 14-Fe) :   0.4484

FINAL SINGLE POINT ENERGY     -3165.064146512238

DIPOLE MOMENT
-------------
                                X             Y             Z
Electronic contribution:     14.58984      17.11544     -13.14905
Nuclear contribution   :    -14.79509     -17.27618      13.31873
                        -----------------------------------------
Total Dipole Moment    :     -0.20525      -0.16074       0.16969
                        -----------------------------------------
Magnitude (a.u.)       :      0.31106
Magnitude (Debye)      :      0.79066

Rotational constants in cm-1:     0.001327     0.000940     0.000902
Rotational constants in MHz :    39.790072    28.192060    27.034839

                             ****ORCA TERMINATED NORMALLY****
TOTAL RUN TIME: 0 days 0 hours 27 minutes 33 seconds 834 msec
