                         Program Version 5.0.3 -  RELEASE  -
|  1> %pal nprocs 1 end
|  2>
|  3> !PBE def2-TZVP OPT UNO
|  4> !SLOWCONV KDIIS
|  5>
|  6> %geom maxiter 300 end
|  7>
|  8> *xyzfile 0 4 1.xyz                           ****END OF INPUT****
 Total Charge           Charge          ....    0
 Multiplicity           Mult            ....    4
 Number of Electrons    NEL             ....  215
FINAL SINGLE POINT ENERGY     -2509.030449947946
FINAL SINGLE POINT ENERGY     -2509.031029487936
FINAL SINGLE POINT ENERGY     -2509.031059386345
FINAL SINGLE POINT ENERGY     -2509.031256960857
FINAL SINGLE POINT ENERGY     -2509.031292998406
FINAL SINGLE POINT ENERGY     -2509.031335696208
FINAL SINGLE POINT ENERGY     -2509.031379942161
FINAL SINGLE POINT ENERGY     -2509.031387379757
FINAL SINGLE POINT ENERGY     -2509.031390708672
                    ***********************HURRAY********************

CARTESIAN COORDINATES (ANGSTROEM)
---------------------------------
  Au     9.620322    7.099092    9.165754
  Au     8.028863    7.113122    4.913406
  Au     9.428267    4.361282    9.257526
  Au     8.906321    5.427267    6.779842
  Au     8.107483    9.801207    5.845744
  Au     6.314062    9.994150    8.016424
  Au     9.092775    9.628130    8.512477
  Au     7.000902    5.635693    9.087997
  Au     5.151813    7.421774    8.387706
  Au     5.647033    8.421811    5.768198
  Mn     7.631699    7.669630    7.476719

 Multiplicity           Mult            ....    4
 Number of Electrons    NEL             ....  215
 Basis Dimension        Dim             ....  445

ORBITAL ENERGIES
----------------
                 SPIN UP ORBITALS
  NO   OCC          E(Eh)            E(eV)
   0   1.0000    -234.197343     -6372.8337
   1   1.0000     -26.894073      -731.8249
   2   1.0000     -23.043313      -627.0404
   3   1.0000     -23.043310      -627.0403
   4   1.0000     -23.041754      -626.9980
   5   1.0000      -4.022442      -109.4562
   6   1.0000      -4.022382      -109.4546
   7   1.0000      -4.022373      -109.4543
   8   1.0000      -4.020668      -109.4079
   9   1.0000      -4.020509      -109.4036
  10   1.0000      -4.020500      -109.4034
  11   1.0000      -4.019796      -109.3842
  12   1.0000      -4.019773      -109.3836
  13   1.0000      -4.019731      -109.3824
  14   1.0000      -4.018628      -109.3524
  15   1.0000      -3.099752       -84.3485
  16   1.0000      -2.241767       -61.0016
  17   1.0000      -2.241168       -60.9853
  18   1.0000      -2.241150       -60.9848
  19   1.0000      -2.238452       -60.9114
  20   1.0000      -2.237996       -60.8990
  21   1.0000      -2.236880       -60.8686
  22   1.0000      -2.236864       -60.8682
  23   1.0000      -2.236493       -60.8581
  24   1.0000      -2.236485       -60.8578
  25   1.0000      -2.235785       -60.8388
  26   1.0000      -2.235279       -60.8250
  27   1.0000      -2.235269       -60.8248
  28   1.0000      -2.234550       -60.8052
  29   1.0000      -2.234543       -60.8050
  30   1.0000      -2.234316       -60.7988
  31   1.0000      -2.233359       -60.7728
  32   1.0000      -2.232655       -60.7536
  33   1.0000      -2.232319       -60.7445
  34   1.0000      -2.232289       -60.7437
  35   1.0000      -2.231311       -60.7171
  36   1.0000      -2.229982       -60.6809
  37   1.0000      -2.229972       -60.6806
  38   1.0000      -2.229191       -60.6594
  39   1.0000      -2.229181       -60.6591
  40   1.0000      -2.228902       -60.6515
  41   1.0000      -2.228884       -60.6510
  42   1.0000      -2.228547       -60.6418
  43   1.0000      -2.227999       -60.6269
  44   1.0000      -2.227972       -60.6262
  45   1.0000      -2.227908       -60.6245
  46   1.0000      -2.003447       -54.5166
  47   1.0000      -2.003437       -54.5163
  48   1.0000      -1.999864       -54.4191
  49   1.0000      -0.413033       -11.2392
  50   1.0000      -0.382267       -10.4020
  51   1.0000      -0.363585        -9.8937
  52   1.0000      -0.363542        -9.8925
  53   1.0000      -0.361347        -9.8327
  54   1.0000      -0.359308        -9.7773
  55   1.0000      -0.359288        -9.7767
  56   1.0000      -0.354282        -9.6405
  57   1.0000      -0.337918        -9.1952
  58   1.0000      -0.336186        -9.1481
  59   1.0000      -0.336169        -9.1476
  60   1.0000      -0.328008        -8.9256
  61   1.0000      -0.327995        -8.9252
  62   1.0000      -0.326787        -8.8923
  63   1.0000      -0.320130        -8.7112
  64   1.0000      -0.320054        -8.7091
  65   1.0000      -0.317453        -8.6383
  66   1.0000      -0.317389        -8.6366
  67   1.0000      -0.314927        -8.5696
  68   1.0000      -0.314858        -8.5677
  69   1.0000      -0.313899        -8.5416
  70   1.0000      -0.313185        -8.5222
  71   1.0000      -0.301204        -8.1962
  72   1.0000      -0.301143        -8.1945
  73   1.0000      -0.298776        -8.1301
  74   1.0000      -0.289951        -7.8900
  75   1.0000      -0.286710        -7.8018
  76   1.0000      -0.286673        -7.8008
  77   1.0000      -0.284326        -7.7369
  78   1.0000      -0.279311        -7.6004
  79   1.0000      -0.279299        -7.6001
  80   1.0000      -0.275652        -7.5009
  81   1.0000      -0.275643        -7.5006
  82   1.0000      -0.273732        -7.4486
  83   1.0000      -0.273637        -7.4460
  84   1.0000      -0.273606        -7.4452
  85   1.0000      -0.267077        -7.2675
  86   1.0000      -0.267063        -7.2671
  87   1.0000      -0.266374        -7.2484
  88   1.0000      -0.262995        -7.1565
  89   1.0000      -0.260033        -7.0759
  90   1.0000      -0.260010        -7.0752
  91   1.0000      -0.256055        -6.9676
  92   1.0000      -0.256041        -6.9672
  93   1.0000      -0.256003        -6.9662
  94   1.0000      -0.253404        -6.8955
  95   1.0000      -0.250706        -6.8221
  96   1.0000      -0.248415        -6.7597
  97   1.0000      -0.248394        -6.7591
  98   1.0000      -0.242818        -6.6074
  99   1.0000      -0.242798        -6.6069
 100   1.0000      -0.237623        -6.4661
 101   1.0000      -0.237593        -6.4652
 102   1.0000      -0.237536        -6.4637
 103   1.0000      -0.235291        -6.4026
 104   1.0000      -0.230189        -6.2638
 105   1.0000      -0.230138        -6.2624
 106   1.0000      -0.226522        -6.1640
 107   1.0000      -0.226473        -6.1626
 108   1.0000      -0.200086        -5.4446
 109   0.0000      -0.169836        -4.6215
 110   0.0000      -0.169797        -4.6204
 111   0.0000      -0.132218        -3.5978
 112   0.0000      -0.130567        -3.5529
 113   0.0000      -0.130456        -3.5499

                 SPIN DOWN ORBITALS
  NO   OCC          E(Eh)            E(eV)
   0   1.0000    -234.196620     -6372.8140
   1   1.0000     -26.830764      -730.1022
   2   1.0000     -22.994696      -625.7175
   3   1.0000     -22.994696      -625.7175
   4   1.0000     -22.994694      -625.7174
   5   1.0000      -4.021886      -109.4411
   6   1.0000      -4.021823      -109.4394
   7   1.0000      -4.021814      -109.4391
   8   1.0000      -4.020669      -109.4080
   9   1.0000      -4.020512      -109.4037
  10   1.0000      -4.020502      -109.4034
  11   1.0000      -4.019321      -109.3713
  12   1.0000      -4.019195      -109.3679
  13   1.0000      -4.019180      -109.3674
  14   1.0000      -4.019136      -109.3663
  15   1.0000      -2.944720       -80.1299
  16   1.0000      -2.241227       -60.9869
  17   1.0000      -2.240325       -60.9623
  18   1.0000      -2.240306       -60.9618
  19   1.0000      -2.237617       -60.8886
  20   1.0000      -2.237544       -60.8867
  21   1.0000      -2.236431       -60.8564
  22   1.0000      -2.236420       -60.8561
  23   1.0000      -2.235613       -60.8341
  24   1.0000      -2.235609       -60.8340
  25   1.0000      -2.235093       -60.8200
  26   1.0000      -2.234546       -60.8051
  27   1.0000      -2.234535       -60.8048
  28   1.0000      -2.234019       -60.7908
  29   1.0000      -2.234000       -60.7902
  30   1.0000      -2.233972       -60.7895
  31   1.0000      -2.233693       -60.7819
  32   1.0000      -2.232688       -60.7545
  33   1.0000      -2.232265       -60.7430
  34   1.0000      -2.232237       -60.7423
  35   1.0000      -2.231034       -60.7095
  36   1.0000      -2.230038       -60.6824
  37   1.0000      -2.230028       -60.6821
  38   1.0000      -2.229753       -60.6747
  39   1.0000      -2.229737       -60.6742
  40   1.0000      -2.228887       -60.6511
  41   1.0000      -2.228870       -60.6506
  42   1.0000      -2.228353       -60.6366
  43   1.0000      -2.227641       -60.6172
  44   1.0000      -2.227622       -60.6167
  45   1.0000      -2.227575       -60.6154
  46   1.0000      -1.851598       -50.3845
  47   1.0000      -1.849368       -50.3239
  48   1.0000      -1.849364       -50.3238
  49   1.0000      -0.406356       -11.0575
  50   1.0000      -0.382834       -10.4174
  51   1.0000      -0.360158        -9.8004
  52   1.0000      -0.360138        -9.7999
  53   1.0000      -0.354796        -9.6545
  54   1.0000      -0.354777        -9.6540
  55   1.0000      -0.354703        -9.6519
  56   1.0000      -0.351372        -9.5613
  57   1.0000      -0.339617        -9.2415
  58   1.0000      -0.330296        -8.9878
  59   1.0000      -0.330269        -8.9871
  60   1.0000      -0.326258        -8.8779
  61   1.0000      -0.322569        -8.7775
  62   1.0000      -0.322524        -8.7763
  63   1.0000      -0.319087        -8.6828
  64   1.0000      -0.319073        -8.6824
  65   1.0000      -0.315021        -8.5722
  66   1.0000      -0.314975        -8.5709
  67   1.0000      -0.314938        -8.5699
  68   1.0000      -0.308929        -8.4064
  69   1.0000      -0.307757        -8.3745
  70   1.0000      -0.307735        -8.3739
  71   1.0000      -0.300819        -8.1857
  72   1.0000      -0.300784        -8.1847
  73   1.0000      -0.299300        -8.1444
  74   1.0000      -0.289045        -7.8653
  75   1.0000      -0.287139        -7.8134
  76   1.0000      -0.287101        -7.8124
  77   1.0000      -0.280409        -7.6303
  78   1.0000      -0.279415        -7.6033
  79   1.0000      -0.279384        -7.6024
  80   1.0000      -0.274364        -7.4658
  81   1.0000      -0.274330        -7.4649
  82   1.0000      -0.273466        -7.4414
  83   1.0000      -0.270656        -7.3649
  84   1.0000      -0.270655        -7.3649
  85   1.0000      -0.267985        -7.2922
  86   1.0000      -0.267971        -7.2919
  87   1.0000      -0.266964        -7.2645
  88   1.0000      -0.263577        -7.1723
  89   1.0000      -0.259753        -7.0682
  90   1.0000      -0.259739        -7.0678
  91   1.0000      -0.255906        -6.9635
  92   1.0000      -0.255870        -6.9626
  93   1.0000      -0.255236        -6.9453
  94   1.0000      -0.253330        -6.8935
  95   1.0000      -0.252700        -6.8763
  96   1.0000      -0.247945        -6.7469
  97   1.0000      -0.247942        -6.7468
  98   1.0000      -0.237881        -6.4731
  99   1.0000      -0.237867        -6.4727
 100   1.0000      -0.236553        -6.4369
 101   1.0000      -0.234830        -6.3901
 102   1.0000      -0.234802        -6.3893
 103   1.0000      -0.209264        -5.6944
 104   1.0000      -0.190370        -5.1802
 105   1.0000      -0.190343        -5.1795
 106   0.0000      -0.146966        -3.9991
 107   0.0000      -0.146886        -3.9970
 108   0.0000      -0.140447        -3.8217
 109   0.0000      -0.123115        -3.3501
 110   0.0000      -0.123103        -3.3498

MULLIKEN ATOMIC CHARGES AND SPIN POPULATIONS
--------------------------------------------
   0 Au:    0.079306   -0.179617
   1 Au:    0.237872    0.013023
   2 Au:    0.325711    0.032763
   3 Au:    0.080016   -0.179946
   4 Au:    0.230516   -0.164194
   5 Au:    0.230564   -0.164725
   6 Au:    0.237854    0.012793
   7 Au:    0.079427   -0.179676
   8 Au:    0.238142    0.012685
   9 Au:    0.230757   -0.164208
  10 Mn:   -1.970164    3.961101
Sum of atomic charges         :   -0.0000000

LOEWDIN ATOMIC CHARGES AND SPIN POPULATIONS
-------------------------------------------
   0 Au:    0.015152   -0.091102
   1 Au:    0.093914   -0.054690
   2 Au:    0.077162   -0.034619
   3 Au:    0.015183   -0.091435
   4 Au:    0.034260   -0.129162
   5 Au:    0.034226   -0.129445
   6 Au:    0.093804   -0.054993
   7 Au:    0.015298   -0.091085
   8 Au:    0.093877   -0.055081
   9 Au:    0.034617   -0.129105
  10 Mn:   -0.507491    3.860716

  Mayer bond orders larger than 0.100000
B(  0-Au,  2-Au) :   0.3550 B(  0-Au,  3-Au) :   0.1114 B(  0-Au,  6-Au) :   0.3808
B(  0-Au,  7-Au) :   0.1108 B(  0-Au, 10-Mn) :   0.5956 B(  1-Au,  3-Au) :   0.3812
B(  1-Au,  4-Au) :   0.1819 B(  1-Au,  5-Au) :   0.1048 B(  1-Au,  9-Au) :   0.1806
B(  1-Au, 10-Mn) :   0.5414 B(  2-Au,  3-Au) :   0.3545 B(  2-Au,  7-Au) :   0.3546
B(  2-Au, 10-Mn) :   0.1135 B(  3-Au,  7-Au) :   0.1110 B(  3-Au, 10-Mn) :   0.5947
B(  4-Au,  5-Au) :   0.2164 B(  4-Au,  6-Au) :   0.1811 B(  4-Au,  8-Au) :   0.1048
B(  4-Au,  9-Au) :   0.2166 B(  4-Au, 10-Mn) :   0.5093 B(  5-Au,  6-Au) :   0.1820
B(  5-Au,  8-Au) :   0.1816 B(  5-Au,  9-Au) :   0.2156 B(  5-Au, 10-Mn) :   0.5094
B(  6-Au,  9-Au) :   0.1049 B(  6-Au, 10-Mn) :   0.5409 B(  7-Au,  8-Au) :   0.3809
B(  7-Au, 10-Mn) :   0.5957 B(  8-Au,  9-Au) :   0.1816 B(  8-Au, 10-Mn) :   0.5410
B(  9-Au, 10-Mn) :   0.5101

FINAL SINGLE POINT ENERGY     -2509.031391616956

DIPOLE MOMENT
-------------
                                X             Y             Z
Electronic contribution:      3.55388      -6.49706       3.50727
Nuclear contribution   :     -3.55243       6.49306      -3.50548
                        -----------------------------------------
Total Dipole Moment    :      0.00146      -0.00400       0.00179
                        -----------------------------------------
Magnitude (a.u.)       :      0.00462
Magnitude (Debye)      :      0.01174

Rotational constants in cm-1:     0.002289     0.001360     0.001359
Rotational constants in MHz :    68.619124    40.759069    40.746877

                             ****ORCA TERMINATED NORMALLY****
TOTAL RUN TIME: 0 days 1 hours 5 minutes 8 seconds 727 msec
