                         Program Version 5.0.3 -  RELEASE  -
|  1> %pal nprocs 1 end
|  2>
|  3> !PBE def2-TZVP OPT UNO
|  4> !SLOWCONV KDIIS
|  5>
|  6> %geom maxiter 300 end
|  7>
|  8> *xyzfile 0 3 6.xyz                           ****END OF INPUT****
 Total Charge           Charge          ....    0
 Multiplicity           Mult            ....    3
 Number of Electrons    NEL             ....  214
FINAL SINGLE POINT ENERGY     -2402.467293001995
FINAL SINGLE POINT ENERGY     -2402.470672351682
FINAL SINGLE POINT ENERGY     -2402.472663618898
FINAL SINGLE POINT ENERGY     -2402.473841829128
FINAL SINGLE POINT ENERGY     -2402.475124031090
FINAL SINGLE POINT ENERGY     -2402.476297671356
FINAL SINGLE POINT ENERGY     -2402.477405928933
FINAL SINGLE POINT ENERGY     -2402.478532152389
FINAL SINGLE POINT ENERGY     -2402.479594211169
FINAL SINGLE POINT ENERGY     -2402.480397273278
FINAL SINGLE POINT ENERGY     -2402.483540802117
FINAL SINGLE POINT ENERGY     -2402.483548925848
FINAL SINGLE POINT ENERGY     -2402.483567977530
FINAL SINGLE POINT ENERGY     -2402.483586344749
FINAL SINGLE POINT ENERGY     -2402.483601428122
FINAL SINGLE POINT ENERGY     -2402.483608238356
FINAL SINGLE POINT ENERGY     -2402.483611176855
FINAL SINGLE POINT ENERGY     -2402.483613301946
FINAL SINGLE POINT ENERGY     -2402.483614514699
                    ***********************HURRAY********************

CARTESIAN COORDINATES (ANGSTROEM)
---------------------------------
  Au    10.978515    5.899885    8.636645
  Au    12.206006    5.070810    6.340857
  Au     9.711958    3.974472    6.545877
  Au    10.288950    6.938243    5.791859
  Au     6.628762    5.432399    9.392658
  Au     7.115956    3.845335    7.134397
  Au     5.989107    6.386411    6.768453
  Au     8.991205    6.696885   10.221354
  Au     7.150080    8.154112    8.690495
  Au     7.966495    8.225680    6.008920
  Cr     8.556403    6.102622    7.602124

 Multiplicity           Mult            ....    3
 Number of Electrons    NEL             ....  214
 Basis Dimension        Dim             ....  445

ORBITAL ENERGIES
----------------
                 SPIN UP ORBITALS
  NO   OCC          E(Eh)            E(eV)
   0   1.0000    -214.500902     -5836.8663
   1   1.0000     -24.303973      -661.3447
   2   1.0000     -20.671119      -562.4897
   3   1.0000     -20.665732      -562.3432
   4   1.0000     -20.665686      -562.3419
   5   1.0000      -4.022074      -109.4462
   6   1.0000      -4.020861      -109.4132
   7   1.0000      -4.020850      -109.4129
   8   1.0000      -4.020772      -109.4108
   9   1.0000      -4.019018      -109.3630
  10   1.0000      -4.018853      -109.3586
  11   1.0000      -4.018792      -109.3569
  12   1.0000      -4.016718      -109.3005
  13   1.0000      -4.016608      -109.2975
  14   1.0000      -4.016601      -109.2973
  15   1.0000      -2.801894       -76.2434
  16   1.0000      -2.241217       -60.9866
  17   1.0000      -2.240137       -60.9572
  18   1.0000      -2.240092       -60.9560
  19   1.0000      -2.238501       -60.9127
  20   1.0000      -2.236793       -60.8662
  21   1.0000      -2.235636       -60.8347
  22   1.0000      -2.235630       -60.8346
  23   1.0000      -2.235445       -60.8295
  24   1.0000      -2.235427       -60.8291
  25   1.0000      -2.234921       -60.8153
  26   1.0000      -2.233736       -60.7831
  27   1.0000      -2.233723       -60.7827
  28   1.0000      -2.232993       -60.7628
  29   1.0000      -2.232974       -60.7623
  30   1.0000      -2.232384       -60.7463
  31   1.0000      -2.231796       -60.7303
  32   1.0000      -2.231634       -60.7258
  33   1.0000      -2.231613       -60.7253
  34   1.0000      -2.229939       -60.6797
  35   1.0000      -2.229383       -60.6646
  36   1.0000      -2.229351       -60.6637
  37   1.0000      -2.228788       -60.6484
  38   1.0000      -2.227374       -60.6099
  39   1.0000      -2.227291       -60.6077
  40   1.0000      -2.226015       -60.5730
  41   1.0000      -2.225970       -60.5717
  42   1.0000      -2.225669       -60.5635
  43   1.0000      -2.225256       -60.5523
  44   1.0000      -2.225189       -60.5505
  45   1.0000      -2.225111       -60.5483
  46   1.0000      -1.795613       -48.8611
  47   1.0000      -1.788891       -48.6782
  48   1.0000      -1.788830       -48.6765
  49   1.0000      -0.405856       -11.0439
  50   1.0000      -0.376672       -10.2498
  51   1.0000      -0.360865        -9.8196
  52   1.0000      -0.360798        -9.8178
  53   1.0000      -0.355416        -9.6714
  54   1.0000      -0.355347        -9.6695
  55   1.0000      -0.355331        -9.6690
  56   1.0000      -0.349727        -9.5166
  57   1.0000      -0.335185        -9.1208
  58   1.0000      -0.332007        -9.0344
  59   1.0000      -0.331970        -9.0334
  60   1.0000      -0.324013        -8.8168
  61   1.0000      -0.323973        -8.8158
  62   1.0000      -0.320671        -8.7259
  63   1.0000      -0.318345        -8.6626
  64   1.0000      -0.318206        -8.6588
  65   1.0000      -0.315036        -8.5726
  66   1.0000      -0.314928        -8.5696
  67   1.0000      -0.314883        -8.5684
  68   1.0000      -0.308881        -8.4051
  69   1.0000      -0.308820        -8.4034
  70   1.0000      -0.305664        -8.3175
  71   1.0000      -0.301100        -8.1933
  72   1.0000      -0.300891        -8.1877
  73   1.0000      -0.297839        -8.1046
  74   1.0000      -0.288281        -7.8445
  75   1.0000      -0.288246        -7.8436
  76   1.0000      -0.285671        -7.7735
  77   1.0000      -0.277231        -7.5438
  78   1.0000      -0.276933        -7.5357
  79   1.0000      -0.276918        -7.5353
  80   1.0000      -0.274572        -7.4715
  81   1.0000      -0.274514        -7.4699
  82   1.0000      -0.272935        -7.4269
  83   1.0000      -0.268692        -7.3115
  84   1.0000      -0.268657        -7.3105
  85   1.0000      -0.264865        -7.2073
  86   1.0000      -0.264806        -7.2057
  87   1.0000      -0.263287        -7.1644
  88   1.0000      -0.262625        -7.1464
  89   1.0000      -0.258078        -7.0227
  90   1.0000      -0.258064        -7.0223
  91   1.0000      -0.253828        -6.9070
  92   1.0000      -0.253130        -6.8880
  93   1.0000      -0.253108        -6.8874
  94   1.0000      -0.249548        -6.7906
  95   1.0000      -0.249530        -6.7901
  96   1.0000      -0.243566        -6.6278
  97   1.0000      -0.243509        -6.6262
  98   1.0000      -0.236520        -6.4360
  99   1.0000      -0.236434        -6.4337
 100   1.0000      -0.233956        -6.3663
 101   1.0000      -0.233182        -6.3452
 102   1.0000      -0.233140        -6.3441
 103   1.0000      -0.214172        -5.8279
 104   1.0000      -0.205831        -5.6009
 105   1.0000      -0.205811        -5.6004
 106   1.0000      -0.200697        -5.4612
 107   1.0000      -0.200673        -5.4606
 108   0.0000      -0.185254        -5.0410
 109   0.0000      -0.159862        -4.3501
 110   0.0000      -0.159793        -4.3482
 111   0.0000      -0.128999        -3.5102
 112   0.0000      -0.128889        -3.5073

                 SPIN DOWN ORBITALS
  NO   OCC          E(Eh)            E(eV)
   0   1.0000    -214.500481     -5836.8548
   1   1.0000     -24.260581      -660.1640
   2   1.0000     -20.642104      -561.7002
   3   1.0000     -20.630509      -561.3847
   4   1.0000     -20.630421      -561.3823
   5   1.0000      -4.022924      -109.4693
   6   1.0000      -4.020823      -109.4122
   7   1.0000      -4.020806      -109.4117
   8   1.0000      -4.020731      -109.4096
   9   1.0000      -4.018975      -109.3619
  10   1.0000      -4.018809      -109.3574
  11   1.0000      -4.018747      -109.3557
  12   1.0000      -4.016392      -109.2916
  13   1.0000      -4.016279      -109.2885
  14   1.0000      -4.016276      -109.2884
  15   1.0000      -2.685147       -73.0666
  16   1.0000      -2.241654       -60.9985
  17   1.0000      -2.240121       -60.9568
  18   1.0000      -2.240079       -60.9556
  19   1.0000      -2.238507       -60.9129
  20   1.0000      -2.236472       -60.8575
  21   1.0000      -2.235743       -60.8377
  22   1.0000      -2.235718       -60.8370
  23   1.0000      -2.235292       -60.8254
  24   1.0000      -2.235200       -60.8229
  25   1.0000      -2.235166       -60.8220
  26   1.0000      -2.233786       -60.7844
  27   1.0000      -2.233779       -60.7842
  28   1.0000      -2.233467       -60.7757
  29   1.0000      -2.233438       -60.7750
  30   1.0000      -2.231876       -60.7324
  31   1.0000      -2.231482       -60.7217
  32   1.0000      -2.231080       -60.7108
  33   1.0000      -2.231032       -60.7095
  34   1.0000      -2.230288       -60.6892
  35   1.0000      -2.229678       -60.6726
  36   1.0000      -2.229650       -60.6719
  37   1.0000      -2.228755       -60.6475
  38   1.0000      -2.227417       -60.6111
  39   1.0000      -2.227332       -60.6088
  40   1.0000      -2.225803       -60.5672
  41   1.0000      -2.225753       -60.5658
  42   1.0000      -2.225427       -60.5569
  43   1.0000      -2.224856       -60.5414
  44   1.0000      -2.224775       -60.5392
  45   1.0000      -2.224718       -60.5376
  46   1.0000      -1.694424       -46.1076
  47   1.0000      -1.667002       -45.3614
  48   1.0000      -1.666803       -45.3560
  49   1.0000      -0.400561       -10.8998
  50   1.0000      -0.377793       -10.2803
  51   1.0000      -0.359693        -9.7878
  52   1.0000      -0.359664        -9.7869
  53   1.0000      -0.354643        -9.6503
  54   1.0000      -0.354586        -9.6488
  55   1.0000      -0.351378        -9.5615
  56   1.0000      -0.348795        -9.4912
  57   1.0000      -0.336258        -9.1500
  58   1.0000      -0.329749        -8.9729
  59   1.0000      -0.329685        -8.9712
  60   1.0000      -0.322357        -8.7718
  61   1.0000      -0.322180        -8.7670
  62   1.0000      -0.321187        -8.7400
  63   1.0000      -0.316433        -8.6106
  64   1.0000      -0.316400        -8.6097
  65   1.0000      -0.315746        -8.5919
  66   1.0000      -0.314029        -8.5452
  67   1.0000      -0.313958        -8.5432
  68   1.0000      -0.304675        -8.2906
  69   1.0000      -0.304366        -8.2822
  70   1.0000      -0.304317        -8.2809
  71   1.0000      -0.301220        -8.1966
  72   1.0000      -0.301096        -8.1932
  73   1.0000      -0.298762        -8.1297
  74   1.0000      -0.289991        -7.8910
  75   1.0000      -0.289951        -7.8900
  76   1.0000      -0.286485        -7.7956
  77   1.0000      -0.278079        -7.5669
  78   1.0000      -0.278065        -7.5665
  79   1.0000      -0.277788        -7.5590
  80   1.0000      -0.275191        -7.4883
  81   1.0000      -0.275125        -7.4865
  82   1.0000      -0.273297        -7.4368
  83   1.0000      -0.268964        -7.3189
  84   1.0000      -0.268936        -7.3181
  85   1.0000      -0.266040        -7.2393
  86   1.0000      -0.265979        -7.2377
  87   1.0000      -0.264614        -7.2005
  88   1.0000      -0.263407        -7.1677
  89   1.0000      -0.258598        -7.0368
  90   1.0000      -0.258584        -7.0364
  91   1.0000      -0.255319        -6.9476
  92   1.0000      -0.253875        -6.9083
  93   1.0000      -0.253849        -6.9076
  94   1.0000      -0.250654        -6.8206
  95   1.0000      -0.250299        -6.8110
  96   1.0000      -0.244280        -6.6472
  97   1.0000      -0.244218        -6.6455
  98   1.0000      -0.237537        -6.4637
  99   1.0000      -0.237448        -6.4613
 100   1.0000      -0.234615        -6.3842
 101   1.0000      -0.233902        -6.3648
 102   1.0000      -0.233863        -6.3637
 103   1.0000      -0.205587        -5.5943
 104   1.0000      -0.188589        -5.1318
 105   1.0000      -0.188568        -5.1312
 106   0.0000      -0.142223        -3.8701
 107   0.0000      -0.142141        -3.8679
 108   0.0000      -0.138568        -3.7706
 109   0.0000      -0.112091        -3.0501
 110   0.0000      -0.112049        -3.0490

MULLIKEN ATOMIC CHARGES AND SPIN POPULATIONS
--------------------------------------------
   0 Au:    0.137969   -0.147555
   1 Au:    0.352832   -0.191386
   2 Au:    0.138421   -0.148068
   3 Au:    0.138087   -0.147225
   4 Au:    0.455824   -0.114831
   5 Au:    0.268911   -0.042866
   6 Au:    0.455765   -0.114732
   7 Au:    0.268430   -0.042620
   8 Au:    0.454887   -0.114835
   9 Au:    0.268509   -0.042348
  10 Cr:   -2.939634    3.106466
Sum of atomic charges         :   -0.0000000

LOEWDIN ATOMIC CHARGES AND SPIN POPULATIONS
-------------------------------------------
   0 Au:    0.076942   -0.106847
   1 Au:    0.119301   -0.177370
   2 Au:    0.077405   -0.107146
   3 Au:    0.077068   -0.106765
   4 Au:    0.089927   -0.104061
   5 Au:    0.123208   -0.063938
   6 Au:    0.090036   -0.104023
   7 Au:    0.123180   -0.063832
   8 Au:    0.089431   -0.104083
   9 Au:    0.123349   -0.063466
  10 Cr:   -0.989847    3.001531

  Mayer bond orders larger than 0.100000
B(  0-Au,  1-Au) :   0.3001 B(  0-Au,  7-Au) :   0.4182 B(  0-Au, 10-Cr) :   0.7925
B(  1-Au,  2-Au) :   0.2997 B(  1-Au,  3-Au) :   0.3002 B(  1-Au, 10-Cr) :   0.3485
B(  2-Au,  5-Au) :   0.4168 B(  2-Au, 10-Cr) :   0.7921 B(  3-Au,  9-Au) :   0.4183
B(  3-Au, 10-Cr) :   0.7922 B(  4-Au,  5-Au) :   0.2321 B(  4-Au,  6-Au) :   0.1276
B(  4-Au,  7-Au) :   0.2322 B(  4-Au,  8-Au) :   0.1312 B(  4-Au, 10-Cr) :   0.7483
B(  5-Au,  6-Au) :   0.2320 B(  5-Au, 10-Cr) :   0.5084 B(  6-Au,  8-Au) :   0.1313
B(  6-Au,  9-Au) :   0.2319 B(  6-Au, 10-Cr) :   0.7487 B(  7-Au,  8-Au) :   0.2327
B(  7-Au, 10-Cr) :   0.5065 B(  8-Au,  9-Au) :   0.2316 B(  8-Au, 10-Cr) :   0.7467
B(  9-Au, 10-Cr) :   0.5076

FINAL SINGLE POINT ENERGY     -2402.483615293954

DIPOLE MOMENT
-------------
                                X             Y             Z
Electronic contribution:      5.29421      -1.45651      -1.77428
Nuclear contribution   :     -5.11346       1.40502       1.71165
                        -----------------------------------------
Total Dipole Moment    :      0.18075      -0.05150      -0.06263
                        -----------------------------------------
Magnitude (a.u.)       :      0.19810
Magnitude (Debye)      :      0.50353

Rotational constants in cm-1:     0.002194     0.001393     0.001392
Rotational constants in MHz :    65.764059    41.766412    41.744833

                             ****ORCA TERMINATED NORMALLY****
TOTAL RUN TIME: 0 days 3 hours 29 minutes 48 seconds 155 msec
