                         Program Version 5.0.3 -  RELEASE  -
|  1> %pal nprocs 1 end
|  2>
|  3> !PBE def2-TZVP OPT UNO
|  4> !SLOWCONV KDIIS
|  5>
|  6> %geom maxiter 300 end
|  7>
|  8> *xyzfile 0 4 5.xyz                           ****END OF INPUT****
 Total Charge           Charge          ....    0
 Multiplicity           Mult            ....    4
 Number of Electrons    NEL             ....  215
FINAL SINGLE POINT ENERGY     -2509.034121777755
FINAL SINGLE POINT ENERGY     -2509.035909746343
FINAL SINGLE POINT ENERGY     -2509.036796572955
FINAL SINGLE POINT ENERGY     -2509.037276918921
FINAL SINGLE POINT ENERGY     -2509.037472686192
FINAL SINGLE POINT ENERGY     -2509.037514881893
FINAL SINGLE POINT ENERGY     -2509.037537406711
FINAL SINGLE POINT ENERGY     -2509.037572565559
FINAL SINGLE POINT ENERGY     -2509.037573613019
FINAL SINGLE POINT ENERGY     -2509.037583841971
FINAL SINGLE POINT ENERGY     -2509.037590688256
FINAL SINGLE POINT ENERGY     -2509.037600038153
FINAL SINGLE POINT ENERGY     -2509.037606233861
FINAL SINGLE POINT ENERGY     -2509.037609292666
                    ***********************HURRAY********************

CARTESIAN COORDINATES (ANGSTROEM)
---------------------------------
  Au     5.486576    8.048517    9.134200
  Au     9.483220    9.812500    8.141620
  Au     5.420094    8.957479    6.199820
  Au     4.215995   10.323290    8.233938
  Au     6.931056   10.548294    8.071267
  Au     6.954791    7.146175    5.003923
  Au     9.975179    7.219689    8.451003
  Au     7.248219    6.121896    9.347907
  Au     9.476313    4.569978    8.877550
  Au     8.477259    5.632226    6.569674
  Mn     7.584146    8.002260    7.488494

 Multiplicity           Mult            ....    4
 Number of Electrons    NEL             ....  215
 Basis Dimension        Dim             ....  445

ORBITAL ENERGIES
----------------
                 SPIN UP ORBITALS
  NO   OCC          E(Eh)            E(eV)
   0   1.0000    -234.197639     -6372.8418
   1   1.0000     -26.894843      -731.8459
   2   1.0000     -23.043876      -627.0558
   3   1.0000     -23.043514      -627.0459
   4   1.0000     -23.042427      -627.0163
   5   1.0000      -4.023932      -109.4968
   6   1.0000      -4.023913      -109.4962
   7   1.0000      -4.023823      -109.4938
   8   1.0000      -4.023792      -109.4929
   9   1.0000      -4.021681      -109.4355
  10   1.0000      -4.021680      -109.4355
  11   1.0000      -4.020195      -109.3951
  12   1.0000      -4.019877      -109.3864
  13   1.0000      -4.018160      -109.3397
  14   1.0000      -4.018110      -109.3383
  15   1.0000      -3.103284       -84.4447
  16   1.0000      -2.243855       -61.0584
  17   1.0000      -2.243446       -61.0473
  18   1.0000      -2.242865       -61.0315
  19   1.0000      -2.242279       -61.0155
  20   1.0000      -2.241979       -61.0073
  21   1.0000      -2.239574       -60.9419
  22   1.0000      -2.239480       -60.9394
  23   1.0000      -2.237760       -60.8926
  24   1.0000      -2.237440       -60.8838
  25   1.0000      -2.237392       -60.8825
  26   1.0000      -2.237075       -60.8739
  27   1.0000      -2.235879       -60.8413
  28   1.0000      -2.234403       -60.8012
  29   1.0000      -2.234318       -60.7989
  30   1.0000      -2.234122       -60.7936
  31   1.0000      -2.233730       -60.7829
  32   1.0000      -2.233057       -60.7646
  33   1.0000      -2.232622       -60.7527
  34   1.0000      -2.232425       -60.7474
  35   1.0000      -2.232091       -60.7383
  36   1.0000      -2.231821       -60.7310
  37   1.0000      -2.231733       -60.7285
  38   1.0000      -2.230344       -60.6907
  39   1.0000      -2.230314       -60.6899
  40   1.0000      -2.229780       -60.6754
  41   1.0000      -2.229748       -60.6745
  42   1.0000      -2.225552       -60.5603
  43   1.0000      -2.224969       -60.5445
  44   1.0000      -2.223994       -60.5180
  45   1.0000      -2.223930       -60.5162
  46   1.0000      -2.007462       -54.6258
  47   1.0000      -2.006206       -54.5916
  48   1.0000      -2.003519       -54.5185
  49   1.0000      -0.405653       -11.0384
  50   1.0000      -0.382913       -10.4196
  51   1.0000      -0.371327       -10.1043
  52   1.0000      -0.368039       -10.0149
  53   1.0000      -0.361354        -9.8329
  54   1.0000      -0.359512        -9.7828
  55   1.0000      -0.358529        -9.7561
  56   1.0000      -0.354390        -9.6434
  57   1.0000      -0.339450        -9.2369
  58   1.0000      -0.333900        -9.0859
  59   1.0000      -0.332878        -9.0581
  60   1.0000      -0.330263        -8.9869
  61   1.0000      -0.329296        -8.9606
  62   1.0000      -0.325475        -8.8566
  63   1.0000      -0.323533        -8.8038
  64   1.0000      -0.320682        -8.7262
  65   1.0000      -0.319800        -8.7022
  66   1.0000      -0.317997        -8.6531
  67   1.0000      -0.315607        -8.5881
  68   1.0000      -0.309841        -8.4312
  69   1.0000      -0.302477        -8.2308
  70   1.0000      -0.301004        -8.1907
  71   1.0000      -0.297218        -8.0877
  72   1.0000      -0.292560        -7.9610
  73   1.0000      -0.289576        -7.8798
  74   1.0000      -0.289231        -7.8704
  75   1.0000      -0.288355        -7.8465
  76   1.0000      -0.286652        -7.8002
  77   1.0000      -0.283736        -7.7209
  78   1.0000      -0.281021        -7.6470
  79   1.0000      -0.279114        -7.5951
  80   1.0000      -0.276485        -7.5236
  81   1.0000      -0.276398        -7.5212
  82   1.0000      -0.275531        -7.4976
  83   1.0000      -0.275225        -7.4893
  84   1.0000      -0.270244        -7.3537
  85   1.0000      -0.268121        -7.2959
  86   1.0000      -0.267395        -7.2762
  87   1.0000      -0.265262        -7.2181
  88   1.0000      -0.263247        -7.1633
  89   1.0000      -0.262958        -7.1554
  90   1.0000      -0.259836        -7.0705
  91   1.0000      -0.259746        -7.0681
  92   1.0000      -0.257560        -7.0086
  93   1.0000      -0.255192        -6.9441
  94   1.0000      -0.254423        -6.9232
  95   1.0000      -0.253202        -6.8900
  96   1.0000      -0.251775        -6.8511
  97   1.0000      -0.251083        -6.8323
  98   1.0000      -0.249340        -6.7849
  99   1.0000      -0.246831        -6.7166
 100   1.0000      -0.242587        -6.6011
 101   1.0000      -0.241028        -6.5587
 102   1.0000      -0.237565        -6.4645
 103   1.0000      -0.236634        -6.4391
 104   1.0000      -0.231403        -6.2968
 105   1.0000      -0.230261        -6.2657
 106   1.0000      -0.230099        -6.2613
 107   1.0000      -0.228494        -6.2176
 108   1.0000      -0.209708        -5.7065
 109   0.0000      -0.175691        -4.7808
 110   0.0000      -0.170492        -4.6393
 111   0.0000      -0.136241        -3.7073
 112   0.0000      -0.130487        -3.5507
 113   0.0000      -0.121988        -3.3195

                 SPIN DOWN ORBITALS
  NO   OCC          E(Eh)            E(eV)
   0   1.0000    -234.196903     -6372.8217
   1   1.0000     -26.829142      -730.0581
   2   1.0000     -22.993718      -625.6909
   3   1.0000     -22.993658      -625.6892
   4   1.0000     -22.992730      -625.6640
   5   1.0000      -4.023688      -109.4901
   6   1.0000      -4.023664      -109.4895
   7   1.0000      -4.023570      -109.4869
   8   1.0000      -4.023545      -109.4862
   9   1.0000      -4.022498      -109.4577
  10   1.0000      -4.022497      -109.4577
  11   1.0000      -4.019345      -109.3719
  12   1.0000      -4.019027      -109.3633
  13   1.0000      -4.018369      -109.3454
  14   1.0000      -4.018303      -109.3436
  15   1.0000      -2.941984       -80.0554
  16   1.0000      -2.243961       -61.0613
  17   1.0000      -2.243478       -61.0481
  18   1.0000      -2.242735       -61.0279
  19   1.0000      -2.241936       -61.0062
  20   1.0000      -2.241205       -60.9863
  21   1.0000      -2.239342       -60.9356
  22   1.0000      -2.238916       -60.9240
  23   1.0000      -2.237941       -60.8975
  24   1.0000      -2.237504       -60.8856
  25   1.0000      -2.236831       -60.8673
  26   1.0000      -2.236814       -60.8668
  27   1.0000      -2.235285       -60.8252
  28   1.0000      -2.234197       -60.7956
  29   1.0000      -2.234124       -60.7936
  30   1.0000      -2.233973       -60.7895
  31   1.0000      -2.233724       -60.7827
  32   1.0000      -2.233574       -60.7786
  33   1.0000      -2.233249       -60.7698
  34   1.0000      -2.232769       -60.7567
  35   1.0000      -2.232625       -60.7528
  36   1.0000      -2.232551       -60.7508
  37   1.0000      -2.231691       -60.7274
  38   1.0000      -2.230285       -60.6891
  39   1.0000      -2.230247       -60.6881
  40   1.0000      -2.229788       -60.6756
  41   1.0000      -2.229761       -60.6749
  42   1.0000      -2.224987       -60.5450
  43   1.0000      -2.224403       -60.5291
  44   1.0000      -2.223608       -60.5075
  45   1.0000      -2.223534       -60.5054
  46   1.0000      -1.849411       -50.3250
  47   1.0000      -1.847652       -50.2772
  48   1.0000      -1.845071       -50.2069
  49   1.0000      -0.402668       -10.9572
  50   1.0000      -0.384406       -10.4602
  51   1.0000      -0.367549       -10.0015
  52   1.0000      -0.364632        -9.9221
  53   1.0000      -0.363461        -9.8903
  54   1.0000      -0.355796        -9.6817
  55   1.0000      -0.353482        -9.6187
  56   1.0000      -0.352913        -9.6033
  57   1.0000      -0.333750        -9.0818
  58   1.0000      -0.331937        -9.0325
  59   1.0000      -0.331228        -9.0132
  60   1.0000      -0.328397        -8.9361
  61   1.0000      -0.326048        -8.8722
  62   1.0000      -0.318876        -8.6771
  63   1.0000      -0.318355        -8.6629
  64   1.0000      -0.314474        -8.5573
  65   1.0000      -0.312854        -8.5132
  66   1.0000      -0.311235        -8.4691
  67   1.0000      -0.311025        -8.4634
  68   1.0000      -0.308135        -8.3848
  69   1.0000      -0.302345        -8.2272
  70   1.0000      -0.298449        -8.1212
  71   1.0000      -0.294978        -8.0268
  72   1.0000      -0.294341        -8.0094
  73   1.0000      -0.291181        -7.9234
  74   1.0000      -0.290232        -7.8976
  75   1.0000      -0.288716        -7.8564
  76   1.0000      -0.287265        -7.8169
  77   1.0000      -0.282185        -7.6786
  78   1.0000      -0.280843        -7.6421
  79   1.0000      -0.280003        -7.6193
  80   1.0000      -0.277094        -7.5401
  81   1.0000      -0.274687        -7.4746
  82   1.0000      -0.274315        -7.4645
  83   1.0000      -0.271219        -7.3802
  84   1.0000      -0.270814        -7.3692
  85   1.0000      -0.267472        -7.2783
  86   1.0000      -0.266503        -7.2519
  87   1.0000      -0.265814        -7.2332
  88   1.0000      -0.263116        -7.1597
  89   1.0000      -0.262685        -7.1480
  90   1.0000      -0.261423        -7.1137
  91   1.0000      -0.260237        -7.0814
  92   1.0000      -0.257064        -6.9951
  93   1.0000      -0.256557        -6.9813
  94   1.0000      -0.254392        -6.9224
  95   1.0000      -0.250849        -6.8260
  96   1.0000      -0.249981        -6.8023
  97   1.0000      -0.248157        -6.7527
  98   1.0000      -0.244161        -6.6439
  99   1.0000      -0.242941        -6.6108
 100   1.0000      -0.236961        -6.4480
 101   1.0000      -0.235837        -6.4174
 102   1.0000      -0.235777        -6.4158
 103   1.0000      -0.222131        -6.0445
 104   1.0000      -0.192946        -5.2503
 105   1.0000      -0.187566        -5.1039
 106   0.0000      -0.146174        -3.9776
 107   0.0000      -0.139050        -3.7837
 108   0.0000      -0.138626        -3.7722
 109   0.0000      -0.127556        -3.4710
 110   0.0000      -0.123288        -3.3548

MULLIKEN ATOMIC CHARGES AND SPIN POPULATIONS
--------------------------------------------
   0 Au:    0.014629   -0.012604
   1 Au:    0.224336   -0.026714
   2 Au:    0.024291   -0.216571
   3 Au:    0.400643   -0.114871
   4 Au:    0.022164   -0.215743
   5 Au:    0.222519   -0.026193
   6 Au:    0.023172   -0.216388
   7 Au:    0.013215   -0.012183
   8 Au:    0.400717   -0.115328
   9 Au:    0.023941   -0.216060
  10 Mn:   -1.369627    4.172653
Sum of atomic charges         :   -0.0000000

LOEWDIN ATOMIC CHARGES AND SPIN POPULATIONS
-------------------------------------------
   0 Au:    0.011747   -0.012793
   1 Au:    0.111679   -0.125175
   2 Au:   -0.021101   -0.132942
   3 Au:    0.090408   -0.132548
   4 Au:   -0.021064   -0.132253
   5 Au:    0.111473   -0.124608
   6 Au:   -0.021260   -0.132785
   7 Au:    0.011726   -0.012483
   8 Au:    0.090418   -0.132790
   9 Au:   -0.021147   -0.132865
  10 Mn:   -0.342882    4.071243

  Mayer bond orders larger than 0.100000
B(  0-Au,  2-Au) :   0.1266 B(  0-Au,  3-Au) :   0.3336 B(  0-Au,  4-Au) :   0.1257
B(  0-Au,  7-Au) :   0.5976 B(  0-Au, 10-Mn) :   0.5743 B(  1-Au,  4-Au) :   0.4205
B(  1-Au,  6-Au) :   0.4204 B(  1-Au, 10-Mn) :   0.5200 B(  2-Au,  3-Au) :   0.3480
B(  2-Au,  4-Au) :   0.1875 B(  2-Au,  5-Au) :   0.4196 B(  2-Au, 10-Mn) :   0.5338
B(  3-Au,  4-Au) :   0.3487 B(  4-Au, 10-Mn) :   0.5352 B(  5-Au,  9-Au) :   0.4196
B(  5-Au, 10-Mn) :   0.5225 B(  6-Au,  7-Au) :   0.1266 B(  6-Au,  8-Au) :   0.3482
B(  6-Au,  9-Au) :   0.1884 B(  6-Au, 10-Mn) :   0.5341 B(  7-Au,  8-Au) :   0.3345
B(  7-Au,  9-Au) :   0.1256 B(  7-Au, 10-Mn) :   0.5754 B(  8-Au,  9-Au) :   0.3477
B(  9-Au, 10-Mn) :   0.5334

FINAL SINGLE POINT ENERGY     -2509.037611193395

DIPOLE MOMENT
-------------
                                X             Y             Z
Electronic contribution:     -7.90521      -5.97534      11.44748
Nuclear contribution   :      7.86929       5.94900     -11.39402
                        -----------------------------------------
Total Dipole Moment    :     -0.03591      -0.02633       0.05346
                        -----------------------------------------
Magnitude (a.u.)       :      0.06958
Magnitude (Debye)      :      0.17686

Rotational constants in cm-1:     0.002364     0.001210     0.001148
Rotational constants in MHz :    70.874428    36.262003    34.430306

                             ****ORCA TERMINATED NORMALLY****
TOTAL RUN TIME: 0 days 1 hours 35 minutes 53 seconds 955 msec
