                         Program Version 5.0.3 -  RELEASE  -
|  1> %pal nprocs 1 end
|  2>
|  3> !PBE def2-TZVP OPT UNO
|  4> !SLOWCONV
|  5>
|  6> *xyzfile 0 3 8.xyz                           ****END OF INPUT****
 Total Charge           Charge          ....    0
 Multiplicity           Mult            ....    3
 Number of Electrons    NEL             ....  330

ORBITAL ENERGIES
----------------
                 SPIN UP ORBITALS
  NO   OCC          E(Eh)            E(eV)
   0   1.0000    -254.737308     -6931.7546
   1   1.0000     -29.569998      -804.6405
   2   1.0000     -25.508510      -694.1219
   3   1.0000     -25.507121      -694.0840
   4   1.0000     -25.503366      -693.9819
   5   1.0000      -4.035327      -109.8068
   6   1.0000      -4.034976      -109.7973
   7   1.0000      -4.030386      -109.6724
   8   1.0000      -4.029762      -109.6554
   9   1.0000      -4.029249      -109.6414
  10   1.0000      -4.028893      -109.6318
  11   1.0000      -4.028410      -109.6186
  12   1.0000      -4.027409      -109.5914
  13   1.0000      -4.027112      -109.5833
  14   1.0000      -4.025651      -109.5435
  15   1.0000      -4.020234      -109.3961
  16   1.0000      -4.019508      -109.3764
  17   1.0000      -4.019294      -109.3706
  18   1.0000      -4.016015      -109.2813
  19   1.0000      -4.015564      -109.2691
  20   1.0000      -4.015244      -109.2604
  21   1.0000      -3.345672       -91.0404
  22   1.0000      -2.251371       -61.2629
  23   1.0000      -2.251141       -61.2567
  24   1.0000      -2.248366       -61.1811
  25   1.0000      -2.248118       -61.1744
  26   1.0000      -2.247495       -61.1575
  27   1.0000      -2.246270       -61.1241
  28   1.0000      -2.245525       -61.1038
  29   1.0000      -2.245271       -61.0969
  30   1.0000      -2.244898       -61.0868
  31   1.0000      -2.244752       -61.0828
  32   1.0000      -2.244458       -61.0748
  33   1.0000      -2.244271       -61.0697
  34   1.0000      -2.244102       -61.0651
  35   1.0000      -2.243585       -61.0510
  36   1.0000      -2.243040       -61.0362
  37   1.0000      -2.242534       -61.0225
  38   1.0000      -2.241806       -61.0027
  39   1.0000      -2.240559       -60.9687
  40   1.0000      -2.240005       -60.9536
  41   1.0000      -2.239813       -60.9484
  42   1.0000      -2.239275       -60.9338
  43   1.0000      -2.239135       -60.9300
  44   1.0000      -2.238745       -60.9194
  45   1.0000      -2.238272       -60.9065
  46   1.0000      -2.238176       -60.9039
  47   1.0000      -2.237986       -60.8987
  48   1.0000      -2.237943       -60.8975
  49   1.0000      -2.237714       -60.8913
  50   1.0000      -2.237532       -60.8863
  51   1.0000      -2.237334       -60.8809
  52   1.0000      -2.236685       -60.8633
  53   1.0000      -2.234983       -60.8170
  54   1.0000      -2.234435       -60.8021
  55   1.0000      -2.232953       -60.7617
  56   1.0000      -2.232698       -60.7548
  57   1.0000      -2.232181       -60.7407
  58   1.0000      -2.231836       -60.7314
  59   1.0000      -2.231398       -60.7194
  60   1.0000      -2.231295       -60.7166
  61   1.0000      -2.230900       -60.7059
  62   1.0000      -2.229911       -60.6790
  63   1.0000      -2.229356       -60.6639
  64   1.0000      -2.228725       -60.6467
  65   1.0000      -2.228181       -60.6319
  66   1.0000      -2.227148       -60.6038
  67   1.0000      -2.225523       -60.5596
  68   1.0000      -2.224948       -60.5439
  69   1.0000      -2.223352       -60.5005
  70   1.0000      -2.164233       -58.8918
  71   1.0000      -2.161827       -58.8263
  72   1.0000      -2.154478       -58.6263
  73   1.0000      -0.429558       -11.6889
  74   1.0000      -0.393108       -10.6970
  75   1.0000      -0.387203       -10.5363
  76   1.0000      -0.384329       -10.4581
  77   1.0000      -0.376665       -10.2496
  78   1.0000      -0.373420       -10.1613
  79   1.0000      -0.368486       -10.0270
  80   1.0000      -0.364750        -9.9254
  81   1.0000      -0.362025        -9.8512
  82   1.0000      -0.359284        -9.7766
  83   1.0000      -0.355113        -9.6631
  84   1.0000      -0.354483        -9.6460
  85   1.0000      -0.352777        -9.5995
  86   1.0000      -0.349762        -9.5175
  87   1.0000      -0.348368        -9.4796
  88   1.0000      -0.346819        -9.4374
  89   1.0000      -0.344176        -9.3655
  90   1.0000      -0.342108        -9.3092
  91   1.0000      -0.341776        -9.3002
  92   1.0000      -0.339659        -9.2426
  93   1.0000      -0.337561        -9.1855
  94   1.0000      -0.335552        -9.1308
  95   1.0000      -0.331793        -9.0285
  96   1.0000      -0.330738        -8.9998
  97   1.0000      -0.329267        -8.9598
  98   1.0000      -0.328638        -8.9427
  99   1.0000      -0.326623        -8.8879
 100   1.0000      -0.324702        -8.8356
 101   1.0000      -0.322616        -8.7788
 102   1.0000      -0.320671        -8.7259
 103   1.0000      -0.320556        -8.7228
 104   1.0000      -0.319763        -8.7012
 105   1.0000      -0.315958        -8.5977
 106   1.0000      -0.314386        -8.5549
 107   1.0000      -0.310728        -8.4553
 108   1.0000      -0.308916        -8.4060
 109   1.0000      -0.308092        -8.3836
 110   1.0000      -0.306641        -8.3441
 111   1.0000      -0.305549        -8.3144
 112   1.0000      -0.301170        -8.1953
 113   1.0000      -0.298088        -8.1114
 114   1.0000      -0.297105        -8.0846
 115   1.0000      -0.291510        -7.9324
 116   1.0000      -0.291102        -7.9213
 117   1.0000      -0.288480        -7.8500
 118   1.0000      -0.287071        -7.8116
 119   1.0000      -0.284446        -7.7402
 120   1.0000      -0.284150        -7.7321
 121   1.0000      -0.282643        -7.6911
 122   1.0000      -0.281845        -7.6694
 123   1.0000      -0.279066        -7.5938
 124   1.0000      -0.276771        -7.5313
 125   1.0000      -0.276447        -7.5225
 126   1.0000      -0.275657        -7.5010
 127   1.0000      -0.275267        -7.4904
 128   1.0000      -0.273422        -7.4402
 129   1.0000      -0.273122        -7.4320
 130   1.0000      -0.271944        -7.4000
 131   1.0000      -0.268303        -7.3009
 132   1.0000      -0.268287        -7.3005
 133   1.0000      -0.267793        -7.2870
 134   1.0000      -0.266635        -7.2555
 135   1.0000      -0.265523        -7.2253
 136   1.0000      -0.265238        -7.2175
 137   1.0000      -0.263367        -7.1666
 138   1.0000      -0.262159        -7.1337
 139   1.0000      -0.261684        -7.1208
 140   1.0000      -0.258027        -7.0213
 141   1.0000      -0.257544        -7.0081
 142   1.0000      -0.254928        -6.9370
 143   1.0000      -0.254467        -6.9244
 144   1.0000      -0.252771        -6.8783
 145   1.0000      -0.252178        -6.8621
 146   1.0000      -0.251705        -6.8492
 147   1.0000      -0.251135        -6.8337
 148   1.0000      -0.248355        -6.7581
 149   1.0000      -0.247449        -6.7334
 150   1.0000      -0.247173        -6.7259
 151   1.0000      -0.245624        -6.6838
 152   1.0000      -0.244810        -6.6616
 153   1.0000      -0.243533        -6.6269
 154   1.0000      -0.242372        -6.5953
 155   1.0000      -0.240753        -6.5512
 156   1.0000      -0.239316        -6.5121
 157   1.0000      -0.238176        -6.4811
 158   1.0000      -0.235816        -6.4169
 159   1.0000      -0.234385        -6.3779
 160   1.0000      -0.228766        -6.2250
 161   1.0000      -0.223381        -6.0785
 162   1.0000      -0.220554        -6.0016
 163   1.0000      -0.212372        -5.7789
 164   1.0000      -0.207641        -5.6502
 165   1.0000      -0.200089        -5.4447
 166   0.0000      -0.186936        -5.0868
 167   0.0000      -0.149809        -4.0765
 168   0.0000      -0.144657        -3.9363
 169   0.0000      -0.138652        -3.7729
 170   0.0000      -0.136184        -3.7058

                 SPIN DOWN ORBITALS
  NO   OCC          E(Eh)            E(eV)
   0   1.0000    -254.736713     -6931.7384
   1   1.0000     -29.519337      -803.2620
   2   1.0000     -25.469975      -693.0733
   3   1.0000     -25.469494      -693.0602
   4   1.0000     -25.464803      -692.9325
   5   1.0000      -4.035501      -109.8116
   6   1.0000      -4.035230      -109.8042
   7   1.0000      -4.030192      -109.6671
   8   1.0000      -4.029986      -109.6615
   9   1.0000      -4.029679      -109.6531
  10   1.0000      -4.028624      -109.6244
  11   1.0000      -4.028128      -109.6109
  12   1.0000      -4.027266      -109.5875
  13   1.0000      -4.027144      -109.5841
  14   1.0000      -4.025933      -109.5512
  15   1.0000      -4.021146      -109.4210
  16   1.0000      -4.019690      -109.3813
  17   1.0000      -4.019403      -109.3735
  18   1.0000      -4.016157      -109.2852
  19   1.0000      -4.015747      -109.2740
  20   1.0000      -4.015424      -109.2652
  21   1.0000      -3.229907       -87.8902
  22   1.0000      -2.251519       -61.2669
  23   1.0000      -2.251397       -61.2636
  24   1.0000      -2.248540       -61.1859
  25   1.0000      -2.248496       -61.1847
  26   1.0000      -2.246937       -61.1423
  27   1.0000      -2.245911       -61.1144
  28   1.0000      -2.245465       -61.1022
  29   1.0000      -2.245460       -61.1021
  30   1.0000      -2.245215       -61.0954
  31   1.0000      -2.245035       -61.0905
  32   1.0000      -2.244772       -61.0834
  33   1.0000      -2.244432       -61.0741
  34   1.0000      -2.243769       -61.0561
  35   1.0000      -2.243434       -61.0469
  36   1.0000      -2.242716       -61.0274
  37   1.0000      -2.242251       -61.0147
  38   1.0000      -2.241572       -60.9963
  39   1.0000      -2.240500       -60.9671
  40   1.0000      -2.239887       -60.9504
  41   1.0000      -2.239852       -60.9495
  42   1.0000      -2.239205       -60.9319
  43   1.0000      -2.239067       -60.9281
  44   1.0000      -2.239005       -60.9264
  45   1.0000      -2.238435       -60.9109
  46   1.0000      -2.238230       -60.9053
  47   1.0000      -2.238198       -60.9045
  48   1.0000      -2.238124       -60.9025
  49   1.0000      -2.237944       -60.8976
  50   1.0000      -2.237627       -60.8889
  51   1.0000      -2.237390       -60.8825
  52   1.0000      -2.237078       -60.8740
  53   1.0000      -2.235342       -60.8268
  54   1.0000      -2.235045       -60.8187
  55   1.0000      -2.233269       -60.7703
  56   1.0000      -2.233093       -60.7655
  57   1.0000      -2.232626       -60.7528
  58   1.0000      -2.232503       -60.7495
  59   1.0000      -2.232011       -60.7361
  60   1.0000      -2.231456       -60.7210
  61   1.0000      -2.231083       -60.7108
  62   1.0000      -2.230188       -60.6865
  63   1.0000      -2.229467       -60.6669
  64   1.0000      -2.228919       -60.6520
  65   1.0000      -2.228351       -60.6365
  66   1.0000      -2.227431       -60.6115
  67   1.0000      -2.225630       -60.5625
  68   1.0000      -2.225083       -60.5476
  69   1.0000      -2.223410       -60.5021
  70   1.0000      -2.050598       -55.7996
  71   1.0000      -2.048968       -55.7552
  72   1.0000      -2.040491       -55.5246
  73   1.0000      -0.426014       -11.5924
  74   1.0000      -0.392575       -10.6825
  75   1.0000      -0.387683       -10.5494
  76   1.0000      -0.383299       -10.4301
  77   1.0000      -0.371498       -10.1090
  78   1.0000      -0.369294       -10.0490
  79   1.0000      -0.368187       -10.0189
  80   1.0000      -0.364806        -9.9269
  81   1.0000      -0.362280        -9.8581
  82   1.0000      -0.359513        -9.7828
  83   1.0000      -0.354985        -9.6596
  84   1.0000      -0.354359        -9.6426
  85   1.0000      -0.353176        -9.6104
  86   1.0000      -0.348257        -9.4765
  87   1.0000      -0.346418        -9.4265
  88   1.0000      -0.344730        -9.3806
  89   1.0000      -0.342414        -9.3176
  90   1.0000      -0.341576        -9.2947
  91   1.0000      -0.340950        -9.2777
  92   1.0000      -0.339346        -9.2341
  93   1.0000      -0.337135        -9.1739
  94   1.0000      -0.335582        -9.1316
  95   1.0000      -0.331675        -9.0253
  96   1.0000      -0.329919        -8.9775
  97   1.0000      -0.328843        -8.9483
  98   1.0000      -0.327708        -8.9174
  99   1.0000      -0.325733        -8.8637
 100   1.0000      -0.323545        -8.8041
 101   1.0000      -0.321537        -8.7495
 102   1.0000      -0.320960        -8.7338
 103   1.0000      -0.320242        -8.7142
 104   1.0000      -0.317476        -8.6390
 105   1.0000      -0.316583        -8.6147
 106   1.0000      -0.313213        -8.5230
 107   1.0000      -0.311210        -8.4684
 108   1.0000      -0.309336        -8.4174
 109   1.0000      -0.307476        -8.3669
 110   1.0000      -0.307191        -8.3591
 111   1.0000      -0.303630        -8.2622
 112   1.0000      -0.299621        -8.1531
 113   1.0000      -0.294864        -8.0237
 114   1.0000      -0.293710        -7.9923
 115   1.0000      -0.291814        -7.9407
 116   1.0000      -0.290718        -7.9108
 117   1.0000      -0.287873        -7.8334
 118   1.0000      -0.286666        -7.8006
 119   1.0000      -0.284707        -7.7473
 120   1.0000      -0.284264        -7.7352
 121   1.0000      -0.282147        -7.6776
 122   1.0000      -0.281392        -7.6571
 123   1.0000      -0.278892        -7.5890
 124   1.0000      -0.277510        -7.5514
 125   1.0000      -0.276565        -7.5257
 126   1.0000      -0.275643        -7.5006
 127   1.0000      -0.274626        -7.4729
 128   1.0000      -0.273186        -7.4338
 129   1.0000      -0.272736        -7.4215
 130   1.0000      -0.272300        -7.4097
 131   1.0000      -0.269069        -7.3217
 132   1.0000      -0.268377        -7.3029
 133   1.0000      -0.268148        -7.2967
 134   1.0000      -0.266238        -7.2447
 135   1.0000      -0.265795        -7.2326
 136   1.0000      -0.265326        -7.2199
 137   1.0000      -0.263352        -7.1662
 138   1.0000      -0.262651        -7.1471
 139   1.0000      -0.261270        -7.1095
 140   1.0000      -0.258725        -7.0403
 141   1.0000      -0.255577        -6.9546
 142   1.0000      -0.255418        -6.9503
 143   1.0000      -0.254955        -6.9377
 144   1.0000      -0.252989        -6.8842
 145   1.0000      -0.252574        -6.8729
 146   1.0000      -0.250073        -6.8048
 147   1.0000      -0.248637        -6.7658
 148   1.0000      -0.247573        -6.7368
 149   1.0000      -0.245890        -6.6910
 150   1.0000      -0.245584        -6.6827
 151   1.0000      -0.244079        -6.6417
 152   1.0000      -0.242632        -6.6023
 153   1.0000      -0.240505        -6.5445
 154   1.0000      -0.240172        -6.5354
 155   1.0000      -0.236986        -6.4487
 156   1.0000      -0.236258        -6.4289
 157   1.0000      -0.225061        -6.1242
 158   1.0000      -0.219075        -5.9613
 159   1.0000      -0.217156        -5.9091
 160   1.0000      -0.204797        -5.5728
 161   1.0000      -0.203987        -5.5508
 162   1.0000      -0.173045        -4.7088
 163   1.0000      -0.172481        -4.6934
 164   0.0000      -0.157849        -4.2953
 165   0.0000      -0.153185        -4.1684
 166   0.0000      -0.146142        -3.9767
 167   0.0000      -0.141248        -3.8436
 168   0.0000      -0.140566        -3.8250

MULLIKEN ATOMIC CHARGES AND SPIN POPULATIONS
--------------------------------------------
   0 Au:    0.398769   -0.060916
   1 Au:    0.387541   -0.051619
   2 Au:   -0.055559   -0.066202
   3 Au:   -0.318450   -0.091914
   4 Au:    0.264365   -0.070132
   5 Au:    0.264352   -0.011441
   6 Au:    0.310516   -0.007641
   7 Au:    0.390112   -0.037833
   8 Au:    0.395027   -0.058117
   9 Au:   -0.320576   -0.087581
  10 Au:    0.487447   -0.005209
  11 Au:    0.381428   -0.096222
  12 Au:    0.271458   -0.061213
  13 Au:   -0.253127   -0.011456
  14 Au:   -0.053270   -0.069579
  15 Au:   -0.437300    0.013499
  16 Fe:   -2.112734    2.773577
Sum of atomic charges         :   -0.0000000

LOEWDIN ATOMIC CHARGES AND SPIN POPULATIONS
-------------------------------------------
   0 Au:    0.140346   -0.063751
   1 Au:    0.106317   -0.045106
   2 Au:    0.016498   -0.054239
   3 Au:   -0.059339   -0.065816
   4 Au:    0.014886   -0.040614
   5 Au:    0.021665   -0.059938
   6 Au:    0.048845   -0.036078
   7 Au:    0.108088   -0.036485
   8 Au:    0.142201   -0.055283
   9 Au:   -0.057587   -0.060672
  10 Au:    0.075231   -0.018968
  11 Au:    0.112284   -0.090380
  12 Au:    0.014561   -0.040015
  13 Au:   -0.076356   -0.028236
  14 Au:    0.014383   -0.058204
  15 Au:   -0.074254   -0.019463
  16 Fe:   -0.547771    2.773247

  Mayer bond orders larger than 0.100000
B(  0-Au,  1-Au) :   0.1843 B(  0-Au,  3-Au) :   0.2110 B(  0-Au,  5-Au) :   0.1777
B(  0-Au, 16-Fe) :   0.5612 B(  1-Au,  2-Au) :   0.2409 B(  1-Au,  6-Au) :   0.1837
B(  1-Au,  7-Au) :   0.1607 B(  1-Au, 16-Fe) :   0.4928 B(  2-Au,  3-Au) :   0.2471
B(  2-Au,  4-Au) :   0.3780 B(  2-Au,  6-Au) :   0.1564 B(  2-Au, 15-Au) :   0.2278
B(  2-Au, 16-Fe) :   0.4534 B(  3-Au,  4-Au) :   0.3250 B(  3-Au,  5-Au) :   0.1775
B(  3-Au,  9-Au) :   0.1403 B(  3-Au, 11-Au) :   0.2586 B(  3-Au, 13-Au) :   0.2831
B(  3-Au, 16-Fe) :   0.3554 B(  4-Au, 10-Au) :   0.2138 B(  4-Au, 13-Au) :   0.2276
B(  4-Au, 15-Au) :   0.2024 B(  5-Au,  8-Au) :   0.1802 B(  5-Au,  9-Au) :   0.1773
B(  5-Au, 11-Au) :   0.2522 B(  5-Au, 16-Fe) :   0.3430 B(  6-Au,  7-Au) :   0.1845
B(  6-Au, 14-Au) :   0.1548 B(  6-Au, 15-Au) :   0.5143 B(  6-Au, 16-Fe) :   0.2272
B(  7-Au,  8-Au) :   0.1843 B(  7-Au, 14-Au) :   0.2498 B(  7-Au, 16-Fe) :   0.4788
B(  8-Au,  9-Au) :   0.2088 B(  8-Au, 16-Fe) :   0.5610 B(  9-Au, 11-Au) :   0.2592
B(  9-Au, 12-Au) :   0.3199 B(  9-Au, 13-Au) :   0.2853 B(  9-Au, 14-Au) :   0.2481
B(  9-Au, 16-Fe) :   0.3557 B( 10-Au, 12-Au) :   0.2297 B( 10-Au, 13-Au) :   0.2921
B( 10-Au, 15-Au) :   0.3742 B( 11-Au, 13-Au) :   0.4439 B( 12-Au, 13-Au) :   0.2209
B( 12-Au, 14-Au) :   0.3789 B( 12-Au, 15-Au) :   0.2061 B( 13-Au, 15-Au) :   0.1668
B( 14-Au, 15-Au) :   0.2209 B( 14-Au, 16-Fe) :   0.4463 B( 15-Au, 16-Fe) :   0.1831

FINAL SINGLE POINT ENERGY     -3436.728021047092
FINAL SINGLE POINT ENERGY     -3436.730304867581
FINAL SINGLE POINT ENERGY     -3436.731417082284
FINAL SINGLE POINT ENERGY     -3436.732228280259
FINAL SINGLE POINT ENERGY     -3436.732729025237
FINAL SINGLE POINT ENERGY     -3436.732968793857
FINAL SINGLE POINT ENERGY     -3436.733128961209   (Wavefunction not fully converged!)
FINAL SINGLE POINT ENERGY     -3436.733312021770
FINAL SINGLE POINT ENERGY     -3436.733418629665
FINAL SINGLE POINT ENERGY     -3436.733484166567
FINAL SINGLE POINT ENERGY     -3436.733540364615
FINAL SINGLE POINT ENERGY     -3436.733582488503
FINAL SINGLE POINT ENERGY     -3436.733603649401
                    ***********************HURRAY********************

CARTESIAN COORDINATES (ANGSTROEM)
---------------------------------
  Au     8.487741    8.365977    9.578248
  Au     5.830354    7.576137    9.730908
  Au     6.383858    9.890924    8.058808
  Au     9.003587    9.658476    7.141168
  Au     7.272277   11.532486    6.021525
  Au     9.971981    6.996095    7.571144
  Au     4.421241    7.935092    7.313690
  Au     5.543541    5.400685    7.844661
  Au     8.072923    5.050044    6.755777
  Au     8.664459    7.192579    5.032331
  Au     6.499443   11.054563    3.378294
  Au    10.988043    8.657307    5.462890
  Au     6.835129    8.290943    3.239577
  Au     8.893283    9.963182    4.286593
  Au     5.950055    6.634142    5.262685
  Au     5.355445    9.514974    5.349443
  Fe     7.222915    7.417352    7.488060

 Multiplicity           Mult            ....    3
 Number of Electrons    NEL             ....  330
 Basis Dimension        Dim             ....  685
FINAL SINGLE POINT ENERGY     -3436.733612068863   (Wavefunction not fully converged!)
                             ****ORCA TERMINATED NORMALLY****
TOTAL RUN TIME: 0 days 18 hours 27 minutes 20 seconds 118 msec
