                         Program Version 5.0.3 -  RELEASE  -
|  1> !CASSCF def2-TZVP def2-TZVP/C
|  2> !MOREAD RIJCOSX
|  3> %maxcore 6000
|  4> %moinp "pbe.qro"
|  5> %pal nprocs 16 end
|  6>
|  7> %casscf
|  8>  mult 6,4
|  9>  bweight 1,1
| 10>  nroots 1,24
| 11>  nel 5
| 12>  norb 5
| 13> end
| 14>
| 15>
| 16> *xyzfile 0 6 pbe.xyz
| 17>
| 18>
| 19>                          ****END OF INPUT****

CARTESIAN COORDINATES (ANGSTROEM)
---------------------------------
  Au    10.767950   12.175862    8.164332
  Au     8.312011    8.284408   10.479405
  Au    10.276731    9.844093    9.566493
  Au     6.568404    7.208827    8.713589
  Au    12.491259    9.787470    7.905995
  Au     6.150269    9.715466    7.238421
  Au     8.161119   11.406047    7.856120
  Au    10.925220    7.603137    7.419821
  Au    10.249192   10.177526    6.245914
  Au     8.637916    6.290105    6.853433
  Au     6.048141    7.143595    6.022553
  Au     8.180104    8.766752    5.257013
  Mn     8.555103    8.759659    7.858300

 Total Charge           Charge          ....    0
 Multiplicity           Mult            ....    6
 Number of Electrons    NEL             ....  253
 Basis Dimension        Dim             ....  525

ORBITAL ENERGIES
----------------

  NO   OCC          E(Eh)            E(eV)
   0   2.0000    -240.517098     -6544.8030
   1   2.0000     -29.092963      -791.6598
   2   2.0000     -24.799763      -674.8359
   3   2.0000     -24.797599      -674.7770
   4   2.0000     -24.797069      -674.7625
   5   2.0000      -4.716865      -128.3524
   6   2.0000      -4.716045      -128.3301
   7   2.0000      -4.713927      -128.2725
   8   2.0000      -4.710940      -128.1912
   9   2.0000      -4.708488      -128.1245
  10   2.0000      -4.708315      -128.1198
  11   2.0000      -4.706933      -128.0822
  12   2.0000      -4.706601      -128.0731
  13   2.0000      -4.704801      -128.0242
  14   2.0000      -4.704716      -128.0218
  15   2.0000      -4.698371      -127.8492
  16   2.0000      -4.697924      -127.8370
  17   2.0000      -3.783360      -102.9505
  18   2.0000      -2.758817       -75.0712
  19   2.0000      -2.755468       -74.9801
  20   2.0000      -2.754920       -74.9652
  21   2.0000      -2.753433       -74.9247
  22   2.0000      -2.751385       -74.8690
  23   2.0000      -2.751252       -74.8654
  24   2.0000      -2.750915       -74.8562
  25   2.0000      -2.750358       -74.8411
  26   2.0000      -2.749934       -74.8295
  27   2.0000      -2.749644       -74.8216
  28   2.0000      -2.748729       -74.7967
  29   2.0000      -2.748502       -74.7906
  30   2.0000      -2.747594       -74.7658
  31   2.0000      -2.745959       -74.7214
  32   2.0000      -2.745518       -74.7094
  33   2.0000      -2.744741       -74.6882
  34   2.0000      -2.744524       -74.6823
  35   2.0000      -2.743189       -74.6460
  36   2.0000      -2.742454       -74.6260
  37   2.0000      -2.742050       -74.6150
  38   2.0000      -2.741556       -74.6015
  39   2.0000      -2.741351       -74.5960
  40   2.0000      -2.741167       -74.5909
  41   2.0000      -2.740917       -74.5841
  42   2.0000      -2.740099       -74.5619
  43   2.0000      -2.738568       -74.5202
  44   2.0000      -2.738366       -74.5147
  45   2.0000      -2.737844       -74.5005
  46   2.0000      -2.737230       -74.4838
  47   2.0000      -2.737042       -74.4787
  48   2.0000      -2.734726       -74.4157
  49   2.0000      -2.734205       -74.4015
  50   2.0000      -2.733373       -74.3789
  51   2.0000      -2.732415       -74.3528
  52   2.0000      -2.731944       -74.3400
  53   2.0000      -2.731163       -74.3187
  54   2.0000      -2.454925       -66.8019
  55   2.0000      -2.451535       -66.7097
  56   2.0000      -2.450217       -66.6738
  57   2.0000      -0.557931       -15.1821
  58   2.0000      -0.554677       -15.0935
  59   2.0000      -0.548089       -14.9143
  60   2.0000      -0.545471       -14.8430
  61   2.0000      -0.543679       -14.7942
  62   2.0000      -0.540403       -14.7051
  63   2.0000      -0.533957       -14.5297
  64   2.0000      -0.533833       -14.5263
  65   2.0000      -0.530804       -14.4439
  66   2.0000      -0.530532       -14.4365
  67   2.0000      -0.525456       -14.2984
  68   2.0000      -0.525028       -14.2867
  69   2.0000      -0.524751       -14.2792
  70   2.0000      -0.521066       -14.1789
  71   2.0000      -0.519714       -14.1421
  72   2.0000      -0.513618       -13.9763
  73   2.0000      -0.511936       -13.9305
  74   2.0000      -0.509058       -13.8522
  75   2.0000      -0.507201       -13.8016
  76   2.0000      -0.505869       -13.7654
  77   2.0000      -0.500567       -13.6211
  78   2.0000      -0.497928       -13.5493
  79   2.0000      -0.496996       -13.5240
  80   2.0000      -0.490980       -13.3603
  81   2.0000      -0.490639       -13.3510
  82   2.0000      -0.482406       -13.1269
  83   2.0000      -0.477438       -12.9917
  84   2.0000      -0.476101       -12.9554
  85   2.0000      -0.475376       -12.9356
  86   2.0000      -0.474086       -12.9005
  87   2.0000      -0.470010       -12.7896
  88   2.0000      -0.467764       -12.7285
  89   2.0000      -0.465842       -12.6762
  90   2.0000      -0.463982       -12.6256
  91   2.0000      -0.460185       -12.5223
  92   2.0000      -0.458195       -12.4681
  93   2.0000      -0.456383       -12.4188
  94   2.0000      -0.455505       -12.3949
  95   2.0000      -0.450343       -12.2545
  96   2.0000      -0.448868       -12.2143
  97   2.0000      -0.448354       -12.2003
  98   2.0000      -0.447009       -12.1637
  99   2.0000      -0.444286       -12.0896
 100   2.0000      -0.443839       -12.0775
 101   2.0000      -0.442296       -12.0355
 102   2.0000      -0.439957       -11.9718
 103   2.0000      -0.438334       -11.9277
 104   2.0000      -0.436657       -11.8820
 105   2.0000      -0.435256       -11.8439
 106   2.0000      -0.433220       -11.7885
 107   2.0000      -0.430805       -11.7228
 108   2.0000      -0.429796       -11.6953
 109   2.0000      -0.428016       -11.6469
 110   2.0000      -0.426645       -11.6096
 111   2.0000      -0.418832       -11.3970
 112   2.0000      -0.413630       -11.2554
 113   2.0000      -0.411037       -11.1849
 114   2.0000      -0.406573       -11.0634
 115   2.0000      -0.404804       -11.0153
 116   2.0000      -0.397573       -10.8185
 117   2.0000      -0.391705       -10.6588
 118   2.0000      -0.375616       -10.2210
 119   2.0000      -0.311987        -8.4896
 120   2.0000      -0.307920        -8.3789
 121   2.0000      -0.288114        -7.8400
 122   2.0000      -0.251540        -6.8447
 123   2.0000      -0.221119        -6.0169
 124   1.0000      -0.104764        -2.8508
 125   1.0000      -0.121502        -3.3062
 126   1.0000      -0.137265        -3.7352
 127   1.0000      -0.079858        -2.1730
 128   1.0000      -0.107026        -2.9123
 129   0.0000      -0.026267        -0.7148
 130   0.0000      -0.009945        -0.2706
 131   0.0000      -0.001485        -0.0404
 132   0.0000       0.002603         0.0708
 133   0.0000       0.023003         0.6259

MULLIKEN ATOMIC CHARGES AND SPIN DENSITIES
------------------------------------------
   0 Au:    0.357172    0.020687
   1 Au:    0.323816    0.058987
   2 Au:   -0.124348    0.215968
   3 Au:    0.188688    0.241821
   4 Au:    0.350008    0.020282
   5 Au:    0.164318    0.014599
   6 Au:    0.060220    0.009849
   7 Au:    0.059333    0.009693
   8 Au:    0.017379    0.063009
   9 Au:    0.164362    0.014688
  10 Au:    0.300810    0.069836
  11 Au:    0.241088    0.041302
  12 Mn:   -2.102844    3.219280
Sum of atomic charges       :    0.0000000

LOEWDIN ATOMIC CHARGES AND SPIN DENSITIES
-----------------------------------------
   0 Au:    0.072597    0.039087
   1 Au:    0.162763    0.151243
   2 Au:   -0.092787    0.132370
   3 Au:   -0.015638    0.153105
   4 Au:    0.069952    0.038779
   5 Au:    0.048419    0.041559
   6 Au:    0.040344    0.027834
   7 Au:    0.040346    0.027066
   8 Au:   -0.057568    0.047342
   9 Au:    0.047453    0.042009
  10 Au:    0.072127    0.080031
  11 Au:    0.073439    0.046657
  12 Mn:   -0.461445    3.172916

  Mayer bond orders larger than 0.100000
B(  0-Au,  2-Au) :   0.2648 B(  0-Au,  6-Au) :   0.3924 B(  0-Au,  8-Au) :   0.2198
B(  1-Au,  2-Au) :   0.3343 B(  1-Au,  3-Au) :   0.2143 B(  1-Au, 12-Mn) :   0.4676
B(  2-Au,  4-Au) :   0.2579 B(  2-Au,  6-Au) :   0.1082 B(  2-Au,  7-Au) :   0.1006
B(  2-Au,  8-Au) :   0.2142 B(  2-Au, 12-Mn) :   0.3782 B(  3-Au,  5-Au) :   0.1126
B(  3-Au,  9-Au) :   0.1135 B(  3-Au, 10-Au) :   0.2446 B(  3-Au, 12-Mn) :   0.3491
B(  4-Au,  7-Au) :   0.3979 B(  4-Au,  8-Au) :   0.2236 B(  5-Au,  6-Au) :   0.2762
B(  5-Au,  9-Au) :   0.1130 B(  5-Au, 10-Au) :   0.1936 B(  5-Au, 11-Au) :   0.1127
B(  5-Au, 12-Mn) :   0.4294 B(  6-Au,  8-Au) :   0.1690 B(  6-Au, 12-Mn) :   0.4565
B(  7-Au,  8-Au) :   0.1704 B(  7-Au,  9-Au) :   0.2788 B(  7-Au, 12-Mn) :   0.4576
B(  8-Au, 11-Au) :   0.2834 B(  8-Au, 12-Mn) :   0.3986 B(  9-Au, 10-Au) :   0.1904
B(  9-Au, 11-Au) :   0.1156 B(  9-Au, 12-Mn) :   0.4277 B( 10-Au, 11-Au) :   0.2138
B( 10-Au, 12-Mn) :   0.1545 B( 11-Au, 12-Mn) :   0.4989

FINAL SINGLE POINT ENERGY     -2767.370137833587

DIPOLE MOMENT
-------------
                                X             Y             Z
Electronic contribution:     12.28148       9.87388      -8.01601
Nuclear contribution   :    -12.45215      -9.96694       7.81166
                        -----------------------------------------
Total Dipole Moment    :     -0.17067      -0.09307      -0.20435
                        -----------------------------------------
Magnitude (a.u.)       :      0.28205
Magnitude (Debye)      :      0.71690

Rotational constants in cm-1:     0.001799     0.001040     0.001021
Rotational constants in MHz :    53.942579    31.169120    30.597360

                             ****ORCA TERMINATED NORMALLY****
TOTAL RUN TIME: 0 days 0 hours 30 minutes 39 seconds 473 msec
