                         Program Version 5.0.3 -  RELEASE  -
|  1> %pal nprocs 1 end
|  2>
|  3> !PBE def2-TZVP OPT UNO
|  4> !SLOWCONV KDIIS
|  5>
|  6> %geom maxiter 300 end
|  7>
|  8> *xyzfile 0 5 8.xyz                           ****END OF INPUT****
 Total Charge           Charge          ....    0
 Multiplicity           Mult            ....    5
 Number of Electrons    NEL             ....  214
FINAL SINGLE POINT ENERGY     -2402.474849701423
FINAL SINGLE POINT ENERGY     -2402.477451968501
FINAL SINGLE POINT ENERGY     -2402.479284155693
FINAL SINGLE POINT ENERGY     -2402.480172120859
FINAL SINGLE POINT ENERGY     -2402.480800963587
FINAL SINGLE POINT ENERGY     -2402.481148622082
FINAL SINGLE POINT ENERGY     -2402.481319965732
FINAL SINGLE POINT ENERGY     -2402.481409903100
FINAL SINGLE POINT ENERGY     -2402.481519467641
FINAL SINGLE POINT ENERGY     -2402.481627407459
FINAL SINGLE POINT ENERGY     -2402.482449269938
FINAL SINGLE POINT ENERGY     -2402.482832498330
FINAL SINGLE POINT ENERGY     -2402.483041187371
FINAL SINGLE POINT ENERGY     -2402.483145375567
FINAL SINGLE POINT ENERGY     -2402.483280969157
FINAL SINGLE POINT ENERGY     -2402.483359871323
FINAL SINGLE POINT ENERGY     -2402.483379557500
FINAL SINGLE POINT ENERGY     -2402.483388199876
FINAL SINGLE POINT ENERGY     -2402.483390685646
                    ***********************HURRAY********************

CARTESIAN COORDINATES (ANGSTROEM)
---------------------------------
  Au     8.617435    9.195463    9.366982
  Au     8.791198    6.654736    6.597243
  Au     9.870614    4.599887    7.922189
  Au    10.674992    5.462947   10.447213
  Au     9.302329    7.739370   11.503343
  Au     7.349214    8.924376    6.935830
  Au     6.143952    7.727296    9.110550
  Au     6.766620    6.212577   11.225358
  Au     8.936677    5.227401   12.677518
  Au     8.315775    4.031615   10.172234
  Cr     8.504639    6.575100    9.186037

 Multiplicity           Mult            ....    5
 Number of Electrons    NEL             ....  214
 Basis Dimension        Dim             ....  445

ORBITAL ENERGIES
----------------
                 SPIN UP ORBITALS
  NO   OCC          E(Eh)            E(eV)
   0   1.0000    -214.489618     -5836.5592
   1   1.0000     -24.291773      -661.0127
   2   1.0000     -20.656139      -562.0821
   3   1.0000     -20.655049      -562.0525
   4   1.0000     -20.653375      -562.0069
   5   1.0000      -4.027927      -109.6055
   6   1.0000      -4.027785      -109.6016
   7   1.0000      -4.026210      -109.5588
   8   1.0000      -4.025925      -109.5510
   9   1.0000      -4.024788      -109.5201
  10   1.0000      -4.024663      -109.5166
  11   1.0000      -4.022803      -109.4660
  12   1.0000      -4.017483      -109.3213
  13   1.0000      -4.013154      -109.2035
  14   1.0000      -4.011522      -109.1591
  15   1.0000      -2.797268       -76.1175
  16   1.0000      -2.245274       -61.0970
  17   1.0000      -2.244663       -61.0804
  18   1.0000      -2.244383       -61.0728
  19   1.0000      -2.243311       -61.0436
  20   1.0000      -2.241777       -61.0019
  21   1.0000      -2.241562       -60.9960
  22   1.0000      -2.241004       -60.9808
  23   1.0000      -2.240767       -60.9744
  24   1.0000      -2.240036       -60.9545
  25   1.0000      -2.239448       -60.9385
  26   1.0000      -2.238891       -60.9233
  27   1.0000      -2.238736       -60.9191
  28   1.0000      -2.238093       -60.9016
  29   1.0000      -2.237831       -60.8945
  30   1.0000      -2.237734       -60.8918
  31   1.0000      -2.236631       -60.8618
  32   1.0000      -2.234685       -60.8089
  33   1.0000      -2.233513       -60.7770
  34   1.0000      -2.232432       -60.7476
  35   1.0000      -2.231986       -60.7354
  36   1.0000      -2.231235       -60.7150
  37   1.0000      -2.231132       -60.7122
  38   1.0000      -2.231036       -60.7096
  39   1.0000      -2.230587       -60.6974
  40   1.0000      -2.228250       -60.6338
  41   1.0000      -2.228139       -60.6307
  42   1.0000      -2.226241       -60.5791
  43   1.0000      -2.222873       -60.4874
  44   1.0000      -2.222276       -60.4712
  45   1.0000      -2.218397       -60.3657
  46   1.0000      -1.789441       -48.6932
  47   1.0000      -1.786190       -48.6047
  48   1.0000      -1.785355       -48.5820
  49   1.0000      -0.408983       -11.1290
  50   1.0000      -0.374604       -10.1935
  51   1.0000      -0.371475       -10.1084
  52   1.0000      -0.360879        -9.8200
  53   1.0000      -0.359465        -9.7815
  54   1.0000      -0.355502        -9.6737
  55   1.0000      -0.349454        -9.5091
  56   1.0000      -0.345145        -9.3919
  57   1.0000      -0.342420        -9.3177
  58   1.0000      -0.339015        -9.2251
  59   1.0000      -0.336051        -9.1444
  60   1.0000      -0.334707        -9.1078
  61   1.0000      -0.332653        -9.0519
  62   1.0000      -0.327576        -8.9138
  63   1.0000      -0.326199        -8.8763
  64   1.0000      -0.323977        -8.8159
  65   1.0000      -0.322238        -8.7685
  66   1.0000      -0.319792        -8.7020
  67   1.0000      -0.313121        -8.5204
  68   1.0000      -0.311771        -8.4837
  69   1.0000      -0.307024        -8.3545
  70   1.0000      -0.306690        -8.3455
  71   1.0000      -0.304762        -8.2930
  72   1.0000      -0.298968        -8.1353
  73   1.0000      -0.298220        -8.1150
  74   1.0000      -0.295426        -8.0390
  75   1.0000      -0.290997        -7.9184
  76   1.0000      -0.288850        -7.8600
  77   1.0000      -0.287042        -7.8108
  78   1.0000      -0.282622        -7.6905
  79   1.0000      -0.281197        -7.6518
  80   1.0000      -0.276861        -7.5338
  81   1.0000      -0.275314        -7.4917
  82   1.0000      -0.272881        -7.4255
  83   1.0000      -0.271866        -7.3978
  84   1.0000      -0.269329        -7.3288
  85   1.0000      -0.268882        -7.3167
  86   1.0000      -0.268189        -7.2978
  87   1.0000      -0.267100        -7.2682
  88   1.0000      -0.263400        -7.1675
  89   1.0000      -0.260844        -7.0979
  90   1.0000      -0.259763        -7.0685
  91   1.0000      -0.258526        -7.0348
  92   1.0000      -0.256341        -6.9754
  93   1.0000      -0.251952        -6.8560
  94   1.0000      -0.250854        -6.8261
  95   1.0000      -0.249467        -6.7883
  96   1.0000      -0.247618        -6.7380
  97   1.0000      -0.247064        -6.7230
  98   1.0000      -0.243546        -6.6272
  99   1.0000      -0.242411        -6.5963
 100   1.0000      -0.241176        -6.5627
 101   1.0000      -0.236209        -6.4276
 102   1.0000      -0.224806        -6.1173
 103   1.0000      -0.219791        -5.9808
 104   1.0000      -0.208360        -5.6698
 105   1.0000      -0.206291        -5.6135
 106   1.0000      -0.203710        -5.5432
 107   1.0000      -0.197158        -5.3649
 108   1.0000      -0.193613        -5.2685
 109   0.0000      -0.166065        -4.5189
 110   0.0000      -0.159619        -4.3434
 111   0.0000      -0.139882        -3.8064
 112   0.0000      -0.128894        -3.5074
 113   0.0000      -0.120913        -3.2902

                 SPIN DOWN ORBITALS
  NO   OCC          E(Eh)            E(eV)
   0   1.0000    -214.489158     -5836.5467
   1   1.0000     -24.244377      -659.7230
   2   1.0000     -20.621533      -561.1404
   3   1.0000     -20.619816      -561.0937
   4   1.0000     -20.614555      -560.9506
   5   1.0000      -4.026733      -109.5730
   6   1.0000      -4.026576      -109.5687
   7   1.0000      -4.024890      -109.5228
   8   1.0000      -4.024586      -109.5145
   9   1.0000      -4.023730      -109.4913
  10   1.0000      -4.023616      -109.4882
  11   1.0000      -4.021556      -109.4321
  12   1.0000      -4.016905      -109.3056
  13   1.0000      -4.012071      -109.1740
  14   1.0000      -4.010809      -109.1396
  15   1.0000      -2.669092       -72.6297
  16   1.0000      -2.243679       -61.0536
  17   1.0000      -2.243217       -61.0410
  18   1.0000      -2.242937       -61.0334
  19   1.0000      -2.241579       -60.9965
  20   1.0000      -2.240575       -60.9692
  21   1.0000      -2.240171       -60.9582
  22   1.0000      -2.239919       -60.9513
  23   1.0000      -2.239159       -60.9306
  24   1.0000      -2.238680       -60.9176
  25   1.0000      -2.238094       -60.9016
  26   1.0000      -2.237731       -60.8917
  27   1.0000      -2.237545       -60.8867
  28   1.0000      -2.236820       -60.8670
  29   1.0000      -2.236603       -60.8611
  30   1.0000      -2.236493       -60.8581
  31   1.0000      -2.235642       -60.8349
  32   1.0000      -2.233437       -60.7749
  33   1.0000      -2.232373       -60.7460
  34   1.0000      -2.230959       -60.7075
  35   1.0000      -2.230921       -60.7064
  36   1.0000      -2.230397       -60.6922
  37   1.0000      -2.230174       -60.6861
  38   1.0000      -2.230003       -60.6815
  39   1.0000      -2.229322       -60.6629
  40   1.0000      -2.228093       -60.6295
  41   1.0000      -2.227196       -60.6051
  42   1.0000      -2.225191       -60.5505
  43   1.0000      -2.221954       -60.4624
  44   1.0000      -2.221760       -60.4572
  45   1.0000      -2.217272       -60.3350
  46   1.0000      -1.667978       -45.3880
  47   1.0000      -1.663767       -45.2734
  48   1.0000      -1.650297       -44.9069
  49   1.0000      -0.401797       -10.9335
  50   1.0000      -0.370003       -10.0683
  51   1.0000      -0.368651       -10.0315
  52   1.0000      -0.357296        -9.7225
  53   1.0000      -0.355587        -9.6760
  54   1.0000      -0.352174        -9.5831
  55   1.0000      -0.348483        -9.4827
  56   1.0000      -0.342005        -9.3064
  57   1.0000      -0.340423        -9.2634
  58   1.0000      -0.337018        -9.1707
  59   1.0000      -0.333286        -9.0692
  60   1.0000      -0.328481        -8.9384
  61   1.0000      -0.327912        -8.9229
  62   1.0000      -0.325591        -8.8598
  63   1.0000      -0.324764        -8.8373
  64   1.0000      -0.321461        -8.7474
  65   1.0000      -0.316834        -8.6215
  66   1.0000      -0.316317        -8.6074
  67   1.0000      -0.310270        -8.4429
  68   1.0000      -0.308297        -8.3892
  69   1.0000      -0.305398        -8.3103
  70   1.0000      -0.304004        -8.2724
  71   1.0000      -0.301203        -8.1962
  72   1.0000      -0.296450        -8.0668
  73   1.0000      -0.294985        -8.0270
  74   1.0000      -0.292533        -7.9602
  75   1.0000      -0.289577        -7.8798
  76   1.0000      -0.286661        -7.8005
  77   1.0000      -0.285363        -7.7651
  78   1.0000      -0.281317        -7.6550
  79   1.0000      -0.278991        -7.5917
  80   1.0000      -0.275184        -7.4881
  81   1.0000      -0.274730        -7.4758
  82   1.0000      -0.271113        -7.3773
  83   1.0000      -0.270328        -7.3560
  84   1.0000      -0.268106        -7.2955
  85   1.0000      -0.267900        -7.2899
  86   1.0000      -0.267344        -7.2748
  87   1.0000      -0.265849        -7.2341
  88   1.0000      -0.262208        -7.1350
  89   1.0000      -0.258881        -7.0445
  90   1.0000      -0.258729        -7.0404
  91   1.0000      -0.257242        -6.9999
  92   1.0000      -0.255024        -6.9396
  93   1.0000      -0.250856        -6.8261
  94   1.0000      -0.249488        -6.7889
  95   1.0000      -0.248550        -6.7634
  96   1.0000      -0.246311        -6.7025
  97   1.0000      -0.245611        -6.6834
  98   1.0000      -0.241971        -6.5844
  99   1.0000      -0.240480        -6.5438
 100   1.0000      -0.240351        -6.5403
 101   1.0000      -0.233959        -6.3663
 102   1.0000      -0.219137        -5.9630
 103   1.0000      -0.210012        -5.7147
 104   1.0000      -0.196835        -5.3561
 105   0.0000      -0.179617        -4.8876
 106   0.0000      -0.144968        -3.9448
 107   0.0000      -0.134779        -3.6675
 108   0.0000      -0.118596        -3.2272
 109   0.0000      -0.109889        -2.9902

MULLIKEN ATOMIC CHARGES AND SPIN POPULATIONS
--------------------------------------------
   0 Au:    0.312934    0.044646
   1 Au:    0.056074   -0.071384
   2 Au:    0.317381    0.020666
   3 Au:    0.321447    0.098419
   4 Au:    0.222229    0.002798
   5 Au:    0.306304    0.056742
   6 Au:    0.315249    0.044165
   7 Au:    0.237696    0.000778
   8 Au:    0.270299    0.062120
   9 Au:    0.326950    0.099744
  10 Cr:   -2.686563    3.641306
Sum of atomic charges         :   -0.0000000

LOEWDIN ATOMIC CHARGES AND SPIN POPULATIONS
-------------------------------------------
   0 Au:    0.104381    0.039960
   1 Au:    0.086801   -0.014791
   2 Au:    0.116339    0.023685
   3 Au:    0.090148    0.073590
   4 Au:    0.073802    0.045931
   5 Au:    0.063934    0.033170
   6 Au:    0.105828    0.039147
   7 Au:    0.074694    0.043477
   8 Au:    0.064628    0.041987
   9 Au:    0.092796    0.075433
  10 Cr:   -0.873351    3.598411

  Mayer bond orders larger than 0.100000
B(  0-Au,  4-Au) :   0.4372 B(  0-Au,  5-Au) :   0.2720 B(  0-Au,  9-Au) :   0.1028
B(  0-Au, 10-Cr) :   0.6702 B(  1-Au,  2-Au) :   0.4357 B(  1-Au,  5-Au) :   0.2880
B(  1-Au, 10-Cr) :   0.6495 B(  2-Au,  3-Au) :   0.2120 B(  2-Au,  9-Au) :   0.2136
B(  2-Au, 10-Cr) :   0.5914 B(  3-Au,  4-Au) :   0.2341 B(  3-Au,  6-Au) :   0.1022
B(  3-Au,  8-Au) :   0.2261 B(  3-Au,  9-Au) :   0.1524 B(  3-Au, 10-Cr) :   0.5582
B(  4-Au,  8-Au) :   0.2245 B(  4-Au, 10-Cr) :   0.6624 B(  5-Au,  6-Au) :   0.2716
B(  5-Au,  8-Au) :   0.1033 B(  5-Au, 10-Cr) :   0.3804 B(  6-Au,  7-Au) :   0.4351
B(  6-Au, 10-Cr) :   0.6693 B(  7-Au,  8-Au) :   0.2256 B(  7-Au,  9-Au) :   0.2241
B(  7-Au, 10-Cr) :   0.6766 B(  8-Au,  9-Au) :   0.2186 B(  8-Au, 10-Cr) :   0.3961
B(  9-Au, 10-Cr) :   0.5687

FINAL SINGLE POINT ENERGY     -2402.483391950002

DIPOLE MOMENT
-------------
                                X             Y             Z
Electronic contribution:     -0.92111      -0.04479      14.57502
Nuclear contribution   :      0.97020      -0.08621     -14.32350
                        -----------------------------------------
Total Dipole Moment    :      0.04909      -0.13101       0.25151
                        -----------------------------------------
Magnitude (a.u.)       :      0.28780
Magnitude (Debye)      :      0.73154

Rotational constants in cm-1:     0.002268     0.001506     0.001228
Rotational constants in MHz :    67.984950    45.156662    36.814876

                             ****ORCA TERMINATED NORMALLY****
TOTAL RUN TIME: 0 days 2 hours 33 minutes 42 seconds 950 msec
