                         Program Version 5.0.3 -  RELEASE  -
|  1> %pal nprocs 1 end
|  2>
|  3> !PBE def2-TZVP OPT UNO
|  4> !SLOWCONV
|  5>
|  6> *xyz 0 6
|  7> Au  8.46893095520713      9.33680295354644     10.01987950994661
|  8> Au  7.65059900303876      6.67304019069176     10.17065148192835
|  9> Au  10.11204504816618      7.45779021078883      8.84259198553681
| 10> Au  9.41292232365131      7.26834848078459      6.10224616155149
| 11> Au  6.15941651519092      4.97739984146915      8.59338202507115
| 12> Au  7.67540483750629      7.30958544539353      3.98102071678093
| 13> Au  7.39357643806983      9.49650646482459      5.66260898894082
| 14> Au  8.85517790788651      5.20958124306391      7.96253242975186
| 15> Au  6.94646933809931      5.46047714385246      5.96037074851701
| 16> Au  5.26053869254882      7.58399407739151      5.32269852778388
| 17> Au  7.12735355138989     10.83101100166099      8.13538044851819
| 18> Au  4.48707775301917      6.99287821109166      7.91728806350919
| 19> Au  4.91026395673949      9.64012557430028      7.12335878389382
| 20> Au  5.77042308606179      8.72556921654409      9.67890314295580
| 21> Au  9.55642211703875      9.74259181765301      7.38856004924858
| 22> Fe  7.18375581638543      7.60184223694251      7.65429804606495
| 23> *
| 24>
| 25>                          ****END OF INPUT****
 Total Charge           Charge          ....    0
 Multiplicity           Mult            ....    6
 Number of Electrons    NEL             ....  311
FINAL SINGLE POINT ENERGY     -3300.921536025212
FINAL SINGLE POINT ENERGY     -3300.921548892404
                    ***********************HURRAY********************

CARTESIAN COORDINATES (ANGSTROEM)
---------------------------------
  Au     8.470719    9.337150   10.021746
  Au     7.653314    6.676654   10.167117
  Au    10.111173    7.458138    8.841459
  Au     9.413980    7.264270    6.104093
  Au     6.161304    4.976992    8.595005
  Au     7.680035    7.301520    3.983302
  Au     7.394008    9.498219    5.662224
  Au     8.854591    5.205872    7.960977
  Au     6.945091    5.465032    5.958641
  Au     5.261959    7.589121    5.319577
  Au     7.125374   10.832838    8.139296
  Au     4.483014    6.993255    7.918521
  Au     4.907313    9.637689    7.124549
  Au     5.770137    8.722160    9.679620
  Au     9.554262    9.743151    7.385696
  Fe     7.184104    7.605484    7.653949

 Multiplicity           Mult            ....    6
 Number of Electrons    NEL             ....  311
 Basis Dimension        Dim             ....  645

ORBITAL ENERGIES
----------------
                 SPIN UP ORBITALS
  NO   OCC          E(Eh)            E(eV)
   0   1.0000    -254.789604     -6933.1776
   1   1.0000     -29.629697      -806.2650
   2   1.0000     -25.565727      -695.6788
   3   1.0000     -25.564820      -695.6541
   4   1.0000     -25.562493      -695.5908
   5   1.0000      -4.039063      -109.9085
   6   1.0000      -4.037922      -109.8775
   7   1.0000      -4.035227      -109.8041
   8   1.0000      -4.032902      -109.7408
   9   1.0000      -4.032653      -109.7341
  10   1.0000      -4.030877      -109.6857
  11   1.0000      -4.030318      -109.6705
  12   1.0000      -4.030155      -109.6661
  13   1.0000      -4.028828      -109.6300
  14   1.0000      -4.028490      -109.6208
  15   1.0000      -4.027080      -109.5824
  16   1.0000      -4.026779      -109.5742
  17   1.0000      -4.026351      -109.5626
  18   1.0000      -4.026318      -109.5617
  19   1.0000      -4.024600      -109.5149
  20   1.0000      -3.410663       -92.8089
  21   1.0000      -2.253807       -61.3292
  22   1.0000      -2.253163       -61.3117
  23   1.0000      -2.252311       -61.2885
  24   1.0000      -2.251187       -61.2579
  25   1.0000      -2.251045       -61.2541
  26   1.0000      -2.249843       -61.2213
  27   1.0000      -2.249199       -61.2038
  28   1.0000      -2.248492       -61.1846
  29   1.0000      -2.248259       -61.1782
  30   1.0000      -2.247541       -61.1587
  31   1.0000      -2.247230       -61.1502
  32   1.0000      -2.247170       -61.1486
  33   1.0000      -2.246521       -61.1310
  34   1.0000      -2.246470       -61.1295
  35   1.0000      -2.245081       -61.0918
  36   1.0000      -2.244825       -61.0848
  37   1.0000      -2.244694       -61.0812
  38   1.0000      -2.244143       -61.0662
  39   1.0000      -2.243991       -61.0621
  40   1.0000      -2.243560       -61.0504
  41   1.0000      -2.243352       -61.0447
  42   1.0000      -2.242871       -61.0316
  43   1.0000      -2.242448       -61.0201
  44   1.0000      -2.242188       -61.0130
  45   1.0000      -2.241882       -61.0047
  46   1.0000      -2.241543       -60.9955
  47   1.0000      -2.241473       -60.9936
  48   1.0000      -2.240713       -60.9729
  49   1.0000      -2.240433       -60.9653
  50   1.0000      -2.240261       -60.9606
  51   1.0000      -2.240064       -60.9552
  52   1.0000      -2.239829       -60.9488
  53   1.0000      -2.239664       -60.9444
  54   1.0000      -2.239271       -60.9337
  55   1.0000      -2.239050       -60.9276
  56   1.0000      -2.239028       -60.9270
  57   1.0000      -2.238577       -60.9148
  58   1.0000      -2.238499       -60.9127
  59   1.0000      -2.238225       -60.9052
  60   1.0000      -2.237906       -60.8965
  61   1.0000      -2.237477       -60.8848
  62   1.0000      -2.237439       -60.8838
  63   1.0000      -2.236968       -60.8710
  64   1.0000      -2.236629       -60.8618
  65   1.0000      -2.236625       -60.8617
  66   1.0000      -2.226601       -60.5889
  67   1.0000      -2.224860       -60.5415
  68   1.0000      -2.219870       -60.4057
  69   1.0000      -0.441749       -12.0206
  70   1.0000      -0.395458       -10.7609
  71   1.0000      -0.393723       -10.7137
  72   1.0000      -0.391016       -10.6401
  73   1.0000      -0.384086       -10.4515
  74   1.0000      -0.382746       -10.4151
  75   1.0000      -0.377614       -10.2754
  76   1.0000      -0.375816       -10.2265
  77   1.0000      -0.373690       -10.1686
  78   1.0000      -0.370192       -10.0734
  79   1.0000      -0.363353        -9.8873
  80   1.0000      -0.362173        -9.8552
  81   1.0000      -0.358897        -9.7661
  82   1.0000      -0.358583        -9.7575
  83   1.0000      -0.357772        -9.7355
  84   1.0000      -0.356328        -9.6962
  85   1.0000      -0.354535        -9.6474
  86   1.0000      -0.353775        -9.6267
  87   1.0000      -0.352779        -9.5996
  88   1.0000      -0.349827        -9.5193
  89   1.0000      -0.348320        -9.4783
  90   1.0000      -0.345170        -9.3925
  91   1.0000      -0.344742        -9.3809
  92   1.0000      -0.342652        -9.3240
  93   1.0000      -0.341361        -9.2889
  94   1.0000      -0.337728        -9.1900
  95   1.0000      -0.336484        -9.1562
  96   1.0000      -0.334876        -9.1124
  97   1.0000      -0.333853        -9.0846
  98   1.0000      -0.331192        -9.0122
  99   1.0000      -0.330658        -8.9977
 100   1.0000      -0.325581        -8.8595
 101   1.0000      -0.322882        -8.7861
 102   1.0000      -0.321253        -8.7417
 103   1.0000      -0.319663        -8.6985
 104   1.0000      -0.317824        -8.6484
 105   1.0000      -0.315409        -8.5827
 106   1.0000      -0.312860        -8.5134
 107   1.0000      -0.307339        -8.3631
 108   1.0000      -0.305704        -8.3186
 109   1.0000      -0.304453        -8.2846
 110   1.0000      -0.301445        -8.2027
 111   1.0000      -0.297361        -8.0916
 112   1.0000      -0.295319        -8.0360
 113   1.0000      -0.290818        -7.9135
 114   1.0000      -0.288626        -7.8539
 115   1.0000      -0.286776        -7.8036
 116   1.0000      -0.282505        -7.6873
 117   1.0000      -0.281983        -7.6732
 118   1.0000      -0.281383        -7.6568
 119   1.0000      -0.279359        -7.6018
 120   1.0000      -0.278402        -7.5757
 121   1.0000      -0.276363        -7.5202
 122   1.0000      -0.275513        -7.4971
 123   1.0000      -0.274814        -7.4781
 124   1.0000      -0.274201        -7.4614
 125   1.0000      -0.273777        -7.4499
 126   1.0000      -0.272877        -7.4254
 127   1.0000      -0.271684        -7.3929
 128   1.0000      -0.270093        -7.3496
 129   1.0000      -0.267744        -7.2857
 130   1.0000      -0.267414        -7.2767
 131   1.0000      -0.266040        -7.2393
 132   1.0000      -0.264688        -7.2025
 133   1.0000      -0.263902        -7.1811
 134   1.0000      -0.263652        -7.1743
 135   1.0000      -0.262056        -7.1309
 136   1.0000      -0.260951        -7.1008
 137   1.0000      -0.260157        -7.0792
 138   1.0000      -0.258723        -7.0402
 139   1.0000      -0.257119        -6.9966
 140   1.0000      -0.255614        -6.9556
 141   1.0000      -0.254768        -6.9326
 142   1.0000      -0.254117        -6.9149
 143   1.0000      -0.252129        -6.8608
 144   1.0000      -0.251000        -6.8301
 145   1.0000      -0.250871        -6.8265
 146   1.0000      -0.249281        -6.7833
 147   1.0000      -0.249013        -6.7760
 148   1.0000      -0.245809        -6.6888
 149   1.0000      -0.242489        -6.5985
 150   1.0000      -0.241892        -6.5822
 151   1.0000      -0.238173        -6.4810
 152   1.0000      -0.233410        -6.3514
 153   1.0000      -0.220448        -5.9987
 154   1.0000      -0.215087        -5.8528
 155   1.0000      -0.207878        -5.6566
 156   1.0000      -0.201378        -5.4798
 157   1.0000      -0.199766        -5.4359
 158   0.0000      -0.158032        -4.3003
 159   0.0000      -0.131180        -3.5696
 160   0.0000      -0.128699        -3.5021
 161   0.0000      -0.126777        -3.4498
 162   0.0000      -0.125355        -3.4111

                 SPIN DOWN ORBITALS
  NO   OCC          E(Eh)            E(eV)
   0   1.0000    -254.788855     -6933.1572
   1   1.0000     -29.565623      -804.5215
   2   1.0000     -25.516692      -694.3445
   3   1.0000     -25.516166      -694.3302
   4   1.0000     -25.515016      -694.2989
   5   1.0000      -4.038057      -109.8811
   6   1.0000      -4.037039      -109.8534
   7   1.0000      -4.034121      -109.7740
   8   1.0000      -4.031951      -109.7150
   9   1.0000      -4.031724      -109.7088
  10   1.0000      -4.030287      -109.6697
  11   1.0000      -4.029644      -109.6522
  12   1.0000      -4.029423      -109.6462
  13   1.0000      -4.028379      -109.6178
  14   1.0000      -4.028058      -109.6090
  15   1.0000      -4.026651      -109.5708
  16   1.0000      -4.026366      -109.5630
  17   1.0000      -4.025911      -109.5506
  18   1.0000      -4.025811      -109.5479
  19   1.0000      -4.024251      -109.5054
  20   1.0000      -3.266483       -88.8855
  21   1.0000      -2.252688       -61.2988
  22   1.0000      -2.252145       -61.2840
  23   1.0000      -2.251021       -61.2534
  24   1.0000      -2.250008       -61.2258
  25   1.0000      -2.249919       -61.2234
  26   1.0000      -2.248999       -61.1984
  27   1.0000      -2.247843       -61.1669
  28   1.0000      -2.247521       -61.1582
  29   1.0000      -2.247229       -61.1502
  30   1.0000      -2.246674       -61.1351
  31   1.0000      -2.246342       -61.1261
  32   1.0000      -2.246068       -61.1186
  33   1.0000      -2.245900       -61.1140
  34   1.0000      -2.245490       -61.1029
  35   1.0000      -2.244350       -61.0719
  36   1.0000      -2.244206       -61.0679
  37   1.0000      -2.243994       -61.0622
  38   1.0000      -2.243284       -61.0429
  39   1.0000      -2.243053       -61.0366
  40   1.0000      -2.242762       -61.0287
  41   1.0000      -2.242719       -61.0275
  42   1.0000      -2.242251       -61.0148
  43   1.0000      -2.241873       -61.0045
  44   1.0000      -2.241605       -60.9972
  45   1.0000      -2.241226       -60.9869
  46   1.0000      -2.240949       -60.9793
  47   1.0000      -2.240898       -60.9779
  48   1.0000      -2.240204       -60.9591
  49   1.0000      -2.239853       -60.9495
  50   1.0000      -2.239701       -60.9454
  51   1.0000      -2.239578       -60.9420
  52   1.0000      -2.239281       -60.9339
  53   1.0000      -2.239112       -60.9293
  54   1.0000      -2.238654       -60.9169
  55   1.0000      -2.238563       -60.9144
  56   1.0000      -2.238537       -60.9137
  57   1.0000      -2.238107       -60.9020
  58   1.0000      -2.238019       -60.8996
  59   1.0000      -2.237763       -60.8926
  60   1.0000      -2.237428       -60.8835
  61   1.0000      -2.237107       -60.8748
  62   1.0000      -2.236931       -60.8700
  63   1.0000      -2.236473       -60.8575
  64   1.0000      -2.236254       -60.8516
  65   1.0000      -2.236157       -60.8489
  66   1.0000      -2.083790       -56.7028
  67   1.0000      -2.083068       -56.6832
  68   1.0000      -2.081048       -56.6282
  69   1.0000      -0.436726       -11.8839
  70   1.0000      -0.393547       -10.7090
  71   1.0000      -0.391838       -10.6624
  72   1.0000      -0.388510       -10.5719
  73   1.0000      -0.373590       -10.1659
  74   1.0000      -0.372146       -10.1266
  75   1.0000      -0.371710       -10.1147
  76   1.0000      -0.366809        -9.9814
  77   1.0000      -0.365582        -9.9480
  78   1.0000      -0.363291        -9.8856
  79   1.0000      -0.360201        -9.8016
  80   1.0000      -0.358702        -9.7608
  81   1.0000      -0.356728        -9.7071
  82   1.0000      -0.356435        -9.6991
  83   1.0000      -0.355023        -9.6607
  84   1.0000      -0.353388        -9.6162
  85   1.0000      -0.351446        -9.5633
  86   1.0000      -0.351252        -9.5580
  87   1.0000      -0.350243        -9.5306
  88   1.0000      -0.348038        -9.4706
  89   1.0000      -0.346678        -9.4336
  90   1.0000      -0.343506        -9.3473
  91   1.0000      -0.342462        -9.3189
  92   1.0000      -0.340699        -9.2709
  93   1.0000      -0.339411        -9.2359
  94   1.0000      -0.336216        -9.1489
  95   1.0000      -0.333706        -9.0806
  96   1.0000      -0.330619        -8.9966
  97   1.0000      -0.326770        -8.8919
  98   1.0000      -0.326354        -8.8806
  99   1.0000      -0.323462        -8.8018
 100   1.0000      -0.320207        -8.7133
 101   1.0000      -0.318860        -8.6766
 102   1.0000      -0.316322        -8.6076
 103   1.0000      -0.313044        -8.5184
 104   1.0000      -0.310759        -8.4562
 105   1.0000      -0.306444        -8.3388
 106   1.0000      -0.303151        -8.2492
 107   1.0000      -0.300149        -8.1675
 108   1.0000      -0.298556        -8.1241
 109   1.0000      -0.297109        -8.0848
 110   1.0000      -0.292228        -7.9519
 111   1.0000      -0.288912        -7.8617
 112   1.0000      -0.288134        -7.8405
 113   1.0000      -0.286225        -7.7886
 114   1.0000      -0.282213        -7.6794
 115   1.0000      -0.281005        -7.6465
 116   1.0000      -0.278901        -7.5893
 117   1.0000      -0.277706        -7.5568
 118   1.0000      -0.276738        -7.5304
 119   1.0000      -0.275182        -7.4881
 120   1.0000      -0.274235        -7.4623
 121   1.0000      -0.272519        -7.4156
 122   1.0000      -0.271915        -7.3992
 123   1.0000      -0.270874        -7.3709
 124   1.0000      -0.269202        -7.3254
 125   1.0000      -0.267512        -7.2794
 126   1.0000      -0.266361        -7.2481
 127   1.0000      -0.264950        -7.2097
 128   1.0000      -0.263917        -7.1816
 129   1.0000      -0.262613        -7.1461
 130   1.0000      -0.260528        -7.0893
 131   1.0000      -0.259761        -7.0685
 132   1.0000      -0.259191        -7.0530
 133   1.0000      -0.257705        -7.0125
 134   1.0000      -0.256222        -6.9721
 135   1.0000      -0.254857        -6.9350
 136   1.0000      -0.253592        -6.9006
 137   1.0000      -0.252670        -6.8755
 138   1.0000      -0.251085        -6.8324
 139   1.0000      -0.249684        -6.7942
 140   1.0000      -0.249487        -6.7889
 141   1.0000      -0.247704        -6.7404
 142   1.0000      -0.247212        -6.7270
 143   1.0000      -0.244566        -6.6550
 144   1.0000      -0.242240        -6.5917
 145   1.0000      -0.241162        -6.5624
 146   1.0000      -0.237367        -6.4591
 147   1.0000      -0.232685        -6.3317
 148   1.0000      -0.224091        -6.0978
 149   1.0000      -0.221012        -6.0140
 150   1.0000      -0.215118        -5.8537
 151   1.0000      -0.212096        -5.7714
 152   1.0000      -0.209815        -5.7094
 153   0.0000      -0.180377        -4.9083
 154   0.0000      -0.178813        -4.8658
 155   0.0000      -0.175562        -4.7773
 156   0.0000      -0.175302        -4.7702
 157   0.0000      -0.171868        -4.6768

MULLIKEN ATOMIC CHARGES AND SPIN POPULATIONS
--------------------------------------------
   0 Au:    0.172388    0.102221
   1 Au:    0.136571    0.145425
   2 Au:    0.223386    0.083809
   3 Au:   -0.066935    0.144619
   4 Au:    0.317441    0.091715
   5 Au:    0.418807    0.070552
   6 Au:   -0.129730    0.164080
   7 Au:    0.214599    0.099019
   8 Au:    0.054965    0.157905
   9 Au:    0.118839    0.116530
  10 Au:    0.217749    0.100742
  11 Au:    0.226731    0.118208
  12 Au:    0.201823    0.082969
  13 Au:    0.144912    0.133780
  14 Au:    0.171353    0.100896
  15 Fe:   -2.422899    3.287527
Sum of atomic charges         :    0.0000000

LOEWDIN ATOMIC CHARGES AND SPIN POPULATIONS
-------------------------------------------
   0 Au:    0.013313    0.095633
   1 Au:    0.031932    0.108919
   2 Au:    0.027422    0.087690
   3 Au:    0.001116    0.110372
   4 Au:    0.062548    0.091338
   5 Au:    0.097277    0.091198
   6 Au:   -0.011425    0.118431
   7 Au:    0.037073    0.094553
   8 Au:    0.012779    0.119080
   9 Au:    0.010154    0.101546
  10 Au:    0.022609    0.097421
  11 Au:    0.045393    0.100305
  12 Au:    0.030418    0.090204
  13 Au:    0.040774    0.104329
  14 Au:    0.026513    0.097395
  15 Fe:   -0.447898    3.491587

  Mayer bond orders larger than 0.100000
B(  0-Au,  1-Au) :   0.2261 B(  0-Au,  2-Au) :   0.2868 B(  0-Au, 10-Au) :   0.2952
B(  0-Au, 13-Au) :   0.2225 B(  0-Au, 14-Au) :   0.1896 B(  0-Au, 15-Fe) :   0.2932
B(  1-Au,  2-Au) :   0.1758 B(  1-Au,  4-Au) :   0.2675 B(  1-Au,  7-Au) :   0.1609
B(  1-Au, 13-Au) :   0.1701 B(  1-Au, 15-Fe) :   0.5022 B(  2-Au,  3-Au) :   0.2138
B(  2-Au,  7-Au) :   0.2822 B(  2-Au, 14-Au) :   0.2419 B(  2-Au, 15-Fe) :   0.2939
B(  3-Au,  5-Au) :   0.3319 B(  3-Au,  6-Au) :   0.1500 B(  3-Au,  7-Au) :   0.1833
B(  3-Au,  8-Au) :   0.1330 B(  3-Au, 14-Au) :   0.2261 B(  3-Au, 15-Fe) :   0.5240
B(  4-Au,  7-Au) :   0.2015 B(  4-Au,  8-Au) :   0.2126 B(  4-Au, 11-Au) :   0.2869
B(  4-Au, 15-Fe) :   0.3652 B(  5-Au,  6-Au) :   0.3144 B(  5-Au,  8-Au) :   0.2506
B(  5-Au,  9-Au) :   0.2406 B(  5-Au, 15-Fe) :   0.1131 B(  6-Au,  9-Au) :   0.2101
B(  6-Au, 10-Au) :   0.2319 B(  6-Au, 12-Au) :   0.1944 B(  6-Au, 14-Au) :   0.2616
B(  6-Au, 15-Fe) :   0.4958 B(  7-Au,  8-Au) :   0.2519 B(  7-Au, 15-Fe) :   0.3956
B(  8-Au,  9-Au) :   0.2563 B(  8-Au, 15-Fe) :   0.4833 B(  9-Au, 11-Au) :   0.2051
B(  9-Au, 12-Au) :   0.2793 B(  9-Au, 15-Fe) :   0.3523 B( 10-Au, 12-Au) :   0.3021
B( 10-Au, 13-Au) :   0.1498 B( 10-Au, 14-Au) :   0.2331 B( 10-Au, 15-Fe) :   0.2715
B( 11-Au, 12-Au) :   0.1960 B( 11-Au, 13-Au) :   0.2026 B( 11-Au, 15-Fe) :   0.4689
B( 12-Au, 13-Au) :   0.1928 B( 12-Au, 15-Fe) :   0.3385 B( 13-Au, 15-Fe) :   0.5297
B( 14-Au, 15-Fe) :   0.3322

FINAL SINGLE POINT ENERGY     -3300.921561987870

DIPOLE MOMENT
-------------
                                X             Y             Z
Electronic contribution:      5.14945       6.55836      -5.16520
Nuclear contribution   :     -5.16025      -6.67691       4.96324
                        -----------------------------------------
Total Dipole Moment    :     -0.01080      -0.11855      -0.20197
                        -----------------------------------------
Magnitude (a.u.)       :      0.23444
Magnitude (Debye)      :      0.59589

Rotational constants in cm-1:     0.001003     0.000944     0.000904
Rotational constants in MHz :    30.082356    28.308572    27.086401

                             ****ORCA TERMINATED NORMALLY****
TOTAL RUN TIME: 0 days 0 hours 23 minutes 3 seconds 434 msec
