                         Program Version 5.0.3 -  RELEASE  -
|  1> %pal nprocs 1 end
|  2>
|  3> !PBE def2-TZVP OPT UNO
|  4> !SLOWCONV KDIIS
|  5>
|  6> %geom maxiter 300 end
|  7>
|  8> *xyzfile 0 4 1.xyz                           ****END OF INPUT****
 Total Charge           Charge          ....    0
 Multiplicity           Mult            ....    4
 Number of Electrons    NEL             ....  253
FINAL SINGLE POINT ENERGY     -2780.675615966396
FINAL SINGLE POINT ENERGY     -2780.678193374853
FINAL SINGLE POINT ENERGY     -2780.679262280750
FINAL SINGLE POINT ENERGY     -2780.679994632844
FINAL SINGLE POINT ENERGY     -2780.680711702254
FINAL SINGLE POINT ENERGY     -2780.681358551951
FINAL SINGLE POINT ENERGY     -2780.681734548641
FINAL SINGLE POINT ENERGY     -2780.682105919656
FINAL SINGLE POINT ENERGY     -2780.682645416791
FINAL SINGLE POINT ENERGY     -2780.683126808150
FINAL SINGLE POINT ENERGY     -2780.694507349237
FINAL SINGLE POINT ENERGY     -2780.694531044859
FINAL SINGLE POINT ENERGY     -2780.694712041608
FINAL SINGLE POINT ENERGY     -2780.694637364018
FINAL SINGLE POINT ENERGY     -2780.694840379294
FINAL SINGLE POINT ENERGY     -2780.694843658655
FINAL SINGLE POINT ENERGY     -2780.694872328955
FINAL SINGLE POINT ENERGY     -2780.694892450110
FINAL SINGLE POINT ENERGY     -2780.694898321211
                    ***********************HURRAY********************

CARTESIAN COORDINATES (ANGSTROEM)
---------------------------------
  Au     7.468505    9.296277   10.076400
  Au     7.620721    6.978265    8.735777
  Au     6.145466    6.781759    6.289352
  Au     8.483860    5.140120    6.899290
  Au    10.470292    6.751522    7.861800
  Au     8.644905    7.741929    5.713037
  Au    11.670758    8.946321    8.946395
  Au    10.706081   11.358872    7.592238
  Au     9.846552   10.701513   10.164251
  Au     7.946455   11.512041    8.083233
  Au    10.938384    9.097795    6.021921
  Au     6.586264    9.322529    7.194101
  Mn     9.165883    9.127597    8.021660

 Multiplicity           Mult            ....    4
 Number of Electrons    NEL             ....  253
 Basis Dimension        Dim             ....  525

ORBITAL ENERGIES
----------------
                 SPIN UP ORBITALS
  NO   OCC          E(Eh)            E(eV)
   0   1.0000    -234.201586     -6372.9491
   1   1.0000     -26.897339      -731.9138
   2   1.0000     -23.046942      -627.1392
   3   1.0000     -23.045735      -627.1063
   4   1.0000     -23.045647      -627.1039
   5   1.0000      -4.030141      -109.6657
   6   1.0000      -4.030130      -109.6654
   7   1.0000      -4.026745      -109.5733
   8   1.0000      -4.026735      -109.5730
   9   1.0000      -4.024946      -109.5243
  10   1.0000      -4.024834      -109.5213
  11   1.0000      -4.021566      -109.4324
  12   1.0000      -4.021486      -109.4302
  13   1.0000      -4.021187      -109.4220
  14   1.0000      -4.021065      -109.4187
  15   1.0000      -4.017245      -109.3148
  16   1.0000      -4.017180      -109.3130
  17   1.0000      -3.102847       -84.4328
  18   1.0000      -2.248526       -61.1855
  19   1.0000      -2.248444       -61.1833
  20   1.0000      -2.244271       -61.0697
  21   1.0000      -2.244244       -61.0690
  22   1.0000      -2.243337       -61.0443
  23   1.0000      -2.242873       -61.0317
  24   1.0000      -2.241231       -60.9870
  25   1.0000      -2.241101       -60.9835
  26   1.0000      -2.240844       -60.9765
  27   1.0000      -2.240474       -60.9664
  28   1.0000      -2.239020       -60.9268
  29   1.0000      -2.238852       -60.9223
  30   1.0000      -2.238804       -60.9210
  31   1.0000      -2.238551       -60.9141
  32   1.0000      -2.238197       -60.9044
  33   1.0000      -2.237242       -60.8784
  34   1.0000      -2.236799       -60.8664
  35   1.0000      -2.235879       -60.8414
  36   1.0000      -2.235255       -60.8244
  37   1.0000      -2.234770       -60.8112
  38   1.0000      -2.234680       -60.8087
  39   1.0000      -2.234411       -60.8014
  40   1.0000      -2.234345       -60.7996
  41   1.0000      -2.233642       -60.7805
  42   1.0000      -2.233236       -60.7694
  43   1.0000      -2.232837       -60.7586
  44   1.0000      -2.232320       -60.7445
  45   1.0000      -2.232272       -60.7432
  46   1.0000      -2.231891       -60.7328
  47   1.0000      -2.230630       -60.6985
  48   1.0000      -2.230544       -60.6962
  49   1.0000      -2.230297       -60.6895
  50   1.0000      -2.229920       -60.6792
  51   1.0000      -2.229044       -60.6554
  52   1.0000      -2.227649       -60.6174
  53   1.0000      -2.227526       -60.6141
  54   1.0000      -2.005986       -54.5856
  55   1.0000      -2.005102       -54.5616
  56   1.0000      -2.005033       -54.5597
  57   1.0000      -0.425804       -11.5867
  58   1.0000      -0.390284       -10.6202
  59   1.0000      -0.377793       -10.2803
  60   1.0000      -0.373396       -10.1606
  61   1.0000      -0.372701       -10.1417
  62   1.0000      -0.368707       -10.0330
  63   1.0000      -0.364556        -9.9201
  64   1.0000      -0.358665        -9.7598
  65   1.0000      -0.350256        -9.5309
  66   1.0000      -0.349965        -9.5230
  67   1.0000      -0.345951        -9.4138
  68   1.0000      -0.345539        -9.4026
  69   1.0000      -0.342393        -9.3170
  70   1.0000      -0.342121        -9.3096
  71   1.0000      -0.336250        -9.1498
  72   1.0000      -0.334072        -9.0905
  73   1.0000      -0.331127        -9.0104
  74   1.0000      -0.329470        -8.9653
  75   1.0000      -0.325431        -8.8554
  76   1.0000      -0.323201        -8.7948
  77   1.0000      -0.321953        -8.7608
  78   1.0000      -0.320284        -8.7154
  79   1.0000      -0.318725        -8.6730
  80   1.0000      -0.318621        -8.6701
  81   1.0000      -0.314407        -8.5554
  82   1.0000      -0.312343        -8.4993
  83   1.0000      -0.311727        -8.4825
  84   1.0000      -0.303547        -8.2599
  85   1.0000      -0.301622        -8.2075
  86   1.0000      -0.299051        -8.1376
  87   1.0000      -0.293718        -7.9925
  88   1.0000      -0.291670        -7.9367
  89   1.0000      -0.290359        -7.9011
  90   1.0000      -0.287126        -7.8131
  91   1.0000      -0.284590        -7.7441
  92   1.0000      -0.284486        -7.7413
  93   1.0000      -0.281638        -7.6638
  94   1.0000      -0.281271        -7.6538
  95   1.0000      -0.276180        -7.5152
  96   1.0000      -0.274251        -7.4627
  97   1.0000      -0.273974        -7.4552
  98   1.0000      -0.273033        -7.4296
  99   1.0000      -0.270292        -7.3550
 100   1.0000      -0.269798        -7.3416
 101   1.0000      -0.267266        -7.2727
 102   1.0000      -0.266773        -7.2593
 103   1.0000      -0.266025        -7.2389
 104   1.0000      -0.265414        -7.2223
 105   1.0000      -0.261312        -7.1107
 106   1.0000      -0.261081        -7.1044
 107   1.0000      -0.258393        -7.0312
 108   1.0000      -0.257236        -6.9997
 109   1.0000      -0.256760        -6.9868
 110   1.0000      -0.256377        -6.9764
 111   1.0000      -0.255549        -6.9539
 112   1.0000      -0.252454        -6.8696
 113   1.0000      -0.251659        -6.8480
 114   1.0000      -0.250044        -6.8041
 115   1.0000      -0.248277        -6.7560
 116   1.0000      -0.245214        -6.6726
 117   1.0000      -0.244682        -6.6581
 118   1.0000      -0.243507        -6.6262
 119   1.0000      -0.241139        -6.5617
 120   1.0000      -0.236951        -6.4478
 121   1.0000      -0.236129        -6.4254
 122   1.0000      -0.233974        -6.3667
 123   1.0000      -0.232962        -6.3392
 124   1.0000      -0.231172        -6.2905
 125   1.0000      -0.223627        -6.0852
 126   1.0000      -0.208673        -5.6783
 127   1.0000      -0.199068        -5.4169
 128   0.0000      -0.175138        -4.7657
 129   0.0000      -0.174609        -4.7514
 130   0.0000      -0.148143        -4.0312
 131   0.0000      -0.127839        -3.4787
 132   0.0000      -0.119836        -3.2609

                 SPIN DOWN ORBITALS
  NO   OCC          E(Eh)            E(eV)
   0   1.0000    -234.200881     -6372.9300
   1   1.0000     -26.834274      -730.1977
   2   1.0000     -22.999402      -625.8455
   3   1.0000     -22.998201      -625.8129
   4   1.0000     -22.997012      -625.7805
   5   1.0000      -4.029671      -109.6529
   6   1.0000      -4.029660      -109.6526
   7   1.0000      -4.026552      -109.5680
   8   1.0000      -4.026538      -109.5677
   9   1.0000      -4.024867      -109.5222
  10   1.0000      -4.024761      -109.5193
  11   1.0000      -4.021452      -109.4293
  12   1.0000      -4.021380      -109.4273
  13   1.0000      -4.021225      -109.4231
  14   1.0000      -4.021122      -109.4203
  15   1.0000      -4.017674      -109.3265
  16   1.0000      -4.017610      -109.3247
  17   1.0000      -2.948503       -80.2328
  18   1.0000      -2.247989       -61.1709
  19   1.0000      -2.247892       -61.1683
  20   1.0000      -2.243977       -61.0617
  21   1.0000      -2.243954       -61.0611
  22   1.0000      -2.242425       -61.0195
  23   1.0000      -2.241977       -61.0073
  24   1.0000      -2.240591       -60.9696
  25   1.0000      -2.240455       -60.9659
  26   1.0000      -2.240236       -60.9599
  27   1.0000      -2.239827       -60.9488
  28   1.0000      -2.239008       -60.9265
  29   1.0000      -2.238941       -60.9247
  30   1.0000      -2.238840       -60.9219
  31   1.0000      -2.238358       -60.9088
  32   1.0000      -2.237823       -60.8943
  33   1.0000      -2.236360       -60.8544
  34   1.0000      -2.236145       -60.8486
  35   1.0000      -2.235993       -60.8445
  36   1.0000      -2.234949       -60.8161
  37   1.0000      -2.234903       -60.8148
  38   1.0000      -2.234804       -60.8121
  39   1.0000      -2.234592       -60.8063
  40   1.0000      -2.234370       -60.8003
  41   1.0000      -2.233837       -60.7858
  42   1.0000      -2.233465       -60.7757
  43   1.0000      -2.233108       -60.7660
  44   1.0000      -2.232775       -60.7569
  45   1.0000      -2.232705       -60.7550
  46   1.0000      -2.232143       -60.7397
  47   1.0000      -2.230942       -60.7070
  48   1.0000      -2.230768       -60.7023
  49   1.0000      -2.230579       -60.6971
  50   1.0000      -2.230207       -60.6870
  51   1.0000      -2.229334       -60.6633
  52   1.0000      -2.228361       -60.6368
  53   1.0000      -2.228222       -60.6330
  54   1.0000      -1.855939       -50.5027
  55   1.0000      -1.854083       -50.4522
  56   1.0000      -1.851696       -50.3872
  57   1.0000      -0.419384       -11.4120
  58   1.0000      -0.388885       -10.5821
  59   1.0000      -0.376807       -10.2534
  60   1.0000      -0.372080       -10.1248
  61   1.0000      -0.366156        -9.9636
  62   1.0000      -0.361853        -9.8465
  63   1.0000      -0.360991        -9.8231
  64   1.0000      -0.355524        -9.6743
  65   1.0000      -0.348629        -9.4867
  66   1.0000      -0.346104        -9.4180
  67   1.0000      -0.344917        -9.3857
  68   1.0000      -0.344084        -9.3630
  69   1.0000      -0.341384        -9.2895
  70   1.0000      -0.336424        -9.1546
  71   1.0000      -0.334534        -9.1031
  72   1.0000      -0.331354        -9.0166
  73   1.0000      -0.329675        -8.9709
  74   1.0000      -0.325728        -8.8635
  75   1.0000      -0.323366        -8.7992
  76   1.0000      -0.323224        -8.7954
  77   1.0000      -0.319710        -8.6997
  78   1.0000      -0.319539        -8.6951
  79   1.0000      -0.316059        -8.6004
  80   1.0000      -0.315624        -8.5886
  81   1.0000      -0.314260        -8.5514
  82   1.0000      -0.313389        -8.5278
  83   1.0000      -0.308294        -8.3891
  84   1.0000      -0.304743        -8.2925
  85   1.0000      -0.298474        -8.1219
  86   1.0000      -0.296140        -8.0584
  87   1.0000      -0.291305        -7.9268
  88   1.0000      -0.289609        -7.8807
  89   1.0000      -0.287953        -7.8356
  90   1.0000      -0.287893        -7.8340
  91   1.0000      -0.284220        -7.7340
  92   1.0000      -0.283574        -7.7164
  93   1.0000      -0.280468        -7.6319
  94   1.0000      -0.278433        -7.5766
  95   1.0000      -0.275552        -7.4982
  96   1.0000      -0.274286        -7.4637
  97   1.0000      -0.274150        -7.4600
  98   1.0000      -0.273312        -7.4372
  99   1.0000      -0.270290        -7.3550
 100   1.0000      -0.269954        -7.3458
 101   1.0000      -0.267629        -7.2826
 102   1.0000      -0.267086        -7.2678
 103   1.0000      -0.266015        -7.2386
 104   1.0000      -0.265706        -7.2302
 105   1.0000      -0.261855        -7.1254
 106   1.0000      -0.261462        -7.1147
 107   1.0000      -0.259564        -7.0631
 108   1.0000      -0.257712        -7.0127
 109   1.0000      -0.256521        -6.9803
 110   1.0000      -0.256171        -6.9708
 111   1.0000      -0.251943        -6.8557
 112   1.0000      -0.251159        -6.8344
 113   1.0000      -0.250570        -6.8184
 114   1.0000      -0.249307        -6.7840
 115   1.0000      -0.246006        -6.6942
 116   1.0000      -0.244701        -6.6587
 117   1.0000      -0.242836        -6.6079
 118   1.0000      -0.241261        -6.5650
 119   1.0000      -0.235355        -6.4043
 120   1.0000      -0.227265        -6.1842
 121   1.0000      -0.215906        -5.8751
 122   1.0000      -0.207203        -5.6383
 123   1.0000      -0.196775        -5.3545
 124   1.0000      -0.192379        -5.2349
 125   0.0000      -0.156904        -4.2696
 126   0.0000      -0.141827        -3.8593
 127   0.0000      -0.135384        -3.6840
 128   0.0000      -0.128874        -3.5068
 129   0.0000      -0.128843        -3.5060

MULLIKEN ATOMIC CHARGES AND SPIN POPULATIONS
--------------------------------------------
   0 Au:    0.323137   -0.094587
   1 Au:    0.004596   -0.138828
   2 Au:    0.317353    0.048120
   3 Au:    0.317420    0.048216
   4 Au:    0.045654   -0.076615
   5 Au:    0.004085   -0.139161
   6 Au:    0.281065   -0.043299
   7 Au:    0.271067   -0.140319
   8 Au:    0.271183   -0.140759
   9 Au:    0.280561   -0.043487
  10 Au:    0.322424   -0.095298
  11 Au:    0.045295   -0.076925
  12 Mn:   -2.483841    3.892943
Sum of atomic charges         :   -0.0000000

LOEWDIN ATOMIC CHARGES AND SPIN POPULATIONS
-------------------------------------------
   0 Au:    0.111650   -0.112596
   1 Au:   -0.021347   -0.062823
   2 Au:    0.058278    0.002085
   3 Au:    0.058292    0.002218
   4 Au:    0.031115   -0.060925
   5 Au:   -0.021550   -0.063049
   6 Au:    0.077055   -0.071821
   7 Au:    0.041025   -0.109070
   8 Au:    0.041550   -0.109223
   9 Au:    0.076878   -0.071991
  10 Au:    0.111623   -0.113075
  11 Au:    0.030860   -0.061094
  12 Mn:   -0.595429    3.831364

  Mayer bond orders larger than 0.100000
B(  0-Au,  1-Au) :   0.3640 B(  0-Au,  8-Au) :   0.2262 B(  0-Au, 12-Mn) :   0.5530
B(  1-Au,  2-Au) :   0.2409 B(  1-Au,  3-Au) :   0.3613 B(  1-Au,  4-Au) :   0.1539
B(  1-Au, 11-Au) :   0.1379 B(  1-Au, 12-Mn) :   0.4630 B(  2-Au,  3-Au) :   0.1656
B(  2-Au,  5-Au) :   0.3610 B(  2-Au, 11-Au) :   0.4003 B(  3-Au,  4-Au) :   0.4003
B(  3-Au,  5-Au) :   0.2409 B(  4-Au,  5-Au) :   0.1383 B(  4-Au,  6-Au) :   0.2863
B(  4-Au, 12-Mn) :   0.5696 B(  5-Au, 10-Au) :   0.3643 B(  5-Au, 11-Au) :   0.1542
B(  5-Au, 12-Mn) :   0.4627 B(  6-Au,  7-Au) :   0.1345 B(  6-Au,  8-Au) :   0.2196
B(  6-Au,  9-Au) :   0.1243 B(  6-Au, 12-Mn) :   0.5227 B(  7-Au,  8-Au) :   0.2127
B(  7-Au,  9-Au) :   0.2206 B(  7-Au, 10-Au) :   0.2268 B(  7-Au, 12-Mn) :   0.4776
B(  8-Au,  9-Au) :   0.1338 B(  8-Au, 12-Mn) :   0.4787 B(  9-Au, 11-Au) :   0.2864
B(  9-Au, 12-Mn) :   0.5213 B( 10-Au, 12-Mn) :   0.5525 B( 11-Au, 12-Mn) :   0.5692

FINAL SINGLE POINT ENERGY     -2780.694899777112

DIPOLE MOMENT
-------------
                                X             Y             Z
Electronic contribution:    -10.52119     -17.93562      -8.14996
Nuclear contribution   :     10.49745      17.89479       8.13189
                        -----------------------------------------
Total Dipole Moment    :     -0.02374      -0.04083      -0.01807
                        -----------------------------------------
Magnitude (a.u.)       :      0.05057
Magnitude (Debye)      :      0.12853

Rotational constants in cm-1:     0.001730     0.001168     0.000996
Rotational constants in MHz :    51.861552    35.018381    29.872095

                             ****ORCA TERMINATED NORMALLY****
TOTAL RUN TIME: 0 days 10 hours 10 minutes 22 seconds 5 msec
