                         Program Version 5.0.3 -  RELEASE  -
|  1> !RI-B2PLYP def2-TZVP def2-TZVP/C
|  2> !RIJCOSX VERYSLOWCONV
|  3>
|  4> %scf
|  5>   AutoTRAHIter 200
|  6>   maxiter 400
|  7> end
|  8>
|  9>
| 10> %pal nprocs 6 end
| 11>
| 12> *xyzfile 0 5 pbe.xyz
| 13>
| 14> $new_job
| 15>
| 16> !RI-B2PLYP def2-TZVP def2-TZVP/C
| 17> !RIJCOSX VERYSLOWCONV
| 18>
| 19> %scf
| 20>   AutoTRAHIter 200
| 21>   maxiter 400
| 22> end
| 23>
| 24>
| 25> %pal nprocs 6 end
| 26>
| 27> *xyzfile 0 3 pbe.xyz
| 28>
| 29>
| 30>
| 31>
| 32>
| 33>                          ****END OF INPUT****
 Total Charge           Charge          ....    0
 Multiplicity           Mult            ....    5
 Number of Electrons    NEL             ....  216
MP2 TOTAL ENERGY:    -2619.331584064 Eh
FINAL SINGLE POINT ENERGY     -2619.331584064027

CARTESIAN COORDINATES (ANGSTROEM)
---------------------------------
  Au     7.434561    6.602640    6.471896
  Au     8.101300    9.139070    6.876856
  Au     6.046342    4.238871    6.544525
  Au     6.406096    5.497567    8.951324
  Au     4.482509    6.485011    6.897768
  Au     5.930557   10.688833    7.735827
  Au     6.465513    7.380443   10.819109
  Au     7.748461    9.612338    9.646551
  Au     4.934744    9.617670   10.116784
  Au     3.691781    8.922911    7.642558
  Fe     6.104069    8.048625    8.263127

 Multiplicity           Mult            ....    3
 Number of Electrons    NEL             ....  216
 Basis Dimension        Dim             ....  445

ORBITAL ENERGIES
----------------
                 SPIN UP ORBITALS
  NO   OCC          E(Eh)            E(eV)
   0   1.0000    -258.335217     -7029.6586
   1   1.0000     -30.897563      -840.7654
   2   1.0000     -26.614327      -724.2127
   3   1.0000     -26.591915      -723.6028
   4   1.0000     -26.580521      -723.2927
   5   1.0000      -4.399282      -119.7105
   6   1.0000      -4.397487      -119.6617
   7   1.0000      -4.395683      -119.6126
   8   1.0000      -4.395277      -119.6016
   9   1.0000      -4.395191      -119.5992
  10   1.0000      -4.394863      -119.5903
  11   1.0000      -4.394521      -119.5810
  12   1.0000      -4.392604      -119.5288
  13   1.0000      -4.391236      -119.4916
  14   1.0000      -4.384328      -119.3036
  15   1.0000      -3.909940      -106.3949
  16   1.0000      -2.656654       -72.2912
  17   1.0000      -2.610530       -71.0361
  18   1.0000      -2.587448       -70.4080
  19   1.0000      -2.522131       -68.6307
  20   1.0000      -2.519578       -68.5612
  21   1.0000      -2.518943       -68.5439
  22   1.0000      -2.518149       -68.5223
  23   1.0000      -2.517501       -68.5047
  24   1.0000      -2.517070       -68.4930
  25   1.0000      -2.515635       -68.4539
  26   1.0000      -2.515419       -68.4480
  27   1.0000      -2.514650       -68.4271
  28   1.0000      -2.514327       -68.4183
  29   1.0000      -2.513885       -68.4063
  30   1.0000      -2.513426       -68.3938
  31   1.0000      -2.512665       -68.3731
  32   1.0000      -2.512571       -68.3705
  33   1.0000      -2.511864       -68.3513
  34   1.0000      -2.511430       -68.3395
  35   1.0000      -2.511135       -68.3315
  36   1.0000      -2.510126       -68.3040
  37   1.0000      -2.509651       -68.2911
  38   1.0000      -2.509586       -68.2893
  39   1.0000      -2.508772       -68.2672
  40   1.0000      -2.508491       -68.2595
  41   1.0000      -2.507964       -68.2452
  42   1.0000      -2.507229       -68.2252
  43   1.0000      -2.506689       -68.2105
  44   1.0000      -2.505848       -68.1876
  45   1.0000      -2.503915       -68.1350
  46   1.0000      -2.502855       -68.1061
  47   1.0000      -2.499016       -68.0017
  48   1.0000      -2.498499       -67.9876
  49   1.0000      -0.559108       -15.2141
  50   1.0000      -0.556412       -15.1407
  51   1.0000      -0.549238       -14.9455
  52   1.0000      -0.533056       -14.5052
  53   1.0000      -0.501133       -13.6365
  54   1.0000      -0.497155       -13.5283
  55   1.0000      -0.471002       -12.8166
  56   1.0000      -0.454974       -12.3805
  57   1.0000      -0.451043       -12.2735
  58   1.0000      -0.448421       -12.2022
  59   1.0000      -0.446969       -12.1626
  60   1.0000      -0.446216       -12.1422
  61   1.0000      -0.444800       -12.1036
  62   1.0000      -0.440460       -11.9855
  63   1.0000      -0.435343       -11.8463
  64   1.0000      -0.434755       -11.8303
  65   1.0000      -0.427233       -11.6256
  66   1.0000      -0.424812       -11.5597
  67   1.0000      -0.423127       -11.5139
  68   1.0000      -0.422436       -11.4951
  69   1.0000      -0.421485       -11.4692
  70   1.0000      -0.420671       -11.4470
  71   1.0000      -0.406547       -11.0627
  72   1.0000      -0.406091       -11.0503
  73   1.0000      -0.404565       -11.0088
  74   1.0000      -0.401768       -10.9327
  75   1.0000      -0.398997       -10.8573
  76   1.0000      -0.398530       -10.8446
  77   1.0000      -0.386881       -10.5276
  78   1.0000      -0.385384       -10.4868
  79   1.0000      -0.382227       -10.4009
  80   1.0000      -0.381518       -10.3816
  81   1.0000      -0.379901       -10.3376
  82   1.0000      -0.376772       -10.2525
  83   1.0000      -0.375925       -10.2295
  84   1.0000      -0.373023       -10.1505
  85   1.0000      -0.368999       -10.0410
  86   1.0000      -0.367887       -10.0107
  87   1.0000      -0.366462        -9.9719
  88   1.0000      -0.365767        -9.9530
  89   1.0000      -0.365105        -9.9350
  90   1.0000      -0.364223        -9.9110
  91   1.0000      -0.361405        -9.8343
  92   1.0000      -0.358684        -9.7603
  93   1.0000      -0.354053        -9.6343
  94   1.0000      -0.353207        -9.6112
  95   1.0000      -0.351140        -9.5550
  96   1.0000      -0.350370        -9.5340
  97   1.0000      -0.348495        -9.4830
  98   1.0000      -0.348192        -9.4748
  99   1.0000      -0.345085        -9.3902
 100   1.0000      -0.341063        -9.2808
 101   1.0000      -0.340259        -9.2589
 102   1.0000      -0.327813        -8.9203
 103   1.0000      -0.322722        -8.7817
 104   1.0000      -0.321060        -8.7365
 105   1.0000      -0.320080        -8.7098
 106   1.0000      -0.271401        -7.3852
 107   1.0000      -0.269711        -7.3392
 108   1.0000      -0.217821        -5.9272
 109   0.0000      -0.105513        -2.8711
 110   0.0000      -0.102655        -2.7934
 111   0.0000      -0.072563        -1.9745
 112   0.0000      -0.063453        -1.7267
 113   0.0000      -0.057495        -1.5645

                 SPIN DOWN ORBITALS
  NO   OCC          E(Eh)            E(eV)
   0   1.0000    -258.333119     -7029.6015
   1   1.0000     -30.805389      -838.2573
   2   1.0000     -26.516363      -721.5469
   3   1.0000     -26.510471      -721.3866
   4   1.0000     -26.507418      -721.3035
   5   1.0000      -4.399246      -119.7096
   6   1.0000      -4.397734      -119.6684
   7   1.0000      -4.396297      -119.6293
   8   1.0000      -4.395942      -119.6197
   9   1.0000      -4.395421      -119.6055
  10   1.0000      -4.395215      -119.5999
  11   1.0000      -4.394407      -119.5779
  12   1.0000      -4.392138      -119.5162
  13   1.0000      -4.391776      -119.5063
  14   1.0000      -4.385306      -119.3302
  15   1.0000      -3.666739       -99.7770
  16   1.0000      -2.520642       -68.5901
  17   1.0000      -2.518877       -68.5421
  18   1.0000      -2.518021       -68.5188
  19   1.0000      -2.517336       -68.5002
  20   1.0000      -2.516851       -68.4870
  21   1.0000      -2.516654       -68.4816
  22   1.0000      -2.514840       -68.4323
  23   1.0000      -2.514497       -68.4229
  24   1.0000      -2.514112       -68.4125
  25   1.0000      -2.513639       -68.3996
  26   1.0000      -2.513076       -68.3843
  27   1.0000      -2.512971       -68.3814
  28   1.0000      -2.512760       -68.3757
  29   1.0000      -2.511780       -68.3490
  30   1.0000      -2.511641       -68.3452
  31   1.0000      -2.511365       -68.3377
  32   1.0000      -2.510623       -68.3175
  33   1.0000      -2.509880       -68.2973
  34   1.0000      -2.509536       -68.2880
  35   1.0000      -2.509504       -68.2871
  36   1.0000      -2.509019       -68.2739
  37   1.0000      -2.508430       -68.2579
  38   1.0000      -2.507879       -68.2429
  39   1.0000      -2.507342       -68.2282
  40   1.0000      -2.506822       -68.2141
  41   1.0000      -2.505461       -68.1771
  42   1.0000      -2.504194       -68.1426
  43   1.0000      -2.503976       -68.1367
  44   1.0000      -2.500108       -68.0314
  45   1.0000      -2.499849       -68.0244
  46   1.0000      -2.347311       -63.8736
  47   1.0000      -2.342119       -63.7323
  48   1.0000      -2.332028       -63.4577
  49   1.0000      -0.499626       -13.5955
  50   1.0000      -0.476813       -12.9748
  51   1.0000      -0.465585       -12.6692
  52   1.0000      -0.461172       -12.5491
  53   1.0000      -0.458471       -12.4756
  54   1.0000      -0.456329       -12.4174
  55   1.0000      -0.455117       -12.3844
  56   1.0000      -0.452071       -12.3015
  57   1.0000      -0.447539       -12.1782
  58   1.0000      -0.440489       -11.9863
  59   1.0000      -0.436682       -11.8827
  60   1.0000      -0.433370       -11.7926
  61   1.0000      -0.430019       -11.7014
  62   1.0000      -0.428843       -11.6694
  63   1.0000      -0.426784       -11.6134
  64   1.0000      -0.425391       -11.5755
  65   1.0000      -0.424209       -11.5433
  66   1.0000      -0.423601       -11.5268
  67   1.0000      -0.416852       -11.3431
  68   1.0000      -0.413269       -11.2456
  69   1.0000      -0.410628       -11.1738
  70   1.0000      -0.407430       -11.0867
  71   1.0000      -0.404992       -11.0204
  72   1.0000      -0.404165       -10.9979
  73   1.0000      -0.398771       -10.8511
  74   1.0000      -0.385678       -10.4948
  75   1.0000      -0.385163       -10.4808
  76   1.0000      -0.384818       -10.4714
  77   1.0000      -0.380554       -10.3554
  78   1.0000      -0.378231       -10.2922
  79   1.0000      -0.377028       -10.2594
  80   1.0000      -0.375977       -10.2309
  81   1.0000      -0.373704       -10.1690
  82   1.0000      -0.370381       -10.0786
  83   1.0000      -0.368311       -10.0223
  84   1.0000      -0.368130       -10.0173
  85   1.0000      -0.367420        -9.9980
  86   1.0000      -0.367109        -9.9895
  87   1.0000      -0.362265        -9.8577
  88   1.0000      -0.356205        -9.6928
  89   1.0000      -0.355758        -9.6807
  90   1.0000      -0.352497        -9.5919
  91   1.0000      -0.352444        -9.5905
  92   1.0000      -0.351492        -9.5646
  93   1.0000      -0.351170        -9.5558
  94   1.0000      -0.350360        -9.5338
  95   1.0000      -0.343399        -9.3444
  96   1.0000      -0.342442        -9.3183
  97   1.0000      -0.332939        -9.0597
  98   1.0000      -0.330104        -8.9826
  99   1.0000      -0.326910        -8.8957
 100   1.0000      -0.323479        -8.8023
 101   1.0000      -0.320903        -8.7322
 102   1.0000      -0.289963        -7.8903
 103   1.0000      -0.286588        -7.7984
 104   1.0000      -0.230818        -6.2809
 105   1.0000      -0.212885        -5.7929
 106   1.0000      -0.194330        -5.2880
 107   0.0000      -0.081746        -2.2244
 108   0.0000      -0.074884        -2.0377
 109   0.0000      -0.073167        -1.9910
 110   0.0000      -0.044987        -1.2241
 111   0.0000      -0.018070        -0.4917

MULLIKEN ATOMIC CHARGES AND SPIN POPULATIONS
--------------------------------------------
   0 Au:   -0.025419   -0.358304
   1 Au:    0.209972    0.006049
   2 Au:    0.305142    0.023171
   3 Au:    0.005796   -0.278906
   4 Au:   -0.020909   -0.380153
   5 Au:    0.184548   -0.230948
   6 Au:    0.209196    0.011771
   7 Au:    0.203842   -0.254242
   8 Au:    0.183209   -0.236290
   9 Au:    0.212112    0.002685
  10 Fe:   -1.467488    3.695166
Sum of atomic charges         :   -0.0000000

LOEWDIN ATOMIC CHARGES AND SPIN POPULATIONS
-------------------------------------------
   0 Au:   -0.041189   -0.198727
   1 Au:    0.074701   -0.116744
   2 Au:    0.086006   -0.068458
   3 Au:   -0.028124   -0.162896
   4 Au:   -0.039060   -0.207574
   5 Au:    0.004882   -0.179820
   6 Au:    0.080275   -0.107104
   7 Au:    0.018430   -0.189728
   8 Au:    0.005803   -0.183807
   9 Au:    0.072395   -0.106760
  10 Fe:   -0.234120    3.521618

  Mayer bond orders larger than 0.100000
B(  0-Au,  1-Au) :   0.3680 B(  0-Au,  2-Au) :   0.3360 B(  0-Au,  3-Au) :   0.1247
B(  0-Au, 10-Fe) :   0.4862 B(  1-Au,  5-Au) :   0.1672 B(  1-Au,  7-Au) :   0.1689
B(  1-Au, 10-Fe) :   0.4818 B(  2-Au,  3-Au) :   0.3471 B(  2-Au,  4-Au) :   0.3082
B(  3-Au,  6-Au) :   0.3835 B(  3-Au, 10-Fe) :   0.5384 B(  4-Au,  9-Au) :   0.3588
B(  4-Au, 10-Fe) :   0.4766 B(  5-Au,  7-Au) :   0.1780 B(  5-Au,  8-Au) :   0.2150
B(  5-Au,  9-Au) :   0.1508 B(  5-Au, 10-Fe) :   0.4582 B(  6-Au,  7-Au) :   0.1606
B(  6-Au,  8-Au) :   0.1646 B(  6-Au, 10-Fe) :   0.4795 B(  7-Au,  8-Au) :   0.1785
B(  7-Au, 10-Fe) :   0.4003 B(  8-Au,  9-Au) :   0.1566 B(  8-Au, 10-Fe) :   0.4162
B(  9-Au, 10-Fe) :   0.5060

MP2 TOTAL ENERGY:    -2619.328083593 Eh
FINAL SINGLE POINT ENERGY     -2619.328083593005

DIPOLE MOMENT
-------------
                                X             Y             Z
Electronic contribution:      0.82740      -8.57591      -3.35697
Nuclear contribution   :     -0.76202       8.71534       3.51535
                        -----------------------------------------
Total Dipole Moment    :      0.06537       0.13943       0.15838
                        -----------------------------------------
Magnitude (a.u.)       :      0.22090
Magnitude (Debye)      :      0.56148

Rotational constants in cm-1:     0.002296     0.001381     0.001375
Rotational constants in MHz :    68.834349    41.409164    41.229294

                             ****ORCA TERMINATED NORMALLY****
TOTAL RUN TIME: 0 days 0 hours 24 minutes 28 seconds 274 msec
