                         Program Version 5.0.3 -  RELEASE  -
|  1> !R2SCAN def2-TZVP VERYSLOWCONV
|  2> !KDIIS
|  3> %scf
|  4>   AutoTRAHIter 200
|  5>   maxiter 400
|  6> end
|  7>
|  8> %pal nprocs 6 end
|  9>
| 10> *xyzfile 0 5 pbe.xyz
| 11>
| 12> $new_job
| 13>
| 14> !R2SCAN def2-TZVP VERYSLOWCONV
| 15> !KDIIS
| 16> %scf
| 17>   AutoTRAHIter 200
| 18>   maxiter 400
| 19> end
| 20>
| 21>
| 22> %pal nprocs 6 end
| 23>
| 24> *xyzfile 0 3 pbe.xyz
| 25>
| 26>
| 27>
| 28>
| 29>
| 30>                          ****END OF INPUT****
 Total Charge           Charge          ....    0
 Multiplicity           Mult            ....    5
 Number of Electrons    NEL             ....  216
FINAL SINGLE POINT ENERGY     -2622.129916870663

CARTESIAN COORDINATES (ANGSTROEM)
---------------------------------
  Au     7.434561    6.602640    6.471896
  Au     8.101300    9.139070    6.876856
  Au     6.046342    4.238871    6.544525
  Au     6.406096    5.497567    8.951324
  Au     4.482509    6.485011    6.897768
  Au     5.930557   10.688833    7.735827
  Au     6.465513    7.380443   10.819109
  Au     7.748461    9.612338    9.646551
  Au     4.934744    9.617670   10.116784
  Au     3.691781    8.922911    7.642558
  Fe     6.104069    8.048625    8.263127

 Multiplicity           Mult            ....    3
 Number of Electrons    NEL             ....  216
 Basis Dimension        Dim             ....  445

ORBITAL ENERGIES
----------------
                 SPIN UP ORBITALS
  NO   OCC          E(Eh)            E(eV)
   0   1.0000    -255.627429     -6955.9760
   1   1.0000     -29.926489      -814.3412
   2   1.0000     -25.768404      -701.1939
   3   1.0000     -25.752248      -700.7543
   4   1.0000     -25.750376      -700.7034
   5   1.0000      -4.113879      -111.9443
   6   1.0000      -4.112897      -111.9176
   7   1.0000      -4.112522      -111.9074
   8   1.0000      -4.111530      -111.8804
   9   1.0000      -4.111386      -111.8765
  10   1.0000      -4.111322      -111.8748
  11   1.0000      -4.107799      -111.7789
  12   1.0000      -4.107760      -111.7778
  13   1.0000      -4.107510      -111.7710
  14   1.0000      -4.106730      -111.7498
  15   1.0000      -3.504386       -95.3592
  16   1.0000      -2.305410       -62.7334
  17   1.0000      -2.304666       -62.7132
  18   1.0000      -2.304035       -62.6960
  19   1.0000      -2.303133       -62.6714
  20   1.0000      -2.302412       -62.6518
  21   1.0000      -2.300786       -62.6076
  22   1.0000      -2.300570       -62.6017
  23   1.0000      -2.300227       -62.5924
  24   1.0000      -2.299670       -62.5772
  25   1.0000      -2.298603       -62.5482
  26   1.0000      -2.298213       -62.5376
  27   1.0000      -2.296909       -62.5021
  28   1.0000      -2.296512       -62.4913
  29   1.0000      -2.295998       -62.4773
  30   1.0000      -2.295552       -62.4652
  31   1.0000      -2.295353       -62.4597
  32   1.0000      -2.294637       -62.4403
  33   1.0000      -2.294213       -62.4287
  34   1.0000      -2.293909       -62.4204
  35   1.0000      -2.293411       -62.4069
  36   1.0000      -2.293337       -62.4049
  37   1.0000      -2.293110       -62.3987
  38   1.0000      -2.292477       -62.3815
  39   1.0000      -2.292372       -62.3786
  40   1.0000      -2.291829       -62.3638
  41   1.0000      -2.291629       -62.3584
  42   1.0000      -2.290827       -62.3366
  43   1.0000      -2.290662       -62.3321
  44   1.0000      -2.288898       -62.2841
  45   1.0000      -2.288553       -62.2747
  46   1.0000      -2.288416       -62.2710
  47   1.0000      -2.259322       -61.4793
  48   1.0000      -2.255470       -61.3745
  49   1.0000      -0.421243       -11.4626
  50   1.0000      -0.390421       -10.6239
  51   1.0000      -0.376573       -10.2471
  52   1.0000      -0.374562       -10.1923
  53   1.0000      -0.373537       -10.1644
  54   1.0000      -0.367842       -10.0095
  55   1.0000      -0.367278        -9.9941
  56   1.0000      -0.364198        -9.9103
  57   1.0000      -0.347680        -9.4608
  58   1.0000      -0.347020        -9.4429
  59   1.0000      -0.344334        -9.3698
  60   1.0000      -0.336996        -9.1701
  61   1.0000      -0.336421        -9.1545
  62   1.0000      -0.335544        -9.1306
  63   1.0000      -0.333615        -9.0781
  64   1.0000      -0.331108        -9.0099
  65   1.0000      -0.327562        -8.9134
  66   1.0000      -0.326731        -8.8908
  67   1.0000      -0.324891        -8.8407
  68   1.0000      -0.322804        -8.7839
  69   1.0000      -0.322318        -8.7707
  70   1.0000      -0.321561        -8.7501
  71   1.0000      -0.310469        -8.4483
  72   1.0000      -0.308965        -8.4074
  73   1.0000      -0.306284        -8.3344
  74   1.0000      -0.300664        -8.1815
  75   1.0000      -0.294136        -8.0038
  76   1.0000      -0.293616        -7.9897
  77   1.0000      -0.293153        -7.9771
  78   1.0000      -0.288397        -7.8477
  79   1.0000      -0.287809        -7.8317
  80   1.0000      -0.284391        -7.7387
  81   1.0000      -0.283614        -7.7175
  82   1.0000      -0.283053        -7.7023
  83   1.0000      -0.281421        -7.6578
  84   1.0000      -0.279671        -7.6102
  85   1.0000      -0.276311        -7.5188
  86   1.0000      -0.274828        -7.4785
  87   1.0000      -0.272322        -7.4103
  88   1.0000      -0.269744        -7.3401
  89   1.0000      -0.269446        -7.3320
  90   1.0000      -0.268235        -7.2990
  91   1.0000      -0.267864        -7.2890
  92   1.0000      -0.264283        -7.1915
  93   1.0000      -0.262557        -7.1445
  94   1.0000      -0.260446        -7.0871
  95   1.0000      -0.258438        -7.0324
  96   1.0000      -0.257974        -7.0198
  97   1.0000      -0.253760        -6.9051
  98   1.0000      -0.253496        -6.8980
  99   1.0000      -0.253276        -6.8920
 100   1.0000      -0.252609        -6.8738
 101   1.0000      -0.250961        -6.8290
 102   1.0000      -0.245920        -6.6918
 103   1.0000      -0.241168        -6.5625
 104   1.0000      -0.239274        -6.5110
 105   1.0000      -0.238748        -6.4967
 106   1.0000      -0.231037        -6.2868
 107   1.0000      -0.227703        -6.1961
 108   1.0000      -0.201012        -5.4698
 109   0.0000      -0.167732        -4.5642
 110   0.0000      -0.166768        -4.5380
 111   0.0000      -0.128456        -3.4955
 112   0.0000      -0.126708        -3.4479
 113   0.0000      -0.121408        -3.3037

                 SPIN DOWN ORBITALS
  NO   OCC          E(Eh)            E(eV)
   0   1.0000    -255.626421     -6955.9486
   1   1.0000     -29.850394      -812.2705
   2   1.0000     -25.704200      -699.4469
   3   1.0000     -25.696724      -699.2434
   4   1.0000     -25.695943      -699.2222
   5   1.0000      -4.113491      -111.9338
   6   1.0000      -4.112833      -111.9159
   7   1.0000      -4.112467      -111.9059
   8   1.0000      -4.111863      -111.8895
   9   1.0000      -4.111719      -111.8856
  10   1.0000      -4.111649      -111.8836
  11   1.0000      -4.108813      -111.8065
  12   1.0000      -4.108137      -111.7881
  13   1.0000      -4.107853      -111.7804
  14   1.0000      -4.106954      -111.7559
  15   1.0000      -3.336270       -90.7845
  16   1.0000      -2.304697       -62.7140
  17   1.0000      -2.303722       -62.6875
  18   1.0000      -2.303373       -62.6780
  19   1.0000      -2.302037       -62.6416
  20   1.0000      -2.301582       -62.6292
  21   1.0000      -2.300463       -62.5988
  22   1.0000      -2.300093       -62.5887
  23   1.0000      -2.299917       -62.5839
  24   1.0000      -2.299065       -62.5607
  25   1.0000      -2.298697       -62.5507
  26   1.0000      -2.298227       -62.5379
  27   1.0000      -2.297484       -62.5177
  28   1.0000      -2.297377       -62.5148
  29   1.0000      -2.296018       -62.4778
  30   1.0000      -2.295313       -62.4586
  31   1.0000      -2.295047       -62.4514
  32   1.0000      -2.294708       -62.4422
  33   1.0000      -2.294628       -62.4400
  34   1.0000      -2.294393       -62.4336
  35   1.0000      -2.293732       -62.4156
  36   1.0000      -2.293483       -62.4088
  37   1.0000      -2.293224       -62.4018
  38   1.0000      -2.292873       -62.3922
  39   1.0000      -2.292706       -62.3877
  40   1.0000      -2.292010       -62.3688
  41   1.0000      -2.291924       -62.3664
  42   1.0000      -2.291731       -62.3612
  43   1.0000      -2.289537       -62.3015
  44   1.0000      -2.289197       -62.2922
  45   1.0000      -2.288599       -62.2759
  46   1.0000      -2.112683       -57.4890
  47   1.0000      -2.099877       -57.1406
  48   1.0000      -2.099043       -57.1179
  49   1.0000      -0.417631       -11.3643
  50   1.0000      -0.392420       -10.6783
  51   1.0000      -0.368850       -10.0369
  52   1.0000      -0.368582       -10.0296
  53   1.0000      -0.365504        -9.9459
  54   1.0000      -0.363955        -9.9037
  55   1.0000      -0.363708        -9.8970
  56   1.0000      -0.361501        -9.8369
  57   1.0000      -0.349443        -9.5088
  58   1.0000      -0.341118        -9.2823
  59   1.0000      -0.339033        -9.2256
  60   1.0000      -0.336773        -9.1641
  61   1.0000      -0.334263        -9.0957
  62   1.0000      -0.330399        -8.9906
  63   1.0000      -0.329947        -8.9783
  64   1.0000      -0.328832        -8.9480
  65   1.0000      -0.325149        -8.8477
  66   1.0000      -0.324839        -8.8393
  67   1.0000      -0.320531        -8.7221
  68   1.0000      -0.318526        -8.6675
  69   1.0000      -0.316639        -8.6162
  70   1.0000      -0.316486        -8.6120
  71   1.0000      -0.310311        -8.4440
  72   1.0000      -0.308466        -8.3938
  73   1.0000      -0.307541        -8.3686
  74   1.0000      -0.298397        -8.1198
  75   1.0000      -0.295587        -8.0433
  76   1.0000      -0.293987        -7.9998
  77   1.0000      -0.288402        -7.8478
  78   1.0000      -0.287059        -7.8113
  79   1.0000      -0.286642        -7.7999
  80   1.0000      -0.283867        -7.7244
  81   1.0000      -0.281114        -7.6495
  82   1.0000      -0.279645        -7.6095
  83   1.0000      -0.278426        -7.5764
  84   1.0000      -0.277417        -7.5489
  85   1.0000      -0.277125        -7.5409
  86   1.0000      -0.274617        -7.4727
  87   1.0000      -0.273016        -7.4291
  88   1.0000      -0.270848        -7.3702
  89   1.0000      -0.267126        -7.2689
  90   1.0000      -0.266781        -7.2595
  91   1.0000      -0.263225        -7.1627
  92   1.0000      -0.262590        -7.1454
  93   1.0000      -0.262074        -7.1314
  94   1.0000      -0.260048        -7.0763
  95   1.0000      -0.260040        -7.0761
  96   1.0000      -0.254798        -6.9334
  97   1.0000      -0.254258        -6.9187
  98   1.0000      -0.243873        -6.6361
  99   1.0000      -0.243466        -6.6251
 100   1.0000      -0.242078        -6.5873
 101   1.0000      -0.240319        -6.5394
 102   1.0000      -0.238628        -6.4934
 103   1.0000      -0.209516        -5.7012
 104   1.0000      -0.194533        -5.2935
 105   1.0000      -0.191877        -5.2212
 106   1.0000      -0.175208        -4.7677
 107   0.0000      -0.146307        -3.9812
 108   0.0000      -0.142512        -3.8779
 109   0.0000      -0.136646        -3.7183
 110   0.0000      -0.131200        -3.5701
 111   0.0000      -0.128847        -3.5061

MULLIKEN ATOMIC CHARGES AND SPIN POPULATIONS
--------------------------------------------
   0 Au:    0.060150   -0.207014
   1 Au:    0.213652   -0.015484
   2 Au:    0.294970    0.030387
   3 Au:    0.056555   -0.206953
   4 Au:    0.051949   -0.187507
   5 Au:    0.188678   -0.165634
   6 Au:    0.214481   -0.014637
   7 Au:    0.204020   -0.182570
   8 Au:    0.189557   -0.165968
   9 Au:    0.214190    0.003602
  10 Fe:   -1.688202    3.111778
Sum of atomic charges         :   -0.0000000

LOEWDIN ATOMIC CHARGES AND SPIN POPULATIONS
-------------------------------------------
   0 Au:    0.006924   -0.121420
   1 Au:    0.084938   -0.101719
   2 Au:    0.073347   -0.042425
   3 Au:    0.006575   -0.119994
   4 Au:    0.020293   -0.092939
   5 Au:    0.030143   -0.131444
   6 Au:    0.085486   -0.101259
   7 Au:    0.043778   -0.137936
   8 Au:    0.031219   -0.130950
   9 Au:    0.091153   -0.072899
  10 Fe:   -0.473856    3.052986

  Mayer bond orders larger than 0.100000
B(  0-Au,  1-Au) :   0.3988 B(  0-Au,  2-Au) :   0.3536 B(  0-Au,  3-Au) :   0.1204
B(  0-Au, 10-Fe) :   0.5815 B(  1-Au,  5-Au) :   0.1886 B(  1-Au,  7-Au) :   0.1664
B(  1-Au, 10-Fe) :   0.4999 B(  2-Au,  3-Au) :   0.3557 B(  2-Au,  4-Au) :   0.3272
B(  2-Au, 10-Fe) :   0.1056 B(  3-Au,  6-Au) :   0.3982 B(  3-Au, 10-Fe) :   0.5854
B(  4-Au,  9-Au) :   0.3890 B(  4-Au, 10-Fe) :   0.6421 B(  5-Au,  7-Au) :   0.1841
B(  5-Au,  8-Au) :   0.2343 B(  5-Au,  9-Au) :   0.1515 B(  5-Au, 10-Fe) :   0.5001
B(  6-Au,  7-Au) :   0.1673 B(  6-Au,  8-Au) :   0.1893 B(  6-Au, 10-Fe) :   0.4967
B(  7-Au,  8-Au) :   0.1821 B(  7-Au, 10-Fe) :   0.5527 B(  8-Au,  9-Au) :   0.1516
B(  8-Au, 10-Fe) :   0.4987 B(  9-Au, 10-Fe) :   0.5216

FINAL SINGLE POINT ENERGY     -2622.128060907756

DIPOLE MOMENT
-------------
                                X             Y             Z
Electronic contribution:      0.70654      -8.64125      -3.49245
Nuclear contribution   :     -0.76202       8.71534       3.51535
                        -----------------------------------------
Total Dipole Moment    :     -0.05548       0.07409       0.02290
                        -----------------------------------------
Magnitude (a.u.)       :      0.09535
Magnitude (Debye)      :      0.24237

Rotational constants in cm-1:     0.002296     0.001381     0.001375
Rotational constants in MHz :    68.834349    41.409164    41.229294

                             ****ORCA TERMINATED NORMALLY****
TOTAL RUN TIME: 0 days 0 hours 3 minutes 26 seconds 733 msec
