                         Program Version 5.0.3 -  RELEASE  -
|  1> !RI-B2PLYP def2-TZVP def2-TZVP/C
|  2> !RIJCOSX VERYSLOWCONV
|  3>
|  4> %scf
|  5>   AutoTRAHIter 200
|  6>   maxiter 400
|  7> end
|  8>
|  9>
| 10> %pal nprocs 6 end
| 11>
| 12> *xyzfile 0 6 pbe.xyz
| 13>
| 14> $new_job
| 15>
| 16> !RI-B2PLYP def2-TZVP def2-TZVP/C
| 17> !RIJCOSX VERYSLOWCONV
| 18>
| 19> %scf
| 20>   AutoTRAHIter 200
| 21>   maxiter 400
| 22> end
| 23>
| 24>
| 25> %pal nprocs 6 end
| 26>
| 27> *xyzfile 0 4 pbe.xyz
| 28>
| 29>
| 30>
| 31>
| 32>
| 33>                          ****END OF INPUT****
 Total Charge           Charge          ....    0
 Multiplicity           Mult            ....    6
 Number of Electrons    NEL             ....  311
MP2 TOTAL ENERGY:    -3297.364638712 Eh
FINAL SINGLE POINT ENERGY     -3297.364638712487

CARTESIAN COORDINATES (ANGSTROEM)
---------------------------------
  Au     9.125066    6.008230    7.399734
  Au    10.201068    7.798049    5.644754
  Au     6.688791    5.208689    6.144274
  Au     4.842274    7.411144    5.826958
  Au     7.489323    7.605705    5.066137
  Au     6.013990    9.807833    6.543337
  Au     8.598263   10.100837    5.571721
  Au     7.852435   11.306970    7.993241
  Au     6.850411    9.403122    9.672512
  Au     9.231614    8.849755    8.074231
  Au     4.408158    8.611720    8.424446
  Au     8.502554    7.067906   10.002215
  Au     5.710931    6.960312   10.320742
  Au     4.559032    5.752912    8.026429
  Au     7.103310    4.879541    8.925532
  Fe     6.810569    7.426969    7.772572

 Multiplicity           Mult            ....    4
 Number of Electrons    NEL             ....  311
 Basis Dimension        Dim             ....  645

ORBITAL ENERGIES
----------------
                 SPIN UP ORBITALS
  NO   OCC          E(Eh)            E(eV)
   0   1.0000    -258.342517     -7029.8573
   1   1.0000     -30.900433      -840.8435
   2   1.0000     -26.612288      -724.1572
   3   1.0000     -26.604273      -723.9391
   4   1.0000     -26.579864      -723.2749
   5   1.0000      -4.408134      -119.9514
   6   1.0000      -4.405756      -119.8867
   7   1.0000      -4.405725      -119.8859
   8   1.0000      -4.403877      -119.8356
   9   1.0000      -4.400730      -119.7500
  10   1.0000      -4.400140      -119.7339
  11   1.0000      -4.400097      -119.7327
  12   1.0000      -4.399392      -119.7135
  13   1.0000      -4.399258      -119.7099
  14   1.0000      -4.398428      -119.6873
  15   1.0000      -4.398271      -119.6831
  16   1.0000      -4.394948      -119.5926
  17   1.0000      -4.392078      -119.5145
  18   1.0000      -4.391996      -119.5123
  19   1.0000      -4.390714      -119.4774
  20   1.0000      -3.913788      -106.4996
  21   1.0000      -2.650748       -72.1305
  22   1.0000      -2.634645       -71.6923
  23   1.0000      -2.583118       -70.2902
  24   1.0000      -2.528306       -68.7987
  25   1.0000      -2.526660       -68.7539
  26   1.0000      -2.526134       -68.7396
  27   1.0000      -2.526091       -68.7384
  28   1.0000      -2.524887       -68.7057
  29   1.0000      -2.524280       -68.6891
  30   1.0000      -2.523025       -68.6550
  31   1.0000      -2.522680       -68.6456
  32   1.0000      -2.522529       -68.6415
  33   1.0000      -2.522140       -68.6309
  34   1.0000      -2.521267       -68.6072
  35   1.0000      -2.520942       -68.5983
  36   1.0000      -2.520408       -68.5838
  37   1.0000      -2.519526       -68.5598
  38   1.0000      -2.519187       -68.5506
  39   1.0000      -2.518896       -68.5426
  40   1.0000      -2.518738       -68.5384
  41   1.0000      -2.518192       -68.5235
  42   1.0000      -2.517022       -68.4917
  43   1.0000      -2.516980       -68.4905
  44   1.0000      -2.516716       -68.4833
  45   1.0000      -2.516624       -68.4808
  46   1.0000      -2.515999       -68.4638
  47   1.0000      -2.515550       -68.4516
  48   1.0000      -2.515489       -68.4499
  49   1.0000      -2.515292       -68.4446
  50   1.0000      -2.515050       -68.4380
  51   1.0000      -2.514825       -68.4319
  52   1.0000      -2.514020       -68.4100
  53   1.0000      -2.513987       -68.4091
  54   1.0000      -2.513215       -68.3881
  55   1.0000      -2.513074       -68.3842
  56   1.0000      -2.512592       -68.3711
  57   1.0000      -2.512194       -68.3603
  58   1.0000      -2.511333       -68.3368
  59   1.0000      -2.510625       -68.3176
  60   1.0000      -2.510450       -68.3128
  61   1.0000      -2.510098       -68.3032
  62   1.0000      -2.509548       -68.2883
  63   1.0000      -2.509463       -68.2859
  64   1.0000      -2.507324       -68.2278
  65   1.0000      -2.507221       -68.2249
  66   1.0000      -2.506957       -68.2178
  67   1.0000      -2.506874       -68.2155
  68   1.0000      -2.505882       -68.1885
  69   1.0000      -0.567035       -15.4298
  70   1.0000      -0.564161       -15.3516
  71   1.0000      -0.546345       -14.8668
  72   1.0000      -0.541986       -14.7482
  73   1.0000      -0.525572       -14.3015
  74   1.0000      -0.506189       -13.7741
  75   1.0000      -0.474823       -12.9206
  76   1.0000      -0.472873       -12.8675
  77   1.0000      -0.471845       -12.8396
  78   1.0000      -0.468559       -12.7501
  79   1.0000      -0.466780       -12.7017
  80   1.0000      -0.463024       -12.5995
  81   1.0000      -0.461786       -12.5658
  82   1.0000      -0.459703       -12.5092
  83   1.0000      -0.456801       -12.4302
  84   1.0000      -0.456393       -12.4191
  85   1.0000      -0.455312       -12.3897
  86   1.0000      -0.455108       -12.3841
  87   1.0000      -0.452399       -12.3104
  88   1.0000      -0.451484       -12.2855
  89   1.0000      -0.450090       -12.2476
  90   1.0000      -0.447083       -12.1658
  91   1.0000      -0.446520       -12.1504
  92   1.0000      -0.444939       -12.1074
  93   1.0000      -0.442684       -12.0460
  94   1.0000      -0.441674       -12.0186
  95   1.0000      -0.441018       -12.0007
  96   1.0000      -0.438643       -11.9361
  97   1.0000      -0.437942       -11.9170
  98   1.0000      -0.435893       -11.8613
  99   1.0000      -0.431963       -11.7543
 100   1.0000      -0.429532       -11.6882
 101   1.0000      -0.424696       -11.5566
 102   1.0000      -0.421132       -11.4596
 103   1.0000      -0.419541       -11.4163
 104   1.0000      -0.414701       -11.2846
 105   1.0000      -0.414399       -11.2764
 106   1.0000      -0.408179       -11.1071
 107   1.0000      -0.408082       -11.1045
 108   1.0000      -0.407081       -11.0772
 109   1.0000      -0.403922       -10.9913
 110   1.0000      -0.398787       -10.8515
 111   1.0000      -0.397320       -10.8116
 112   1.0000      -0.391576       -10.6553
 113   1.0000      -0.384135       -10.4528
 114   1.0000      -0.380374       -10.3505
 115   1.0000      -0.379679       -10.3316
 116   1.0000      -0.379306       -10.3214
 117   1.0000      -0.377121       -10.2620
 118   1.0000      -0.376030       -10.2323
 119   1.0000      -0.374386       -10.1876
 120   1.0000      -0.372923       -10.1478
 121   1.0000      -0.371849       -10.1185
 122   1.0000      -0.371520       -10.1096
 123   1.0000      -0.370127       -10.0717
 124   1.0000      -0.368861       -10.0372
 125   1.0000      -0.366729        -9.9792
 126   1.0000      -0.365625        -9.9491
 127   1.0000      -0.365202        -9.9377
 128   1.0000      -0.364220        -9.9109
 129   1.0000      -0.363798        -9.8995
 130   1.0000      -0.360935        -9.8215
 131   1.0000      -0.360740        -9.8162
 132   1.0000      -0.359450        -9.7811
 133   1.0000      -0.359171        -9.7735
 134   1.0000      -0.357275        -9.7219
 135   1.0000      -0.354325        -9.6417
 136   1.0000      -0.352905        -9.6030
 137   1.0000      -0.350697        -9.5429
 138   1.0000      -0.349313        -9.5053
 139   1.0000      -0.347724        -9.4620
 140   1.0000      -0.346513        -9.4291
 141   1.0000      -0.345424        -9.3995
 142   1.0000      -0.344693        -9.3796
 143   1.0000      -0.340692        -9.2707
 144   1.0000      -0.340640        -9.2693
 145   1.0000      -0.333434        -9.0732
 146   1.0000      -0.331690        -9.0257
 147   1.0000      -0.328504        -8.9390
 148   1.0000      -0.327351        -8.9077
 149   1.0000      -0.326674        -8.8893
 150   1.0000      -0.313598        -8.5334
 151   1.0000      -0.313049        -8.5185
 152   1.0000      -0.312238        -8.4964
 153   1.0000      -0.246418        -6.7054
 154   1.0000      -0.237033        -6.4500
 155   1.0000      -0.215996        -5.8776
 156   1.0000      -0.210132        -5.7180
 157   0.0000      -0.130336        -3.5466
 158   0.0000      -0.089654        -2.4396
 159   0.0000      -0.074876        -2.0375
 160   0.0000      -0.068881        -1.8743
 161   0.0000      -0.056263        -1.5310

                 SPIN DOWN ORBITALS
  NO   OCC          E(Eh)            E(eV)
   0   1.0000    -258.340581     -7029.8046
   1   1.0000     -30.807789      -838.3226
   2   1.0000     -26.518024      -721.5921
   3   1.0000     -26.515450      -721.5221
   4   1.0000     -26.509171      -721.3512
   5   1.0000      -4.408580      -119.9636
   6   1.0000      -4.405316      -119.8747
   7   1.0000      -4.405280      -119.8738
   8   1.0000      -4.404313      -119.8475
   9   1.0000      -4.401270      -119.7647
  10   1.0000      -4.399870      -119.7265
  11   1.0000      -4.399827      -119.7254
  12   1.0000      -4.399104      -119.7057
  13   1.0000      -4.398992      -119.7027
  14   1.0000      -4.398539      -119.6903
  15   1.0000      -4.398394      -119.6864
  16   1.0000      -4.395604      -119.6105
  17   1.0000      -4.392608      -119.5290
  18   1.0000      -4.392540      -119.5271
  19   1.0000      -4.390947      -119.4837
  20   1.0000      -3.669807       -99.8605
  21   1.0000      -2.528301       -68.7986
  22   1.0000      -2.526804       -68.7578
  23   1.0000      -2.525051       -68.7101
  24   1.0000      -2.524998       -68.7087
  25   1.0000      -2.524439       -68.6935
  26   1.0000      -2.524104       -68.6844
  27   1.0000      -2.522427       -68.6387
  28   1.0000      -2.522317       -68.6357
  29   1.0000      -2.522251       -68.6339
  30   1.0000      -2.521994       -68.6270
  31   1.0000      -2.520846       -68.5957
  32   1.0000      -2.520735       -68.5927
  33   1.0000      -2.519972       -68.5719
  34   1.0000      -2.519326       -68.5543
  35   1.0000      -2.518749       -68.5386
  36   1.0000      -2.518738       -68.5383
  37   1.0000      -2.518503       -68.5319
  38   1.0000      -2.518238       -68.5247
  39   1.0000      -2.516935       -68.4893
  40   1.0000      -2.516722       -68.4835
  41   1.0000      -2.516689       -68.4826
  42   1.0000      -2.516407       -68.4749
  43   1.0000      -2.515699       -68.4556
  44   1.0000      -2.515267       -68.4439
  45   1.0000      -2.515209       -68.4423
  46   1.0000      -2.514966       -68.4357
  47   1.0000      -2.514882       -68.4334
  48   1.0000      -2.514579       -68.4252
  49   1.0000      -2.514183       -68.4144
  50   1.0000      -2.514087       -68.4118
  51   1.0000      -2.513293       -68.3902
  52   1.0000      -2.513201       -68.3877
  53   1.0000      -2.512697       -68.3740
  54   1.0000      -2.512496       -68.3685
  55   1.0000      -2.511612       -68.3444
  56   1.0000      -2.511204       -68.3333
  57   1.0000      -2.510906       -68.3252
  58   1.0000      -2.510888       -68.3247
  59   1.0000      -2.510331       -68.3096
  60   1.0000      -2.509896       -68.2977
  61   1.0000      -2.508226       -68.2523
  62   1.0000      -2.508161       -68.2505
  63   1.0000      -2.507177       -68.2237
  64   1.0000      -2.507110       -68.2219
  65   1.0000      -2.506230       -68.1980
  66   1.0000      -2.351682       -63.9925
  67   1.0000      -2.342093       -63.7316
  68   1.0000      -2.339229       -63.6537
  69   1.0000      -0.522125       -14.2077
  70   1.0000      -0.477519       -12.9940
  71   1.0000      -0.476173       -12.9573
  72   1.0000      -0.474144       -12.9021
  73   1.0000      -0.473940       -12.8966
  74   1.0000      -0.472961       -12.8699
  75   1.0000      -0.470711       -12.8087
  76   1.0000      -0.466350       -12.6900
  77   1.0000      -0.465251       -12.6601
  78   1.0000      -0.464235       -12.6325
  79   1.0000      -0.462883       -12.5957
  80   1.0000      -0.460304       -12.5255
  81   1.0000      -0.458162       -12.4672
  82   1.0000      -0.457528       -12.4500
  83   1.0000      -0.456172       -12.4131
  84   1.0000      -0.453899       -12.3512
  85   1.0000      -0.453666       -12.3449
  86   1.0000      -0.452743       -12.3198
  87   1.0000      -0.452567       -12.3150
  88   1.0000      -0.448931       -12.2160
  89   1.0000      -0.447461       -12.1760
  90   1.0000      -0.447222       -12.1695
  91   1.0000      -0.445171       -12.1137
  92   1.0000      -0.441259       -12.0073
  93   1.0000      -0.436632       -11.8814
  94   1.0000      -0.433842       -11.8054
  95   1.0000      -0.433295       -11.7906
  96   1.0000      -0.427128       -11.6227
  97   1.0000      -0.421557       -11.4712
  98   1.0000      -0.421205       -11.4616
  99   1.0000      -0.419128       -11.4051
 100   1.0000      -0.416540       -11.3346
 101   1.0000      -0.412071       -11.2130
 102   1.0000      -0.409975       -11.1560
 103   1.0000      -0.409113       -11.1325
 104   1.0000      -0.406120       -11.0511
 105   1.0000      -0.404703       -11.0125
 106   1.0000      -0.399281       -10.8650
 107   1.0000      -0.393952       -10.7200
 108   1.0000      -0.389296       -10.5933
 109   1.0000      -0.387995       -10.5579
 110   1.0000      -0.385051       -10.4778
 111   1.0000      -0.383182       -10.4269
 112   1.0000      -0.381168       -10.3721
 113   1.0000      -0.379721       -10.3327
 114   1.0000      -0.378825       -10.3084
 115   1.0000      -0.375732       -10.2242
 116   1.0000      -0.374362       -10.1869
 117   1.0000      -0.374152       -10.1812
 118   1.0000      -0.371678       -10.1139
 119   1.0000      -0.370655       -10.0860
 120   1.0000      -0.369962       -10.0672
 121   1.0000      -0.367944       -10.0123
 122   1.0000      -0.366540        -9.9741
 123   1.0000      -0.365252        -9.9390
 124   1.0000      -0.363754        -9.8982
 125   1.0000      -0.363524        -9.8920
 126   1.0000      -0.361789        -9.8448
 127   1.0000      -0.361024        -9.8240
 128   1.0000      -0.360431        -9.8078
 129   1.0000      -0.358360        -9.7515
 130   1.0000      -0.357386        -9.7250
 131   1.0000      -0.353577        -9.6213
 132   1.0000      -0.351837        -9.5740
 133   1.0000      -0.350442        -9.5360
 134   1.0000      -0.349663        -9.5148
 135   1.0000      -0.347640        -9.4598
 136   1.0000      -0.347241        -9.4489
 137   1.0000      -0.345586        -9.4039
 138   1.0000      -0.342245        -9.3130
 139   1.0000      -0.342160        -9.3107
 140   1.0000      -0.334419        -9.1000
 141   1.0000      -0.333547        -9.0763
 142   1.0000      -0.331742        -9.0272
 143   1.0000      -0.328933        -8.9507
 144   1.0000      -0.328725        -8.9451
 145   1.0000      -0.328122        -8.9287
 146   1.0000      -0.320376        -8.7179
 147   1.0000      -0.316992        -8.6258
 148   1.0000      -0.313624        -8.5341
 149   1.0000      -0.251276        -6.8376
 150   1.0000      -0.236977        -6.4485
 151   1.0000      -0.224995        -6.1224
 152   1.0000      -0.222656        -6.0588
 153   1.0000      -0.222160        -6.0453
 154   0.0000      -0.088173        -2.3993
 155   0.0000      -0.078527        -2.1368
 156   0.0000      -0.072275        -1.9667
 157   0.0000      -0.060197        -1.6380
 158   0.0000      -0.055220        -1.5026

MULLIKEN ATOMIC CHARGES AND SPIN POPULATIONS
--------------------------------------------
   0 Au:   -0.021702   -0.052149
   1 Au:    0.348024    0.019689
   2 Au:    0.269394   -0.036557
   3 Au:    0.408221   -0.148063
   4 Au:   -0.190383    0.036634
   5 Au:   -0.191763    0.037826
   6 Au:    0.219179    0.016867
   7 Au:    0.349078    0.021925
   8 Au:   -0.021440   -0.053756
   9 Au:   -0.234007   -0.140992
  10 Au:    0.268639   -0.035810
  11 Au:    0.302375   -0.080383
  12 Au:    0.276433    0.014980
  13 Au:    0.195094   -0.092163
  14 Au:    0.276618    0.015718
  15 Fe:   -2.253759    3.476235
Sum of atomic charges         :   -0.0000000

LOEWDIN ATOMIC CHARGES AND SPIN POPULATIONS
-------------------------------------------
   0 Au:   -0.006471   -0.059854
   1 Au:    0.107030   -0.012036
   2 Au:    0.061647   -0.067453
   3 Au:    0.054842   -0.075121
   4 Au:   -0.051841   -0.001470
   5 Au:   -0.051927   -0.000391
   6 Au:    0.002175    0.015475
   7 Au:    0.107537   -0.010539
   8 Au:   -0.006676   -0.060190
   9 Au:   -0.065368   -0.068184
  10 Au:    0.061458   -0.067232
  11 Au:    0.059822   -0.058945
  12 Au:    0.033165   -0.015859
  13 Au:    0.033826   -0.070396
  14 Au:    0.033202   -0.015262
  15 Fe:   -0.372423    3.567458

  Mayer bond orders larger than 0.100000
B(  0-Au,  1-Au) :   0.3119 B(  0-Au,  4-Au) :   0.1060 B(  0-Au,  9-Au) :   0.2164
B(  0-Au, 11-Au) :   0.1321 B(  0-Au, 14-Au) :   0.2557 B(  0-Au, 15-Fe) :   0.4749
B(  1-Au,  4-Au) :   0.2300 B(  1-Au,  6-Au) :   0.1941 B(  1-Au,  9-Au) :   0.2857
B(  2-Au,  3-Au) :   0.1238 B(  2-Au,  4-Au) :   0.2310 B(  2-Au, 13-Au) :   0.1661
B(  2-Au, 14-Au) :   0.1346 B(  2-Au, 15-Fe) :   0.4340 B(  3-Au,  4-Au) :   0.2242
B(  3-Au,  5-Au) :   0.2231 B(  3-Au, 10-Au) :   0.1227 B(  3-Au, 13-Au) :   0.1903
B(  3-Au, 15-Fe) :   0.3821 B(  4-Au,  5-Au) :   0.1080 B(  4-Au,  6-Au) :   0.2870
B(  4-Au, 15-Fe) :   0.4396 B(  5-Au,  6-Au) :   0.2872 B(  5-Au,  7-Au) :   0.2297
B(  5-Au,  8-Au) :   0.1061 B(  5-Au, 10-Au) :   0.2314 B(  5-Au, 15-Fe) :   0.4416
B(  6-Au,  7-Au) :   0.1933 B(  6-Au,  9-Au) :   0.2094 B(  7-Au,  8-Au) :   0.3116
B(  7-Au,  9-Au) :   0.2858 B(  8-Au,  9-Au) :   0.2176 B(  8-Au, 11-Au) :   0.1323
B(  8-Au, 12-Au) :   0.2566 B(  8-Au, 15-Fe) :   0.4745 B(  9-Au, 11-Au) :   0.2265
B(  9-Au, 15-Fe) :   0.3014 B( 10-Au, 12-Au) :   0.1342 B( 10-Au, 13-Au) :   0.1674
B( 10-Au, 15-Fe) :   0.4331 B( 11-Au, 12-Au) :   0.1752 B( 11-Au, 14-Au) :   0.1748
B( 11-Au, 15-Fe) :   0.4313 B( 12-Au, 13-Au) :   0.1584 B( 12-Au, 14-Au) :   0.1528
B( 12-Au, 15-Fe) :   0.3447 B( 13-Au, 14-Au) :   0.1588 B( 13-Au, 15-Fe) :   0.3491
B( 14-Au, 15-Fe) :   0.3466

MP2 TOTAL ENERGY:    -3297.364151317 Eh
FINAL SINGLE POINT ENERGY     -3297.364151317440

DIPOLE MOMENT
-------------
                                X             Y             Z
Electronic contribution:     12.95117      13.74335      -7.45321
Nuclear contribution   :    -12.79076     -13.68149       7.52437
                        -----------------------------------------
Total Dipole Moment    :      0.16041       0.06186       0.07115
                        -----------------------------------------
Magnitude (a.u.)       :      0.18606
Magnitude (Debye)      :      0.47294

Rotational constants in cm-1:     0.001103     0.000907     0.000844
Rotational constants in MHz :    33.069183    27.199640    25.314780

                             ****ORCA TERMINATED NORMALLY****
TOTAL RUN TIME: 0 days 1 hours 35 minutes 44 seconds 630 msec
