                         Program Version 5.0.3 -  RELEASE  -
|  1> !PBE def2-TZVP VERYSLOWCONV
|  2>
|  3> %scf
|  4>   AutoTRAHIter 200
|  5>   maxiter 400
|  6> end
|  7>
|  8>
|  9> %pal nprocs 6 end
| 10>
| 11> *xyzfile 0 6 pbe.xyz
| 12>
| 13> $new_job
| 14>
| 15> !PBE def2-TZVP VERYSLOWCONV
| 16>
| 17> %scf
| 18>   AutoTRAHIter 200
| 19>   maxiter 400
| 20> end
| 21>
| 22>
| 23> %pal nprocs 6 end
| 24>
| 25> *xyzfile 0 4 pbe.xyz
| 26>
| 27>
| 28>
| 29>
| 30>
| 31>                          ****END OF INPUT****
 Total Charge           Charge          ....    0
 Multiplicity           Mult            ....    6
 Number of Electrons    NEL             ....  311
FINAL SINGLE POINT ENERGY     -3300.926005200415

CARTESIAN COORDINATES (ANGSTROEM)
---------------------------------
  Au     9.125066    6.008230    7.399734
  Au    10.201068    7.798049    5.644754
  Au     6.688791    5.208689    6.144274
  Au     4.842274    7.411144    5.826958
  Au     7.489323    7.605705    5.066137
  Au     6.013990    9.807833    6.543337
  Au     8.598263   10.100837    5.571721
  Au     7.852435   11.306970    7.993241
  Au     6.850411    9.403122    9.672512
  Au     9.231614    8.849755    8.074231
  Au     4.408158    8.611720    8.424446
  Au     8.502554    7.067906   10.002215
  Au     5.710931    6.960312   10.320742
  Au     4.559032    5.752912    8.026429
  Au     7.103310    4.879541    8.925532
  Fe     6.810569    7.426969    7.772572

 Multiplicity           Mult            ....    4
 Number of Electrons    NEL             ....  311
 Basis Dimension        Dim             ....  645

ORBITAL ENERGIES
----------------
                 SPIN UP ORBITALS
  NO   OCC          E(Eh)            E(eV)
   0   1.0000    -254.753365     -6932.1915
   1   1.0000     -29.588732      -805.1503
   2   1.0000     -25.531160      -694.7382
   3   1.0000     -25.527661      -694.6430
   4   1.0000     -25.513914      -694.2689
   5   1.0000      -4.035739      -109.8180
   6   1.0000      -4.035131      -109.8015
   7   1.0000      -4.035058      -109.7995
   8   1.0000      -4.033945      -109.7692
   9   1.0000      -4.030715      -109.6813
  10   1.0000      -4.030655      -109.6797
  11   1.0000      -4.030365      -109.6718
  12   1.0000      -4.029788      -109.6561
  13   1.0000      -4.029762      -109.6554
  14   1.0000      -4.029163      -109.6391
  15   1.0000      -4.029077      -109.6368
  16   1.0000      -4.025243      -109.5324
  17   1.0000      -4.022184      -109.4492
  18   1.0000      -4.022142      -109.4481
  19   1.0000      -4.020731      -109.4096
  20   1.0000      -3.368321       -91.6567
  21   1.0000      -2.251590       -61.2689
  22   1.0000      -2.251436       -61.2647
  23   1.0000      -2.251296       -61.2609
  24   1.0000      -2.250467       -61.2383
  25   1.0000      -2.250005       -61.2257
  26   1.0000      -2.248556       -61.1863
  27   1.0000      -2.248179       -61.1761
  28   1.0000      -2.247800       -61.1657
  29   1.0000      -2.247105       -61.1468
  30   1.0000      -2.246534       -61.1313
  31   1.0000      -2.245565       -61.1049
  32   1.0000      -2.245440       -61.1015
  33   1.0000      -2.245299       -61.0977
  34   1.0000      -2.245190       -61.0947
  35   1.0000      -2.244498       -61.0759
  36   1.0000      -2.244179       -61.0672
  37   1.0000      -2.244048       -61.0636
  38   1.0000      -2.243699       -61.0541
  39   1.0000      -2.243440       -61.0471
  40   1.0000      -2.243355       -61.0448
  41   1.0000      -2.242980       -61.0346
  42   1.0000      -2.242815       -61.0301
  43   1.0000      -2.242253       -61.0148
  44   1.0000      -2.241635       -60.9980
  45   1.0000      -2.241508       -60.9945
  46   1.0000      -2.241265       -60.9879
  47   1.0000      -2.241113       -60.9838
  48   1.0000      -2.241048       -60.9820
  49   1.0000      -2.240829       -60.9760
  50   1.0000      -2.240703       -60.9726
  51   1.0000      -2.240398       -60.9643
  52   1.0000      -2.240380       -60.9638
  53   1.0000      -2.239704       -60.9455
  54   1.0000      -2.238192       -60.9043
  55   1.0000      -2.237613       -60.8885
  56   1.0000      -2.237500       -60.8855
  57   1.0000      -2.237366       -60.8818
  58   1.0000      -2.235969       -60.8438
  59   1.0000      -2.235878       -60.8413
  60   1.0000      -2.235687       -60.8361
  61   1.0000      -2.234080       -60.7924
  62   1.0000      -2.233431       -60.7747
  63   1.0000      -2.233364       -60.7729
  64   1.0000      -2.232701       -60.7549
  65   1.0000      -2.231096       -60.7112
  66   1.0000      -2.196126       -59.7596
  67   1.0000      -2.189829       -59.5883
  68   1.0000      -2.160822       -58.7989
  69   1.0000      -0.442695       -12.0463
  70   1.0000      -0.395027       -10.7492
  71   1.0000      -0.394011       -10.7216
  72   1.0000      -0.391424       -10.6512
  73   1.0000      -0.382849       -10.4178
  74   1.0000      -0.378950       -10.3118
  75   1.0000      -0.375385       -10.2148
  76   1.0000      -0.374539       -10.1917
  77   1.0000      -0.372483       -10.1358
  78   1.0000      -0.366444        -9.9715
  79   1.0000      -0.362986        -9.8773
  80   1.0000      -0.361872        -9.8470
  81   1.0000      -0.356000        -9.6872
  82   1.0000      -0.355829        -9.6826
  83   1.0000      -0.353414        -9.6169
  84   1.0000      -0.352316        -9.5870
  85   1.0000      -0.351308        -9.5596
  86   1.0000      -0.349486        -9.5100
  87   1.0000      -0.347932        -9.4677
  88   1.0000      -0.346324        -9.4239
  89   1.0000      -0.345268        -9.3952
  90   1.0000      -0.344481        -9.3738
  91   1.0000      -0.343416        -9.3448
  92   1.0000      -0.340312        -9.2604
  93   1.0000      -0.336210        -9.1487
  94   1.0000      -0.334109        -9.0916
  95   1.0000      -0.333408        -9.0725
  96   1.0000      -0.329112        -8.9556
  97   1.0000      -0.323635        -8.8066
  98   1.0000      -0.323115        -8.7924
  99   1.0000      -0.321384        -8.7453
 100   1.0000      -0.320101        -8.7104
 101   1.0000      -0.317445        -8.6381
 102   1.0000      -0.313394        -8.5279
 103   1.0000      -0.311092        -8.4652
 104   1.0000      -0.309399        -8.4192
 105   1.0000      -0.306008        -8.3269
 106   1.0000      -0.304559        -8.2875
 107   1.0000      -0.302040        -8.2189
 108   1.0000      -0.299697        -8.1552
 109   1.0000      -0.296606        -8.0711
 110   1.0000      -0.296426        -8.0662
 111   1.0000      -0.293566        -7.9883
 112   1.0000      -0.288938        -7.8624
 113   1.0000      -0.286791        -7.8040
 114   1.0000      -0.285599        -7.7715
 115   1.0000      -0.284290        -7.7359
 116   1.0000      -0.281028        -7.6472
 117   1.0000      -0.280156        -7.6234
 118   1.0000      -0.278603        -7.5812
 119   1.0000      -0.276674        -7.5287
 120   1.0000      -0.276180        -7.5152
 121   1.0000      -0.275187        -7.4882
 122   1.0000      -0.272847        -7.4246
 123   1.0000      -0.272409        -7.4126
 124   1.0000      -0.272070        -7.4034
 125   1.0000      -0.270805        -7.3690
 126   1.0000      -0.270537        -7.3617
 127   1.0000      -0.268429        -7.3043
 128   1.0000      -0.265178        -7.2159
 129   1.0000      -0.264168        -7.1884
 130   1.0000      -0.263529        -7.1710
 131   1.0000      -0.262208        -7.1350
 132   1.0000      -0.260579        -7.0907
 133   1.0000      -0.260128        -7.0784
 134   1.0000      -0.260078        -7.0771
 135   1.0000      -0.257966        -7.0196
 136   1.0000      -0.255925        -6.9641
 137   1.0000      -0.255340        -6.9482
 138   1.0000      -0.254502        -6.9254
 139   1.0000      -0.254068        -6.9135
 140   1.0000      -0.252705        -6.8764
 141   1.0000      -0.252616        -6.8740
 142   1.0000      -0.251715        -6.8495
 143   1.0000      -0.249679        -6.7941
 144   1.0000      -0.249137        -6.7794
 145   1.0000      -0.248934        -6.7738
 146   1.0000      -0.246365        -6.7039
 147   1.0000      -0.244193        -6.6448
 148   1.0000      -0.244048        -6.6409
 149   1.0000      -0.240501        -6.5444
 150   1.0000      -0.240304        -6.5390
 151   1.0000      -0.235913        -6.4195
 152   1.0000      -0.231402        -6.2968
 153   1.0000      -0.219380        -5.9696
 154   1.0000      -0.211531        -5.7561
 155   1.0000      -0.200691        -5.4611
 156   1.0000      -0.194435        -5.2908
 157   0.0000      -0.191502        -5.2110
 158   0.0000      -0.149890        -4.0787
 159   0.0000      -0.138206        -3.7608
 160   0.0000      -0.134613        -3.6630
 161   0.0000      -0.123900        -3.3715

                 SPIN DOWN ORBITALS
  NO   OCC          E(Eh)            E(eV)
   0   1.0000    -254.752722     -6932.1740
   1   1.0000     -29.531168      -803.5839
   2   1.0000     -25.485059      -693.4837
   3   1.0000     -25.482387      -693.4110
   4   1.0000     -25.474941      -693.2084
   5   1.0000      -4.035823      -109.8203
   6   1.0000      -4.034585      -109.7866
   7   1.0000      -4.034516      -109.7848
   8   1.0000      -4.033820      -109.7658
   9   1.0000      -4.030464      -109.6745
  10   1.0000      -4.030437      -109.6738
  11   1.0000      -4.030387      -109.6724
  12   1.0000      -4.029423      -109.6462
  13   1.0000      -4.029404      -109.6456
  14   1.0000      -4.029077      -109.6368
  15   1.0000      -4.028991      -109.6344
  16   1.0000      -4.025620      -109.5427
  17   1.0000      -4.022703      -109.4633
  18   1.0000      -4.022670      -109.4624
  19   1.0000      -4.020945      -109.4155
  20   1.0000      -3.237473       -88.0961
  21   1.0000      -2.251797       -61.2745
  22   1.0000      -2.250770       -61.2466
  23   1.0000      -2.250591       -61.2417
  24   1.0000      -2.250108       -61.2286
  25   1.0000      -2.249724       -61.2181
  26   1.0000      -2.248371       -61.1813
  27   1.0000      -2.247534       -61.1585
  28   1.0000      -2.247134       -61.1476
  29   1.0000      -2.246978       -61.1434
  30   1.0000      -2.246271       -61.1241
  31   1.0000      -2.245667       -61.1077
  32   1.0000      -2.245281       -61.0972
  33   1.0000      -2.244995       -61.0894
  34   1.0000      -2.244931       -61.0877
  35   1.0000      -2.244542       -61.0771
  36   1.0000      -2.243997       -61.0623
  37   1.0000      -2.243517       -61.0492
  38   1.0000      -2.243493       -61.0486
  39   1.0000      -2.243246       -61.0418
  40   1.0000      -2.243165       -61.0396
  41   1.0000      -2.242832       -61.0306
  42   1.0000      -2.242756       -61.0285
  43   1.0000      -2.241960       -61.0068
  44   1.0000      -2.241564       -60.9961
  45   1.0000      -2.241121       -60.9840
  46   1.0000      -2.241076       -60.9828
  47   1.0000      -2.240933       -60.9789
  48   1.0000      -2.240717       -60.9730
  49   1.0000      -2.240539       -60.9682
  50   1.0000      -2.240510       -60.9674
  51   1.0000      -2.240356       -60.9632
  52   1.0000      -2.240106       -60.9564
  53   1.0000      -2.239689       -60.9450
  54   1.0000      -2.238778       -60.9202
  55   1.0000      -2.237787       -60.8933
  56   1.0000      -2.237723       -60.8915
  57   1.0000      -2.237524       -60.8861
  58   1.0000      -2.236744       -60.8649
  59   1.0000      -2.236542       -60.8594
  60   1.0000      -2.235864       -60.8410
  61   1.0000      -2.234401       -60.8011
  62   1.0000      -2.234133       -60.7938
  63   1.0000      -2.234020       -60.7908
  64   1.0000      -2.232888       -60.7600
  65   1.0000      -2.231378       -60.7189
  66   1.0000      -2.060581       -56.0713
  67   1.0000      -2.057071       -55.9758
  68   1.0000      -2.044748       -55.6404
  69   1.0000      -0.438764       -11.9394
  70   1.0000      -0.394957       -10.7473
  71   1.0000      -0.393533       -10.7086
  72   1.0000      -0.390765       -10.6333
  73   1.0000      -0.377099       -10.2614
  74   1.0000      -0.374001       -10.1771
  75   1.0000      -0.370658       -10.0861
  76   1.0000      -0.368740       -10.0339
  77   1.0000      -0.368508       -10.0276
  78   1.0000      -0.363996        -9.9048
  79   1.0000      -0.361410        -9.8345
  80   1.0000      -0.360849        -9.8192
  81   1.0000      -0.355487        -9.6733
  82   1.0000      -0.354544        -9.6476
  83   1.0000      -0.353229        -9.6118
  84   1.0000      -0.352055        -9.5799
  85   1.0000      -0.349299        -9.5049
  86   1.0000      -0.348936        -9.4950
  87   1.0000      -0.347960        -9.4685
  88   1.0000      -0.345113        -9.3910
  89   1.0000      -0.344499        -9.3743
  90   1.0000      -0.344142        -9.3646
  91   1.0000      -0.343411        -9.3447
  92   1.0000      -0.340753        -9.2724
  93   1.0000      -0.335630        -9.1329
  94   1.0000      -0.333901        -9.0859
  95   1.0000      -0.333295        -9.0694
  96   1.0000      -0.328369        -8.9354
  97   1.0000      -0.323318        -8.7979
  98   1.0000      -0.322608        -8.7786
  99   1.0000      -0.321073        -8.7368
 100   1.0000      -0.318031        -8.6541
 101   1.0000      -0.314118        -8.5476
 102   1.0000      -0.310685        -8.4542
 103   1.0000      -0.309661        -8.4263
 104   1.0000      -0.307257        -8.3609
 105   1.0000      -0.304716        -8.2917
 106   1.0000      -0.301077        -8.1927
 107   1.0000      -0.297276        -8.0893
 108   1.0000      -0.293087        -7.9753
 109   1.0000      -0.289530        -7.8785
 110   1.0000      -0.289086        -7.8664
 111   1.0000      -0.288848        -7.8599
 112   1.0000      -0.285788        -7.7767
 113   1.0000      -0.284058        -7.7296
 114   1.0000      -0.282904        -7.6982
 115   1.0000      -0.282532        -7.6881
 116   1.0000      -0.279996        -7.6191
 117   1.0000      -0.278575        -7.5804
 118   1.0000      -0.277690        -7.5563
 119   1.0000      -0.276212        -7.5161
 120   1.0000      -0.274967        -7.4822
 121   1.0000      -0.274827        -7.4784
 122   1.0000      -0.272308        -7.4099
 123   1.0000      -0.271953        -7.4002
 124   1.0000      -0.271019        -7.3748
 125   1.0000      -0.270250        -7.3539
 126   1.0000      -0.268869        -7.3163
 127   1.0000      -0.267768        -7.2863
 128   1.0000      -0.264909        -7.2085
 129   1.0000      -0.264018        -7.1843
 130   1.0000      -0.263481        -7.1697
 131   1.0000      -0.261971        -7.1286
 132   1.0000      -0.260197        -7.0803
 133   1.0000      -0.259055        -7.0492
 134   1.0000      -0.258982        -7.0473
 135   1.0000      -0.255598        -6.9552
 136   1.0000      -0.255076        -6.9410
 137   1.0000      -0.253805        -6.9064
 138   1.0000      -0.253519        -6.8986
 139   1.0000      -0.252385        -6.8678
 140   1.0000      -0.249260        -6.7827
 141   1.0000      -0.249003        -6.7757
 142   1.0000      -0.246961        -6.7202
 143   1.0000      -0.244799        -6.6613
 144   1.0000      -0.244186        -6.6446
 145   1.0000      -0.241933        -6.5833
 146   1.0000      -0.241708        -6.5772
 147   1.0000      -0.232514        -6.3270
 148   1.0000      -0.223456        -6.0806
 149   1.0000      -0.220312        -5.9950
 150   1.0000      -0.208630        -5.6771
 151   1.0000      -0.207208        -5.6384
 152   1.0000      -0.205942        -5.6040
 153   1.0000      -0.173813        -4.7297
 154   0.0000      -0.161388        -4.3916
 155   0.0000      -0.158589        -4.3154
 156   0.0000      -0.155039        -4.2188
 157   0.0000      -0.147532        -4.0146
 158   0.0000      -0.143392        -3.9019

MULLIKEN ATOMIC CHARGES AND SPIN POPULATIONS
--------------------------------------------
   0 Au:    0.017356    0.036316
   1 Au:    0.375185    0.001835
   2 Au:    0.305547    0.033351
   3 Au:    0.404572   -0.067517
   4 Au:   -0.157990    0.065749
   5 Au:   -0.159038    0.064685
   6 Au:    0.236666   -0.026581
   7 Au:    0.375314   -0.000055
   8 Au:    0.015518    0.037018
   9 Au:   -0.223540   -0.110952
  10 Au:    0.306003    0.032719
  11 Au:    0.310582   -0.018473
  12 Au:    0.316861    0.026637
  13 Au:    0.251917   -0.093608
  14 Au:    0.316830    0.026022
  15 Fe:   -2.691782    2.992854
Sum of atomic charges         :   -0.0000000

LOEWDIN ATOMIC CHARGES AND SPIN POPULATIONS
-------------------------------------------
   0 Au:    0.021478    0.008812
   1 Au:    0.095466   -0.017502
   2 Au:    0.082984   -0.004719
   3 Au:    0.079087   -0.027412
   4 Au:   -0.019167    0.033206
   5 Au:   -0.019408    0.032227
   6 Au:   -0.004531   -0.012957
   7 Au:    0.095449   -0.018841
   8 Au:    0.021079    0.008889
   9 Au:   -0.041462   -0.052787
  10 Au:    0.082860   -0.005100
  11 Au:    0.082886   -0.016050
  12 Au:    0.051874    0.009662
  13 Au:    0.050433   -0.069326
  14 Au:    0.051950    0.009129
  15 Fe:   -0.630977    3.122768

  Mayer bond orders larger than 0.100000
B(  0-Au,  1-Au) :   0.3544 B(  0-Au,  2-Au) :   0.1271 B(  0-Au,  4-Au) :   0.1269
B(  0-Au,  9-Au) :   0.2178 B(  0-Au, 11-Au) :   0.1511 B(  0-Au, 14-Au) :   0.2627
B(  0-Au, 15-Fe) :   0.4910 B(  1-Au,  4-Au) :   0.2541 B(  1-Au,  6-Au) :   0.2399
B(  1-Au,  9-Au) :   0.3057 B(  2-Au,  3-Au) :   0.1397 B(  2-Au,  4-Au) :   0.2357
B(  2-Au, 13-Au) :   0.1919 B(  2-Au, 14-Au) :   0.1718 B(  2-Au, 15-Fe) :   0.4525
B(  3-Au,  4-Au) :   0.2630 B(  3-Au,  5-Au) :   0.2629 B(  3-Au, 10-Au) :   0.1389
B(  3-Au, 13-Au) :   0.2197 B(  3-Au, 15-Fe) :   0.4013 B(  4-Au,  5-Au) :   0.1294
B(  4-Au,  6-Au) :   0.2954 B(  4-Au, 15-Fe) :   0.4732 B(  5-Au,  6-Au) :   0.2957
B(  5-Au,  7-Au) :   0.2534 B(  5-Au,  8-Au) :   0.1272 B(  5-Au, 10-Au) :   0.2359
B(  5-Au, 15-Fe) :   0.4735 B(  6-Au,  7-Au) :   0.2408 B(  6-Au,  9-Au) :   0.2381
B(  7-Au,  8-Au) :   0.3540 B(  7-Au,  9-Au) :   0.3059 B(  8-Au,  9-Au) :   0.2179
B(  8-Au, 10-Au) :   0.1274 B(  8-Au, 11-Au) :   0.1505 B(  8-Au, 12-Au) :   0.2638
B(  8-Au, 15-Fe) :   0.4906 B(  9-Au, 11-Au) :   0.2659 B(  9-Au, 15-Fe) :   0.3394
B( 10-Au, 12-Au) :   0.1716 B( 10-Au, 13-Au) :   0.1939 B( 10-Au, 15-Fe) :   0.4512
B( 11-Au, 12-Au) :   0.2006 B( 11-Au, 14-Au) :   0.2006 B( 11-Au, 15-Fe) :   0.4464
B( 12-Au, 13-Au) :   0.1924 B( 12-Au, 14-Au) :   0.1823 B( 12-Au, 15-Fe) :   0.3662
B( 13-Au, 14-Au) :   0.1927 B( 13-Au, 15-Fe) :   0.3680 B( 14-Au, 15-Fe) :   0.3667

FINAL SINGLE POINT ENERGY     -3300.911968760419

DIPOLE MOMENT
-------------
                                X             Y             Z
Electronic contribution:     12.86703      13.67793      -7.44573
Nuclear contribution   :    -12.79076     -13.68149       7.52437
                        -----------------------------------------
Total Dipole Moment    :      0.07627      -0.00356       0.07864
                        -----------------------------------------
Magnitude (a.u.)       :      0.10960
Magnitude (Debye)      :      0.27859

Rotational constants in cm-1:     0.001103     0.000907     0.000844
Rotational constants in MHz :    33.069183    27.199640    25.314780

                             ****ORCA TERMINATED NORMALLY****
TOTAL RUN TIME: 0 days 0 hours 13 minutes 39 seconds 830 msec
