                         Program Version 5.0.3 -  RELEASE  -
|  1> !R2SCAN def2-TZVP VERYSLOWCONV
|  2>
|  3> %scf
|  4>   AutoTRAHIter 200
|  5>   maxiter 400
|  6> end
|  7>
|  8> %pal nprocs 6 end
|  9>
| 10> *xyzfile 0 6 pbe.xyz
| 11>
| 12> $new_job
| 13>
| 14> !R2SCAN def2-TZVP VERYSLOWCONV
| 15> %scf
| 16>   AutoTRAHIter 200
| 17>   maxiter 400
| 18> end
| 19>
| 20>
| 21> %pal nprocs 6 end
| 22>
| 23> *xyzfile 0 4 pbe.xyz
| 24>
| 25>
| 26>
| 27>
| 28>
| 29>                          ****END OF INPUT****
 Total Charge           Charge          ....    0
 Multiplicity           Mult            ....    6
 Number of Electrons    NEL             ....  311
FINAL SINGLE POINT ENERGY     -3301.444664383005

CARTESIAN COORDINATES (ANGSTROEM)
---------------------------------
  Au     9.125066    6.008230    7.399734
  Au    10.201068    7.798049    5.644754
  Au     6.688791    5.208689    6.144274
  Au     4.842274    7.411144    5.826958
  Au     7.489323    7.605705    5.066137
  Au     6.013990    9.807833    6.543337
  Au     8.598263   10.100837    5.571721
  Au     7.852435   11.306970    7.993241
  Au     6.850411    9.403122    9.672512
  Au     9.231614    8.849755    8.074231
  Au     4.408158    8.611720    8.424446
  Au     8.502554    7.067906   10.002215
  Au     5.710931    6.960312   10.320742
  Au     4.559032    5.752912    8.026429
  Au     7.103310    4.879541    8.925532
  Fe     6.810569    7.426969    7.772572

 Multiplicity           Mult            ....    4
 Number of Electrons    NEL             ....  311
 Basis Dimension        Dim             ....  645

ORBITAL ENERGIES
----------------
                 SPIN UP ORBITALS
  NO   OCC          E(Eh)            E(eV)
   0   1.0000    -255.636693     -6956.2281
   1   1.0000     -29.932875      -814.5149
   2   1.0000     -25.770290      -701.2452
   3   1.0000     -25.768015      -701.1833
   4   1.0000     -25.751394      -700.7311
   5   1.0000      -4.126389      -112.2847
   6   1.0000      -4.126213      -112.2800
   7   1.0000      -4.126182      -112.2791
   8   1.0000      -4.124789      -112.2412
   9   1.0000      -4.121671      -112.1564
  10   1.0000      -4.121546      -112.1530
  11   1.0000      -4.121237      -112.1446
  12   1.0000      -4.120714      -112.1303
  13   1.0000      -4.120653      -112.1287
  14   1.0000      -4.119956      -112.1097
  15   1.0000      -4.119807      -112.1056
  16   1.0000      -4.115406      -111.9859
  17   1.0000      -4.112879      -111.9171
  18   1.0000      -4.112818      -111.9155
  19   1.0000      -4.111454      -111.8784
  20   1.0000      -3.514457       -95.6332
  21   1.0000      -2.315340       -63.0036
  22   1.0000      -2.315244       -63.0010
  23   1.0000      -2.315013       -62.9947
  24   1.0000      -2.314085       -62.9695
  25   1.0000      -2.313840       -62.9628
  26   1.0000      -2.312217       -62.9186
  27   1.0000      -2.312105       -62.9156
  28   1.0000      -2.311591       -62.9016
  29   1.0000      -2.311001       -62.8855
  30   1.0000      -2.310114       -62.8614
  31   1.0000      -2.309337       -62.8402
  32   1.0000      -2.309331       -62.8401
  33   1.0000      -2.309202       -62.8366
  34   1.0000      -2.308748       -62.8242
  35   1.0000      -2.308357       -62.8136
  36   1.0000      -2.307913       -62.8015
  37   1.0000      -2.307861       -62.8001
  38   1.0000      -2.307394       -62.7874
  39   1.0000      -2.306958       -62.7755
  40   1.0000      -2.306917       -62.7744
  41   1.0000      -2.306448       -62.7616
  42   1.0000      -2.306305       -62.7578
  43   1.0000      -2.306067       -62.7513
  44   1.0000      -2.305392       -62.7329
  45   1.0000      -2.305222       -62.7283
  46   1.0000      -2.304990       -62.7220
  47   1.0000      -2.304670       -62.7133
  48   1.0000      -2.304528       -62.7094
  49   1.0000      -2.304393       -62.7057
  50   1.0000      -2.304274       -62.7025
  51   1.0000      -2.303874       -62.6916
  52   1.0000      -2.303750       -62.6882
  53   1.0000      -2.303066       -62.6696
  54   1.0000      -2.301122       -62.6167
  55   1.0000      -2.300933       -62.6116
  56   1.0000      -2.300741       -62.6064
  57   1.0000      -2.300376       -62.5964
  58   1.0000      -2.299356       -62.5687
  59   1.0000      -2.299245       -62.5656
  60   1.0000      -2.299147       -62.5630
  61   1.0000      -2.297335       -62.5137
  62   1.0000      -2.296800       -62.4991
  63   1.0000      -2.296726       -62.4971
  64   1.0000      -2.296180       -62.4822
  65   1.0000      -2.294702       -62.4420
  66   1.0000      -2.293907       -62.4204
  67   1.0000      -2.289976       -62.3134
  68   1.0000      -2.254709       -61.3537
  69   1.0000      -0.448322       -12.1995
  70   1.0000      -0.400376       -10.8948
  71   1.0000      -0.400118       -10.8878
  72   1.0000      -0.397820       -10.8252
  73   1.0000      -0.394411       -10.7325
  74   1.0000      -0.390704       -10.6316
  75   1.0000      -0.386552       -10.5186
  76   1.0000      -0.385254       -10.4833
  77   1.0000      -0.381644       -10.3851
  78   1.0000      -0.375670       -10.2225
  79   1.0000      -0.372294       -10.1306
  80   1.0000      -0.371252       -10.1023
  81   1.0000      -0.365846        -9.9552
  82   1.0000      -0.365366        -9.9421
  83   1.0000      -0.362790        -9.8720
  84   1.0000      -0.361488        -9.8366
  85   1.0000      -0.361330        -9.8323
  86   1.0000      -0.359204        -9.7744
  87   1.0000      -0.357582        -9.7303
  88   1.0000      -0.356094        -9.6898
  89   1.0000      -0.354764        -9.6536
  90   1.0000      -0.353770        -9.6266
  91   1.0000      -0.352623        -9.5954
  92   1.0000      -0.349164        -9.5012
  93   1.0000      -0.345580        -9.4037
  94   1.0000      -0.343126        -9.3369
  95   1.0000      -0.342511        -9.3202
  96   1.0000      -0.338304        -9.2057
  97   1.0000      -0.332920        -9.0592
  98   1.0000      -0.332561        -9.0494
  99   1.0000      -0.330569        -8.9952
 100   1.0000      -0.330463        -8.9923
 101   1.0000      -0.328106        -8.9282
 102   1.0000      -0.324049        -8.8178
 103   1.0000      -0.321291        -8.7428
 104   1.0000      -0.320754        -8.7281
 105   1.0000      -0.315147        -8.5756
 106   1.0000      -0.315053        -8.5730
 107   1.0000      -0.313314        -8.5257
 108   1.0000      -0.309954        -8.4343
 109   1.0000      -0.308041        -8.3822
 110   1.0000      -0.307520        -8.3680
 111   1.0000      -0.303032        -8.2459
 112   1.0000      -0.298946        -8.1347
 113   1.0000      -0.295045        -8.0286
 114   1.0000      -0.294040        -8.0012
 115   1.0000      -0.292889        -7.9699
 116   1.0000      -0.290008        -7.8915
 117   1.0000      -0.288698        -7.8559
 118   1.0000      -0.287099        -7.8124
 119   1.0000      -0.285171        -7.7599
 120   1.0000      -0.284510        -7.7419
 121   1.0000      -0.283530        -7.7152
 122   1.0000      -0.282126        -7.6770
 123   1.0000      -0.281202        -7.6519
 124   1.0000      -0.280538        -7.6338
 125   1.0000      -0.279521        -7.6062
 126   1.0000      -0.279292        -7.5999
 127   1.0000      -0.277181        -7.5425
 128   1.0000      -0.274768        -7.4768
 129   1.0000      -0.272495        -7.4150
 130   1.0000      -0.272127        -7.4049
 131   1.0000      -0.271503        -7.3880
 132   1.0000      -0.271007        -7.3745
 133   1.0000      -0.270493        -7.3605
 134   1.0000      -0.268554        -7.3077
 135   1.0000      -0.267512        -7.2794
 136   1.0000      -0.267433        -7.2772
 137   1.0000      -0.265194        -7.2163
 138   1.0000      -0.263801        -7.1784
 139   1.0000      -0.262808        -7.1514
 140   1.0000      -0.262762        -7.1501
 141   1.0000      -0.260440        -7.0869
 142   1.0000      -0.259980        -7.0744
 143   1.0000      -0.259125        -7.0512
 144   1.0000      -0.256159        -6.9704
 145   1.0000      -0.255668        -6.9571
 146   1.0000      -0.253306        -6.8928
 147   1.0000      -0.251242        -6.8366
 148   1.0000      -0.251155        -6.8343
 149   1.0000      -0.249510        -6.7895
 150   1.0000      -0.247591        -6.7373
 151   1.0000      -0.247193        -6.7265
 152   1.0000      -0.237875        -6.4729
 153   1.0000      -0.222354        -6.0506
 154   1.0000      -0.215069        -5.8523
 155   1.0000      -0.202127        -5.5001
 156   1.0000      -0.196146        -5.3374
 157   0.0000      -0.190189        -5.1753
 158   0.0000      -0.145928        -3.9709
 159   0.0000      -0.134795        -3.6680
 160   0.0000      -0.131123        -3.5680
 161   0.0000      -0.119300        -3.2463

                 SPIN DOWN ORBITALS
  NO   OCC          E(Eh)            E(eV)
   0   1.0000    -255.635742     -6956.2022
   1   1.0000     -29.854988      -812.3955
   2   1.0000     -25.707199      -699.5284
   3   1.0000     -25.705438      -699.4805
   4   1.0000     -25.698869      -699.3018
   5   1.0000      -4.126742      -112.2944
   6   1.0000      -4.125686      -112.2656
   7   1.0000      -4.125655      -112.2648
   8   1.0000      -4.124779      -112.2409
   9   1.0000      -4.121436      -112.1500
  10   1.0000      -4.121420      -112.1495
  11   1.0000      -4.121326      -112.1470
  12   1.0000      -4.120373      -112.1210
  13   1.0000      -4.120317      -112.1195
  14   1.0000      -4.119931      -112.1090
  15   1.0000      -4.119791      -112.1052
  16   1.0000      -4.116025      -112.0027
  17   1.0000      -4.113486      -111.9337
  18   1.0000      -4.113436      -111.9323
  19   1.0000      -4.111681      -111.8845
  20   1.0000      -3.340509       -90.8999
  21   1.0000      -2.315444       -63.0064
  22   1.0000      -2.314509       -62.9810
  23   1.0000      -2.314305       -62.9755
  24   1.0000      -2.313947       -62.9657
  25   1.0000      -2.313529       -62.9543
  26   1.0000      -2.312152       -62.9168
  27   1.0000      -2.311448       -62.8977
  28   1.0000      -2.310989       -62.8852
  29   1.0000      -2.310736       -62.8783
  30   1.0000      -2.309911       -62.8559
  31   1.0000      -2.309538       -62.8457
  32   1.0000      -2.309064       -62.8328
  33   1.0000      -2.308861       -62.8273
  34   1.0000      -2.308729       -62.8237
  35   1.0000      -2.308174       -62.8086
  36   1.0000      -2.307747       -62.7970
  37   1.0000      -2.307255       -62.7836
  38   1.0000      -2.307141       -62.7805
  39   1.0000      -2.306829       -62.7720
  40   1.0000      -2.306788       -62.7709
  41   1.0000      -2.306419       -62.7609
  42   1.0000      -2.306358       -62.7592
  43   1.0000      -2.305620       -62.7391
  44   1.0000      -2.305148       -62.7263
  45   1.0000      -2.304908       -62.7197
  46   1.0000      -2.304673       -62.7134
  47   1.0000      -2.304536       -62.7096
  48   1.0000      -2.304420       -62.7065
  49   1.0000      -2.304239       -62.7015
  50   1.0000      -2.304136       -62.6987
  51   1.0000      -2.303793       -62.6894
  52   1.0000      -2.303632       -62.6850
  53   1.0000      -2.303161       -62.6722
  54   1.0000      -2.301784       -62.6347
  55   1.0000      -2.301238       -62.6199
  56   1.0000      -2.301103       -62.6162
  57   1.0000      -2.300801       -62.6080
  58   1.0000      -2.300324       -62.5950
  59   1.0000      -2.300072       -62.5881
  60   1.0000      -2.299392       -62.5696
  61   1.0000      -2.297818       -62.5268
  62   1.0000      -2.297661       -62.5225
  63   1.0000      -2.297461       -62.5171
  64   1.0000      -2.296384       -62.4878
  65   1.0000      -2.295027       -62.4509
  66   1.0000      -2.114714       -57.5443
  67   1.0000      -2.112752       -57.4909
  68   1.0000      -2.098912       -57.1143
  69   1.0000      -0.445279       -12.1167
  70   1.0000      -0.400734       -10.9045
  71   1.0000      -0.400076       -10.8866
  72   1.0000      -0.397219       -10.8089
  73   1.0000      -0.385506       -10.4901
  74   1.0000      -0.382656       -10.4126
  75   1.0000      -0.378994       -10.3129
  76   1.0000      -0.376717       -10.2510
  77   1.0000      -0.376534       -10.2460
  78   1.0000      -0.372635       -10.1399
  79   1.0000      -0.370464       -10.0808
  80   1.0000      -0.370036       -10.0692
  81   1.0000      -0.364778        -9.9261
  82   1.0000      -0.363754        -9.8983
  83   1.0000      -0.362354        -9.8602
  84   1.0000      -0.361507        -9.8371
  85   1.0000      -0.358803        -9.7635
  86   1.0000      -0.358557        -9.7568
  87   1.0000      -0.357480        -9.7275
  88   1.0000      -0.354411        -9.6440
  89   1.0000      -0.353976        -9.6322
  90   1.0000      -0.353608        -9.6222
  91   1.0000      -0.352927        -9.6036
  92   1.0000      -0.349709        -9.5161
  93   1.0000      -0.345060        -9.3895
  94   1.0000      -0.343011        -9.3338
  95   1.0000      -0.342632        -9.3235
  96   1.0000      -0.337397        -9.1810
  97   1.0000      -0.332431        -9.0459
  98   1.0000      -0.331544        -9.0218
  99   1.0000      -0.330003        -8.9798
 100   1.0000      -0.326964        -8.8971
 101   1.0000      -0.322970        -8.7885
 102   1.0000      -0.319567        -8.6959
 103   1.0000      -0.318578        -8.6690
 104   1.0000      -0.316007        -8.5990
 105   1.0000      -0.313439        -8.5291
 106   1.0000      -0.309767        -8.4292
 107   1.0000      -0.305786        -8.3209
 108   1.0000      -0.301443        -8.2027
 109   1.0000      -0.298288        -8.1168
 110   1.0000      -0.297665        -8.0999
 111   1.0000      -0.296719        -8.0741
 112   1.0000      -0.294188        -8.0053
 113   1.0000      -0.292148        -7.9497
 114   1.0000      -0.291288        -7.9264
 115   1.0000      -0.290731        -7.9112
 116   1.0000      -0.288528        -7.8513
 117   1.0000      -0.287007        -7.8099
 118   1.0000      -0.285664        -7.7733
 119   1.0000      -0.284663        -7.7461
 120   1.0000      -0.283196        -7.7062
 121   1.0000      -0.282789        -7.6951
 122   1.0000      -0.280898        -7.6436
 123   1.0000      -0.280223        -7.6253
 124   1.0000      -0.279077        -7.5941
 125   1.0000      -0.278326        -7.5736
 126   1.0000      -0.277128        -7.5410
 127   1.0000      -0.275814        -7.5053
 128   1.0000      -0.273421        -7.4402
 129   1.0000      -0.272227        -7.4077
 130   1.0000      -0.271703        -7.3934
 131   1.0000      -0.269875        -7.3437
 132   1.0000      -0.267908        -7.2901
 133   1.0000      -0.267019        -7.2660
 134   1.0000      -0.266739        -7.2583
 135   1.0000      -0.263369        -7.1666
 136   1.0000      -0.262969        -7.1558
 137   1.0000      -0.261460        -7.1147
 138   1.0000      -0.261343        -7.1115
 139   1.0000      -0.260167        -7.0795
 140   1.0000      -0.256286        -6.9739
 141   1.0000      -0.256053        -6.9676
 142   1.0000      -0.253510        -6.8984
 143   1.0000      -0.251853        -6.8533
 144   1.0000      -0.251284        -6.8378
 145   1.0000      -0.249100        -6.7783
 146   1.0000      -0.248787        -6.7698
 147   1.0000      -0.238704        -6.4955
 148   1.0000      -0.226171        -6.1544
 149   1.0000      -0.223094        -6.0707
 150   1.0000      -0.209450        -5.6994
 151   1.0000      -0.208008        -5.6602
 152   1.0000      -0.207010        -5.6330
 153   1.0000      -0.180157        -4.9023
 154   0.0000      -0.154054        -4.1920
 155   0.0000      -0.151970        -4.1353
 156   0.0000      -0.144803        -3.9403
 157   0.0000      -0.140963        -3.8358
 158   0.0000      -0.133103        -3.6219

MULLIKEN ATOMIC CHARGES AND SPIN POPULATIONS
--------------------------------------------
   0 Au:    0.004203    0.024793
   1 Au:    0.344740   -0.000881
   2 Au:    0.274661    0.024766
   3 Au:    0.388214   -0.087935
   4 Au:   -0.151330    0.059871
   5 Au:   -0.152457    0.061252
   6 Au:    0.213907   -0.018004
   7 Au:    0.345734    0.001198
   8 Au:    0.003514    0.024066
   9 Au:   -0.191982   -0.138305
  10 Au:    0.274249    0.024508
  11 Au:    0.292279   -0.025310
  12 Au:    0.286207    0.023997
  13 Au:    0.221103   -0.117117
  14 Au:    0.286395    0.024841
  15 Fe:   -2.439435    3.118262
Sum of atomic charges         :   -0.0000000

LOEWDIN ATOMIC CHARGES AND SPIN POPULATIONS
-------------------------------------------
   0 Au:    0.015428   -0.003530
   1 Au:    0.093278   -0.021481
   2 Au:    0.076732   -0.016094
   3 Au:    0.074643   -0.039369
   4 Au:   -0.025331    0.025517
   5 Au:   -0.025299    0.026520
   6 Au:   -0.005497   -0.008909
   7 Au:    0.093796   -0.019975
   8 Au:    0.015241   -0.003664
   9 Au:   -0.043727   -0.067552
  10 Au:    0.076410   -0.016386
  11 Au:    0.078134   -0.022904
  12 Au:    0.045758    0.004339
  13 Au:    0.043292   -0.082651
  14 Au:    0.045911    0.004943
  15 Fe:   -0.558769    3.241196

  Mayer bond orders larger than 0.100000
B(  0-Au,  1-Au) :   0.3496 B(  0-Au,  2-Au) :   0.1129 B(  0-Au,  9-Au) :   0.2080
B(  0-Au, 11-Au) :   0.1371 B(  0-Au, 14-Au) :   0.2597 B(  0-Au, 15-Fe) :   0.4870
B(  1-Au,  4-Au) :   0.2424 B(  1-Au,  6-Au) :   0.2246 B(  1-Au,  9-Au) :   0.3029
B(  2-Au,  3-Au) :   0.1287 B(  2-Au,  4-Au) :   0.2362 B(  2-Au, 13-Au) :   0.1839
B(  2-Au, 14-Au) :   0.1548 B(  2-Au, 15-Fe) :   0.4483 B(  3-Au,  4-Au) :   0.2568
B(  3-Au,  5-Au) :   0.2560 B(  3-Au, 10-Au) :   0.1276 B(  3-Au, 13-Au) :   0.2079
B(  3-Au, 15-Fe) :   0.4024 B(  4-Au,  5-Au) :   0.1088 B(  4-Au,  6-Au) :   0.2890
B(  4-Au, 15-Fe) :   0.4617 B(  5-Au,  6-Au) :   0.2891 B(  5-Au,  7-Au) :   0.2424
B(  5-Au, 10-Au) :   0.2367 B(  5-Au, 15-Fe) :   0.4632 B(  6-Au,  7-Au) :   0.2241
B(  6-Au,  9-Au) :   0.2234 B(  7-Au,  8-Au) :   0.3495 B(  7-Au,  9-Au) :   0.3031
B(  8-Au,  9-Au) :   0.2089 B(  8-Au, 10-Au) :   0.1133 B(  8-Au, 11-Au) :   0.1370
B(  8-Au, 12-Au) :   0.2608 B(  8-Au, 15-Fe) :   0.4864 B(  9-Au, 11-Au) :   0.2587
B(  9-Au, 15-Fe) :   0.3142 B( 10-Au, 12-Au) :   0.1544 B( 10-Au, 13-Au) :   0.1854
B( 10-Au, 15-Fe) :   0.4470 B( 11-Au, 12-Au) :   0.1901 B( 11-Au, 14-Au) :   0.1899
B( 11-Au, 15-Fe) :   0.4476 B( 12-Au, 13-Au) :   0.1801 B( 12-Au, 14-Au) :   0.1690
B( 12-Au, 15-Fe) :   0.3590 B( 13-Au, 14-Au) :   0.1804 B( 13-Au, 15-Fe) :   0.3428
B( 14-Au, 15-Fe) :   0.3606

FINAL SINGLE POINT ENERGY     -3301.432265449466

DIPOLE MOMENT
-------------
                                X             Y             Z
Electronic contribution:     12.88439      13.69504      -7.44769
Nuclear contribution   :    -12.79076     -13.68149       7.52437
                        -----------------------------------------
Total Dipole Moment    :      0.09363       0.01354       0.07667
                        -----------------------------------------
Magnitude (a.u.)       :      0.12178
Magnitude (Debye)      :      0.30953

Rotational constants in cm-1:     0.001103     0.000907     0.000844
Rotational constants in MHz :    33.069183    27.199640    25.314780

                             ****ORCA TERMINATED NORMALLY****
TOTAL RUN TIME: 0 days 0 hours 25 minutes 38 seconds 289 msec
