                         Program Version 5.0.3 -  RELEASE  -
|  1> !RI-B2PLYP def2-TZVP def2-TZVP/C
|  2> !RIJCOSX VERYSLOWCONV
|  3>
|  4> %scf
|  5>   AutoTRAHIter 200
|  6>   maxiter 400
|  7> end
|  8>
|  9>
| 10> %pal nprocs 6 end
| 11>
| 12> *xyzfile 0 6 pbe.xyz
| 13>
| 14> $new_job
| 15>
| 16> !RI-B2PLYP def2-TZVP def2-TZVP/C
| 17> !RIJCOSX VERYSLOWCONV
| 18>
| 19> %scf
| 20>   AutoTRAHIter 200
| 21>   maxiter 400
| 22> end
| 23>
| 24>
| 25> %pal nprocs 6 end
| 26>
| 27> *xyzfile 0 4 pbe.xyz
| 28>
| 29>
| 30>
| 31>
| 32>
| 33>                          ****END OF INPUT****
 Total Charge           Charge          ....    0
 Multiplicity           Mult            ....    6
 Number of Electrons    NEL             ....  329
MP2 TOTAL ENERGY:    -3320.278660489 Eh
FINAL SINGLE POINT ENERGY     -3320.278660489352

CARTESIAN COORDINATES (ANGSTROEM)
---------------------------------
  Au     7.553850    8.069317   10.553548
  Au     5.994455    9.970893    9.090443
  Au     8.821568    9.924720    9.137025
  Au     6.281978    5.805841   11.444159
  Au     4.836749    7.463285    9.802049
  Au     9.097764    7.371364    8.102407
  Au     7.729776    5.470403    6.518810
  Au     4.451216    8.749633    5.077740
  Au     3.802784    8.787044    7.744193
  Au     6.479374    7.008604    4.527386
  Au     5.139796    6.485235    6.980795
  Au     7.551486   11.625891    7.362685
  Au     4.978902   11.035154    6.644026
  Au     7.096526    9.556746    5.502119
  Au     9.087445    7.598898    5.283834
  Au     9.668351    9.955571    6.530355
  Mn     6.932899    6.025766    8.905481

 Multiplicity           Mult            ....    4
 Number of Electrons    NEL             ....  329
 Basis Dimension        Dim             ....  685

ORBITAL ENERGIES
----------------
                 SPIN UP ORBITALS
  NO   OCC          E(Eh)            E(eV)
   0   1.0000    -237.634830     -6466.3725
   1   1.0000     -28.141475      -765.7685
   2   1.0000     -24.059556      -654.6938
   3   1.0000     -24.058986      -654.6783
   4   1.0000     -24.057774      -654.6453
   5   1.0000      -4.411976      -120.0560
   6   1.0000      -4.411880      -120.0534
   7   1.0000      -4.407312      -119.9291
   8   1.0000      -4.406022      -119.8940
   9   1.0000      -4.401007      -119.7575
  10   1.0000      -4.400970      -119.7565
  11   1.0000      -4.396232      -119.6276
  12   1.0000      -4.396135      -119.6249
  13   1.0000      -4.395528      -119.6084
  14   1.0000      -4.394042      -119.5680
  15   1.0000      -4.393867      -119.5632
  16   1.0000      -4.393049      -119.5409
  17   1.0000      -4.392731      -119.5323
  18   1.0000      -4.392178      -119.5172
  19   1.0000      -4.390678      -119.4764
  20   1.0000      -4.390407      -119.4690
  21   1.0000      -3.620379       -98.5155
  22   1.0000      -2.534487       -68.9669
  23   1.0000      -2.532366       -68.9092
  24   1.0000      -2.529101       -68.8203
  25   1.0000      -2.528876       -68.8142
  26   1.0000      -2.528465       -68.8030
  27   1.0000      -2.527143       -68.7671
  28   1.0000      -2.526423       -68.7475
  29   1.0000      -2.525098       -68.7114
  30   1.0000      -2.523819       -68.6766
  31   1.0000      -2.522789       -68.6486
  32   1.0000      -2.520951       -68.5986
  33   1.0000      -2.520891       -68.5969
  34   1.0000      -2.520263       -68.5799
  35   1.0000      -2.519651       -68.5632
  36   1.0000      -2.518895       -68.5426
  37   1.0000      -2.518564       -68.5336
  38   1.0000      -2.516956       -68.4899
  39   1.0000      -2.516902       -68.4884
  40   1.0000      -2.516411       -68.4750
  41   1.0000      -2.515579       -68.4524
  42   1.0000      -2.515468       -68.4494
  43   1.0000      -2.515414       -68.4479
  44   1.0000      -2.514600       -68.4257
  45   1.0000      -2.514493       -68.4228
  46   1.0000      -2.514279       -68.4170
  47   1.0000      -2.513353       -68.3918
  48   1.0000      -2.513200       -68.3877
  49   1.0000      -2.511820       -68.3501
  50   1.0000      -2.511681       -68.3463
  51   1.0000      -2.511047       -68.3291
  52   1.0000      -2.510503       -68.3143
  53   1.0000      -2.510211       -68.3063
  54   1.0000      -2.509841       -68.2963
  55   1.0000      -2.509818       -68.2956
  56   1.0000      -2.509639       -68.2907
  57   1.0000      -2.509431       -68.2851
  58   1.0000      -2.509209       -68.2790
  59   1.0000      -2.508717       -68.2657
  60   1.0000      -2.508397       -68.2570
  61   1.0000      -2.508327       -68.2551
  62   1.0000      -2.508004       -68.2463
  63   1.0000      -2.507266       -68.2262
  64   1.0000      -2.506351       -68.2013
  65   1.0000      -2.506299       -68.1999
  66   1.0000      -2.506130       -68.1953
  67   1.0000      -2.505407       -68.1756
  68   1.0000      -2.505202       -68.1700
  69   1.0000      -2.504668       -68.1555
  70   1.0000      -2.422127       -65.9094
  71   1.0000      -2.420684       -65.8702
  72   1.0000      -2.420494       -65.8650
  73   1.0000      -0.532114       -14.4796
  74   1.0000      -0.520067       -14.1517
  75   1.0000      -0.519503       -14.1364
  76   1.0000      -0.513507       -13.9732
  77   1.0000      -0.507952       -13.8221
  78   1.0000      -0.481088       -13.0911
  79   1.0000      -0.473885       -12.8951
  80   1.0000      -0.471792       -12.8381
  81   1.0000      -0.464505       -12.6398
  82   1.0000      -0.463927       -12.6241
  83   1.0000      -0.463751       -12.6193
  84   1.0000      -0.462729       -12.5915
  85   1.0000      -0.461655       -12.5623
  86   1.0000      -0.459209       -12.4957
  87   1.0000      -0.459093       -12.4926
  88   1.0000      -0.458160       -12.4672
  89   1.0000      -0.455212       -12.3869
  90   1.0000      -0.454166       -12.3585
  91   1.0000      -0.452238       -12.3060
  92   1.0000      -0.451278       -12.2799
  93   1.0000      -0.448480       -12.2038
  94   1.0000      -0.446940       -12.1619
  95   1.0000      -0.445030       -12.1099
  96   1.0000      -0.443359       -12.0644
  97   1.0000      -0.442542       -12.0422
  98   1.0000      -0.441499       -12.0138
  99   1.0000      -0.440310       -11.9814
 100   1.0000      -0.438495       -11.9321
 101   1.0000      -0.437986       -11.9182
 102   1.0000      -0.434742       -11.8299
 103   1.0000      -0.430602       -11.7173
 104   1.0000      -0.426512       -11.6060
 105   1.0000      -0.424885       -11.5617
 106   1.0000      -0.421111       -11.4590
 107   1.0000      -0.420140       -11.4326
 108   1.0000      -0.418634       -11.3916
 109   1.0000      -0.412086       -11.2134
 110   1.0000      -0.410419       -11.1681
 111   1.0000      -0.410182       -11.1616
 112   1.0000      -0.405712       -11.0400
 113   1.0000      -0.403639       -10.9836
 114   1.0000      -0.400938       -10.9101
 115   1.0000      -0.400219       -10.8905
 116   1.0000      -0.397051       -10.8043
 117   1.0000      -0.394571       -10.7368
 118   1.0000      -0.392789       -10.6883
 119   1.0000      -0.392234       -10.6732
 120   1.0000      -0.387000       -10.5308
 121   1.0000      -0.385277       -10.4839
 122   1.0000      -0.384623       -10.4661
 123   1.0000      -0.382875       -10.4185
 124   1.0000      -0.382654       -10.4125
 125   1.0000      -0.380746       -10.3606
 126   1.0000      -0.380651       -10.3581
 127   1.0000      -0.379054       -10.3146
 128   1.0000      -0.377019       -10.2592
 129   1.0000      -0.376239       -10.2380
 130   1.0000      -0.371332       -10.1045
 131   1.0000      -0.370834       -10.0909
 132   1.0000      -0.369051       -10.0424
 133   1.0000      -0.368688       -10.0325
 134   1.0000      -0.366932        -9.9847
 135   1.0000      -0.363496        -9.8912
 136   1.0000      -0.362754        -9.8710
 137   1.0000      -0.360576        -9.8118
 138   1.0000      -0.359042        -9.7700
 139   1.0000      -0.355362        -9.6699
 140   1.0000      -0.352984        -9.6052
 141   1.0000      -0.352860        -9.6018
 142   1.0000      -0.351893        -9.5755
 143   1.0000      -0.351484        -9.5644
 144   1.0000      -0.350933        -9.5494
 145   1.0000      -0.348624        -9.4865
 146   1.0000      -0.345917        -9.4129
 147   1.0000      -0.345628        -9.4050
 148   1.0000      -0.344297        -9.3688
 149   1.0000      -0.344023        -9.3613
 150   1.0000      -0.340774        -9.2729
 151   1.0000      -0.338001        -9.1975
 152   1.0000      -0.335120        -9.1191
 153   1.0000      -0.334600        -9.1049
 154   1.0000      -0.333272        -9.0688
 155   1.0000      -0.329106        -8.9554
 156   1.0000      -0.328507        -8.9391
 157   1.0000      -0.323676        -8.8077
 158   1.0000      -0.318080        -8.6554
 159   1.0000      -0.317781        -8.6473
 160   1.0000      -0.312916        -8.5149
 161   1.0000      -0.312430        -8.5017
 162   1.0000      -0.259177        -7.0526
 163   1.0000      -0.246462        -6.7066
 164   1.0000      -0.239273        -6.5109
 165   1.0000      -0.222552        -6.0559
 166   0.0000      -0.143464        -3.9038
 167   0.0000      -0.103283        -2.8105
 168   0.0000      -0.074643        -2.0311
 169   0.0000      -0.066074        -1.7980
 170   0.0000      -0.062309        -1.6955

                 SPIN DOWN ORBITALS
  NO   OCC          E(Eh)            E(eV)
   0   1.0000    -237.632747     -6466.3158
   1   1.0000     -28.039475      -762.9929
   2   1.0000     -23.965419      -652.1322
   3   1.0000     -23.965195      -652.1261
   4   1.0000     -23.964676      -652.1120
   5   1.0000      -4.411925      -120.0546
   6   1.0000      -4.411827      -120.0519
   7   1.0000      -4.406363      -119.9032
   8   1.0000      -4.405715      -119.8856
   9   1.0000      -4.400480      -119.7432
  10   1.0000      -4.400420      -119.7415
  11   1.0000      -4.397168      -119.6530
  12   1.0000      -4.397053      -119.6499
  13   1.0000      -4.396403      -119.6322
  14   1.0000      -4.395366      -119.6040
  15   1.0000      -4.394646      -119.5844
  16   1.0000      -4.394513      -119.5808
  17   1.0000      -4.394281      -119.5745
  18   1.0000      -4.393989      -119.5665
  19   1.0000      -4.391151      -119.4893
  20   1.0000      -4.390873      -119.4817
  21   1.0000      -3.333117       -90.6987
  22   1.0000      -2.533931       -68.9518
  23   1.0000      -2.532091       -68.9017
  24   1.0000      -2.528640       -68.8078
  25   1.0000      -2.528072       -68.7923
  26   1.0000      -2.527160       -68.7675
  27   1.0000      -2.526896       -68.7603
  28   1.0000      -2.525159       -68.7131
  29   1.0000      -2.525127       -68.7122
  30   1.0000      -2.522472       -68.6400
  31   1.0000      -2.522088       -68.6295
  32   1.0000      -2.520017       -68.5731
  33   1.0000      -2.519462       -68.5580
  34   1.0000      -2.519277       -68.5530
  35   1.0000      -2.518677       -68.5367
  36   1.0000      -2.518638       -68.5356
  37   1.0000      -2.518439       -68.5302
  38   1.0000      -2.517875       -68.5148
  39   1.0000      -2.517391       -68.5017
  40   1.0000      -2.517373       -68.5012
  41   1.0000      -2.516816       -68.4860
  42   1.0000      -2.516487       -68.4771
  43   1.0000      -2.515898       -68.4611
  44   1.0000      -2.515827       -68.4591
  45   1.0000      -2.514496       -68.4229
  46   1.0000      -2.514363       -68.4193
  47   1.0000      -2.513840       -68.4051
  48   1.0000      -2.513563       -68.3975
  49   1.0000      -2.512289       -68.3629
  50   1.0000      -2.512258       -68.3620
  51   1.0000      -2.512086       -68.3573
  52   1.0000      -2.511537       -68.3424
  53   1.0000      -2.511291       -68.3357
  54   1.0000      -2.510378       -68.3108
  55   1.0000      -2.510204       -68.3061
  56   1.0000      -2.509982       -68.3001
  57   1.0000      -2.509923       -68.2985
  58   1.0000      -2.509864       -68.2969
  59   1.0000      -2.509800       -68.2951
  60   1.0000      -2.509677       -68.2918
  61   1.0000      -2.509198       -68.2788
  62   1.0000      -2.508878       -68.2700
  63   1.0000      -2.508870       -68.2698
  64   1.0000      -2.507031       -68.2198
  65   1.0000      -2.506921       -68.2168
  66   1.0000      -2.506754       -68.2122
  67   1.0000      -2.506543       -68.2065
  68   1.0000      -2.505992       -68.1915
  69   1.0000      -2.505866       -68.1881
  70   1.0000      -2.093156       -56.9577
  71   1.0000      -2.091936       -56.9245
  72   1.0000      -2.091196       -56.9043
  73   1.0000      -0.496492       -13.5102
  74   1.0000      -0.477312       -12.9883
  75   1.0000      -0.475157       -12.9297
  76   1.0000      -0.472532       -12.8583
  77   1.0000      -0.467933       -12.7331
  78   1.0000      -0.467668       -12.7259
  79   1.0000      -0.465936       -12.6788
  80   1.0000      -0.463924       -12.6240
  81   1.0000      -0.463004       -12.5990
  82   1.0000      -0.461977       -12.5710
  83   1.0000      -0.461191       -12.5496
  84   1.0000      -0.457195       -12.4409
  85   1.0000      -0.456085       -12.4107
  86   1.0000      -0.454982       -12.3807
  87   1.0000      -0.454552       -12.3690
  88   1.0000      -0.450864       -12.2686
  89   1.0000      -0.450272       -12.2525
  90   1.0000      -0.449446       -12.2301
  91   1.0000      -0.445901       -12.1336
  92   1.0000      -0.444913       -12.1067
  93   1.0000      -0.444226       -12.0880
  94   1.0000      -0.442631       -12.0446
  95   1.0000      -0.442113       -12.0305
  96   1.0000      -0.439008       -11.9460
  97   1.0000      -0.437439       -11.9033
  98   1.0000      -0.435617       -11.8538
  99   1.0000      -0.431227       -11.7343
 100   1.0000      -0.430338       -11.7101
 101   1.0000      -0.426962       -11.6182
 102   1.0000      -0.422795       -11.5048
 103   1.0000      -0.421657       -11.4739
 104   1.0000      -0.418420       -11.3858
 105   1.0000      -0.417354       -11.3568
 106   1.0000      -0.414581       -11.2813
 107   1.0000      -0.411979       -11.2105
 108   1.0000      -0.407807       -11.0970
 109   1.0000      -0.405919       -11.0456
 110   1.0000      -0.405464       -11.0332
 111   1.0000      -0.400058       -10.8861
 112   1.0000      -0.399392       -10.8680
 113   1.0000      -0.397455       -10.8153
 114   1.0000      -0.396421       -10.7872
 115   1.0000      -0.390632       -10.6296
 116   1.0000      -0.389859       -10.6086
 117   1.0000      -0.387323       -10.5396
 118   1.0000      -0.387239       -10.5373
 119   1.0000      -0.386267       -10.5109
 120   1.0000      -0.384197       -10.4545
 121   1.0000      -0.381891       -10.3918
 122   1.0000      -0.381369       -10.3776
 123   1.0000      -0.379754       -10.3336
 124   1.0000      -0.377796       -10.2804
 125   1.0000      -0.375248       -10.2110
 126   1.0000      -0.373659       -10.1678
 127   1.0000      -0.371151       -10.0995
 128   1.0000      -0.370790       -10.0897
 129   1.0000      -0.369803       -10.0629
 130   1.0000      -0.366363        -9.9693
 131   1.0000      -0.365066        -9.9340
 132   1.0000      -0.362704        -9.8697
 133   1.0000      -0.361750        -9.8437
 134   1.0000      -0.357110        -9.7174
 135   1.0000      -0.356523        -9.7015
 136   1.0000      -0.355907        -9.6847
 137   1.0000      -0.355169        -9.6646
 138   1.0000      -0.353811        -9.6277
 139   1.0000      -0.353010        -9.6059
 140   1.0000      -0.351326        -9.5601
 141   1.0000      -0.349047        -9.4981
 142   1.0000      -0.347820        -9.4647
 143   1.0000      -0.347711        -9.4617
 144   1.0000      -0.344583        -9.3766
 145   1.0000      -0.344538        -9.3754
 146   1.0000      -0.338562        -9.2127
 147   1.0000      -0.337554        -9.1853
 148   1.0000      -0.336671        -9.1613
 149   1.0000      -0.336550        -9.1580
 150   1.0000      -0.332605        -9.0506
 151   1.0000      -0.329903        -8.9771
 152   1.0000      -0.324316        -8.8251
 153   1.0000      -0.324151        -8.8206
 154   1.0000      -0.323154        -8.7935
 155   1.0000      -0.322387        -8.7726
 156   1.0000      -0.318426        -8.6648
 157   1.0000      -0.271829        -7.3968
 158   1.0000      -0.249460        -6.7881
 159   1.0000      -0.241272        -6.5653
 160   1.0000      -0.231396        -6.2966
 161   1.0000      -0.228274        -6.2116
 162   1.0000      -0.184158        -5.0112
 163   0.0000      -0.085480        -2.3260
 164   0.0000      -0.083655        -2.2764
 165   0.0000      -0.074662        -2.0317
 166   0.0000      -0.063954        -1.7403
 167   0.0000      -0.061295        -1.6679

MULLIKEN ATOMIC CHARGES AND SPIN POPULATIONS
--------------------------------------------
   0 Au:   -0.030268    0.009773
   1 Au:   -0.344791   -0.277024
   2 Au:    0.022781   -0.183702
   3 Au:    0.288403   -0.193294
   4 Au:   -0.033734    0.008029
   5 Au:   -0.131000   -0.099598
   6 Au:    0.219648   -0.130621
   7 Au:    0.332712   -0.161870
   8 Au:    0.036275   -0.183509
   9 Au:    0.140684   -0.124477
  10 Au:   -0.141682   -0.100692
  11 Au:    0.248109    0.003823
  12 Au:    0.240926    0.005841
  13 Au:   -1.050921   -0.205874
  14 Au:    0.125683   -0.119678
  15 Au:    0.338002   -0.161530
  16 Mn:   -0.260826    4.914402
Sum of atomic charges         :    0.0000000

LOEWDIN ATOMIC CHARGES AND SPIN POPULATIONS
-------------------------------------------
   0 Au:   -0.056516   -0.051446
   1 Au:   -0.058251   -0.132225
   2 Au:   -0.034989   -0.153983
   3 Au:    0.108845   -0.126481
   4 Au:   -0.056137   -0.051488
   5 Au:   -0.048411   -0.057201
   6 Au:   -0.012306   -0.090533
   7 Au:    0.034227   -0.142998
   8 Au:   -0.032634   -0.154791
   9 Au:    0.004087   -0.140288
  10 Au:   -0.050019   -0.059366
  11 Au:    0.027434   -0.093448
  12 Au:    0.026877   -0.092663
  13 Au:   -0.129314   -0.136287
  14 Au:    0.000726   -0.138259
  15 Au:    0.037106   -0.142172
  16 Mn:    0.239275    4.763629

  Mayer bond orders larger than 0.100000
B(  0-Au,  1-Au) :   0.2676 B(  0-Au,  2-Au) :   0.4050 B(  0-Au,  3-Au) :   0.3069
B(  0-Au,  4-Au) :   0.1459 B(  0-Au,  5-Au) :   0.1773 B(  0-Au, 16-Mn) :   0.3690
B(  1-Au,  2-Au) :   0.2736 B(  1-Au,  4-Au) :   0.2733 B(  1-Au,  8-Au) :   0.2708
B(  1-Au, 11-Au) :   0.2163 B(  1-Au, 12-Au) :   0.2169 B(  1-Au, 13-Au) :   0.1081
B(  2-Au,  5-Au) :   0.2050 B(  2-Au, 11-Au) :   0.2618 B(  2-Au, 15-Au) :   0.2744
B(  3-Au,  4-Au) :   0.3079 B(  3-Au, 16-Mn) :   0.4890 B(  4-Au,  8-Au) :   0.4028
B(  4-Au, 10-Au) :   0.1706 B(  4-Au, 16-Mn) :   0.3719 B(  5-Au,  6-Au) :   0.1752
B(  5-Au, 14-Au) :   0.2997 B(  5-Au, 15-Au) :   0.1074 B(  5-Au, 16-Mn) :   0.4425
B(  6-Au,  9-Au) :   0.1968 B(  6-Au, 10-Au) :   0.1798 B(  6-Au, 14-Au) :   0.1987
B(  6-Au, 16-Mn) :   0.4952 B(  7-Au,  8-Au) :   0.2731 B(  7-Au,  9-Au) :   0.3008
B(  7-Au, 10-Au) :   0.1193 B(  7-Au, 12-Au) :   0.1986 B(  7-Au, 13-Au) :   0.3051
B(  8-Au, 10-Au) :   0.2084 B(  8-Au, 12-Au) :   0.2620 B(  9-Au, 10-Au) :   0.2910
B(  9-Au, 13-Au) :   0.3319 B(  9-Au, 14-Au) :   0.2181 B( 10-Au, 16-Mn) :   0.4431
B( 11-Au, 12-Au) :   0.2840 B( 11-Au, 13-Au) :   0.3400 B( 11-Au, 15-Au) :   0.1962
B( 12-Au, 13-Au) :   0.3396 B( 13-Au, 14-Au) :   0.3297 B( 13-Au, 15-Au) :   0.3062
B( 14-Au, 15-Au) :   0.3020

MP2 TOTAL ENERGY:    -3320.242788770 Eh
FINAL SINGLE POINT ENERGY     -3320.242788769601

DIPOLE MOMENT
-------------
                                X             Y             Z
Electronic contribution:     -5.39030      87.32704     -50.19760
Nuclear contribution   :      5.38419     -87.96850      50.73733
                        -----------------------------------------
Total Dipole Moment    :     -0.00610      -0.64147       0.53973
                        -----------------------------------------
Magnitude (a.u.)       :      0.83835
Magnitude (Debye)      :      2.13092

Rotational constants in cm-1:     0.000876     0.000748     0.000731
Rotational constants in MHz :    26.268852    22.437778    21.909043

                             ****ORCA TERMINATED NORMALLY****
TOTAL RUN TIME: 0 days 1 hours 34 minutes 32 seconds 927 msec
