                         Program Version 5.0.3 -  RELEASE  -
|  1> !PBE def2-TZVP VERYSLOWCONV
|  2> !KDIIS
|  3>
|  4> %scf
|  5>   AutoTRAHIter 200
|  6>   maxiter 400
|  7> end
|  8>
|  9>
| 10> %pal nprocs 6 end
| 11>
| 12> *xyzfile 0 6 pbe.xyz
| 13>
| 14> $new_job
| 15>
| 16> !PBE def2-TZVP VERYSLOWCONV
| 17> !KDIIS
| 18>
| 19> %scf
| 20>   AutoTRAHIter 200
| 21>   maxiter 400
| 22> end
| 23>
| 24>
| 25> %pal nprocs 6 end
| 26>
| 27> *xyzfile 0 4 pbe.xyz
| 28>
| 29>
| 30>
| 31>
| 32>
| 33>                          ****END OF INPUT****
 Total Charge           Charge          ....    0
 Multiplicity           Mult            ....    6
 Number of Electrons    NEL             ....  329
FINAL SINGLE POINT ENERGY     -3324.038559720068

CARTESIAN COORDINATES (ANGSTROEM)
---------------------------------
  Au     7.553850    8.069317   10.553548
  Au     5.994455    9.970893    9.090443
  Au     8.821568    9.924720    9.137025
  Au     6.281978    5.805841   11.444159
  Au     4.836749    7.463285    9.802049
  Au     9.097764    7.371364    8.102407
  Au     7.729776    5.470403    6.518810
  Au     4.451216    8.749633    5.077740
  Au     3.802784    8.787044    7.744193
  Au     6.479374    7.008604    4.527386
  Au     5.139796    6.485235    6.980795
  Au     7.551486   11.625891    7.362685
  Au     4.978902   11.035154    6.644026
  Au     7.096526    9.556746    5.502119
  Au     9.087445    7.598898    5.283834
  Au     9.668351    9.955571    6.530355
  Mn     6.932899    6.025766    8.905481

 Multiplicity           Mult            ....    4
 Number of Electrons    NEL             ....  329
 Basis Dimension        Dim             ....  685

ORBITAL ENERGIES
----------------
                 SPIN UP ORBITALS
  NO   OCC          E(Eh)            E(eV)
   0   1.0000    -234.212740     -6373.2527
   1   1.0000     -26.911056      -732.2871
   2   1.0000     -23.061207      -627.5273
   3   1.0000     -23.059087      -627.4697
   4   1.0000     -23.057154      -627.4170
   5   1.0000      -4.041526      -109.9755
   6   1.0000      -4.041447      -109.9734
   7   1.0000      -4.037411      -109.8635
   8   1.0000      -4.034290      -109.7786
   9   1.0000      -4.031097      -109.6917
  10   1.0000      -4.031093      -109.6916
  11   1.0000      -4.029248      -109.6414
  12   1.0000      -4.029149      -109.6387
  13   1.0000      -4.026995      -109.5801
  14   1.0000      -4.026354      -109.5627
  15   1.0000      -4.026184      -109.5580
  16   1.0000      -4.024570      -109.5141
  17   1.0000      -4.024196      -109.5039
  18   1.0000      -4.023381      -109.4818
  19   1.0000      -4.023178      -109.4762
  20   1.0000      -4.022770      -109.4651
  21   1.0000      -3.122466       -84.9666
  22   1.0000      -2.260032       -61.4986
  23   1.0000      -2.258653       -61.4611
  24   1.0000      -2.255925       -61.3868
  25   1.0000      -2.253282       -61.3149
  26   1.0000      -2.252997       -61.3072
  27   1.0000      -2.252255       -61.2870
  28   1.0000      -2.251488       -61.2661
  29   1.0000      -2.250040       -61.2267
  30   1.0000      -2.249340       -61.2077
  31   1.0000      -2.248135       -61.1749
  32   1.0000      -2.247335       -61.1531
  33   1.0000      -2.246666       -61.1349
  34   1.0000      -2.246103       -61.1196
  35   1.0000      -2.246045       -61.1180
  36   1.0000      -2.245650       -61.1073
  37   1.0000      -2.245612       -61.1062
  38   1.0000      -2.244811       -61.0844
  39   1.0000      -2.244260       -61.0694
  40   1.0000      -2.244185       -61.0674
  41   1.0000      -2.243646       -61.0527
  42   1.0000      -2.243447       -61.0473
  43   1.0000      -2.242621       -61.0248
  44   1.0000      -2.242367       -61.0179
  45   1.0000      -2.242275       -61.0154
  46   1.0000      -2.240855       -60.9768
  47   1.0000      -2.239440       -60.9383
  48   1.0000      -2.239209       -60.9320
  49   1.0000      -2.238629       -60.9162
  50   1.0000      -2.238599       -60.9154
  51   1.0000      -2.238361       -60.9089
  52   1.0000      -2.238137       -60.9028
  53   1.0000      -2.237976       -60.8984
  54   1.0000      -2.237424       -60.8834
  55   1.0000      -2.237244       -60.8785
  56   1.0000      -2.237097       -60.8745
  57   1.0000      -2.236694       -60.8635
  58   1.0000      -2.236330       -60.8536
  59   1.0000      -2.236262       -60.8518
  60   1.0000      -2.235858       -60.8408
  61   1.0000      -2.235565       -60.8328
  62   1.0000      -2.234836       -60.8130
  63   1.0000      -2.234801       -60.8120
  64   1.0000      -2.234708       -60.8095
  65   1.0000      -2.234355       -60.7999
  66   1.0000      -2.233848       -60.7861
  67   1.0000      -2.233290       -60.7709
  68   1.0000      -2.231428       -60.7202
  69   1.0000      -2.230500       -60.6950
  70   1.0000      -2.029423       -55.2234
  71   1.0000      -2.023455       -55.0610
  72   1.0000      -2.021764       -55.0150
  73   1.0000      -0.421736       -11.4760
  74   1.0000      -0.399826       -10.8798
  75   1.0000      -0.386795       -10.5252
  76   1.0000      -0.385754       -10.4969
  77   1.0000      -0.376754       -10.2520
  78   1.0000      -0.371920       -10.1204
  79   1.0000      -0.371845       -10.1184
  80   1.0000      -0.366552        -9.9744
  81   1.0000      -0.366198        -9.9647
  82   1.0000      -0.364196        -9.9103
  83   1.0000      -0.362717        -9.8700
  84   1.0000      -0.361796        -9.8450
  85   1.0000      -0.361139        -9.8271
  86   1.0000      -0.356733        -9.7072
  87   1.0000      -0.355340        -9.6693
  88   1.0000      -0.352175        -9.5832
  89   1.0000      -0.350061        -9.5256
  90   1.0000      -0.348674        -9.4879
  91   1.0000      -0.346898        -9.4396
  92   1.0000      -0.346538        -9.4298
  93   1.0000      -0.344297        -9.3688
  94   1.0000      -0.342307        -9.3146
  95   1.0000      -0.340828        -9.2744
  96   1.0000      -0.340417        -9.2632
  97   1.0000      -0.337529        -9.1846
  98   1.0000      -0.336749        -9.1634
  99   1.0000      -0.334929        -9.1139
 100   1.0000      -0.334132        -9.0922
 101   1.0000      -0.328973        -8.9518
 102   1.0000      -0.326986        -8.8977
 103   1.0000      -0.326711        -8.8903
 104   1.0000      -0.324690        -8.8353
 105   1.0000      -0.322764        -8.7829
 106   1.0000      -0.320814        -8.7298
 107   1.0000      -0.318579        -8.6690
 108   1.0000      -0.316892        -8.6231
 109   1.0000      -0.311176        -8.4675
 110   1.0000      -0.309050        -8.4097
 111   1.0000      -0.306143        -8.3306
 112   1.0000      -0.303498        -8.2586
 113   1.0000      -0.303040        -8.2461
 114   1.0000      -0.302768        -8.2387
 115   1.0000      -0.301539        -8.2053
 116   1.0000      -0.295438        -8.0393
 117   1.0000      -0.294193        -8.0054
 118   1.0000      -0.293186        -7.9780
 119   1.0000      -0.292560        -7.9610
 120   1.0000      -0.287928        -7.8349
 121   1.0000      -0.287372        -7.8198
 122   1.0000      -0.285786        -7.7766
 123   1.0000      -0.284874        -7.7518
 124   1.0000      -0.282408        -7.6847
 125   1.0000      -0.280603        -7.6356
 126   1.0000      -0.280212        -7.6250
 127   1.0000      -0.279979        -7.6186
 128   1.0000      -0.279439        -7.6039
 129   1.0000      -0.277270        -7.5449
 130   1.0000      -0.272517        -7.4156
 131   1.0000      -0.270849        -7.3702
 132   1.0000      -0.269726        -7.3396
 133   1.0000      -0.268812        -7.3147
 134   1.0000      -0.267637        -7.2828
 135   1.0000      -0.267179        -7.2703
 136   1.0000      -0.265295        -7.2190
 137   1.0000      -0.264382        -7.1942
 138   1.0000      -0.263650        -7.1743
 139   1.0000      -0.262832        -7.1520
 140   1.0000      -0.262546        -7.1442
 141   1.0000      -0.260497        -7.0885
 142   1.0000      -0.259860        -7.0712
 143   1.0000      -0.259028        -7.0485
 144   1.0000      -0.258479        -7.0336
 145   1.0000      -0.257040        -6.9944
 146   1.0000      -0.255462        -6.9515
 147   1.0000      -0.254014        -6.9121
 148   1.0000      -0.252961        -6.8834
 149   1.0000      -0.252653        -6.8750
 150   1.0000      -0.250456        -6.8153
 151   1.0000      -0.248822        -6.7708
 152   1.0000      -0.247629        -6.7383
 153   1.0000      -0.247343        -6.7305
 154   1.0000      -0.246601        -6.7103
 155   1.0000      -0.245746        -6.6871
 156   1.0000      -0.244867        -6.6632
 157   1.0000      -0.243941        -6.6380
 158   1.0000      -0.242431        -6.5969
 159   1.0000      -0.238170        -6.4809
 160   1.0000      -0.235981        -6.4214
 161   1.0000      -0.235804        -6.4165
 162   1.0000      -0.222958        -6.0670
 163   1.0000      -0.220355        -5.9962
 164   1.0000      -0.216483        -5.8908
 165   1.0000      -0.206414        -5.6168
 166   0.0000      -0.202999        -5.5239
 167   0.0000      -0.168143        -4.5754
 168   0.0000      -0.139270        -3.7897
 169   0.0000      -0.132885        -3.6160
 170   0.0000      -0.130941        -3.5631

                 SPIN DOWN ORBITALS
  NO   OCC          E(Eh)            E(eV)
   0   1.0000    -234.211976     -6373.2319
   1   1.0000     -26.842877      -730.4318
   2   1.0000     -23.008238      -626.0860
   3   1.0000     -23.007439      -626.0643
   4   1.0000     -23.006423      -626.0366
   5   1.0000      -4.041312      -109.9697
   6   1.0000      -4.041235      -109.9676
   7   1.0000      -4.036280      -109.8328
   8   1.0000      -4.033423      -109.7550
   9   1.0000      -4.030356      -109.6716
  10   1.0000      -4.030333      -109.6709
  11   1.0000      -4.029944      -109.6604
  12   1.0000      -4.029830      -109.6572
  13   1.0000      -4.028862      -109.6309
  14   1.0000      -4.026904      -109.5776
  15   1.0000      -4.026737      -109.5731
  16   1.0000      -4.025618      -109.5426
  17   1.0000      -4.025259      -109.5329
  18   1.0000      -4.024044      -109.4998
  19   1.0000      -4.023839      -109.4942
  20   1.0000      -4.023218      -109.4773
  21   1.0000      -2.954377       -80.3927
  22   1.0000      -2.259632       -61.4877
  23   1.0000      -2.258391       -61.4539
  24   1.0000      -2.254062       -61.3361
  25   1.0000      -2.252831       -61.3026
  26   1.0000      -2.252528       -61.2944
  27   1.0000      -2.251618       -61.2696
  28   1.0000      -2.250961       -61.2518
  29   1.0000      -2.250070       -61.2275
  30   1.0000      -2.248411       -61.1824
  31   1.0000      -2.247372       -61.1541
  32   1.0000      -2.247221       -61.1500
  33   1.0000      -2.246567       -61.1322
  34   1.0000      -2.246524       -61.1310
  35   1.0000      -2.246434       -61.1286
  36   1.0000      -2.246203       -61.1223
  37   1.0000      -2.245779       -61.1107
  38   1.0000      -2.245540       -61.1043
  39   1.0000      -2.245244       -61.0962
  40   1.0000      -2.243997       -61.0623
  41   1.0000      -2.243758       -61.0558
  42   1.0000      -2.243339       -61.0444
  43   1.0000      -2.243025       -61.0358
  44   1.0000      -2.242922       -61.0330
  45   1.0000      -2.242395       -61.0187
  46   1.0000      -2.241384       -60.9912
  47   1.0000      -2.240252       -60.9604
  48   1.0000      -2.240116       -60.9567
  49   1.0000      -2.239308       -60.9347
  50   1.0000      -2.239184       -60.9313
  51   1.0000      -2.238939       -60.9246
  52   1.0000      -2.238686       -60.9177
  53   1.0000      -2.238452       -60.9114
  54   1.0000      -2.238322       -60.9078
  55   1.0000      -2.238076       -60.9011
  56   1.0000      -2.237450       -60.8841
  57   1.0000      -2.237147       -60.8759
  58   1.0000      -2.236701       -60.8637
  59   1.0000      -2.236513       -60.8586
  60   1.0000      -2.236216       -60.8505
  61   1.0000      -2.236020       -60.8452
  62   1.0000      -2.235715       -60.8369
  63   1.0000      -2.235648       -60.8351
  64   1.0000      -2.235599       -60.8337
  65   1.0000      -2.235292       -60.8254
  66   1.0000      -2.234697       -60.8092
  67   1.0000      -2.234180       -60.7951
  68   1.0000      -2.232523       -60.7500
  69   1.0000      -2.230790       -60.7029
  70   1.0000      -1.861196       -50.6457
  71   1.0000      -1.859400       -50.5969
  72   1.0000      -1.858756       -50.5793
  73   1.0000      -0.419804       -11.4234
  74   1.0000      -0.399292       -10.8653
  75   1.0000      -0.388084       -10.5603
  76   1.0000      -0.383491       -10.4353
  77   1.0000      -0.376478       -10.2445
  78   1.0000      -0.370605       -10.0847
  79   1.0000      -0.369878       -10.0649
  80   1.0000      -0.368323       -10.0226
  81   1.0000      -0.367725       -10.0063
  82   1.0000      -0.365156        -9.9364
  83   1.0000      -0.362424        -9.8621
  84   1.0000      -0.361807        -9.8453
  85   1.0000      -0.359495        -9.7824
  86   1.0000      -0.354647        -9.6504
  87   1.0000      -0.353733        -9.6256
  88   1.0000      -0.349591        -9.5129
  89   1.0000      -0.348184        -9.4746
  90   1.0000      -0.347138        -9.4461
  91   1.0000      -0.346978        -9.4418
  92   1.0000      -0.344815        -9.3829
  93   1.0000      -0.342984        -9.3331
  94   1.0000      -0.341136        -9.2828
  95   1.0000      -0.340112        -9.2549
  96   1.0000      -0.337810        -9.1923
  97   1.0000      -0.335969        -9.1422
  98   1.0000      -0.334496        -9.1021
  99   1.0000      -0.332213        -9.0400
 100   1.0000      -0.331767        -9.0278
 101   1.0000      -0.328098        -8.9280
 102   1.0000      -0.326017        -8.8714
 103   1.0000      -0.325221        -8.8497
 104   1.0000      -0.321587        -8.7508
 105   1.0000      -0.321168        -8.7394
 106   1.0000      -0.320279        -8.7152
 107   1.0000      -0.313956        -8.5432
 108   1.0000      -0.311836        -8.4855
 109   1.0000      -0.310908        -8.4602
 110   1.0000      -0.307663        -8.3719
 111   1.0000      -0.304584        -8.2882
 112   1.0000      -0.303019        -8.2456
 113   1.0000      -0.301731        -8.2105
 114   1.0000      -0.300794        -8.1850
 115   1.0000      -0.296602        -8.0709
 116   1.0000      -0.293548        -7.9878
 117   1.0000      -0.292123        -7.9491
 118   1.0000      -0.291969        -7.9449
 119   1.0000      -0.289310        -7.8725
 120   1.0000      -0.288847        -7.8599
 121   1.0000      -0.287265        -7.8169
 122   1.0000      -0.285610        -7.7718
 123   1.0000      -0.283670        -7.7190
 124   1.0000      -0.281944        -7.6721
 125   1.0000      -0.280256        -7.6262
 126   1.0000      -0.279213        -7.5978
 127   1.0000      -0.277692        -7.5564
 128   1.0000      -0.276098        -7.5130
 129   1.0000      -0.275885        -7.5072
 130   1.0000      -0.273351        -7.4383
 131   1.0000      -0.270150        -7.3512
 132   1.0000      -0.268983        -7.3194
 133   1.0000      -0.267261        -7.2725
 134   1.0000      -0.266650        -7.2559
 135   1.0000      -0.265840        -7.2339
 136   1.0000      -0.264771        -7.2048
 137   1.0000      -0.264173        -7.1885
 138   1.0000      -0.263332        -7.1656
 139   1.0000      -0.262231        -7.1357
 140   1.0000      -0.260612        -7.0916
 141   1.0000      -0.259622        -7.0647
 142   1.0000      -0.257299        -7.0015
 143   1.0000      -0.256515        -6.9801
 144   1.0000      -0.255550        -6.9539
 145   1.0000      -0.254483        -6.9248
 146   1.0000      -0.253855        -6.9078
 147   1.0000      -0.250472        -6.8157
 148   1.0000      -0.250329        -6.8118
 149   1.0000      -0.249746        -6.7959
 150   1.0000      -0.247515        -6.7352
 151   1.0000      -0.246999        -6.7212
 152   1.0000      -0.246545        -6.7088
 153   1.0000      -0.244270        -6.6469
 154   1.0000      -0.241721        -6.5776
 155   1.0000      -0.239156        -6.5078
 156   1.0000      -0.237252        -6.4560
 157   1.0000      -0.227454        -6.1893
 158   1.0000      -0.222331        -6.0499
 159   1.0000      -0.217155        -5.9091
 160   1.0000      -0.210541        -5.7291
 161   1.0000      -0.207506        -5.6465
 162   1.0000      -0.175757        -4.7826
 163   0.0000      -0.161661        -4.3990
 164   0.0000      -0.160724        -4.3735
 165   0.0000      -0.147548        -4.0150
 166   0.0000      -0.141528        -3.8512
 167   0.0000      -0.139212        -3.7882

MULLIKEN ATOMIC CHARGES AND SPIN POPULATIONS
--------------------------------------------
   0 Au:    0.019460   -0.016004
   1 Au:   -0.467965   -0.204756
   2 Au:    0.049607   -0.139501
   3 Au:    0.354820   -0.079263
   4 Au:    0.016954   -0.017400
   5 Au:   -0.148423   -0.070051
   6 Au:    0.248767   -0.028917
   7 Au:    0.355501   -0.141178
   8 Au:    0.064727   -0.139335
   9 Au:    0.175925   -0.100844
  10 Au:   -0.159994   -0.071859
  11 Au:    0.292554   -0.022521
  12 Au:    0.285745   -0.021516
  13 Au:   -1.133530   -0.251963
  14 Au:    0.162747   -0.097489
  15 Au:    0.360487   -0.140397
  16 Mn:   -0.477382    4.542995
Sum of atomic charges         :   -0.0000000

LOEWDIN ATOMIC CHARGES AND SPIN POPULATIONS
-------------------------------------------
   0 Au:   -0.025141   -0.030127
   1 Au:   -0.060192   -0.103936
   2 Au:   -0.024891   -0.131098
   3 Au:    0.134054   -0.057684
   4 Au:   -0.024573   -0.029891
   5 Au:   -0.006442   -0.020515
   6 Au:    0.030176   -0.023840
   7 Au:    0.026526   -0.139362
   8 Au:   -0.022561   -0.132210
   9 Au:    0.001638   -0.114863
  10 Au:   -0.007980   -0.022571
  11 Au:    0.023044   -0.089424
  12 Au:    0.022670   -0.088737
  13 Au:   -0.106908   -0.151236
  14 Au:   -0.001222   -0.113095
  15 Au:    0.029098   -0.139170
  16 Mn:    0.012704    4.387760

  Mayer bond orders larger than 0.100000
B(  0-Au,  1-Au) :   0.2936 B(  0-Au,  2-Au) :   0.4394 B(  0-Au,  3-Au) :   0.3269
B(  0-Au,  4-Au) :   0.1735 B(  0-Au,  5-Au) :   0.1656 B(  0-Au, 16-Mn) :   0.4201
B(  1-Au,  2-Au) :   0.3050 B(  1-Au,  4-Au) :   0.2985 B(  1-Au,  8-Au) :   0.3013
B(  1-Au, 11-Au) :   0.2454 B(  1-Au, 12-Au) :   0.2462 B(  1-Au, 13-Au) :   0.1357
B(  2-Au,  5-Au) :   0.2639 B(  2-Au, 11-Au) :   0.2752 B(  2-Au, 15-Au) :   0.2994
B(  3-Au,  4-Au) :   0.3275 B(  3-Au, 16-Mn) :   0.5667 B(  4-Au,  8-Au) :   0.4370
B(  4-Au, 10-Au) :   0.1591 B(  4-Au, 16-Mn) :   0.4233 B(  5-Au,  6-Au) :   0.1860
B(  5-Au, 14-Au) :   0.3203 B(  5-Au, 15-Au) :   0.1171 B(  5-Au, 16-Mn) :   0.5208
B(  6-Au,  9-Au) :   0.2311 B(  6-Au, 10-Au) :   0.1914 B(  6-Au, 14-Au) :   0.2324
B(  6-Au, 16-Mn) :   0.5431 B(  7-Au,  8-Au) :   0.2969 B(  7-Au,  9-Au) :   0.3377
B(  7-Au, 10-Au) :   0.1296 B(  7-Au, 12-Au) :   0.2266 B(  7-Au, 13-Au) :   0.3481
B(  8-Au, 10-Au) :   0.2670 B(  8-Au, 12-Au) :   0.2777 B(  9-Au, 10-Au) :   0.3102
B(  9-Au, 13-Au) :   0.3626 B(  9-Au, 14-Au) :   0.2566 B( 10-Au, 16-Mn) :   0.5197
B( 11-Au, 12-Au) :   0.3320 B( 11-Au, 13-Au) :   0.3598 B( 11-Au, 15-Au) :   0.2237
B( 12-Au, 13-Au) :   0.3594 B( 13-Au, 14-Au) :   0.3592 B( 13-Au, 15-Au) :   0.3494
B( 14-Au, 15-Au) :   0.3390

FINAL SINGLE POINT ENERGY     -3324.010133095351

DIPOLE MOMENT
-------------
                                X             Y             Z
Electronic contribution:     -5.37641      87.35834     -50.27627
Nuclear contribution   :      5.38419     -87.96850      50.73733
                        -----------------------------------------
Total Dipole Moment    :      0.00778      -0.61017       0.46106
                        -----------------------------------------
Magnitude (a.u.)       :      0.76481
Magnitude (Debye)      :      1.94400

Rotational constants in cm-1:     0.000876     0.000748     0.000731
Rotational constants in MHz :    26.268852    22.437778    21.909043

                             ****ORCA TERMINATED NORMALLY****
TOTAL RUN TIME: 0 days 0 hours 11 minutes 15 seconds 812 msec
