                         Program Version 5.0.3 -  RELEASE  -
|  1> !R2SCAN def2-TZVP VERYSLOWCONV
|  2> !KDIIS
|  3> %scf
|  4>   AutoTRAHIter 200
|  5>   maxiter 400
|  6> end
|  7>
|  8> %pal nprocs 6 end
|  9>
| 10> *xyzfile 0 6 pbe.xyz
| 11>
| 12> $new_job
| 13>
| 14> !R2SCAN def2-TZVP VERYSLOWCONV
| 15> !KDIIS
| 16> %scf
| 17>   AutoTRAHIter 200
| 18>   maxiter 400
| 19> end
| 20>
| 21>
| 22> %pal nprocs 6 end
| 23>
| 24> *xyzfile 0 4 pbe.xyz
| 25>
| 26>
| 27>
| 28>
| 29>
| 30>                          ****END OF INPUT****
 Total Charge           Charge          ....    0
 Multiplicity           Mult            ....    6
 Number of Electrons    NEL             ....  329
FINAL SINGLE POINT ENERGY     -3324.587487763660

CARTESIAN COORDINATES (ANGSTROEM)
---------------------------------
  Au     7.553850    8.069317   10.553548
  Au     5.994455    9.970893    9.090443
  Au     8.821568    9.924720    9.137025
  Au     6.281978    5.805841   11.444159
  Au     4.836749    7.463285    9.802049
  Au     9.097764    7.371364    8.102407
  Au     7.729776    5.470403    6.518810
  Au     4.451216    8.749633    5.077740
  Au     3.802784    8.787044    7.744193
  Au     6.479374    7.008604    4.527386
  Au     5.139796    6.485235    6.980795
  Au     7.551486   11.625891    7.362685
  Au     4.978902   11.035154    6.644026
  Au     7.096526    9.556746    5.502119
  Au     9.087445    7.598898    5.283834
  Au     9.668351    9.955571    6.530355
  Mn     6.932899    6.025766    8.905481

 Multiplicity           Mult            ....    4
 Number of Electrons    NEL             ....  329
 Basis Dimension        Dim             ....  685

ORBITAL ENERGIES
----------------
                 SPIN UP ORBITALS
  NO   OCC          E(Eh)            E(eV)
   0   1.0000    -235.055771     -6396.1927
   1   1.0000     -27.238978      -741.2103
   2   1.0000     -23.286927      -633.6695
   3   1.0000     -23.285358      -633.6268
   4   1.0000     -23.283554      -633.5777
   5   1.0000      -4.132880      -112.4614
   6   1.0000      -4.132793      -112.4590
   7   1.0000      -4.128170      -112.3332
   8   1.0000      -4.125913      -112.2718
   9   1.0000      -4.122080      -112.1675
  10   1.0000      -4.122068      -112.1672
  11   1.0000      -4.119865      -112.1072
  12   1.0000      -4.119776      -112.1048
  13   1.0000      -4.116976      -112.0286
  14   1.0000      -4.116406      -112.0131
  15   1.0000      -4.116229      -112.0083
  16   1.0000      -4.114853      -111.9709
  17   1.0000      -4.114485      -111.9608
  18   1.0000      -4.113854      -111.9437
  19   1.0000      -4.113469      -111.9332
  20   1.0000      -4.113253      -111.9273
  21   1.0000      -3.262885       -88.7876
  22   1.0000      -2.324021       -63.2398
  23   1.0000      -2.322498       -63.1984
  24   1.0000      -2.319302       -63.1114
  25   1.0000      -2.317569       -63.0643
  26   1.0000      -2.317260       -63.0558
  27   1.0000      -2.316388       -63.0321
  28   1.0000      -2.315688       -63.0131
  29   1.0000      -2.314167       -62.9717
  30   1.0000      -2.313078       -62.9420
  31   1.0000      -2.311839       -62.9083
  32   1.0000      -2.310999       -62.8855
  33   1.0000      -2.310335       -62.8674
  34   1.0000      -2.309346       -62.8405
  35   1.0000      -2.309336       -62.8402
  36   1.0000      -2.309082       -62.8333
  37   1.0000      -2.309055       -62.8326
  38   1.0000      -2.308513       -62.8178
  39   1.0000      -2.307794       -62.7983
  40   1.0000      -2.307381       -62.7870
  41   1.0000      -2.306930       -62.7748
  42   1.0000      -2.306501       -62.7631
  43   1.0000      -2.305998       -62.7494
  44   1.0000      -2.305513       -62.7362
  45   1.0000      -2.305137       -62.7260
  46   1.0000      -2.303913       -62.6927
  47   1.0000      -2.302984       -62.6674
  48   1.0000      -2.302588       -62.6566
  49   1.0000      -2.301851       -62.6365
  50   1.0000      -2.301788       -62.6348
  51   1.0000      -2.301693       -62.6322
  52   1.0000      -2.301619       -62.6302
  53   1.0000      -2.301255       -62.6203
  54   1.0000      -2.300543       -62.6010
  55   1.0000      -2.300306       -62.5945
  56   1.0000      -2.300166       -62.5907
  57   1.0000      -2.300072       -62.5881
  58   1.0000      -2.299742       -62.5792
  59   1.0000      -2.299360       -62.5688
  60   1.0000      -2.298639       -62.5491
  61   1.0000      -2.298567       -62.5472
  62   1.0000      -2.298014       -62.5321
  63   1.0000      -2.297684       -62.5232
  64   1.0000      -2.297627       -62.5216
  65   1.0000      -2.297569       -62.5200
  66   1.0000      -2.296855       -62.5006
  67   1.0000      -2.296226       -62.4835
  68   1.0000      -2.294964       -62.4491
  69   1.0000      -2.294886       -62.4470
  70   1.0000      -2.122791       -57.7641
  71   1.0000      -2.118105       -57.6366
  72   1.0000      -2.116516       -57.5933
  73   1.0000      -0.428379       -11.6568
  74   1.0000      -0.405369       -11.0307
  75   1.0000      -0.393285       -10.7018
  76   1.0000      -0.392721       -10.6865
  77   1.0000      -0.384725       -10.4689
  78   1.0000      -0.381784       -10.3889
  79   1.0000      -0.380534       -10.3548
  80   1.0000      -0.375676       -10.2227
  81   1.0000      -0.374013       -10.1774
  82   1.0000      -0.372946       -10.1484
  83   1.0000      -0.372284       -10.1304
  84   1.0000      -0.370774       -10.0893
  85   1.0000      -0.369449       -10.0532
  86   1.0000      -0.367861       -10.0100
  87   1.0000      -0.365678        -9.9506
  88   1.0000      -0.363205        -9.8833
  89   1.0000      -0.360271        -9.8035
  90   1.0000      -0.358867        -9.7653
  91   1.0000      -0.357126        -9.7179
  92   1.0000      -0.356279        -9.6948
  93   1.0000      -0.353346        -9.6150
  94   1.0000      -0.353115        -9.6088
  95   1.0000      -0.351180        -9.5561
  96   1.0000      -0.349944        -9.5225
  97   1.0000      -0.346953        -9.4411
  98   1.0000      -0.346099        -9.4178
  99   1.0000      -0.344778        -9.3819
 100   1.0000      -0.343953        -9.3594
 101   1.0000      -0.340046        -9.2531
 102   1.0000      -0.336055        -9.1445
 103   1.0000      -0.335516        -9.1299
 104   1.0000      -0.334543        -9.1034
 105   1.0000      -0.332348        -9.0436
 106   1.0000      -0.331311        -9.0154
 107   1.0000      -0.327581        -8.9139
 108   1.0000      -0.326806        -8.8928
 109   1.0000      -0.322300        -8.7702
 110   1.0000      -0.317077        -8.6281
 111   1.0000      -0.315365        -8.5815
 112   1.0000      -0.312757        -8.5105
 113   1.0000      -0.311968        -8.4891
 114   1.0000      -0.311869        -8.4864
 115   1.0000      -0.311255        -8.4697
 116   1.0000      -0.305667        -8.3176
 117   1.0000      -0.305372        -8.3096
 118   1.0000      -0.303234        -8.2514
 119   1.0000      -0.302026        -8.2185
 120   1.0000      -0.296388        -8.0651
 121   1.0000      -0.296036        -8.0555
 122   1.0000      -0.294564        -8.0155
 123   1.0000      -0.293883        -7.9970
 124   1.0000      -0.291916        -7.9434
 125   1.0000      -0.290500        -7.9049
 126   1.0000      -0.289454        -7.8764
 127   1.0000      -0.289253        -7.8710
 128   1.0000      -0.288129        -7.8404
 129   1.0000      -0.287217        -7.8156
 130   1.0000      -0.281606        -7.6629
 131   1.0000      -0.281300        -7.6546
 132   1.0000      -0.280674        -7.6375
 133   1.0000      -0.278605        -7.5812
 134   1.0000      -0.277449        -7.5498
 135   1.0000      -0.276181        -7.5153
 136   1.0000      -0.275569        -7.4986
 137   1.0000      -0.273217        -7.4346
 138   1.0000      -0.272567        -7.4169
 139   1.0000      -0.271802        -7.3961
 140   1.0000      -0.270282        -7.3547
 141   1.0000      -0.268952        -7.3186
 142   1.0000      -0.268711        -7.3120
 143   1.0000      -0.267674        -7.2838
 144   1.0000      -0.267171        -7.2701
 145   1.0000      -0.264920        -7.2088
 146   1.0000      -0.264292        -7.1917
 147   1.0000      -0.261511        -7.1161
 148   1.0000      -0.261022        -7.1028
 149   1.0000      -0.260742        -7.0951
 150   1.0000      -0.259246        -7.0545
 151   1.0000      -0.258582        -7.0364
 152   1.0000      -0.255174        -6.9436
 153   1.0000      -0.254290        -6.9196
 154   1.0000      -0.254191        -6.9169
 155   1.0000      -0.252200        -6.8627
 156   1.0000      -0.251744        -6.8503
 157   1.0000      -0.251458        -6.8425
 158   1.0000      -0.249451        -6.7879
 159   1.0000      -0.244934        -6.6650
 160   1.0000      -0.242461        -6.5977
 161   1.0000      -0.242200        -6.5906
 162   1.0000      -0.226891        -6.1740
 163   1.0000      -0.223099        -6.0708
 164   1.0000      -0.218371        -5.9422
 165   1.0000      -0.207393        -5.6435
 166   0.0000      -0.201469        -5.4822
 167   0.0000      -0.164130        -4.4662
 168   0.0000      -0.136631        -3.7179
 169   0.0000      -0.129476        -3.5232
 170   0.0000      -0.126151        -3.4327

                 SPIN DOWN ORBITALS
  NO   OCC          E(Eh)            E(eV)
   0   1.0000    -235.054733     -6396.1645
   1   1.0000     -27.148649      -738.7523
   2   1.0000     -23.216580      -631.7552
   3   1.0000     -23.216125      -631.7429
   4   1.0000     -23.215337      -631.7214
   5   1.0000      -4.132794      -112.4590
   6   1.0000      -4.132707      -112.4567
   7   1.0000      -4.127101      -112.3041
   8   1.0000      -4.125230      -112.2532
   9   1.0000      -4.121400      -112.1490
  10   1.0000      -4.121389      -112.1487
  11   1.0000      -4.120707      -112.1301
  12   1.0000      -4.120601      -112.1272
  13   1.0000      -4.119422      -112.0952
  14   1.0000      -4.117076      -112.0313
  15   1.0000      -4.116903      -112.0266
  16   1.0000      -4.116114      -112.0052
  17   1.0000      -4.115761      -111.9956
  18   1.0000      -4.114475      -111.9606
  19   1.0000      -4.114172      -111.9523
  20   1.0000      -4.113953      -111.9464
  21   1.0000      -3.046462       -82.8984
  22   1.0000      -2.323794       -63.2337
  23   1.0000      -2.322438       -63.1967
  24   1.0000      -2.317396       -63.0596
  25   1.0000      -2.317181       -63.0537
  26   1.0000      -2.316847       -63.0446
  27   1.0000      -2.315828       -63.0169
  28   1.0000      -2.315069       -62.9962
  29   1.0000      -2.314183       -62.9721
  30   1.0000      -2.311985       -62.9123
  31   1.0000      -2.310911       -62.8831
  32   1.0000      -2.310495       -62.8718
  33   1.0000      -2.309829       -62.8536
  34   1.0000      -2.309784       -62.8524
  35   1.0000      -2.309621       -62.8480
  36   1.0000      -2.309489       -62.8444
  37   1.0000      -2.309338       -62.8403
  38   1.0000      -2.308871       -62.8276
  39   1.0000      -2.308748       -62.8242
  40   1.0000      -2.308113       -62.8069
  41   1.0000      -2.307145       -62.7806
  42   1.0000      -2.306758       -62.7701
  43   1.0000      -2.306708       -62.7687
  44   1.0000      -2.306249       -62.7562
  45   1.0000      -2.306035       -62.7504
  46   1.0000      -2.304454       -62.7074
  47   1.0000      -2.303627       -62.6849
  48   1.0000      -2.303397       -62.6786
  49   1.0000      -2.302883       -62.6646
  50   1.0000      -2.302445       -62.6527
  51   1.0000      -2.302043       -62.6418
  52   1.0000      -2.301887       -62.6375
  53   1.0000      -2.301759       -62.6341
  54   1.0000      -2.301502       -62.6270
  55   1.0000      -2.301359       -62.6232
  56   1.0000      -2.300936       -62.6116
  57   1.0000      -2.300577       -62.6019
  58   1.0000      -2.300227       -62.5924
  59   1.0000      -2.299927       -62.5842
  60   1.0000      -2.299503       -62.5726
  61   1.0000      -2.299325       -62.5678
  62   1.0000      -2.299016       -62.5594
  63   1.0000      -2.298664       -62.5498
  64   1.0000      -2.298573       -62.5474
  65   1.0000      -2.298450       -62.5440
  66   1.0000      -2.297861       -62.5280
  67   1.0000      -2.297248       -62.5113
  68   1.0000      -2.296273       -62.4848
  69   1.0000      -2.295299       -62.4583
  70   1.0000      -1.904873       -51.8342
  71   1.0000      -1.903682       -51.8018
  72   1.0000      -1.902843       -51.7790
  73   1.0000      -0.425984       -11.5916
  74   1.0000      -0.405350       -11.0301
  75   1.0000      -0.395009       -10.7487
  76   1.0000      -0.389863       -10.6087
  77   1.0000      -0.384514       -10.4632
  78   1.0000      -0.379468       -10.3259
  79   1.0000      -0.378686       -10.3046
  80   1.0000      -0.376786       -10.2529
  81   1.0000      -0.375915       -10.2292
  82   1.0000      -0.373944       -10.1755
  83   1.0000      -0.370739       -10.0883
  84   1.0000      -0.369985       -10.0678
  85   1.0000      -0.368565       -10.0292
  86   1.0000      -0.363996        -9.9048
  87   1.0000      -0.362931        -9.8758
  88   1.0000      -0.358747        -9.7620
  89   1.0000      -0.357582        -9.7303
  90   1.0000      -0.356474        -9.7002
  91   1.0000      -0.355896        -9.6844
  92   1.0000      -0.353541        -9.6203
  93   1.0000      -0.352047        -9.5797
  94   1.0000      -0.350478        -9.5370
  95   1.0000      -0.349406        -9.5078
  96   1.0000      -0.347290        -9.4502
  97   1.0000      -0.345289        -9.3958
  98   1.0000      -0.343679        -9.3520
  99   1.0000      -0.341334        -9.2882
 100   1.0000      -0.340935        -9.2773
 101   1.0000      -0.337007        -9.1704
 102   1.0000      -0.334796        -9.1103
 103   1.0000      -0.334266        -9.0958
 104   1.0000      -0.330672        -8.9981
 105   1.0000      -0.329952        -8.9785
 106   1.0000      -0.328973        -8.9518
 107   1.0000      -0.322951        -8.7880
 108   1.0000      -0.320704        -8.7268
 109   1.0000      -0.319569        -8.6959
 110   1.0000      -0.316664        -8.6169
 111   1.0000      -0.313172        -8.5218
 112   1.0000      -0.311579        -8.4785
 113   1.0000      -0.310212        -8.4413
 114   1.0000      -0.309549        -8.4233
 115   1.0000      -0.305065        -8.3013
 116   1.0000      -0.302263        -8.2250
 117   1.0000      -0.300585        -8.1793
 118   1.0000      -0.300459        -8.1759
 119   1.0000      -0.298199        -8.1144
 120   1.0000      -0.297478        -8.0948
 121   1.0000      -0.295736        -8.0474
 122   1.0000      -0.294333        -8.0092
 123   1.0000      -0.292755        -7.9663
 124   1.0000      -0.290774        -7.9124
 125   1.0000      -0.288954        -7.8628
 126   1.0000      -0.287530        -7.8241
 127   1.0000      -0.285590        -7.7713
 128   1.0000      -0.284772        -7.7490
 129   1.0000      -0.284350        -7.7376
 130   1.0000      -0.282193        -7.6789
 131   1.0000      -0.278400        -7.5757
 132   1.0000      -0.277815        -7.5597
 133   1.0000      -0.275196        -7.4885
 134   1.0000      -0.274958        -7.4820
 135   1.0000      -0.273776        -7.4498
 136   1.0000      -0.273196        -7.4340
 137   1.0000      -0.272057        -7.4031
 138   1.0000      -0.271270        -7.3816
 139   1.0000      -0.270395        -7.3578
 140   1.0000      -0.268916        -7.3176
 141   1.0000      -0.267284        -7.2732
 142   1.0000      -0.265257        -7.2180
 143   1.0000      -0.264185        -7.1888
 144   1.0000      -0.262798        -7.1511
 145   1.0000      -0.262253        -7.1363
 146   1.0000      -0.261224        -7.1083
 147   1.0000      -0.257566        -7.0087
 148   1.0000      -0.257304        -7.0016
 149   1.0000      -0.257189        -6.9985
 150   1.0000      -0.254721        -6.9313
 151   1.0000      -0.253873        -6.9082
 152   1.0000      -0.253651        -6.9022
 153   1.0000      -0.251079        -6.8322
 154   1.0000      -0.248300        -6.7566
 155   1.0000      -0.245832        -6.6894
 156   1.0000      -0.243691        -6.6312
 157   1.0000      -0.232240        -6.3196
 158   1.0000      -0.225370        -6.1326
 159   1.0000      -0.219719        -5.9789
 160   1.0000      -0.212708        -5.7881
 161   1.0000      -0.209439        -5.6991
 162   1.0000      -0.175069        -4.7639
 163   0.0000      -0.154533        -4.2051
 164   0.0000      -0.154038        -4.1916
 165   0.0000      -0.138627        -3.7722
 166   0.0000      -0.129190        -3.5154
 167   0.0000      -0.123163        -3.3514

MULLIKEN ATOMIC CHARGES AND SPIN POPULATIONS
--------------------------------------------
   0 Au:    0.009364   -0.007742
   1 Au:   -0.427194   -0.220025
   2 Au:    0.040927   -0.151648
   3 Au:    0.329137   -0.120217
   4 Au:    0.006779   -0.009264
   5 Au:   -0.150639   -0.073933
   6 Au:    0.225109   -0.051965
   7 Au:    0.336589   -0.152335
   8 Au:    0.054947   -0.151607
   9 Au:    0.164556   -0.111369
  10 Au:   -0.161345   -0.075632
  11 Au:    0.272917   -0.013631
  12 Au:    0.266002   -0.012168
  13 Au:   -1.077560   -0.248830
  14 Au:    0.152196   -0.107081
  15 Au:    0.341090   -0.151663
  16 Mn:   -0.382875    4.659111
Sum of atomic charges         :   -0.0000000

LOEWDIN ATOMIC CHARGES AND SPIN POPULATIONS
-------------------------------------------
   0 Au:   -0.030592   -0.034311
   1 Au:   -0.055942   -0.110153
   2 Au:   -0.027852   -0.137612
   3 Au:    0.122600   -0.082199
   4 Au:   -0.030090   -0.034203
   5 Au:   -0.015238   -0.029986
   6 Au:    0.018926   -0.041543
   7 Au:    0.026676   -0.144043
   8 Au:   -0.025596   -0.138680
   9 Au:   -0.000088   -0.123168
  10 Au:   -0.016766   -0.032196
  11 Au:    0.021268   -0.090307
  12 Au:    0.020757   -0.089505
  13 Au:   -0.106503   -0.154909
  14 Au:   -0.002985   -0.121055
  15 Au:    0.029220   -0.143745
  16 Mn:    0.072206    4.507614

  Mayer bond orders larger than 0.100000
B(  0-Au,  1-Au) :   0.2830 B(  0-Au,  2-Au) :   0.4376 B(  0-Au,  3-Au) :   0.3065
B(  0-Au,  4-Au) :   0.1529 B(  0-Au,  5-Au) :   0.1631 B(  0-Au, 16-Mn) :   0.4058
B(  1-Au,  2-Au) :   0.2961 B(  1-Au,  4-Au) :   0.2879 B(  1-Au,  8-Au) :   0.2927
B(  1-Au, 11-Au) :   0.2339 B(  1-Au, 12-Au) :   0.2345 B(  1-Au, 13-Au) :   0.1208
B(  2-Au,  5-Au) :   0.2365 B(  2-Au, 11-Au) :   0.2620 B(  2-Au, 15-Au) :   0.2887
B(  3-Au,  4-Au) :   0.3071 B(  3-Au, 16-Mn) :   0.5460 B(  4-Au,  8-Au) :   0.4351
B(  4-Au, 10-Au) :   0.1563 B(  4-Au, 16-Mn) :   0.4090 B(  5-Au,  6-Au) :   0.1815
B(  5-Au, 14-Au) :   0.3015 B(  5-Au, 15-Au) :   0.1046 B(  5-Au, 16-Mn) :   0.5119
B(  6-Au,  9-Au) :   0.2054 B(  6-Au, 10-Au) :   0.1870 B(  6-Au, 14-Au) :   0.2068
B(  6-Au, 16-Mn) :   0.5550 B(  7-Au,  8-Au) :   0.2861 B(  7-Au,  9-Au) :   0.3309
B(  7-Au, 10-Au) :   0.1164 B(  7-Au, 12-Au) :   0.2147 B(  7-Au, 13-Au) :   0.3346
B(  8-Au, 10-Au) :   0.2396 B(  8-Au, 12-Au) :   0.2642 B(  9-Au, 10-Au) :   0.2916
B(  9-Au, 13-Au) :   0.3452 B(  9-Au, 14-Au) :   0.2408 B( 10-Au, 16-Mn) :   0.5114
B( 11-Au, 12-Au) :   0.3189 B( 11-Au, 13-Au) :   0.3457 B( 11-Au, 15-Au) :   0.2120
B( 12-Au, 13-Au) :   0.3451 B( 13-Au, 14-Au) :   0.3412 B( 13-Au, 15-Au) :   0.3360
B( 14-Au, 15-Au) :   0.3320

FINAL SINGLE POINT ENERGY     -3324.557473775052

DIPOLE MOMENT
-------------
                                X             Y             Z
Electronic contribution:     -5.38400      87.34279     -50.23554
Nuclear contribution   :      5.38419     -87.96850      50.73733
                        -----------------------------------------
Total Dipole Moment    :      0.00020      -0.62571       0.50179
                        -----------------------------------------
Magnitude (a.u.)       :      0.80207
Magnitude (Debye)      :      2.03869

Rotational constants in cm-1:     0.000876     0.000748     0.000731
Rotational constants in MHz :    26.268852    22.437778    21.909043

                             ****ORCA TERMINATED NORMALLY****
TOTAL RUN TIME: 0 days 0 hours 16 minutes 11 seconds 736 msec
