                         Program Version 5.0.3 -  RELEASE  -
|  1> %pal nprocs 1 end
|  2>
|  3> !PBE def2-TZVP OPT UNO
|  4> !SLOWCONV KDIIS
|  5>
|  6> %geom maxiter 300 end
|  7>
|  8> *xyzfile 0 6 5.xyz                           ****END OF INPUT****
 Total Charge           Charge          ....    0
 Multiplicity           Mult            ....    6
 Number of Electrons    NEL             ....  253
FINAL SINGLE POINT ENERGY     -2780.703989723720
FINAL SINGLE POINT ENERGY     -2780.706374077750
FINAL SINGLE POINT ENERGY     -2780.707154646594
FINAL SINGLE POINT ENERGY     -2780.707829222384
FINAL SINGLE POINT ENERGY     -2780.708328072065
FINAL SINGLE POINT ENERGY     -2780.708551444543
FINAL SINGLE POINT ENERGY     -2780.708778036408
FINAL SINGLE POINT ENERGY     -2780.708948116026
FINAL SINGLE POINT ENERGY     -2780.709039217328
FINAL SINGLE POINT ENERGY     -2780.709079365431
FINAL SINGLE POINT ENERGY     -2780.709105706623
FINAL SINGLE POINT ENERGY     -2780.709127026685
FINAL SINGLE POINT ENERGY     -2780.709131973079
FINAL SINGLE POINT ENERGY     -2780.709136406540
FINAL SINGLE POINT ENERGY     -2780.709143721284
FINAL SINGLE POINT ENERGY     -2780.709150276311
FINAL SINGLE POINT ENERGY     -2780.709152457047
                    ***********************HURRAY********************

CARTESIAN COORDINATES (ANGSTROEM)
---------------------------------
  Au     4.221778    6.089088   10.318232
  Au     6.889952    5.805953    9.686201
  Au     5.356082    8.534752    9.757529
  Au     7.306878   10.263711    8.739357
  Au     9.364897    6.128694    8.889732
  Au     9.696299    9.257247    8.261620
  Au    11.427671    7.254093    7.519945
  Au     9.165124    7.002870    6.032347
  Au     4.912370    6.460587    7.730798
  Au     5.180101    9.330203    7.179742
  Au     6.598334    7.087206    5.512447
  Au     3.886020    7.581253    5.493793
  Mn     7.498078    7.769873    7.953511

 Multiplicity           Mult            ....    6
 Number of Electrons    NEL             ....  253
 Basis Dimension        Dim             ....  525

ORBITAL ENERGIES
----------------
                 SPIN UP ORBITALS
  NO   OCC          E(Eh)            E(eV)
   0   1.0000    -234.193752     -6372.7360
   1   1.0000     -26.891107      -731.7442
   2   1.0000     -23.040246      -626.9570
   3   1.0000     -23.039072      -626.9250
   4   1.0000     -23.038496      -626.9094
   5   1.0000      -4.039705      -109.9260
   6   1.0000      -4.030967      -109.6882
   7   1.0000      -4.030954      -109.6878
   8   1.0000      -4.029549      -109.6496
   9   1.0000      -4.029318      -109.6433
  10   1.0000      -4.028214      -109.6133
  11   1.0000      -4.027162      -109.5846
  12   1.0000      -4.027145      -109.5842
  13   1.0000      -4.015910      -109.2785
  14   1.0000      -4.015607      -109.2702
  15   1.0000      -4.015565      -109.2691
  16   1.0000      -4.008969      -109.0896
  17   1.0000      -3.102866       -84.4333
  18   1.0000      -2.259251       -61.4773
  19   1.0000      -2.252286       -61.2878
  20   1.0000      -2.249495       -61.2119
  21   1.0000      -2.249224       -61.2045
  22   1.0000      -2.248913       -61.1960
  23   1.0000      -2.248077       -61.1733
  24   1.0000      -2.246147       -61.1208
  25   1.0000      -2.245341       -61.0988
  26   1.0000      -2.245075       -61.0916
  27   1.0000      -2.243886       -61.0592
  28   1.0000      -2.243659       -61.0531
  29   1.0000      -2.243472       -61.0480
  30   1.0000      -2.242474       -61.0208
  31   1.0000      -2.241681       -60.9992
  32   1.0000      -2.241480       -60.9938
  33   1.0000      -2.239284       -60.9340
  34   1.0000      -2.238401       -60.9100
  35   1.0000      -2.238384       -60.9095
  36   1.0000      -2.237911       -60.8967
  37   1.0000      -2.236869       -60.8683
  38   1.0000      -2.236840       -60.8675
  39   1.0000      -2.236506       -60.8584
  40   1.0000      -2.236482       -60.8578
  41   1.0000      -2.236389       -60.8552
  42   1.0000      -2.235193       -60.8227
  43   1.0000      -2.234114       -60.7933
  44   1.0000      -2.231785       -60.7300
  45   1.0000      -2.229012       -60.6545
  46   1.0000      -2.228881       -60.6509
  47   1.0000      -2.227850       -60.6229
  48   1.0000      -2.226548       -60.5875
  49   1.0000      -2.225903       -60.5699
  50   1.0000      -2.221999       -60.4637
  51   1.0000      -2.221035       -60.4374
  52   1.0000      -2.220619       -60.4261
  53   1.0000      -2.214318       -60.2547
  54   1.0000      -2.007247       -54.6200
  55   1.0000      -2.004886       -54.5557
  56   1.0000      -2.004148       -54.5356
  57   1.0000      -0.423264       -11.5176
  58   1.0000      -0.392826       -10.6894
  59   1.0000      -0.385668       -10.4946
  60   1.0000      -0.380373       -10.3505
  61   1.0000      -0.371718       -10.1150
  62   1.0000      -0.369164       -10.0455
  63   1.0000      -0.362373        -9.8607
  64   1.0000      -0.359480        -9.7819
  65   1.0000      -0.356928        -9.7125
  66   1.0000      -0.350733        -9.5439
  67   1.0000      -0.343854        -9.3567
  68   1.0000      -0.341167        -9.2836
  69   1.0000      -0.340458        -9.2643
  70   1.0000      -0.336067        -9.1449
  71   1.0000      -0.334897        -9.1130
  72   1.0000      -0.334168        -9.0932
  73   1.0000      -0.331220        -9.0130
  74   1.0000      -0.327384        -8.9086
  75   1.0000      -0.327051        -8.8995
  76   1.0000      -0.325398        -8.8545
  77   1.0000      -0.322093        -8.7646
  78   1.0000      -0.315918        -8.5966
  79   1.0000      -0.314353        -8.5540
  80   1.0000      -0.314158        -8.5487
  81   1.0000      -0.309013        -8.4087
  82   1.0000      -0.307966        -8.3802
  83   1.0000      -0.306258        -8.3337
  84   1.0000      -0.297541        -8.0965
  85   1.0000      -0.297435        -8.0936
  86   1.0000      -0.295127        -8.0308
  87   1.0000      -0.293592        -7.9890
  88   1.0000      -0.291890        -7.9427
  89   1.0000      -0.290624        -7.9083
  90   1.0000      -0.288490        -7.8502
  91   1.0000      -0.284650        -7.7457
  92   1.0000      -0.283016        -7.7013
  93   1.0000      -0.282167        -7.6781
  94   1.0000      -0.282091        -7.6761
  95   1.0000      -0.279672        -7.6103
  96   1.0000      -0.279258        -7.5990
  97   1.0000      -0.278095        -7.5673
  98   1.0000      -0.276932        -7.5357
  99   1.0000      -0.273764        -7.4495
 100   1.0000      -0.273199        -7.4341
 101   1.0000      -0.271360        -7.3841
 102   1.0000      -0.269652        -7.3376
 103   1.0000      -0.267197        -7.2708
 104   1.0000      -0.266049        -7.2396
 105   1.0000      -0.265921        -7.2361
 106   1.0000      -0.264631        -7.2010
 107   1.0000      -0.261504        -7.1159
 108   1.0000      -0.259296        -7.0558
 109   1.0000      -0.257730        -7.0132
 110   1.0000      -0.255678        -6.9574
 111   1.0000      -0.255071        -6.9408
 112   1.0000      -0.253275        -6.8920
 113   1.0000      -0.252580        -6.8730
 114   1.0000      -0.250319        -6.8115
 115   1.0000      -0.250061        -6.8045
 116   1.0000      -0.246142        -6.6979
 117   1.0000      -0.246056        -6.6955
 118   1.0000      -0.244779        -6.6608
 119   1.0000      -0.243467        -6.6251
 120   1.0000      -0.242364        -6.5951
 121   1.0000      -0.237426        -6.4607
 122   1.0000      -0.235337        -6.4039
 123   1.0000      -0.234649        -6.3851
 124   1.0000      -0.229641        -6.2489
 125   1.0000      -0.229365        -6.2413
 126   1.0000      -0.216828        -5.9002
 127   1.0000      -0.202362        -5.5066
 128   1.0000      -0.188682        -5.1343
 129   0.0000      -0.159704        -4.3458
 130   0.0000      -0.151650        -4.1266
 131   0.0000      -0.135286        -3.6813
 132   0.0000      -0.132470        -3.6047
 133   0.0000      -0.125907        -3.4261

                 SPIN DOWN ORBITALS
  NO   OCC          E(Eh)            E(eV)
   0   1.0000    -234.192981     -6372.7150
   1   1.0000     -26.823242      -729.8975
   2   1.0000     -22.988355      -625.5450
   3   1.0000     -22.987634      -625.5253
   4   1.0000     -22.987158      -625.5124
   5   1.0000      -4.038929      -109.9048
   6   1.0000      -4.029551      -109.6497
   7   1.0000      -4.029544      -109.6495
   8   1.0000      -4.028786      -109.6288
   9   1.0000      -4.028560      -109.6227
  10   1.0000      -4.026990      -109.5800
  11   1.0000      -4.026974      -109.5795
  12   1.0000      -4.026769      -109.5740
  13   1.0000      -4.015685      -109.2723
  14   1.0000      -4.014169      -109.2311
  15   1.0000      -4.014121      -109.2298
  16   1.0000      -4.007388      -109.0466
  17   1.0000      -2.936072       -79.8946
  18   1.0000      -2.258328       -61.4522
  19   1.0000      -2.251094       -61.2554
  20   1.0000      -2.248461       -61.1837
  21   1.0000      -2.247848       -61.1670
  22   1.0000      -2.247744       -61.1642
  23   1.0000      -2.247657       -61.1618
  24   1.0000      -2.245387       -61.1001
  25   1.0000      -2.244025       -61.0630
  26   1.0000      -2.243222       -61.0412
  27   1.0000      -2.242900       -61.0324
  28   1.0000      -2.242760       -61.0286
  29   1.0000      -2.241960       -61.0068
  30   1.0000      -2.241269       -60.9880
  31   1.0000      -2.240711       -60.9728
  32   1.0000      -2.240607       -60.9700
  33   1.0000      -2.238457       -60.9115
  34   1.0000      -2.238154       -60.9033
  35   1.0000      -2.238082       -60.9013
  36   1.0000      -2.237193       -60.8771
  37   1.0000      -2.236587       -60.8606
  38   1.0000      -2.236537       -60.8593
  39   1.0000      -2.235449       -60.8297
  40   1.0000      -2.235441       -60.8294
  41   1.0000      -2.235097       -60.8201
  42   1.0000      -2.234171       -60.7949
  43   1.0000      -2.232544       -60.7506
  44   1.0000      -2.230534       -60.6959
  45   1.0000      -2.227697       -60.6187
  46   1.0000      -2.227291       -60.6077
  47   1.0000      -2.226913       -60.5974
  48   1.0000      -2.225891       -60.5696
  49   1.0000      -2.224544       -60.5329
  50   1.0000      -2.220129       -60.4128
  51   1.0000      -2.219796       -60.4037
  52   1.0000      -2.219474       -60.3949
  53   1.0000      -2.212989       -60.2185
  54   1.0000      -1.842132       -50.1270
  55   1.0000      -1.841613       -50.1128
  56   1.0000      -1.841230       -50.1024
  57   1.0000      -0.419267       -11.4088
  58   1.0000      -0.388018       -10.5585
  59   1.0000      -0.384208       -10.4548
  60   1.0000      -0.378203       -10.2914
  61   1.0000      -0.366707        -9.9786
  62   1.0000      -0.366122        -9.9627
  63   1.0000      -0.357986        -9.7413
  64   1.0000      -0.354853        -9.6560
  65   1.0000      -0.352488        -9.5917
  66   1.0000      -0.347843        -9.4653
  67   1.0000      -0.340952        -9.2778
  68   1.0000      -0.338598        -9.2137
  69   1.0000      -0.335286        -9.1236
  70   1.0000      -0.331817        -9.0292
  71   1.0000      -0.329693        -8.9714
  72   1.0000      -0.326827        -8.8934
  73   1.0000      -0.325928        -8.8689
  74   1.0000      -0.324032        -8.8173
  75   1.0000      -0.322250        -8.7689
  76   1.0000      -0.318536        -8.6678
  77   1.0000      -0.315710        -8.5909
  78   1.0000      -0.311279        -8.4703
  79   1.0000      -0.308107        -8.3840
  80   1.0000      -0.307150        -8.3580
  81   1.0000      -0.306057        -8.3282
  82   1.0000      -0.303649        -8.2627
  83   1.0000      -0.297456        -8.0942
  84   1.0000      -0.295004        -8.0275
  85   1.0000      -0.294121        -8.0034
  86   1.0000      -0.292905        -7.9704
  87   1.0000      -0.290202        -7.8968
  88   1.0000      -0.289760        -7.8848
  89   1.0000      -0.289099        -7.8668
  90   1.0000      -0.286710        -7.8018
  91   1.0000      -0.282122        -7.6769
  92   1.0000      -0.280686        -7.6379
  93   1.0000      -0.280190        -7.6244
  94   1.0000      -0.278462        -7.5773
  95   1.0000      -0.277201        -7.5430
  96   1.0000      -0.276586        -7.5263
  97   1.0000      -0.276208        -7.5160
  98   1.0000      -0.275171        -7.4878
  99   1.0000      -0.271747        -7.3946
 100   1.0000      -0.271354        -7.3839
 101   1.0000      -0.269366        -7.3298
 102   1.0000      -0.267036        -7.2664
 103   1.0000      -0.264683        -7.2024
 104   1.0000      -0.264207        -7.1894
 105   1.0000      -0.262578        -7.1451
 106   1.0000      -0.262083        -7.1316
 107   1.0000      -0.259516        -7.0618
 108   1.0000      -0.257949        -7.0191
 109   1.0000      -0.255886        -6.9630
 110   1.0000      -0.253058        -6.8861
 111   1.0000      -0.252324        -6.8661
 112   1.0000      -0.250998        -6.8300
 113   1.0000      -0.250318        -6.8115
 114   1.0000      -0.248257        -6.7554
 115   1.0000      -0.245262        -6.6739
 116   1.0000      -0.244952        -6.6655
 117   1.0000      -0.244605        -6.6560
 118   1.0000      -0.236521        -6.4361
 119   1.0000      -0.234512        -6.3814
 120   1.0000      -0.230669        -6.2768
 121   1.0000      -0.223639        -6.0855
 122   1.0000      -0.210713        -5.7338
 123   1.0000      -0.198220        -5.3938
 124   0.0000      -0.161936        -4.4065
 125   0.0000      -0.155268        -4.2251
 126   0.0000      -0.143732        -3.9111
 127   0.0000      -0.138328        -3.7641
 128   0.0000      -0.133163        -3.6236

MULLIKEN ATOMIC CHARGES AND SPIN POPULATIONS
--------------------------------------------
   0 Au:    0.441573    0.076103
   1 Au:    0.055602    0.048709
   2 Au:    0.038366    0.032767
   3 Au:    0.322026    0.063746
   4 Au:    0.069021    0.077730
   5 Au:    0.022048    0.108979
   6 Au:    0.379706    0.036277
   7 Au:    0.068019    0.077687
   8 Au:   -0.246040    0.006282
   9 Au:    0.037546    0.032828
  10 Au:    0.057260    0.048609
  11 Au:    0.440899    0.075946
  12 Mn:   -1.686026    4.314337
Sum of atomic charges         :   -0.0000000

LOEWDIN ATOMIC CHARGES AND SPIN POPULATIONS
-------------------------------------------
   0 Au:    0.133112    0.052809
   1 Au:    0.042005    0.060783
   2 Au:    0.004007    0.040920
   3 Au:    0.090070    0.066361
   4 Au:   -0.001937    0.070792
   5 Au:   -0.017403    0.089574
   6 Au:    0.069065    0.036806
   7 Au:   -0.001738    0.070748
   8 Au:   -0.112022    0.040975
   9 Au:    0.004111    0.041184
  10 Au:    0.042131    0.060576
  11 Au:    0.132961    0.052653
  12 Mn:   -0.384360    4.315819

  Mayer bond orders larger than 0.100000
B(  0-Au,  1-Au) :   0.2801 B(  0-Au,  2-Au) :   0.3200 B(  0-Au,  8-Au) :   0.4861
B(  1-Au,  2-Au) :   0.1021 B(  1-Au,  4-Au) :   0.5373 B(  1-Au,  8-Au) :   0.2751
B(  1-Au, 12-Mn) :   0.5373 B(  2-Au,  3-Au) :   0.2295 B(  2-Au,  8-Au) :   0.2185
B(  2-Au,  9-Au) :   0.4193 B(  2-Au, 12-Mn) :   0.3553 B(  3-Au,  5-Au) :   0.4635
B(  3-Au,  9-Au) :   0.2301 B(  3-Au, 12-Mn) :   0.5247 B(  4-Au,  6-Au) :   0.3683
B(  4-Au,  7-Au) :   0.1409 B(  4-Au, 12-Mn) :   0.5016 B(  5-Au,  6-Au) :   0.2942
B(  5-Au, 12-Mn) :   0.5181 B(  6-Au,  7-Au) :   0.3688 B(  7-Au, 10-Au) :   0.5366
B(  7-Au, 12-Mn) :   0.5018 B(  8-Au,  9-Au) :   0.2186 B(  8-Au, 10-Au) :   0.2755
B(  8-Au, 11-Au) :   0.4854 B(  8-Au, 12-Mn) :   0.2544 B(  9-Au, 10-Au) :   0.1014
B(  9-Au, 11-Au) :   0.3212 B(  9-Au, 12-Mn) :   0.3565 B( 10-Au, 11-Au) :   0.2793
B( 10-Au, 12-Mn) :   0.5363

FINAL SINGLE POINT ENERGY     -2780.709152989115

DIPOLE MOMENT
-------------
                                X             Y             Z
Electronic contribution:    -18.96386      -7.49304      -0.93856
Nuclear contribution   :     18.10463       7.40633       0.97138
                        -----------------------------------------
Total Dipole Moment    :     -0.85923      -0.08671       0.03282
                        -----------------------------------------
Magnitude (a.u.)       :      0.86422
Magnitude (Debye)      :      2.19668

Rotational constants in cm-1:     0.001608     0.000971     0.000892
Rotational constants in MHz :    48.220335    29.112370    26.737410

                             ****ORCA TERMINATED NORMALLY****
TOTAL RUN TIME: 0 days 2 hours 44 minutes 4 seconds 104 msec
