                         Program Version 5.0.3 -  RELEASE  -
|  1> !RI-B2PLYP def2-TZVP def2-TZVP/C
|  2> !RIJCOSX VERYSLOWCONV
|  3>
|  4> %scf
|  5>   AutoTRAHIter 200
|  6>   maxiter 400
|  7> end
|  8>
|  9>
| 10> %pal nprocs 6 end
| 11>
| 12> *xyzfile 0 6 pbe.xyz
| 13>
| 14> $new_job
| 15>
| 16> !RI-B2PLYP def2-TZVP def2-TZVP/C
| 17> !RIJCOSX VERYSLOWCONV
| 18>
| 19> %scf
| 20>   AutoTRAHIter 200
| 21>   maxiter 400
| 22> end
| 23>
| 24>
| 25> %pal nprocs 6 end
| 26>
| 27> *xyzfile 0 4 pbe.xyz
| 28>
| 29>
| 30>
| 31>
| 32>
| 33>                          ****END OF INPUT****
 Total Charge           Charge          ....    0
 Multiplicity           Mult            ....    6
 Number of Electrons    NEL             ....  329
MP2 TOTAL ENERGY:    -3320.325614821 Eh
FINAL SINGLE POINT ENERGY     -3320.325614821498

CARTESIAN COORDINATES (ANGSTROEM)
---------------------------------
  Au     9.066252    6.810736    8.556787
  Au     9.000919    9.511091    7.546276
  Au     7.916612    9.616141    4.962143
  Au     9.043649    7.265093    5.844002
  Au     6.368438   10.988417    6.857036
  Au     7.756942   11.384502    9.194946
  Au     6.439604    6.700014    9.547191
  Au     5.582964    9.650762    9.453358
  Au     3.877062    9.764245    7.242295
  Au     3.867892    7.583181    8.918145
  Au     4.697005    5.098051    8.013328
  Au     5.175760    9.368957    4.846374
  Au     4.180812    7.086663    6.137360
  Au     7.186386    5.476470    6.955020
  Au     8.120389    8.800522   10.178319
  Au     6.557762    6.954462    4.642405
  Mn     6.530586    8.205715    7.181047

 Multiplicity           Mult            ....    4
 Number of Electrons    NEL             ....  329
 Basis Dimension        Dim             ....  685

ORBITAL ENERGIES
----------------
                 SPIN UP ORBITALS
  NO   OCC          E(Eh)            E(eV)
   0   1.0000    -237.636880     -6466.4283
   1   1.0000     -28.137588      -765.6627
   2   1.0000     -24.055838      -654.5926
   3   1.0000     -24.055511      -654.5837
   4   1.0000     -24.055250      -654.5766
   5   1.0000      -4.412940      -120.0822
   6   1.0000      -4.412362      -120.0665
   7   1.0000      -4.411300      -120.0376
   8   1.0000      -4.410594      -120.0184
   9   1.0000      -4.405067      -119.8680
  10   1.0000      -4.404471      -119.8517
  11   1.0000      -4.404238      -119.8454
  12   1.0000      -4.404096      -119.8415
  13   1.0000      -4.403756      -119.8323
  14   1.0000      -4.403250      -119.8185
  15   1.0000      -4.402799      -119.8063
  16   1.0000      -4.402405      -119.7955
  17   1.0000      -4.401544      -119.7721
  18   1.0000      -4.400147      -119.7341
  19   1.0000      -4.395552      -119.6091
  20   1.0000      -4.393501      -119.5532
  21   1.0000      -3.616472       -98.4092
  22   1.0000      -2.532467       -68.9119
  23   1.0000      -2.532104       -68.9021
  24   1.0000      -2.531399       -68.8829
  25   1.0000      -2.531262       -68.8791
  26   1.0000      -2.530611       -68.8614
  27   1.0000      -2.529862       -68.8411
  28   1.0000      -2.529603       -68.8340
  29   1.0000      -2.529482       -68.8307
  30   1.0000      -2.528937       -68.8159
  31   1.0000      -2.528198       -68.7958
  32   1.0000      -2.527372       -68.7733
  33   1.0000      -2.526536       -68.7505
  34   1.0000      -2.525587       -68.7247
  35   1.0000      -2.525134       -68.7124
  36   1.0000      -2.524575       -68.6972
  37   1.0000      -2.524058       -68.6831
  38   1.0000      -2.523311       -68.6628
  39   1.0000      -2.522497       -68.6406
  40   1.0000      -2.521984       -68.6267
  41   1.0000      -2.521810       -68.6219
  42   1.0000      -2.521572       -68.6155
  43   1.0000      -2.521497       -68.6134
  44   1.0000      -2.521114       -68.6030
  45   1.0000      -2.521048       -68.6012
  46   1.0000      -2.520711       -68.5920
  47   1.0000      -2.520481       -68.5858
  48   1.0000      -2.520022       -68.5733
  49   1.0000      -2.519887       -68.5696
  50   1.0000      -2.519701       -68.5645
  51   1.0000      -2.519039       -68.5465
  52   1.0000      -2.518814       -68.5404
  53   1.0000      -2.518703       -68.5374
  54   1.0000      -2.518230       -68.5245
  55   1.0000      -2.517937       -68.5165
  56   1.0000      -2.517823       -68.5135
  57   1.0000      -2.517576       -68.5067
  58   1.0000      -2.517294       -68.4990
  59   1.0000      -2.516870       -68.4875
  60   1.0000      -2.516779       -68.4850
  61   1.0000      -2.516146       -68.4678
  62   1.0000      -2.515899       -68.4611
  63   1.0000      -2.514975       -68.4360
  64   1.0000      -2.512686       -68.3737
  65   1.0000      -2.511967       -68.3541
  66   1.0000      -2.511050       -68.3291
  67   1.0000      -2.510736       -68.3206
  68   1.0000      -2.509728       -68.2932
  69   1.0000      -2.509374       -68.2835
  70   1.0000      -2.418775       -65.8182
  71   1.0000      -2.418705       -65.8163
  72   1.0000      -2.418393       -65.8078
  73   1.0000      -0.522574       -14.2200
  74   1.0000      -0.522029       -14.2051
  75   1.0000      -0.521427       -14.1887
  76   1.0000      -0.520376       -14.1602
  77   1.0000      -0.517538       -14.0829
  78   1.0000      -0.513280       -13.9671
  79   1.0000      -0.478556       -13.0222
  80   1.0000      -0.476629       -12.9697
  81   1.0000      -0.475136       -12.9291
  82   1.0000      -0.471575       -12.8322
  83   1.0000      -0.469583       -12.7780
  84   1.0000      -0.468842       -12.7578
  85   1.0000      -0.468149       -12.7390
  86   1.0000      -0.465470       -12.6661
  87   1.0000      -0.464567       -12.6415
  88   1.0000      -0.463318       -12.6075
  89   1.0000      -0.461774       -12.5655
  90   1.0000      -0.460722       -12.5369
  91   1.0000      -0.460666       -12.5354
  92   1.0000      -0.460279       -12.5248
  93   1.0000      -0.459216       -12.4959
  94   1.0000      -0.456423       -12.4199
  95   1.0000      -0.456024       -12.4090
  96   1.0000      -0.453677       -12.3452
  97   1.0000      -0.453303       -12.3350
  98   1.0000      -0.450697       -12.2641
  99   1.0000      -0.446775       -12.1574
 100   1.0000      -0.445188       -12.1142
 101   1.0000      -0.443292       -12.0626
 102   1.0000      -0.440519       -11.9871
 103   1.0000      -0.440047       -11.9743
 104   1.0000      -0.438363       -11.9285
 105   1.0000      -0.436103       -11.8670
 106   1.0000      -0.433056       -11.7841
 107   1.0000      -0.431882       -11.7521
 108   1.0000      -0.428764       -11.6673
 109   1.0000      -0.427405       -11.6303
 110   1.0000      -0.424853       -11.5608
 111   1.0000      -0.420746       -11.4491
 112   1.0000      -0.418632       -11.3916
 113   1.0000      -0.417425       -11.3587
 114   1.0000      -0.414205       -11.2711
 115   1.0000      -0.406724       -11.0675
 116   1.0000      -0.405367       -11.0306
 117   1.0000      -0.401069       -10.9137
 118   1.0000      -0.396220       -10.7817
 119   1.0000      -0.391393       -10.6503
 120   1.0000      -0.389495       -10.5987
 121   1.0000      -0.386533       -10.5181
 122   1.0000      -0.383836       -10.4447
 123   1.0000      -0.382829       -10.4173
 124   1.0000      -0.381499       -10.3811
 125   1.0000      -0.380747       -10.3606
 126   1.0000      -0.378760       -10.3066
 127   1.0000      -0.377489       -10.2720
 128   1.0000      -0.376143       -10.2354
 129   1.0000      -0.375037       -10.2053
 130   1.0000      -0.373939       -10.1754
 131   1.0000      -0.373623       -10.1668
 132   1.0000      -0.371881       -10.1194
 133   1.0000      -0.371235       -10.1018
 134   1.0000      -0.370700       -10.0873
 135   1.0000      -0.370190       -10.0734
 136   1.0000      -0.369218       -10.0469
 137   1.0000      -0.368136       -10.0175
 138   1.0000      -0.365496        -9.9457
 139   1.0000      -0.363933        -9.9031
 140   1.0000      -0.363137        -9.8815
 141   1.0000      -0.360802        -9.8179
 142   1.0000      -0.360370        -9.8062
 143   1.0000      -0.359056        -9.7704
 144   1.0000      -0.358226        -9.7478
 145   1.0000      -0.356271        -9.6946
 146   1.0000      -0.350457        -9.5364
 147   1.0000      -0.349080        -9.4990
 148   1.0000      -0.348553        -9.4846
 149   1.0000      -0.347732        -9.4623
 150   1.0000      -0.346658        -9.4330
 151   1.0000      -0.345845        -9.4109
 152   1.0000      -0.345090        -9.3904
 153   1.0000      -0.342726        -9.3260
 154   1.0000      -0.336435        -9.1549
 155   1.0000      -0.334220        -9.0946
 156   1.0000      -0.328328        -8.9343
 157   1.0000      -0.326503        -8.8846
 158   1.0000      -0.325761        -8.8644
 159   1.0000      -0.323050        -8.7907
 160   1.0000      -0.321122        -8.7382
 161   1.0000      -0.319953        -8.7064
 162   1.0000      -0.249681        -6.7942
 163   1.0000      -0.244011        -6.6399
 164   1.0000      -0.230097        -6.2613
 165   1.0000      -0.224009        -6.0956
 166   0.0000      -0.148431        -4.0390
 167   0.0000      -0.097778        -2.6607
 168   0.0000      -0.077643        -2.1128
 169   0.0000      -0.068281        -1.8580
 170   0.0000      -0.063084        -1.7166

                 SPIN DOWN ORBITALS
  NO   OCC          E(Eh)            E(eV)
   0   1.0000    -237.635312     -6466.3856
   1   1.0000     -28.036077      -762.9005
   2   1.0000     -23.962704      -652.0583
   3   1.0000     -23.961993      -652.0390
   4   1.0000     -23.961570      -652.0275
   5   1.0000      -4.413350      -120.0934
   6   1.0000      -4.413257      -120.0908
   7   1.0000      -4.411876      -120.0533
   8   1.0000      -4.411091      -120.0319
   9   1.0000      -4.405421      -119.8776
  10   1.0000      -4.405379      -119.8764
  11   1.0000      -4.404662      -119.8569
  12   1.0000      -4.404488      -119.8522
  13   1.0000      -4.404278      -119.8465
  14   1.0000      -4.403298      -119.8198
  15   1.0000      -4.403256      -119.8187
  16   1.0000      -4.403083      -119.8140
  17   1.0000      -4.402727      -119.8043
  18   1.0000      -4.400500      -119.7437
  19   1.0000      -4.396918      -119.6462
  20   1.0000      -4.394956      -119.5928
  21   1.0000      -3.330867       -90.6375
  22   1.0000      -2.533129       -68.9299
  23   1.0000      -2.532539       -68.9139
  24   1.0000      -2.531929       -68.8973
  25   1.0000      -2.531461       -68.8846
  26   1.0000      -2.530310       -68.8532
  27   1.0000      -2.530211       -68.8506
  28   1.0000      -2.529663       -68.8356
  29   1.0000      -2.529351       -68.8271
  30   1.0000      -2.529108       -68.8205
  31   1.0000      -2.528179       -68.7952
  32   1.0000      -2.527337       -68.7723
  33   1.0000      -2.526704       -68.7551
  34   1.0000      -2.525897       -68.7332
  35   1.0000      -2.525588       -68.7247
  36   1.0000      -2.524938       -68.7071
  37   1.0000      -2.524282       -68.6892
  38   1.0000      -2.523534       -68.6689
  39   1.0000      -2.522757       -68.6477
  40   1.0000      -2.522555       -68.6422
  41   1.0000      -2.522182       -68.6321
  42   1.0000      -2.521957       -68.6259
  43   1.0000      -2.521885       -68.6240
  44   1.0000      -2.521624       -68.6169
  45   1.0000      -2.521539       -68.6146
  46   1.0000      -2.521402       -68.6108
  47   1.0000      -2.520963       -68.5989
  48   1.0000      -2.520834       -68.5954
  49   1.0000      -2.520250       -68.5795
  50   1.0000      -2.519830       -68.5681
  51   1.0000      -2.519711       -68.5648
  52   1.0000      -2.519607       -68.5620
  53   1.0000      -2.519174       -68.5502
  54   1.0000      -2.518727       -68.5380
  55   1.0000      -2.518537       -68.5329
  56   1.0000      -2.518526       -68.5326
  57   1.0000      -2.518268       -68.5256
  58   1.0000      -2.518004       -68.5184
  59   1.0000      -2.517670       -68.5093
  60   1.0000      -2.517305       -68.4993
  61   1.0000      -2.516914       -68.4887
  62   1.0000      -2.516007       -68.4640
  63   1.0000      -2.515213       -68.4424
  64   1.0000      -2.514350       -68.4189
  65   1.0000      -2.513612       -68.3989
  66   1.0000      -2.512542       -68.3697
  67   1.0000      -2.512087       -68.3574
  68   1.0000      -2.511270       -68.3351
  69   1.0000      -2.510432       -68.3123
  70   1.0000      -2.091563       -56.9143
  71   1.0000      -2.090711       -56.8911
  72   1.0000      -2.089843       -56.8675
  73   1.0000      -0.518013       -14.0958
  74   1.0000      -0.482410       -13.1271
  75   1.0000      -0.480257       -13.0685
  76   1.0000      -0.479102       -13.0370
  77   1.0000      -0.475928       -12.9507
  78   1.0000      -0.474558       -12.9134
  79   1.0000      -0.472540       -12.8585
  80   1.0000      -0.470735       -12.8093
  81   1.0000      -0.470564       -12.8047
  82   1.0000      -0.470042       -12.7905
  83   1.0000      -0.468688       -12.7537
  84   1.0000      -0.467301       -12.7159
  85   1.0000      -0.465015       -12.6537
  86   1.0000      -0.463811       -12.6209
  87   1.0000      -0.463441       -12.6109
  88   1.0000      -0.463082       -12.6011
  89   1.0000      -0.462121       -12.5750
  90   1.0000      -0.460989       -12.5442
  91   1.0000      -0.460058       -12.5188
  92   1.0000      -0.458828       -12.4853
  93   1.0000      -0.458015       -12.4632
  94   1.0000      -0.454463       -12.3666
  95   1.0000      -0.452461       -12.3121
  96   1.0000      -0.451039       -12.2734
  97   1.0000      -0.449112       -12.2209
  98   1.0000      -0.447365       -12.1734
  99   1.0000      -0.442921       -12.0525
 100   1.0000      -0.438943       -11.9442
 101   1.0000      -0.436770       -11.8851
 102   1.0000      -0.434747       -11.8301
 103   1.0000      -0.431668       -11.7463
 104   1.0000      -0.429807       -11.6957
 105   1.0000      -0.427754       -11.6398
 106   1.0000      -0.423425       -11.5220
 107   1.0000      -0.422607       -11.4997
 108   1.0000      -0.420821       -11.4511
 109   1.0000      -0.417697       -11.3661
 110   1.0000      -0.409323       -11.1383
 111   1.0000      -0.408246       -11.1089
 112   1.0000      -0.403494       -10.9796
 113   1.0000      -0.402675       -10.9574
 114   1.0000      -0.397696       -10.8219
 115   1.0000      -0.396375       -10.7859
 116   1.0000      -0.392084       -10.6691
 117   1.0000      -0.389598       -10.6015
 118   1.0000      -0.385326       -10.4852
 119   1.0000      -0.383997       -10.4491
 120   1.0000      -0.382896       -10.4191
 121   1.0000      -0.382802       -10.4166
 122   1.0000      -0.382004       -10.3948
 123   1.0000      -0.379146       -10.3171
 124   1.0000      -0.378733       -10.3058
 125   1.0000      -0.377139       -10.2625
 126   1.0000      -0.375632       -10.2215
 127   1.0000      -0.374315       -10.1856
 128   1.0000      -0.372900       -10.1471
 129   1.0000      -0.372691       -10.1414
 130   1.0000      -0.372011       -10.1229
 131   1.0000      -0.371457       -10.1078
 132   1.0000      -0.370058       -10.0698
 133   1.0000      -0.367770       -10.0075
 134   1.0000      -0.366427        -9.9710
 135   1.0000      -0.365756        -9.9527
 136   1.0000      -0.364151        -9.9091
 137   1.0000      -0.362413        -9.8618
 138   1.0000      -0.361478        -9.8363
 139   1.0000      -0.360590        -9.8121
 140   1.0000      -0.357962        -9.7406
 141   1.0000      -0.352987        -9.6053
 142   1.0000      -0.351523        -9.5654
 143   1.0000      -0.351043        -9.5524
 144   1.0000      -0.350337        -9.5331
 145   1.0000      -0.348850        -9.4927
 146   1.0000      -0.347772        -9.4633
 147   1.0000      -0.346736        -9.4352
 148   1.0000      -0.345182        -9.3929
 149   1.0000      -0.338584        -9.2133
 150   1.0000      -0.336948        -9.1688
 151   1.0000      -0.333151        -9.0655
 152   1.0000      -0.330330        -8.9887
 153   1.0000      -0.329700        -8.9716
 154   1.0000      -0.327244        -8.9048
 155   1.0000      -0.324842        -8.8394
 156   1.0000      -0.322990        -8.7890
 157   1.0000      -0.259912        -7.0726
 158   1.0000      -0.254648        -6.9293
 159   1.0000      -0.244079        -6.6417
 160   1.0000      -0.240473        -6.5436
 161   1.0000      -0.236178        -6.4267
 162   1.0000      -0.167815        -4.5665
 163   0.0000      -0.081775        -2.2252
 164   0.0000      -0.074627        -2.0307
 165   0.0000      -0.073054        -1.9879
 166   0.0000      -0.070302        -1.9130
 167   0.0000      -0.064087        -1.7439

MULLIKEN ATOMIC CHARGES AND SPIN POPULATIONS
--------------------------------------------
   0 Au:    0.168520   -0.093697
   1 Au:   -0.030478   -0.175128
   2 Au:    0.232409   -0.077485
   3 Au:    0.235236   -0.124451
   4 Au:   -0.003228    0.058519
   5 Au:    0.348403   -0.188042
   6 Au:   -0.061648   -0.037007
   7 Au:   -0.104013   -0.038798
   8 Au:    0.206343   -0.080960
   9 Au:    0.186406   -0.106727
  10 Au:    0.333258   -0.131273
  11 Au:    0.251084   -0.116813
  12 Au:    0.102657   -0.193942
  13 Au:    0.022868    0.046180
  14 Au:    0.200444   -0.116665
  15 Au:    0.254443   -0.037093
  16 Mn:   -2.342704    4.413385
Sum of atomic charges         :   -0.0000000

LOEWDIN ATOMIC CHARGES AND SPIN POPULATIONS
-------------------------------------------
   0 Au:    0.037317   -0.103220
   1 Au:   -0.004932   -0.119883
   2 Au:    0.032492   -0.093063
   3 Au:    0.008546   -0.128759
   4 Au:   -0.027028   -0.019392
   5 Au:    0.079540   -0.156060
   6 Au:   -0.027028   -0.058188
   7 Au:   -0.041127   -0.068127
   8 Au:    0.039689   -0.090101
   9 Au:    0.012925   -0.138481
  10 Au:    0.077419   -0.130229
  11 Au:    0.011476   -0.120813
  12 Au:    0.015961   -0.126172
  13 Au:   -0.021982   -0.020196
  14 Au:    0.009650   -0.147602
  15 Au:    0.040602   -0.064357
  16 Mn:   -0.243519    4.584644

  Mayer bond orders larger than 0.100000
B(  0-Au,  1-Au) :   0.1430 B(  0-Au,  3-Au) :   0.2176 B(  0-Au,  6-Au) :   0.2470
B(  0-Au, 13-Au) :   0.2254 B(  0-Au, 14-Au) :   0.2366 B(  0-Au, 16-Mn) :   0.2633
B(  1-Au,  2-Au) :   0.2287 B(  1-Au,  3-Au) :   0.1808 B(  1-Au,  4-Au) :   0.1622
B(  1-Au,  5-Au) :   0.2146 B(  1-Au,  7-Au) :   0.1120 B(  1-Au, 14-Au) :   0.1989
B(  1-Au, 16-Mn) :   0.4019 B(  2-Au,  3-Au) :   0.2181 B(  2-Au,  4-Au) :   0.1499
B(  2-Au, 11-Au) :   0.2287 B(  2-Au, 16-Mn) :   0.3122 B(  3-Au, 13-Au) :   0.2062
B(  3-Au, 15-Au) :   0.2048 B(  3-Au, 16-Mn) :   0.2321 B(  4-Au,  5-Au) :   0.2549
B(  4-Au,  7-Au) :   0.1486 B(  4-Au,  8-Au) :   0.2081 B(  4-Au, 11-Au) :   0.1994
B(  4-Au, 16-Mn) :   0.3821 B(  5-Au,  7-Au) :   0.2940 B(  5-Au, 14-Au) :   0.2614
B(  6-Au,  7-Au) :   0.1103 B(  6-Au,  9-Au) :   0.2210 B(  6-Au, 10-Au) :   0.2836
B(  6-Au, 13-Au) :   0.1393 B(  6-Au, 14-Au) :   0.2694 B(  6-Au, 16-Mn) :   0.3915
B(  7-Au,  8-Au) :   0.2294 B(  7-Au,  9-Au) :   0.2877 B(  7-Au, 14-Au) :   0.2404
B(  7-Au, 16-Mn) :   0.3828 B(  8-Au,  9-Au) :   0.2104 B(  8-Au, 11-Au) :   0.2195
B(  8-Au, 12-Au) :   0.1196 B(  8-Au, 16-Mn) :   0.2911 B(  9-Au, 10-Au) :   0.2636
B(  9-Au, 12-Au) :   0.1866 B(  9-Au, 16-Mn) :   0.1876 B( 10-Au, 12-Au) :   0.2113
B( 10-Au, 13-Au) :   0.2670 B( 11-Au, 12-Au) :   0.1816 B( 11-Au, 15-Au) :   0.1764
B( 11-Au, 16-Mn) :   0.2507 B( 12-Au, 13-Au) :   0.1039 B( 12-Au, 15-Au) :   0.2196
B( 12-Au, 16-Mn) :   0.3838 B( 13-Au, 15-Au) :   0.1258 B( 13-Au, 16-Mn) :   0.3701
B( 14-Au, 16-Mn) :   0.1312 B( 15-Au, 16-Mn) :   0.3950

MP2 TOTAL ENERGY:    -3320.272147523 Eh
FINAL SINGLE POINT ENERGY     -3320.272147523071

DIPOLE MOMENT
-------------
                                X             Y             Z
Electronic contribution:      0.75558       1.67838       9.05645
Nuclear contribution   :     -0.79830      -1.75603      -9.14356
                        -----------------------------------------
Total Dipole Moment    :     -0.04272      -0.07764      -0.08711
                        -----------------------------------------
Magnitude (a.u.)       :      0.12426
Magnitude (Debye)      :      0.31585

Rotational constants in cm-1:     0.000904     0.000815     0.000811
Rotational constants in MHz :    27.113646    24.438174    24.322988

                             ****ORCA TERMINATED NORMALLY****
TOTAL RUN TIME: 0 days 1 hours 32 minutes 48 seconds 961 msec
