                         Program Version 5.0.3 -  RELEASE  -
|  1> !PBE def2-TZVP VERYSLOWCONV
|  2> !KDIIS
|  3>
|  4> %scf
|  5>   AutoTRAHIter 200
|  6>   maxiter 400
|  7> end
|  8>
|  9>
| 10> %pal nprocs 6 end
| 11>
| 12> *xyzfile 0 6 pbe.xyz
| 13>
| 14> $new_job
| 15>
| 16> !PBE def2-TZVP VERYSLOWCONV
| 17> !KDIIS
| 18>
| 19> %scf
| 20>   AutoTRAHIter 200
| 21>   maxiter 400
| 22> end
| 23>
| 24>
| 25> %pal nprocs 6 end
| 26>
| 27> *xyzfile 0 4 pbe.xyz
| 28>
| 29>
| 30>
| 31>
| 32>
| 33>                          ****END OF INPUT****
 Total Charge           Charge          ....    0
 Multiplicity           Mult            ....    6
 Number of Electrons    NEL             ....  329
FINAL SINGLE POINT ENERGY     -3324.079615520698

CARTESIAN COORDINATES (ANGSTROEM)
---------------------------------
  Au     9.066252    6.810736    8.556787
  Au     9.000919    9.511091    7.546276
  Au     7.916612    9.616141    4.962143
  Au     9.043649    7.265093    5.844002
  Au     6.368438   10.988417    6.857036
  Au     7.756942   11.384502    9.194946
  Au     6.439604    6.700014    9.547191
  Au     5.582964    9.650762    9.453358
  Au     3.877062    9.764245    7.242295
  Au     3.867892    7.583181    8.918145
  Au     4.697005    5.098051    8.013328
  Au     5.175760    9.368957    4.846374
  Au     4.180812    7.086663    6.137360
  Au     7.186386    5.476470    6.955020
  Au     8.120389    8.800522   10.178319
  Au     6.557762    6.954462    4.642405
  Mn     6.530586    8.205715    7.181047

 Multiplicity           Mult            ....    4
 Number of Electrons    NEL             ....  329
 Basis Dimension        Dim             ....  685

ORBITAL ENERGIES
----------------
                 SPIN UP ORBITALS
  NO   OCC          E(Eh)            E(eV)
   0   1.0000    -234.209643     -6373.1684
   1   1.0000     -26.902535      -732.0552
   2   1.0000     -23.051951      -627.2755
   3   1.0000     -23.051315      -627.2582
   4   1.0000     -23.049896      -627.2195
   5   1.0000      -4.041777      -109.9823
   6   1.0000      -4.039435      -109.9186
   7   1.0000      -4.038778      -109.9007
   8   1.0000      -4.037445      -109.8645
   9   1.0000      -4.034924      -109.7959
  10   1.0000      -4.034893      -109.7950
  11   1.0000      -4.034803      -109.7926
  12   1.0000      -4.034709      -109.7900
  13   1.0000      -4.034473      -109.7836
  14   1.0000      -4.032495      -109.7298
  15   1.0000      -4.032019      -109.7168
  16   1.0000      -4.031400      -109.7000
  17   1.0000      -4.031254      -109.6960
  18   1.0000      -4.029271      -109.6420
  19   1.0000      -4.026366      -109.5630
  20   1.0000      -4.024393      -109.5093
  21   1.0000      -3.112966       -84.7081
  22   1.0000      -2.257591       -61.4322
  23   1.0000      -2.256293       -61.3969
  24   1.0000      -2.254037       -61.3355
  25   1.0000      -2.253906       -61.3319
  26   1.0000      -2.253042       -61.3084
  27   1.0000      -2.252895       -61.3044
  28   1.0000      -2.251655       -61.2706
  29   1.0000      -2.251180       -61.2577
  30   1.0000      -2.250882       -61.2496
  31   1.0000      -2.250847       -61.2487
  32   1.0000      -2.250634       -61.2429
  33   1.0000      -2.250571       -61.2412
  34   1.0000      -2.250514       -61.2396
  35   1.0000      -2.250065       -61.2274
  36   1.0000      -2.249708       -61.2177
  37   1.0000      -2.249596       -61.2146
  38   1.0000      -2.248880       -61.1951
  39   1.0000      -2.247961       -61.1701
  40   1.0000      -2.247635       -61.1613
  41   1.0000      -2.247480       -61.1570
  42   1.0000      -2.247336       -61.1531
  43   1.0000      -2.247025       -61.1447
  44   1.0000      -2.246763       -61.1375
  45   1.0000      -2.246730       -61.1366
  46   1.0000      -2.246657       -61.1347
  47   1.0000      -2.246259       -61.1238
  48   1.0000      -2.246147       -61.1208
  49   1.0000      -2.245440       -61.1015
  50   1.0000      -2.245037       -61.0906
  51   1.0000      -2.244627       -61.0794
  52   1.0000      -2.244444       -61.0744
  53   1.0000      -2.244359       -61.0721
  54   1.0000      -2.244165       -61.0668
  55   1.0000      -2.243966       -61.0614
  56   1.0000      -2.243565       -61.0505
  57   1.0000      -2.243357       -61.0448
  58   1.0000      -2.242877       -61.0318
  59   1.0000      -2.242684       -61.0265
  60   1.0000      -2.242117       -61.0111
  61   1.0000      -2.241208       -60.9864
  62   1.0000      -2.241037       -60.9817
  63   1.0000      -2.240335       -60.9626
  64   1.0000      -2.239785       -60.9476
  65   1.0000      -2.239115       -60.9294
  66   1.0000      -2.237524       -60.8861
  67   1.0000      -2.237453       -60.8842
  68   1.0000      -2.236887       -60.8688
  69   1.0000      -2.236033       -60.8456
  70   1.0000      -2.017438       -54.8973
  71   1.0000      -2.016502       -54.8718
  72   1.0000      -2.012746       -54.7696
  73   1.0000      -0.441707       -12.0195
  74   1.0000      -0.399364       -10.8673
  75   1.0000      -0.398785       -10.8515
  76   1.0000      -0.393903       -10.7186
  77   1.0000      -0.382938       -10.4203
  78   1.0000      -0.380576       -10.3560
  79   1.0000      -0.378305       -10.2942
  80   1.0000      -0.376003       -10.2316
  81   1.0000      -0.375915       -10.2292
  82   1.0000      -0.373212       -10.1556
  83   1.0000      -0.367821       -10.0089
  84   1.0000      -0.366684        -9.9780
  85   1.0000      -0.362847        -9.8736
  86   1.0000      -0.360948        -9.8219
  87   1.0000      -0.360061        -9.7978
  88   1.0000      -0.357897        -9.7389
  89   1.0000      -0.357295        -9.7225
  90   1.0000      -0.355922        -9.6851
  91   1.0000      -0.355548        -9.6749
  92   1.0000      -0.353846        -9.6287
  93   1.0000      -0.353378        -9.6159
  94   1.0000      -0.350833        -9.5467
  95   1.0000      -0.348955        -9.4956
  96   1.0000      -0.348335        -9.4787
  97   1.0000      -0.346904        -9.4397
  98   1.0000      -0.343884        -9.3576
  99   1.0000      -0.340194        -9.2571
 100   1.0000      -0.338673        -9.2158
 101   1.0000      -0.336886        -9.1671
 102   1.0000      -0.334878        -9.1125
 103   1.0000      -0.333075        -9.0634
 104   1.0000      -0.329762        -8.9733
 105   1.0000      -0.327688        -8.9168
 106   1.0000      -0.324514        -8.8305
 107   1.0000      -0.323576        -8.8049
 108   1.0000      -0.319924        -8.7056
 109   1.0000      -0.319769        -8.7014
 110   1.0000      -0.315585        -8.5875
 111   1.0000      -0.311261        -8.4699
 112   1.0000      -0.310035        -8.4365
 113   1.0000      -0.305523        -8.3137
 114   1.0000      -0.304164        -8.2767
 115   1.0000      -0.302049        -8.2192
 116   1.0000      -0.298987        -8.1359
 117   1.0000      -0.293456        -7.9854
 118   1.0000      -0.292962        -7.9719
 119   1.0000      -0.291967        -7.9448
 120   1.0000      -0.289363        -7.8740
 121   1.0000      -0.288327        -7.8458
 122   1.0000      -0.286552        -7.7975
 123   1.0000      -0.284466        -7.7407
 124   1.0000      -0.282357        -7.6833
 125   1.0000      -0.281388        -7.6570
 126   1.0000      -0.280935        -7.6446
 127   1.0000      -0.279902        -7.6165
 128   1.0000      -0.278405        -7.5758
 129   1.0000      -0.277753        -7.5580
 130   1.0000      -0.277034        -7.5385
 131   1.0000      -0.275793        -7.5047
 132   1.0000      -0.275017        -7.4836
 133   1.0000      -0.272955        -7.4275
 134   1.0000      -0.272007        -7.4017
 135   1.0000      -0.271362        -7.3841
 136   1.0000      -0.270601        -7.3634
 137   1.0000      -0.268839        -7.3155
 138   1.0000      -0.267047        -7.2667
 139   1.0000      -0.265595        -7.2272
 140   1.0000      -0.264910        -7.2086
 141   1.0000      -0.263866        -7.1802
 142   1.0000      -0.261636        -7.1195
 143   1.0000      -0.261046        -7.1034
 144   1.0000      -0.260681        -7.0935
 145   1.0000      -0.259528        -7.0621
 146   1.0000      -0.257929        -7.0186
 147   1.0000      -0.257107        -6.9962
 148   1.0000      -0.256564        -6.9815
 149   1.0000      -0.255157        -6.9432
 150   1.0000      -0.253645        -6.9020
 151   1.0000      -0.253079        -6.8866
 152   1.0000      -0.252583        -6.8731
 153   1.0000      -0.251278        -6.8376
 154   1.0000      -0.250092        -6.8053
 155   1.0000      -0.249083        -6.7779
 156   1.0000      -0.247784        -6.7425
 157   1.0000      -0.247278        -6.7288
 158   1.0000      -0.245171        -6.6714
 159   1.0000      -0.241408        -6.5691
 160   1.0000      -0.240185        -6.5358
 161   1.0000      -0.238056        -6.4778
 162   1.0000      -0.223715        -6.0876
 163   1.0000      -0.218405        -5.9431
 164   1.0000      -0.210418        -5.7258
 165   1.0000      -0.206814        -5.6277
 166   0.0000      -0.203671        -5.5422
 167   0.0000      -0.158276        -4.3069
 168   0.0000      -0.142598        -3.8803
 169   0.0000      -0.135410        -3.6847
 170   0.0000      -0.132947        -3.6177

                 SPIN DOWN ORBITALS
  NO   OCC          E(Eh)            E(eV)
   0   1.0000    -234.209085     -6373.1532
   1   1.0000     -26.835862      -730.2409
   2   1.0000     -23.002245      -625.9229
   3   1.0000     -23.000077      -625.8639
   4   1.0000     -22.999089      -625.8370
   5   1.0000      -4.041601      -109.9776
   6   1.0000      -4.039456      -109.9192
   7   1.0000      -4.039198      -109.9122
   8   1.0000      -4.037702      -109.8715
   9   1.0000      -4.035155      -109.8021
  10   1.0000      -4.035037      -109.7989
  11   1.0000      -4.034988      -109.7976
  12   1.0000      -4.034871      -109.7944
  13   1.0000      -4.034850      -109.7939
  14   1.0000      -4.032664      -109.7344
  15   1.0000      -4.032404      -109.7273
  16   1.0000      -4.032194      -109.7216
  17   1.0000      -4.031144      -109.6930
  18   1.0000      -4.029365      -109.6446
  19   1.0000      -4.027437      -109.5921
  20   1.0000      -4.025544      -109.5406
  21   1.0000      -2.949093       -80.2489
  22   1.0000      -2.257568       -61.4315
  23   1.0000      -2.256468       -61.4016
  24   1.0000      -2.254540       -61.3492
  25   1.0000      -2.253397       -61.3180
  26   1.0000      -2.253319       -61.3159
  27   1.0000      -2.253025       -61.3079
  28   1.0000      -2.251881       -61.2768
  29   1.0000      -2.251440       -61.2648
  30   1.0000      -2.251257       -61.2598
  31   1.0000      -2.251104       -61.2556
  32   1.0000      -2.251009       -61.2531
  33   1.0000      -2.250696       -61.2446
  34   1.0000      -2.250439       -61.2376
  35   1.0000      -2.250297       -61.2337
  36   1.0000      -2.250037       -61.2266
  37   1.0000      -2.249918       -61.2234
  38   1.0000      -2.249220       -61.2044
  39   1.0000      -2.248239       -61.1777
  40   1.0000      -2.248007       -61.1714
  41   1.0000      -2.247930       -61.1693
  42   1.0000      -2.247504       -61.1577
  43   1.0000      -2.247328       -61.1529
  44   1.0000      -2.247054       -61.1454
  45   1.0000      -2.246695       -61.1357
  46   1.0000      -2.246582       -61.1326
  47   1.0000      -2.246140       -61.1206
  48   1.0000      -2.246073       -61.1188
  49   1.0000      -2.245752       -61.1100
  50   1.0000      -2.245625       -61.1066
  51   1.0000      -2.244952       -61.0882
  52   1.0000      -2.244884       -61.0864
  53   1.0000      -2.244685       -61.0810
  54   1.0000      -2.244526       -61.0767
  55   1.0000      -2.244227       -61.0685
  56   1.0000      -2.243634       -61.0524
  57   1.0000      -2.243305       -61.0434
  58   1.0000      -2.243257       -61.0421
  59   1.0000      -2.242990       -61.0348
  60   1.0000      -2.242191       -61.0131
  61   1.0000      -2.242122       -61.0112
  62   1.0000      -2.241351       -60.9903
  63   1.0000      -2.241253       -60.9876
  64   1.0000      -2.240232       -60.9598
  65   1.0000      -2.240051       -60.9549
  66   1.0000      -2.238960       -60.9252
  67   1.0000      -2.238419       -60.9105
  68   1.0000      -2.238179       -60.9040
  69   1.0000      -2.236955       -60.8706
  70   1.0000      -1.857988       -50.5584
  71   1.0000      -1.853896       -50.4471
  72   1.0000      -1.852126       -50.3989
  73   1.0000      -0.437628       -11.9085
  74   1.0000      -0.399527       -10.8717
  75   1.0000      -0.398644       -10.8476
  76   1.0000      -0.394871       -10.7450
  77   1.0000      -0.380358       -10.3501
  78   1.0000      -0.377395       -10.2694
  79   1.0000      -0.374347       -10.1865
  80   1.0000      -0.373510       -10.1637
  81   1.0000      -0.372882       -10.1466
  82   1.0000      -0.371524       -10.1097
  83   1.0000      -0.367741       -10.0068
  84   1.0000      -0.366654        -9.9772
  85   1.0000      -0.362338        -9.8597
  86   1.0000      -0.360942        -9.8217
  87   1.0000      -0.360301        -9.8043
  88   1.0000      -0.358478        -9.7547
  89   1.0000      -0.357703        -9.7336
  90   1.0000      -0.356295        -9.6953
  91   1.0000      -0.355461        -9.6726
  92   1.0000      -0.354165        -9.6373
  93   1.0000      -0.353040        -9.6067
  94   1.0000      -0.350541        -9.5387
  95   1.0000      -0.349005        -9.4969
  96   1.0000      -0.347731        -9.4622
  97   1.0000      -0.347581        -9.4582
  98   1.0000      -0.343858        -9.3568
  99   1.0000      -0.340542        -9.2666
 100   1.0000      -0.338397        -9.2083
 101   1.0000      -0.336953        -9.1690
 102   1.0000      -0.334761        -9.1093
 103   1.0000      -0.332204        -9.0397
 104   1.0000      -0.329205        -8.9581
 105   1.0000      -0.326351        -8.8805
 106   1.0000      -0.323213        -8.7951
 107   1.0000      -0.321969        -8.7612
 108   1.0000      -0.320113        -8.7107
 109   1.0000      -0.318448        -8.6654
 110   1.0000      -0.311400        -8.4736
 111   1.0000      -0.309287        -8.4161
 112   1.0000      -0.306293        -8.3347
 113   1.0000      -0.304134        -8.2759
 114   1.0000      -0.302056        -8.2194
 115   1.0000      -0.299995        -8.1633
 116   1.0000      -0.294811        -8.0222
 117   1.0000      -0.293966        -7.9992
 118   1.0000      -0.292199        -7.9511
 119   1.0000      -0.290363        -7.9012
 120   1.0000      -0.288579        -7.8526
 121   1.0000      -0.287315        -7.8183
 122   1.0000      -0.286395        -7.7932
 123   1.0000      -0.283758        -7.7215
 124   1.0000      -0.282678        -7.6921
 125   1.0000      -0.280811        -7.6413
 126   1.0000      -0.279920        -7.6170
 127   1.0000      -0.279213        -7.5978
 128   1.0000      -0.278770        -7.5857
 129   1.0000      -0.277371        -7.5477
 130   1.0000      -0.276659        -7.5283
 131   1.0000      -0.276496        -7.5238
 132   1.0000      -0.275235        -7.4895
 133   1.0000      -0.272819        -7.4238
 134   1.0000      -0.271881        -7.3983
 135   1.0000      -0.271280        -7.3819
 136   1.0000      -0.270643        -7.3646
 137   1.0000      -0.269174        -7.3246
 138   1.0000      -0.267585        -7.2814
 139   1.0000      -0.266349        -7.2477
 140   1.0000      -0.265241        -7.2176
 141   1.0000      -0.262508        -7.1432
 142   1.0000      -0.260717        -7.0945
 143   1.0000      -0.259823        -7.0701
 144   1.0000      -0.259065        -7.0495
 145   1.0000      -0.257941        -7.0189
 146   1.0000      -0.256807        -6.9881
 147   1.0000      -0.255518        -6.9530
 148   1.0000      -0.253804        -6.9064
 149   1.0000      -0.252345        -6.8667
 150   1.0000      -0.252157        -6.8616
 151   1.0000      -0.250506        -6.8166
 152   1.0000      -0.250054        -6.8043
 153   1.0000      -0.246627        -6.7111
 154   1.0000      -0.243070        -6.6143
 155   1.0000      -0.241790        -6.5795
 156   1.0000      -0.239364        -6.5134
 157   1.0000      -0.229713        -6.2508
 158   1.0000      -0.225439        -6.1345
 159   1.0000      -0.220192        -5.9917
 160   1.0000      -0.216889        -5.9018
 161   1.0000      -0.216207        -5.8833
 162   1.0000      -0.160487        -4.3671
 163   0.0000      -0.146409        -3.9840
 164   0.0000      -0.140215        -3.8154
 165   0.0000      -0.138649        -3.7728
 166   0.0000      -0.137536        -3.7425
 167   0.0000      -0.136367        -3.7107

MULLIKEN ATOMIC CHARGES AND SPIN POPULATIONS
--------------------------------------------
   0 Au:    0.185554   -0.048491
   1 Au:   -0.049401   -0.149423
   2 Au:    0.262902   -0.021236
   3 Au:    0.279629   -0.072134
   4 Au:    0.029140    0.028566
   5 Au:    0.395895   -0.193819
   6 Au:   -0.063992   -0.016161
   7 Au:   -0.102244   -0.027835
   8 Au:    0.224832   -0.032758
   9 Au:    0.230036   -0.067386
  10 Au:    0.381480   -0.140645
  11 Au:    0.292701   -0.064107
  12 Au:    0.092066   -0.146331
  13 Au:    0.064898    0.018709
  14 Au:    0.243556   -0.082037
  15 Au:    0.274075   -0.001388
  16 Mn:   -2.741127    4.016476
Sum of atomic charges         :   -0.0000000

LOEWDIN ATOMIC CHARGES AND SPIN POPULATIONS
-------------------------------------------
   0 Au:    0.047463   -0.069229
   1 Au:    0.005465   -0.101007
   2 Au:    0.047678   -0.047860
   3 Au:    0.027351   -0.083528
   4 Au:   -0.001488   -0.012929
   5 Au:    0.072552   -0.174501
   6 Au:   -0.004725   -0.018149
   7 Au:   -0.019309   -0.032833
   8 Au:    0.053454   -0.054719
   9 Au:    0.023111   -0.100849
  10 Au:    0.073727   -0.142795
  11 Au:    0.029680   -0.072560
  12 Au:    0.026032   -0.101006
  13 Au:    0.005377   -0.012597
  14 Au:    0.016075   -0.116020
  15 Au:    0.055056   -0.029299
  16 Mn:   -0.457501    4.169880

  Mayer bond orders larger than 0.100000
B(  0-Au,  1-Au) :   0.1888 B(  0-Au,  3-Au) :   0.2553 B(  0-Au,  6-Au) :   0.2481
B(  0-Au, 13-Au) :   0.2528 B(  0-Au, 14-Au) :   0.2654 B(  0-Au, 16-Mn) :   0.2709
B(  1-Au,  2-Au) :   0.2378 B(  1-Au,  3-Au) :   0.2164 B(  1-Au,  4-Au) :   0.1862
B(  1-Au,  5-Au) :   0.2648 B(  1-Au, 14-Au) :   0.2237 B(  1-Au, 16-Mn) :   0.4293
B(  2-Au,  3-Au) :   0.2482 B(  2-Au,  4-Au) :   0.1836 B(  2-Au, 11-Au) :   0.2589
B(  2-Au, 15-Au) :   0.1120 B(  2-Au, 16-Mn) :   0.3328 B(  3-Au, 13-Au) :   0.2131
B(  3-Au, 15-Au) :   0.2333 B(  3-Au, 16-Mn) :   0.2468 B(  4-Au,  5-Au) :   0.2940
B(  4-Au,  7-Au) :   0.1588 B(  4-Au,  8-Au) :   0.2306 B(  4-Au, 11-Au) :   0.2022
B(  4-Au, 16-Mn) :   0.3985 B(  5-Au,  7-Au) :   0.3018 B(  5-Au, 10-Au) :   0.1008
B(  5-Au, 14-Au) :   0.2812 B(  6-Au,  7-Au) :   0.1412 B(  6-Au,  9-Au) :   0.2539
B(  6-Au, 10-Au) :   0.2922 B(  6-Au, 13-Au) :   0.1490 B(  6-Au, 14-Au) :   0.2987
B(  6-Au, 16-Mn) :   0.4185 B(  7-Au,  8-Au) :   0.2340 B(  7-Au,  9-Au) :   0.3203
B(  7-Au, 14-Au) :   0.2719 B(  7-Au, 16-Mn) :   0.4037 B(  8-Au,  9-Au) :   0.2428
B(  8-Au, 11-Au) :   0.2558 B(  8-Au, 12-Au) :   0.1625 B(  8-Au, 16-Mn) :   0.3040
B(  9-Au, 10-Au) :   0.2810 B(  9-Au, 12-Au) :   0.2118 B(  9-Au, 16-Mn) :   0.1862
B( 10-Au, 12-Au) :   0.2615 B( 10-Au, 13-Au) :   0.3107 B( 11-Au, 12-Au) :   0.2136
B( 11-Au, 15-Au) :   0.2065 B( 11-Au, 16-Mn) :   0.2656 B( 12-Au, 13-Au) :   0.1261
B( 12-Au, 15-Au) :   0.2223 B( 12-Au, 16-Mn) :   0.4154 B( 13-Au, 15-Au) :   0.1578
B( 13-Au, 16-Mn) :   0.3866 B( 14-Au, 16-Mn) :   0.1259 B( 15-Au, 16-Mn) :   0.4180

FINAL SINGLE POINT ENERGY     -3324.035070027675

DIPOLE MOMENT
-------------
                                X             Y             Z
Electronic contribution:      0.75765       1.68049       9.09474
Nuclear contribution   :     -0.79830      -1.75603      -9.14356
                        -----------------------------------------
Total Dipole Moment    :     -0.04065      -0.07554      -0.04881
                        -----------------------------------------
Magnitude (a.u.)       :      0.09870
Magnitude (Debye)      :      0.25087

Rotational constants in cm-1:     0.000904     0.000815     0.000811
Rotational constants in MHz :    27.113646    24.438174    24.322988

                             ****ORCA TERMINATED NORMALLY****
TOTAL RUN TIME: 0 days 0 hours 9 minutes 55 seconds 483 msec
