                         Program Version 5.0.3 -  RELEASE  -
|  1> !R2SCAN def2-TZVP VERYSLOWCONV
|  2> !KDIIS
|  3> %scf
|  4>   AutoTRAHIter 200
|  5>   maxiter 400
|  6> end
|  7>
|  8> %pal nprocs 6 end
|  9>
| 10> *xyzfile 0 6 pbe.xyz
| 11>
| 12> $new_job
| 13>
| 14> !R2SCAN def2-TZVP VERYSLOWCONV
| 15> !KDIIS
| 16> %scf
| 17>   AutoTRAHIter 200
| 18>   maxiter 400
| 19> end
| 20>
| 21>
| 22> %pal nprocs 6 end
| 23>
| 24> *xyzfile 0 4 pbe.xyz
| 25>
| 26>
| 27>
| 28>
| 29>
| 30>                          ****END OF INPUT****
 Total Charge           Charge          ....    0
 Multiplicity           Mult            ....    6
 Number of Electrons    NEL             ....  329
FINAL SINGLE POINT ENERGY     -3324.631001201147

CARTESIAN COORDINATES (ANGSTROEM)
---------------------------------
  Au     9.066252    6.810736    8.556787
  Au     9.000919    9.511091    7.546276
  Au     7.916612    9.616141    4.962143
  Au     9.043649    7.265093    5.844002
  Au     6.368438   10.988417    6.857036
  Au     7.756942   11.384502    9.194946
  Au     6.439604    6.700014    9.547191
  Au     5.582964    9.650762    9.453358
  Au     3.877062    9.764245    7.242295
  Au     3.867892    7.583181    8.918145
  Au     4.697005    5.098051    8.013328
  Au     5.175760    9.368957    4.846374
  Au     4.180812    7.086663    6.137360
  Au     7.186386    5.476470    6.955020
  Au     8.120389    8.800522   10.178319
  Au     6.557762    6.954462    4.642405
  Mn     6.530586    8.205715    7.181047

 Multiplicity           Mult            ....    4
 Number of Electrons    NEL             ....  329
 Basis Dimension        Dim             ....  685

ORBITAL ENERGIES
----------------
                 SPIN UP ORBITALS
  NO   OCC          E(Eh)            E(eV)
   0   1.0000    -235.054977     -6396.1711
   1   1.0000     -27.232114      -741.0235
   2   1.0000     -23.279272      -633.4612
   3   1.0000     -23.278860      -633.4500
   4   1.0000     -23.278035      -633.4275
   5   1.0000      -4.133289      -112.4725
   6   1.0000      -4.130904      -112.4076
   7   1.0000      -4.130221      -112.3890
   8   1.0000      -4.129060      -112.3574
   9   1.0000      -4.126044      -112.2754
  10   1.0000      -4.125957      -112.2730
  11   1.0000      -4.125881      -112.2709
  12   1.0000      -4.125553      -112.2620
  13   1.0000      -4.125479      -112.2600
  14   1.0000      -4.123440      -112.2045
  15   1.0000      -4.122998      -112.1925
  16   1.0000      -4.122716      -112.1848
  17   1.0000      -4.122672      -112.1836
  18   1.0000      -4.120295      -112.1189
  19   1.0000      -4.117413      -112.0405
  20   1.0000      -4.115091      -111.9773
  21   1.0000      -3.255577       -88.5888
  22   1.0000      -2.321693       -63.1765
  23   1.0000      -2.320369       -63.1404
  24   1.0000      -2.318528       -63.0904
  25   1.0000      -2.318276       -63.0835
  26   1.0000      -2.317491       -63.0621
  27   1.0000      -2.317200       -63.0542
  28   1.0000      -2.315880       -63.0183
  29   1.0000      -2.315305       -63.0026
  30   1.0000      -2.315197       -62.9997
  31   1.0000      -2.315143       -62.9982
  32   1.0000      -2.315006       -62.9945
  33   1.0000      -2.314884       -62.9912
  34   1.0000      -2.314622       -62.9841
  35   1.0000      -2.314174       -62.9719
  36   1.0000      -2.313749       -62.9603
  37   1.0000      -2.313410       -62.9511
  38   1.0000      -2.312780       -62.9339
  39   1.0000      -2.311648       -62.9032
  40   1.0000      -2.311409       -62.8966
  41   1.0000      -2.311322       -62.8943
  42   1.0000      -2.311053       -62.8869
  43   1.0000      -2.310771       -62.8793
  44   1.0000      -2.310716       -62.8778
  45   1.0000      -2.310533       -62.8728
  46   1.0000      -2.310375       -62.8685
  47   1.0000      -2.310270       -62.8657
  48   1.0000      -2.309969       -62.8574
  49   1.0000      -2.309319       -62.8398
  50   1.0000      -2.308834       -62.8266
  51   1.0000      -2.308465       -62.8165
  52   1.0000      -2.308220       -62.8099
  53   1.0000      -2.308138       -62.8076
  54   1.0000      -2.308011       -62.8042
  55   1.0000      -2.307882       -62.8007
  56   1.0000      -2.307484       -62.7898
  57   1.0000      -2.307232       -62.7830
  58   1.0000      -2.306669       -62.7677
  59   1.0000      -2.306276       -62.7569
  60   1.0000      -2.306082       -62.7517
  61   1.0000      -2.305247       -62.7290
  62   1.0000      -2.305075       -62.7243
  63   1.0000      -2.304134       -62.6987
  64   1.0000      -2.303370       -62.6779
  65   1.0000      -2.302916       -62.6655
  66   1.0000      -2.301194       -62.6187
  67   1.0000      -2.300980       -62.6128
  68   1.0000      -2.300247       -62.5929
  69   1.0000      -2.299367       -62.5690
  70   1.0000      -2.113279       -57.5052
  71   1.0000      -2.112659       -57.4884
  72   1.0000      -2.110485       -57.4292
  73   1.0000      -0.447156       -12.1677
  74   1.0000      -0.405206       -11.0262
  75   1.0000      -0.404784       -11.0147
  76   1.0000      -0.399280       -10.8650
  77   1.0000      -0.393232       -10.7004
  78   1.0000      -0.391093       -10.6422
  79   1.0000      -0.388958       -10.5841
  80   1.0000      -0.386289       -10.5115
  81   1.0000      -0.385411       -10.4876
  82   1.0000      -0.382988       -10.4216
  83   1.0000      -0.378126       -10.2893
  84   1.0000      -0.375952       -10.2302
  85   1.0000      -0.373030       -10.1507
  86   1.0000      -0.370640       -10.0856
  87   1.0000      -0.369607       -10.0575
  88   1.0000      -0.368006       -10.0140
  89   1.0000      -0.367144        -9.9905
  90   1.0000      -0.365946        -9.9579
  91   1.0000      -0.365696        -9.9511
  92   1.0000      -0.364431        -9.9167
  93   1.0000      -0.363409        -9.8889
  94   1.0000      -0.360734        -9.8161
  95   1.0000      -0.358868        -9.7653
  96   1.0000      -0.358350        -9.7512
  97   1.0000      -0.356686        -9.7059
  98   1.0000      -0.354002        -9.6329
  99   1.0000      -0.349937        -9.5223
 100   1.0000      -0.348656        -9.4874
 101   1.0000      -0.346756        -9.4357
 102   1.0000      -0.344371        -9.3708
 103   1.0000      -0.343186        -9.3386
 104   1.0000      -0.340118        -9.2551
 105   1.0000      -0.338897        -9.2219
 106   1.0000      -0.334376        -9.0988
 107   1.0000      -0.334044        -9.0898
 108   1.0000      -0.330141        -8.9836
 109   1.0000      -0.329565        -8.9679
 110   1.0000      -0.326372        -8.8810
 111   1.0000      -0.321951        -8.7607
 112   1.0000      -0.320805        -8.7295
 113   1.0000      -0.316660        -8.6168
 114   1.0000      -0.313717        -8.5367
 115   1.0000      -0.311546        -8.4776
 116   1.0000      -0.309818        -8.4306
 117   1.0000      -0.304917        -8.2972
 118   1.0000      -0.303913        -8.2699
 119   1.0000      -0.301123        -8.1940
 120   1.0000      -0.298945        -8.1347
 121   1.0000      -0.297448        -8.0940
 122   1.0000      -0.296463        -8.0672
 123   1.0000      -0.295169        -8.0319
 124   1.0000      -0.293147        -7.9769
 125   1.0000      -0.290849        -7.9144
 126   1.0000      -0.290131        -7.8949
 127   1.0000      -0.288777        -7.8580
 128   1.0000      -0.287344        -7.8190
 129   1.0000      -0.286811        -7.8045
 130   1.0000      -0.286026        -7.7832
 131   1.0000      -0.284836        -7.7508
 132   1.0000      -0.283906        -7.7255
 133   1.0000      -0.282846        -7.6966
 134   1.0000      -0.282336        -7.6827
 135   1.0000      -0.280757        -7.6398
 136   1.0000      -0.279534        -7.6065
 137   1.0000      -0.278333        -7.5738
 138   1.0000      -0.276609        -7.5269
 139   1.0000      -0.275944        -7.5088
 140   1.0000      -0.275130        -7.4867
 141   1.0000      -0.274199        -7.4613
 142   1.0000      -0.273277        -7.4362
 143   1.0000      -0.273040        -7.4298
 144   1.0000      -0.269405        -7.3309
 145   1.0000      -0.268781        -7.3139
 146   1.0000      -0.268463        -7.3052
 147   1.0000      -0.265537        -7.2256
 148   1.0000      -0.265378        -7.2213
 149   1.0000      -0.264513        -7.1978
 150   1.0000      -0.264176        -7.1886
 151   1.0000      -0.262857        -7.1527
 152   1.0000      -0.262114        -7.1325
 153   1.0000      -0.259143        -7.0516
 154   1.0000      -0.258197        -7.0259
 155   1.0000      -0.257700        -7.0124
 156   1.0000      -0.257432        -7.0051
 157   1.0000      -0.255634        -6.9561
 158   1.0000      -0.252470        -6.8701
 159   1.0000      -0.248424        -6.7600
 160   1.0000      -0.247006        -6.7214
 161   1.0000      -0.244944        -6.6653
 162   1.0000      -0.226847        -6.1728
 163   1.0000      -0.221337        -6.0229
 164   1.0000      -0.212912        -5.7936
 165   1.0000      -0.209160        -5.6915
 166   0.0000      -0.204241        -5.5577
 167   0.0000      -0.154409        -4.2017
 168   0.0000      -0.139222        -3.7884
 169   0.0000      -0.131196        -3.5700
 170   0.0000      -0.128973        -3.5095

                 SPIN DOWN ORBITALS
  NO   OCC          E(Eh)            E(eV)
   0   1.0000    -235.054144     -6396.1484
   1   1.0000     -27.142605      -738.5878
   2   1.0000     -23.211327      -631.6123
   3   1.0000     -23.209890      -631.5732
   4   1.0000     -23.209211      -631.5547
   5   1.0000      -4.133297      -112.4727
   6   1.0000      -4.131115      -112.4134
   7   1.0000      -4.130871      -112.4067
   8   1.0000      -4.129452      -112.3681
   9   1.0000      -4.126631      -112.2914
  10   1.0000      -4.126248      -112.2809
  11   1.0000      -4.126151      -112.2783
  12   1.0000      -4.125996      -112.2741
  13   1.0000      -4.125810      -112.2690
  14   1.0000      -4.123806      -112.2145
  15   1.0000      -4.123726      -112.2123
  16   1.0000      -4.123427      -112.2041
  17   1.0000      -4.122646      -112.1829
  18   1.0000      -4.120522      -112.1251
  19   1.0000      -4.118770      -112.0774
  20   1.0000      -4.116587      -112.0180
  21   1.0000      -3.041806       -82.7717
  22   1.0000      -2.322052       -63.1862
  23   1.0000      -2.320921       -63.1555
  24   1.0000      -2.319007       -63.1034
  25   1.0000      -2.317934       -63.0742
  26   1.0000      -2.317908       -63.0735
  27   1.0000      -2.317327       -63.0577
  28   1.0000      -2.316154       -63.0258
  29   1.0000      -2.315817       -63.0166
  30   1.0000      -2.315369       -63.0044
  31   1.0000      -2.315363       -63.0042
  32   1.0000      -2.315196       -62.9997
  33   1.0000      -2.315034       -62.9953
  34   1.0000      -2.314858       -62.9905
  35   1.0000      -2.314521       -62.9813
  36   1.0000      -2.314103       -62.9699
  37   1.0000      -2.313831       -62.9625
  38   1.0000      -2.313191       -62.9451
  39   1.0000      -2.312168       -62.9173
  40   1.0000      -2.312085       -62.9150
  41   1.0000      -2.311755       -62.9061
  42   1.0000      -2.311330       -62.8945
  43   1.0000      -2.311059       -62.8871
  44   1.0000      -2.310881       -62.8823
  45   1.0000      -2.310657       -62.8762
  46   1.0000      -2.310570       -62.8738
  47   1.0000      -2.310297       -62.8664
  48   1.0000      -2.310108       -62.8612
  49   1.0000      -2.309992       -62.8581
  50   1.0000      -2.309787       -62.8525
  51   1.0000      -2.308838       -62.8267
  52   1.0000      -2.308680       -62.8224
  53   1.0000      -2.308479       -62.8169
  54   1.0000      -2.308311       -62.8123
  55   1.0000      -2.308224       -62.8100
  56   1.0000      -2.307607       -62.7932
  57   1.0000      -2.307450       -62.7889
  58   1.0000      -2.307340       -62.7859
  59   1.0000      -2.306705       -62.7686
  60   1.0000      -2.306571       -62.7650
  61   1.0000      -2.306202       -62.7549
  62   1.0000      -2.305251       -62.7291
  63   1.0000      -2.305117       -62.7254
  64   1.0000      -2.304178       -62.6999
  65   1.0000      -2.304146       -62.6990
  66   1.0000      -2.302744       -62.6608
  67   1.0000      -2.302417       -62.6520
  68   1.0000      -2.301885       -62.6375
  69   1.0000      -2.300562       -62.6015
  70   1.0000      -1.901791       -51.7504
  71   1.0000      -1.899248       -51.6812
  72   1.0000      -1.898026       -51.6479
  73   1.0000      -0.444061       -12.0835
  74   1.0000      -0.406132       -11.0514
  75   1.0000      -0.405353       -11.0302
  76   1.0000      -0.401206       -10.9174
  77   1.0000      -0.389116       -10.5884
  78   1.0000      -0.386428       -10.5152
  79   1.0000      -0.383318       -10.4306
  80   1.0000      -0.382186       -10.3998
  81   1.0000      -0.381528       -10.3819
  82   1.0000      -0.380423       -10.3518
  83   1.0000      -0.377359       -10.2685
  84   1.0000      -0.376105       -10.2343
  85   1.0000      -0.372136       -10.1263
  86   1.0000      -0.370712       -10.0876
  87   1.0000      -0.369887       -10.0651
  88   1.0000      -0.368446       -10.0259
  89   1.0000      -0.367918       -10.0116
  90   1.0000      -0.366441        -9.9714
  91   1.0000      -0.365401        -9.9431
  92   1.0000      -0.364065        -9.9067
  93   1.0000      -0.363143        -9.8816
  94   1.0000      -0.360251        -9.8029
  95   1.0000      -0.358816        -9.7639
  96   1.0000      -0.357643        -9.7320
  97   1.0000      -0.357196        -9.7198
  98   1.0000      -0.353933        -9.6310
  99   1.0000      -0.350168        -9.5286
 100   1.0000      -0.348062        -9.4712
 101   1.0000      -0.346645        -9.4327
 102   1.0000      -0.344431        -9.3724
 103   1.0000      -0.341853        -9.3023
 104   1.0000      -0.339184        -9.2297
 105   1.0000      -0.335935        -9.1413
 106   1.0000      -0.332597        -9.0504
 107   1.0000      -0.331522        -9.0212
 108   1.0000      -0.329723        -8.9722
 109   1.0000      -0.327733        -8.9181
 110   1.0000      -0.320705        -8.7268
 111   1.0000      -0.318438        -8.6651
 112   1.0000      -0.315502        -8.5852
 113   1.0000      -0.313169        -8.5218
 114   1.0000      -0.310821        -8.4579
 115   1.0000      -0.308899        -8.4056
 116   1.0000      -0.304066        -8.2741
 117   1.0000      -0.302522        -8.2321
 118   1.0000      -0.301044        -8.1918
 119   1.0000      -0.299037        -8.1372
 120   1.0000      -0.297529        -8.0962
 121   1.0000      -0.296359        -8.0643
 122   1.0000      -0.295247        -8.0341
 123   1.0000      -0.292494        -7.9592
 124   1.0000      -0.291580        -7.9343
 125   1.0000      -0.289823        -7.8865
 126   1.0000      -0.288472        -7.8497
 127   1.0000      -0.287877        -7.8335
 128   1.0000      -0.287665        -7.8278
 129   1.0000      -0.286141        -7.7863
 130   1.0000      -0.285386        -7.7658
 131   1.0000      -0.285299        -7.7634
 132   1.0000      -0.283841        -7.7237
 133   1.0000      -0.281542        -7.6612
 134   1.0000      -0.280494        -7.6326
 135   1.0000      -0.279940        -7.6176
 136   1.0000      -0.279330        -7.6010
 137   1.0000      -0.277854        -7.5608
 138   1.0000      -0.276275        -7.5178
 139   1.0000      -0.275105        -7.4860
 140   1.0000      -0.273800        -7.4505
 141   1.0000      -0.270684        -7.3657
 142   1.0000      -0.268864        -7.3162
 143   1.0000      -0.268112        -7.2957
 144   1.0000      -0.267286        -7.2732
 145   1.0000      -0.265992        -7.2380
 146   1.0000      -0.264861        -7.2072
 147   1.0000      -0.263906        -7.1812
 148   1.0000      -0.261952        -7.1281
 149   1.0000      -0.259644        -7.0653
 150   1.0000      -0.259595        -7.0639
 151   1.0000      -0.258194        -7.0258
 152   1.0000      -0.257748        -7.0137
 153   1.0000      -0.254127        -6.9152
 154   1.0000      -0.250286        -6.8106
 155   1.0000      -0.248826        -6.7709
 156   1.0000      -0.246287        -6.7018
 157   1.0000      -0.233246        -6.3469
 158   1.0000      -0.228482        -6.2173
 159   1.0000      -0.222735        -6.0609
 160   1.0000      -0.219018        -5.9598
 161   1.0000      -0.218089        -5.9345
 162   1.0000      -0.158817        -4.3216
 163   0.0000      -0.143557        -3.9064
 164   0.0000      -0.136392        -3.7114
 165   0.0000      -0.134071        -3.6482
 166   0.0000      -0.131317        -3.5733
 167   0.0000      -0.125668        -3.4196

MULLIKEN ATOMIC CHARGES AND SPIN POPULATIONS
--------------------------------------------
   0 Au:    0.170201   -0.062783
   1 Au:   -0.034959   -0.155482
   2 Au:    0.238305   -0.036396
   3 Au:    0.246982   -0.099256
   4 Au:    0.018162    0.042597
   5 Au:    0.356263   -0.230588
   6 Au:   -0.053716   -0.016275
   7 Au:   -0.086320   -0.023873
   8 Au:    0.205540   -0.045974
   9 Au:    0.208360   -0.081369
  10 Au:    0.344438   -0.162386
  11 Au:    0.260361   -0.088559
  12 Au:    0.095693   -0.155133
  13 Au:    0.050379    0.030903
  14 Au:    0.223057   -0.095823
  15 Au:    0.252302   -0.009116
  16 Mn:   -2.495048    4.189513
Sum of atomic charges         :   -0.0000000

LOEWDIN ATOMIC CHARGES AND SPIN POPULATIONS
-------------------------------------------
   0 Au:    0.042802   -0.079898
   1 Au:    0.003727   -0.106249
   2 Au:    0.041696   -0.062344
   3 Au:    0.018852   -0.103385
   4 Au:   -0.007418   -0.014377
   5 Au:    0.065422   -0.192731
   6 Au:   -0.008682   -0.028318
   7 Au:   -0.022711   -0.042674
   8 Au:    0.047824   -0.064603
   9 Au:    0.019240   -0.114294
  10 Au:    0.068255   -0.153653
  11 Au:    0.021147   -0.091508
  12 Au:    0.023554   -0.105475
  13 Au:   -0.001692   -0.014832
  14 Au:    0.013125   -0.130332
  15 Au:    0.050045   -0.039380
  16 Mn:   -0.375187    4.344054

  Mayer bond orders larger than 0.100000
B(  0-Au,  1-Au) :   0.1642 B(  0-Au,  3-Au) :   0.2477 B(  0-Au,  6-Au) :   0.2417
B(  0-Au, 13-Au) :   0.2426 B(  0-Au, 14-Au) :   0.2602 B(  0-Au, 16-Mn) :   0.2556
B(  1-Au,  2-Au) :   0.2356 B(  1-Au,  3-Au) :   0.1960 B(  1-Au,  4-Au) :   0.1709
B(  1-Au,  5-Au) :   0.2417 B(  1-Au, 14-Au) :   0.1997 B(  1-Au, 16-Mn) :   0.4447
B(  2-Au,  3-Au) :   0.2428 B(  2-Au,  4-Au) :   0.1711 B(  2-Au, 11-Au) :   0.2515
B(  2-Au, 16-Mn) :   0.3182 B(  3-Au, 13-Au) :   0.2054 B(  3-Au, 15-Au) :   0.2191
B(  3-Au, 16-Mn) :   0.2242 B(  4-Au,  5-Au) :   0.2817 B(  4-Au,  7-Au) :   0.1373
B(  4-Au,  8-Au) :   0.2228 B(  4-Au, 11-Au) :   0.1934 B(  4-Au, 16-Mn) :   0.4025
B(  5-Au,  7-Au) :   0.2959 B(  5-Au, 14-Au) :   0.2826 B(  6-Au,  7-Au) :   0.1216
B(  6-Au,  9-Au) :   0.2357 B(  6-Au, 10-Au) :   0.2862 B(  6-Au, 13-Au) :   0.1300
B(  6-Au, 14-Au) :   0.2930 B(  6-Au, 16-Mn) :   0.4202 B(  7-Au,  8-Au) :   0.2285
B(  7-Au,  9-Au) :   0.3156 B(  7-Au, 14-Au) :   0.2534 B(  7-Au, 16-Mn) :   0.4064
B(  8-Au,  9-Au) :   0.2348 B(  8-Au, 11-Au) :   0.2495 B(  8-Au, 12-Au) :   0.1402
B(  8-Au, 16-Mn) :   0.2884 B(  9-Au, 10-Au) :   0.2790 B(  9-Au, 12-Au) :   0.1888
B(  9-Au, 16-Mn) :   0.1702 B( 10-Au, 12-Au) :   0.2426 B( 10-Au, 13-Au) :   0.3023
B( 11-Au, 12-Au) :   0.1991 B( 11-Au, 15-Au) :   0.1922 B( 11-Au, 16-Mn) :   0.2447
B( 12-Au, 13-Au) :   0.1105 B( 12-Au, 15-Au) :   0.2312 B( 12-Au, 16-Mn) :   0.4216
B( 13-Au, 15-Au) :   0.1475 B( 13-Au, 16-Mn) :   0.3842 B( 14-Au, 16-Mn) :   0.1105
B( 15-Au, 16-Mn) :   0.4195

FINAL SINGLE POINT ENERGY     -3324.581731707104

DIPOLE MOMENT
-------------
                                X             Y             Z
Electronic contribution:      0.75080       1.67042       9.08435
Nuclear contribution   :     -0.79830      -1.75603      -9.14356
                        -----------------------------------------
Total Dipole Moment    :     -0.04750      -0.08560      -0.05920
                        -----------------------------------------
Magnitude (a.u.)       :      0.11441
Magnitude (Debye)      :      0.29080

Rotational constants in cm-1:     0.000904     0.000815     0.000811
Rotational constants in MHz :    27.113646    24.438174    24.322988

                             ****ORCA TERMINATED NORMALLY****
TOTAL RUN TIME: 0 days 0 hours 17 minutes 20 seconds 969 msec
