                         Program Version 5.0.3 -  RELEASE  -
|  1> !RI-B2PLYP def2-TZVP def2-TZVP/C
|  2> !RIJCOSX VERYSLOWCONV
|  3>
|  4> %scf
|  5>   AutoTRAHIter 200
|  6>   maxiter 400
|  7> end
|  8>
|  9>
| 10> %pal nprocs 6 end
| 11>
| 12> *xyzfile 0 5 pbe.xyz
| 13>
| 14> $new_job
| 15>
| 16> !RI-B2PLYP def2-TZVP def2-TZVP/C
| 17> !RIJCOSX VERYSLOWCONV
| 18>
| 19> %scf
| 20>   AutoTRAHIter 200
| 21>   maxiter 400
| 22> end
| 23>
| 24>
| 25> %pal nprocs 6 end
| 26>
| 27> *xyzfile 0 3 pbe.xyz
| 28>
| 29>
| 30>
| 31>
| 32>
| 33>                          ****END OF INPUT****
 Total Charge           Charge          ....    0
 Multiplicity           Mult            ....    5
 Number of Electrons    NEL             ....  214
MP2 TOTAL ENERGY:    -2400.107880682 Eh
FINAL SINGLE POINT ENERGY     -2400.107880681641

CARTESIAN COORDINATES (ANGSTROEM)
---------------------------------
  Au    10.403558    5.440320    7.810247
  Au     8.553476    3.466189    8.573691
  Au    10.245123    4.481904   10.536539
  Au     7.577303    4.191161   11.285099
  Au     8.861205    6.583079   11.999990
  Au     6.010365    4.741350    8.961433
  Au     8.079530    8.524694   10.362126
  Au     7.372447    9.826476    8.027754
  Au     9.124053    7.749233    7.525863
  Au     6.306813    7.339358    8.342165
  Cr     8.344437    6.025103    9.427401

 Multiplicity           Mult            ....    3
 Number of Electrons    NEL             ....  214
 Basis Dimension        Dim             ....  445

ORBITAL ENERGIES
----------------
                 SPIN UP ORBITALS
  NO   OCC          E(Eh)            E(eV)
   0   1.0000    -217.769149     -5925.7998
   1   1.0000     -25.459936      -692.8001
   2   1.0000     -21.601284      -587.8008
   3   1.0000     -21.595690      -587.6486
   4   1.0000     -21.594388      -587.6132
   5   1.0000      -4.398476      -119.6886
   6   1.0000      -4.393580      -119.5554
   7   1.0000      -4.392967      -119.5387
   8   1.0000      -4.392903      -119.5370
   9   1.0000      -4.392092      -119.5149
  10   1.0000      -4.391970      -119.5116
  11   1.0000      -4.391101      -119.4879
  12   1.0000      -4.388244      -119.4102
  13   1.0000      -4.388090      -119.4060
  14   1.0000      -4.388053      -119.4050
  15   1.0000      -3.244920       -88.2988
  16   1.0000      -2.520242       -68.5793
  17   1.0000      -2.517877       -68.5149
  18   1.0000      -2.516289       -68.4717
  19   1.0000      -2.515755       -68.4572
  20   1.0000      -2.515609       -68.4532
  21   1.0000      -2.513685       -68.4008
  22   1.0000      -2.512798       -68.3767
  23   1.0000      -2.512641       -68.3724
  24   1.0000      -2.512005       -68.3551
  25   1.0000      -2.510752       -68.3210
  26   1.0000      -2.510536       -68.3152
  27   1.0000      -2.510266       -68.3078
  28   1.0000      -2.509629       -68.2905
  29   1.0000      -2.509280       -68.2810
  30   1.0000      -2.508602       -68.2625
  31   1.0000      -2.508072       -68.2481
  32   1.0000      -2.507874       -68.2427
  33   1.0000      -2.507318       -68.2276
  34   1.0000      -2.506602       -68.2081
  35   1.0000      -2.506207       -68.1974
  36   1.0000      -2.506034       -68.1927
  37   1.0000      -2.505786       -68.1859
  38   1.0000      -2.505693       -68.1834
  39   1.0000      -2.505250       -68.1713
  40   1.0000      -2.503683       -68.1287
  41   1.0000      -2.503243       -68.1167
  42   1.0000      -2.503147       -68.1141
  43   1.0000      -2.501879       -68.0796
  44   1.0000      -2.501430       -68.0674
  45   1.0000      -2.501350       -68.0652
  46   1.0000      -2.133450       -58.0541
  47   1.0000      -2.131432       -57.9992
  48   1.0000      -2.119886       -57.6850
  49   1.0000      -0.486293       -13.2327
  50   1.0000      -0.480556       -13.0766
  51   1.0000      -0.473876       -12.8948
  52   1.0000      -0.469418       -12.7735
  53   1.0000      -0.458423       -12.4743
  54   1.0000      -0.456305       -12.4167
  55   1.0000      -0.450387       -12.2557
  56   1.0000      -0.447017       -12.1640
  57   1.0000      -0.443349       -12.0642
  58   1.0000      -0.441158       -12.0045
  59   1.0000      -0.439261       -11.9529
  60   1.0000      -0.432025       -11.7560
  61   1.0000      -0.430201       -11.7064
  62   1.0000      -0.426835       -11.6148
  63   1.0000      -0.423732       -11.5303
  64   1.0000      -0.421627       -11.4731
  65   1.0000      -0.420535       -11.4434
  66   1.0000      -0.417374       -11.3573
  67   1.0000      -0.416186       -11.3250
  68   1.0000      -0.415238       -11.2992
  69   1.0000      -0.414836       -11.2883
  70   1.0000      -0.404789       -11.0149
  71   1.0000      -0.400881       -10.9085
  72   1.0000      -0.399341       -10.8666
  73   1.0000      -0.393373       -10.7042
  74   1.0000      -0.384513       -10.4631
  75   1.0000      -0.382968       -10.4211
  76   1.0000      -0.381801       -10.3893
  77   1.0000      -0.379555       -10.3282
  78   1.0000      -0.377023       -10.2593
  79   1.0000      -0.376063       -10.2332
  80   1.0000      -0.375614       -10.2210
  81   1.0000      -0.373704       -10.1690
  82   1.0000      -0.372610       -10.1392
  83   1.0000      -0.369809       -10.0630
  84   1.0000      -0.366489        -9.9727
  85   1.0000      -0.366006        -9.9595
  86   1.0000      -0.363027        -9.8785
  87   1.0000      -0.361328        -9.8322
  88   1.0000      -0.359478        -9.7819
  89   1.0000      -0.357344        -9.7238
  90   1.0000      -0.354158        -9.6371
  91   1.0000      -0.353525        -9.6199
  92   1.0000      -0.351724        -9.5709
  93   1.0000      -0.347752        -9.4628
  94   1.0000      -0.346180        -9.4200
  95   1.0000      -0.342355        -9.3159
  96   1.0000      -0.340980        -9.2785
  97   1.0000      -0.339183        -9.2296
  98   1.0000      -0.337625        -9.1872
  99   1.0000      -0.333997        -9.0885
 100   1.0000      -0.329450        -8.9648
 101   1.0000      -0.325812        -8.8658
 102   1.0000      -0.320252        -8.7145
 103   1.0000      -0.318838        -8.6760
 104   1.0000      -0.317189        -8.6312
 105   1.0000      -0.269700        -7.3389
 106   1.0000      -0.262413        -7.1406
 107   1.0000      -0.227351        -6.1865
 108   0.0000      -0.103886        -2.8269
 109   0.0000      -0.099998        -2.7211
 110   0.0000      -0.075785        -2.0622
 111   0.0000      -0.059025        -1.6062
 112   0.0000      -0.056752        -1.5443

                 SPIN DOWN ORBITALS
  NO   OCC          E(Eh)            E(eV)
   0   1.0000    -217.767764     -5925.7621
   1   1.0000     -25.391263      -690.9314
   2   1.0000     -21.549256      -586.3851
   3   1.0000     -21.528085      -585.8090
   4   1.0000     -21.523618      -585.6874
   5   1.0000      -4.399756      -119.7235
   6   1.0000      -4.394141      -119.5707
   7   1.0000      -4.393645      -119.5572
   8   1.0000      -4.393373      -119.5498
   9   1.0000      -4.392608      -119.5289
  10   1.0000      -4.392454      -119.5247
  11   1.0000      -4.392324      -119.5212
  12   1.0000      -4.388025      -119.4042
  13   1.0000      -4.387384      -119.3868
  14   1.0000      -4.387369      -119.3864
  15   1.0000      -3.036168       -82.6183
  16   1.0000      -2.520372       -68.5828
  17   1.0000      -2.518800       -68.5400
  18   1.0000      -2.515841       -68.4595
  19   1.0000      -2.515431       -68.4484
  20   1.0000      -2.515013       -68.4370
  21   1.0000      -2.512836       -68.3777
  22   1.0000      -2.512570       -68.3705
  23   1.0000      -2.511935       -68.3532
  24   1.0000      -2.511888       -68.3519
  25   1.0000      -2.510674       -68.3189
  26   1.0000      -2.510380       -68.3109
  27   1.0000      -2.510307       -68.3089
  28   1.0000      -2.509881       -68.2973
  29   1.0000      -2.508644       -68.2637
  30   1.0000      -2.508453       -68.2585
  31   1.0000      -2.507738       -68.2390
  32   1.0000      -2.507509       -68.2328
  33   1.0000      -2.506832       -68.2144
  34   1.0000      -2.506730       -68.2116
  35   1.0000      -2.506187       -68.1968
  36   1.0000      -2.505902       -68.1891
  37   1.0000      -2.505673       -68.1828
  38   1.0000      -2.505496       -68.1780
  39   1.0000      -2.505093       -68.1671
  40   1.0000      -2.504354       -68.1469
  41   1.0000      -2.503350       -68.1196
  42   1.0000      -2.503179       -68.1150
  43   1.0000      -2.501305       -68.0640
  44   1.0000      -2.500687       -68.0471
  45   1.0000      -2.500619       -68.0453
  46   1.0000      -1.925999       -52.4091
  47   1.0000      -1.874662       -51.0122
  48   1.0000      -1.864323       -50.7308
  49   1.0000      -0.483411       -13.1543
  50   1.0000      -0.473394       -12.8817
  51   1.0000      -0.456208       -12.4141
  52   1.0000      -0.454946       -12.3797
  53   1.0000      -0.452897       -12.3240
  54   1.0000      -0.450908       -12.2698
  55   1.0000      -0.449552       -12.2329
  56   1.0000      -0.449122       -12.2212
  57   1.0000      -0.440300       -11.9812
  58   1.0000      -0.435726       -11.8567
  59   1.0000      -0.430851       -11.7240
  60   1.0000      -0.423991       -11.5374
  61   1.0000      -0.423173       -11.5151
  62   1.0000      -0.422483       -11.4963
  63   1.0000      -0.420738       -11.4489
  64   1.0000      -0.416740       -11.3401
  65   1.0000      -0.416256       -11.3269
  66   1.0000      -0.415400       -11.3036
  67   1.0000      -0.412577       -11.2268
  68   1.0000      -0.410435       -11.1685
  69   1.0000      -0.403950       -10.9920
  70   1.0000      -0.402305       -10.9473
  71   1.0000      -0.401644       -10.9293
  72   1.0000      -0.399327       -10.8662
  73   1.0000      -0.391098       -10.6423
  74   1.0000      -0.385508       -10.4902
  75   1.0000      -0.384974       -10.4757
  76   1.0000      -0.382316       -10.4034
  77   1.0000      -0.379085       -10.3154
  78   1.0000      -0.376827       -10.2540
  79   1.0000      -0.375493       -10.2177
  80   1.0000      -0.374425       -10.1886
  81   1.0000      -0.372721       -10.1422
  82   1.0000      -0.368234       -10.0202
  83   1.0000      -0.367404        -9.9976
  84   1.0000      -0.366044        -9.9606
  85   1.0000      -0.365320        -9.9409
  86   1.0000      -0.364072        -9.9069
  87   1.0000      -0.361809        -9.8453
  88   1.0000      -0.354965        -9.6591
  89   1.0000      -0.354328        -9.6418
  90   1.0000      -0.353362        -9.6155
  91   1.0000      -0.351848        -9.5743
  92   1.0000      -0.350467        -9.5367
  93   1.0000      -0.350143        -9.5279
  94   1.0000      -0.347726        -9.4621
  95   1.0000      -0.340920        -9.2769
  96   1.0000      -0.339955        -9.2506
  97   1.0000      -0.330470        -8.9925
  98   1.0000      -0.328087        -8.9277
  99   1.0000      -0.325019        -8.8442
 100   1.0000      -0.324190        -8.8217
 101   1.0000      -0.288313        -7.8454
 102   1.0000      -0.282726        -7.6934
 103   1.0000      -0.230392        -6.2693
 104   1.0000      -0.210950        -5.7402
 105   1.0000      -0.205166        -5.5828
 106   0.0000      -0.078957        -2.1485
 107   0.0000      -0.075350        -2.0504
 108   0.0000      -0.073384        -1.9969
 109   0.0000      -0.038374        -1.0442
 110   0.0000      -0.010535        -0.2867

MULLIKEN ATOMIC CHARGES AND SPIN POPULATIONS
--------------------------------------------
   0 Au:    0.213225    0.023597
   1 Au:    0.456430   -0.231615
   2 Au:    0.452904   -0.183988
   3 Au:    0.456749   -0.236113
   4 Au:    0.209610    0.024861
   5 Au:    0.204153    0.016494
   6 Au:    0.098194   -0.249957
   7 Au:    0.307078   -0.140080
   8 Au:    0.092637   -0.248063
   9 Au:    0.088758   -0.269686
  10 Cr:   -2.579738    3.494550
Sum of atomic charges         :   -0.0000000

LOEWDIN ATOMIC CHARGES AND SPIN POPULATIONS
-------------------------------------------
   0 Au:    0.104809   -0.074680
   1 Au:    0.070652   -0.163974
   2 Au:    0.066400   -0.151065
   3 Au:    0.069397   -0.166341
   4 Au:    0.106140   -0.077426
   5 Au:    0.111378   -0.105391
   6 Au:    0.029140   -0.155283
   7 Au:    0.140594   -0.142427
   8 Au:    0.029006   -0.151689
   9 Au:    0.021326   -0.174545
  10 Cr:   -0.748842    3.362822

  Mayer bond orders larger than 0.100000
B(  0-Au,  1-Au) :   0.1727 B(  0-Au,  2-Au) :   0.1654 B(  0-Au,  8-Au) :   0.4525
B(  0-Au, 10-Cr) :   0.4912 B(  1-Au,  2-Au) :   0.1247 B(  1-Au,  5-Au) :   0.1815
B(  1-Au, 10-Cr) :   0.5871 B(  2-Au,  3-Au) :   0.1278 B(  2-Au,  4-Au) :   0.1637
B(  2-Au, 10-Cr) :   0.6686 B(  3-Au,  4-Au) :   0.1758 B(  3-Au,  5-Au) :   0.1826
B(  3-Au, 10-Cr) :   0.5739 B(  4-Au,  6-Au) :   0.4484 B(  4-Au, 10-Cr) :   0.4918
B(  5-Au,  9-Au) :   0.4229 B(  5-Au, 10-Cr) :   0.4829 B(  6-Au,  7-Au) :   0.2528
B(  6-Au, 10-Cr) :   0.6377 B(  7-Au,  8-Au) :   0.2514 B(  7-Au,  9-Au) :   0.2846
B(  7-Au, 10-Cr) :   0.3787 B(  8-Au, 10-Cr) :   0.6332 B(  9-Au, 10-Cr) :   0.7001

MP2 TOTAL ENERGY:    -2400.091537777 Eh
FINAL SINGLE POINT ENERGY     -2400.091537777397

DIPOLE MOMENT
-------------
                                X             Y             Z
Electronic contribution:     -3.25552       7.43956      -3.02387
Nuclear contribution   :      3.18232      -7.31445       2.96777
                        -----------------------------------------
Total Dipole Moment    :     -0.07320       0.12511      -0.05610
                        -----------------------------------------
Magnitude (a.u.)       :      0.15543
Magnitude (Debye)      :      0.39506

Rotational constants in cm-1:     0.002241     0.001381     0.001346
Rotational constants in MHz :    67.190558    41.411432    40.339302

                             ****ORCA TERMINATED NORMALLY****
TOTAL RUN TIME: 0 days 0 hours 49 minutes 50 seconds 792 msec
