                         Program Version 5.0.3 -  RELEASE  -
|  1> !PBE def2-TZVP VERYSLOWCONV
|  2>
|  3> %scf
|  4>   AutoTRAHIter 200
|  5>   maxiter 400
|  6> end
|  7>
|  8>
|  9> %pal nprocs 6 end
| 10>
| 11> *xyzfile 0 5 pbe.xyz
| 12>
| 13> $new_job
| 14>
| 15> !PBE def2-TZVP VERYSLOWCONV
| 16>
| 17> %scf
| 18>   AutoTRAHIter 200
| 19>   maxiter 400
| 20> end
| 21>
| 22>
| 23> %pal nprocs 6 end
| 24>
| 25> *xyzfile 0 3 pbe.xyz
| 26>
| 27>
| 28>
| 29>
| 30>
| 31>                          ****END OF INPUT****
 Total Charge           Charge          ....    0
 Multiplicity           Mult            ....    5
 Number of Electrons    NEL             ....  214
FINAL SINGLE POINT ENERGY     -2402.483737776129

CARTESIAN COORDINATES (ANGSTROEM)
---------------------------------
  Au    10.403558    5.440320    7.810247
  Au     8.553476    3.466189    8.573691
  Au    10.245123    4.481904   10.536539
  Au     7.577303    4.191161   11.285099
  Au     8.861205    6.583079   11.999990
  Au     6.010365    4.741350    8.961433
  Au     8.079530    8.524694   10.362126
  Au     7.372447    9.826476    8.027754
  Au     9.124053    7.749233    7.525863
  Au     6.306813    7.339358    8.342165
  Cr     8.344437    6.025103    9.427401

 Multiplicity           Mult            ....    3
 Number of Electrons    NEL             ....  214
 Basis Dimension        Dim             ....  445

ORBITAL ENERGIES
----------------
                 SPIN UP ORBITALS
  NO   OCC          E(Eh)            E(eV)
   0   1.0000    -214.501545     -5836.8838
   1   1.0000     -24.304750      -661.3659
   2   1.0000     -20.672311      -562.5222
   3   1.0000     -20.666748      -562.3708
   4   1.0000     -20.665848      -562.3463
   5   1.0000      -4.024779      -109.5198
   6   1.0000      -4.022940      -109.4698
   7   1.0000      -4.021743      -109.4372
   8   1.0000      -4.021608      -109.4335
   9   1.0000      -4.018956      -109.3613
  10   1.0000      -4.016873      -109.3047
  11   1.0000      -4.016829      -109.3035
  12   1.0000      -4.016187      -109.2860
  13   1.0000      -4.015790      -109.2752
  14   1.0000      -4.014854      -109.2497
  15   1.0000      -2.802324       -76.2551
  16   1.0000      -2.243726       -61.0549
  17   1.0000      -2.241730       -61.0006
  18   1.0000      -2.240791       -60.9750
  19   1.0000      -2.240271       -60.9609
  20   1.0000      -2.238134       -60.9027
  21   1.0000      -2.236515       -60.8587
  22   1.0000      -2.236222       -60.8507
  23   1.0000      -2.236085       -60.8470
  24   1.0000      -2.234266       -60.7975
  25   1.0000      -2.233831       -60.7856
  26   1.0000      -2.233807       -60.7850
  27   1.0000      -2.233455       -60.7754
  28   1.0000      -2.232514       -60.7498
  29   1.0000      -2.232172       -60.7405
  30   1.0000      -2.231558       -60.7238
  31   1.0000      -2.231522       -60.7228
  32   1.0000      -2.230344       -60.6907
  33   1.0000      -2.230023       -60.6820
  34   1.0000      -2.229801       -60.6760
  35   1.0000      -2.229496       -60.6677
  36   1.0000      -2.228824       -60.6494
  37   1.0000      -2.228270       -60.6343
  38   1.0000      -2.227663       -60.6178
  39   1.0000      -2.227011       -60.6001
  40   1.0000      -2.226695       -60.5914
  41   1.0000      -2.226032       -60.5734
  42   1.0000      -2.225721       -60.5650
  43   1.0000      -2.224170       -60.5227
  44   1.0000      -2.223798       -60.5126
  45   1.0000      -2.223370       -60.5010
  46   1.0000      -1.796484       -48.8848
  47   1.0000      -1.789726       -48.7009
  48   1.0000      -1.788298       -48.6621
  49   1.0000      -0.405888       -11.0448
  50   1.0000      -0.381288       -10.3754
  51   1.0000      -0.360421        -9.8076
  52   1.0000      -0.357076        -9.7165
  53   1.0000      -0.356878        -9.7111
  54   1.0000      -0.355754        -9.6806
  55   1.0000      -0.352767        -9.5993
  56   1.0000      -0.350613        -9.5407
  57   1.0000      -0.334066        -9.0904
  58   1.0000      -0.332501        -9.0478
  59   1.0000      -0.329498        -8.9661
  60   1.0000      -0.323790        -8.8108
  61   1.0000      -0.322680        -8.7806
  62   1.0000      -0.320938        -8.7332
  63   1.0000      -0.318601        -8.6696
  64   1.0000      -0.317150        -8.6301
  65   1.0000      -0.313997        -8.5443
  66   1.0000      -0.312621        -8.5069
  67   1.0000      -0.310207        -8.4412
  68   1.0000      -0.309447        -8.4205
  69   1.0000      -0.307089        -8.3563
  70   1.0000      -0.306561        -8.3419
  71   1.0000      -0.302602        -8.2342
  72   1.0000      -0.296445        -8.0667
  73   1.0000      -0.292847        -7.9688
  74   1.0000      -0.288291        -7.8448
  75   1.0000      -0.287911        -7.8345
  76   1.0000      -0.287754        -7.8302
  77   1.0000      -0.281138        -7.6502
  78   1.0000      -0.279467        -7.6047
  79   1.0000      -0.275812        -7.5052
  80   1.0000      -0.275115        -7.4863
  81   1.0000      -0.273117        -7.4319
  82   1.0000      -0.271640        -7.3917
  83   1.0000      -0.270120        -7.3503
  84   1.0000      -0.268406        -7.3037
  85   1.0000      -0.266686        -7.2569
  86   1.0000      -0.264970        -7.2102
  87   1.0000      -0.263438        -7.1685
  88   1.0000      -0.261441        -7.1142
  89   1.0000      -0.258936        -7.0460
  90   1.0000      -0.257567        -7.0088
  91   1.0000      -0.255103        -6.9417
  92   1.0000      -0.253960        -6.9106
  93   1.0000      -0.253504        -6.8982
  94   1.0000      -0.251726        -6.8498
  95   1.0000      -0.248881        -6.7724
  96   1.0000      -0.244710        -6.6589
  97   1.0000      -0.244310        -6.6480
  98   1.0000      -0.238516        -6.4903
  99   1.0000      -0.234976        -6.3940
 100   1.0000      -0.234223        -6.3735
 101   1.0000      -0.232075        -6.3151
 102   1.0000      -0.229889        -6.2556
 103   1.0000      -0.214940        -5.8488
 104   1.0000      -0.207904        -5.6574
 105   1.0000      -0.205966        -5.6046
 106   1.0000      -0.200060        -5.4439
 107   1.0000      -0.198901        -5.4124
 108   0.0000      -0.186641        -5.0788
 109   0.0000      -0.161866        -4.4046
 110   0.0000      -0.157645        -4.2898
 111   0.0000      -0.130391        -3.5481
 112   0.0000      -0.129146        -3.5142

                 SPIN DOWN ORBITALS
  NO   OCC          E(Eh)            E(eV)
   0   1.0000    -214.501123     -5836.8723
   1   1.0000     -24.261553      -660.1904
   2   1.0000     -20.643721      -561.7442
   3   1.0000     -20.631880      -561.4220
   4   1.0000     -20.630243      -561.3775
   5   1.0000      -4.025033      -109.5267
   6   1.0000      -4.023721      -109.4910
   7   1.0000      -4.021812      -109.4391
   8   1.0000      -4.021661      -109.4350
   9   1.0000      -4.018959      -109.3614
  10   1.0000      -4.016783      -109.3022
  11   1.0000      -4.016723      -109.3006
  12   1.0000      -4.015710      -109.2730
  13   1.0000      -4.015299      -109.2618
  14   1.0000      -4.014594      -109.2427
  15   1.0000      -2.686199       -73.0952
  16   1.0000      -2.244206       -61.0679
  17   1.0000      -2.242034       -61.0088
  18   1.0000      -2.240866       -60.9771
  19   1.0000      -2.240406       -60.9645
  20   1.0000      -2.238712       -60.9184
  21   1.0000      -2.236461       -60.8572
  22   1.0000      -2.236354       -60.8543
  23   1.0000      -2.236289       -60.8525
  24   1.0000      -2.234623       -60.8072
  25   1.0000      -2.234252       -60.7971
  26   1.0000      -2.233900       -60.7875
  27   1.0000      -2.233385       -60.7735
  28   1.0000      -2.231725       -60.7283
  29   1.0000      -2.231571       -60.7241
  30   1.0000      -2.231118       -60.7118
  31   1.0000      -2.230844       -60.7043
  32   1.0000      -2.230070       -60.6833
  33   1.0000      -2.230040       -60.6825
  34   1.0000      -2.229922       -60.6793
  35   1.0000      -2.229656       -60.6720
  36   1.0000      -2.228928       -60.6522
  37   1.0000      -2.228335       -60.6361
  38   1.0000      -2.227873       -60.6235
  39   1.0000      -2.226949       -60.5984
  40   1.0000      -2.226621       -60.5894
  41   1.0000      -2.225993       -60.5723
  42   1.0000      -2.225671       -60.5636
  43   1.0000      -2.223632       -60.5081
  44   1.0000      -2.223250       -60.4977
  45   1.0000      -2.222930       -60.4890
  46   1.0000      -1.696908       -46.1752
  47   1.0000      -1.669040       -45.4169
  48   1.0000      -1.665269       -45.3143
  49   1.0000      -0.401159       -10.9161
  50   1.0000      -0.381689       -10.3863
  51   1.0000      -0.359800        -9.7907
  52   1.0000      -0.357555        -9.7296
  53   1.0000      -0.354874        -9.6566
  54   1.0000      -0.352394        -9.5891
  55   1.0000      -0.350440        -9.5360
  56   1.0000      -0.348224        -9.4756
  57   1.0000      -0.335234        -9.1222
  58   1.0000      -0.331370        -9.0170
  59   1.0000      -0.327396        -8.9089
  60   1.0000      -0.323320        -8.7980
  61   1.0000      -0.320549        -8.7226
  62   1.0000      -0.318055        -8.6547
  63   1.0000      -0.317549        -8.6410
  64   1.0000      -0.314772        -8.5654
  65   1.0000      -0.313259        -8.5242
  66   1.0000      -0.311662        -8.4807
  67   1.0000      -0.310889        -8.4597
  68   1.0000      -0.307522        -8.3681
  69   1.0000      -0.305212        -8.3052
  70   1.0000      -0.303149        -8.2491
  71   1.0000      -0.302527        -8.2322
  72   1.0000      -0.297126        -8.0852
  73   1.0000      -0.294005        -8.0003
  74   1.0000      -0.289650        -7.8818
  75   1.0000      -0.289352        -7.8737
  76   1.0000      -0.288784        -7.8582
  77   1.0000      -0.281151        -7.6505
  78   1.0000      -0.279866        -7.6155
  79   1.0000      -0.276942        -7.5360
  80   1.0000      -0.275927        -7.5084
  81   1.0000      -0.273229        -7.4349
  82   1.0000      -0.272785        -7.4229
  83   1.0000      -0.270063        -7.3488
  84   1.0000      -0.268289        -7.3005
  85   1.0000      -0.267745        -7.2857
  86   1.0000      -0.266153        -7.2424
  87   1.0000      -0.264889        -7.2080
  88   1.0000      -0.262241        -7.1359
  89   1.0000      -0.259329        -7.0567
  90   1.0000      -0.258162        -7.0249
  91   1.0000      -0.255743        -6.9591
  92   1.0000      -0.254424        -6.9232
  93   1.0000      -0.253623        -6.9014
  94   1.0000      -0.253121        -6.8878
  95   1.0000      -0.250149        -6.8069
  96   1.0000      -0.245413        -6.6780
  97   1.0000      -0.245086        -6.6691
  98   1.0000      -0.239057        -6.5051
  99   1.0000      -0.236298        -6.4300
 100   1.0000      -0.235560        -6.4099
 101   1.0000      -0.232875        -6.3368
 102   1.0000      -0.230666        -6.2767
 103   1.0000      -0.208440        -5.6719
 104   1.0000      -0.189948        -5.1687
 105   1.0000      -0.184489        -5.0202
 106   0.0000      -0.143865        -3.9148
 107   0.0000      -0.143237        -3.8977
 108   0.0000      -0.139782        -3.8037
 109   0.0000      -0.113631        -3.0921
 110   0.0000      -0.112731        -3.0676

MULLIKEN ATOMIC CHARGES AND SPIN POPULATIONS
--------------------------------------------
   0 Au:    0.262254   -0.027999
   1 Au:    0.463383   -0.118413
   2 Au:    0.478313   -0.120958
   3 Au:    0.461825   -0.121066
   4 Au:    0.259557   -0.027152
   5 Au:    0.260670   -0.041083
   6 Au:    0.131923   -0.145709
   7 Au:    0.371123   -0.172422
   8 Au:    0.127271   -0.146977
   9 Au:    0.142900   -0.166597
  10 Cr:   -2.959218    3.088375
Sum of atomic charges         :   -0.0000000

LOEWDIN ATOMIC CHARGES AND SPIN POPULATIONS
-------------------------------------------
   0 Au:    0.127500   -0.049788
   1 Au:    0.089538   -0.103433
   2 Au:    0.089117   -0.110002
   3 Au:    0.087585   -0.105911
   4 Au:    0.127577   -0.049007
   5 Au:    0.128509   -0.066306
   6 Au:    0.068411   -0.107414
   7 Au:    0.131143   -0.163062
   8 Au:    0.069494   -0.107200
   9 Au:    0.058604   -0.120028
  10 Cr:   -0.977477    2.982151

  Mayer bond orders larger than 0.100000
B(  0-Au,  1-Au) :   0.2147 B(  0-Au,  2-Au) :   0.1969 B(  0-Au,  8-Au) :   0.4411
B(  0-Au, 10-Cr) :   0.5357 B(  1-Au,  2-Au) :   0.1531 B(  1-Au,  3-Au) :   0.1051
B(  1-Au,  5-Au) :   0.2131 B(  1-Au, 10-Cr) :   0.7464 B(  2-Au,  3-Au) :   0.1573
B(  2-Au,  4-Au) :   0.1932 B(  2-Au, 10-Cr) :   0.7588 B(  3-Au,  4-Au) :   0.2180
B(  3-Au,  5-Au) :   0.2162 B(  3-Au, 10-Cr) :   0.7341 B(  4-Au,  6-Au) :   0.4388
B(  4-Au, 10-Cr) :   0.5352 B(  5-Au,  9-Au) :   0.4147 B(  5-Au, 10-Cr) :   0.5224
B(  6-Au,  7-Au) :   0.2977 B(  6-Au, 10-Cr) :   0.7645 B(  7-Au,  8-Au) :   0.2989
B(  7-Au,  9-Au) :   0.3191 B(  7-Au, 10-Cr) :   0.3085 B(  8-Au, 10-Cr) :   0.7613
B(  9-Au, 10-Cr) :   0.7925

FINAL SINGLE POINT ENERGY     -2402.480820405617

DIPOLE MOMENT
-------------
                                X             Y             Z
Electronic contribution:     -3.25414       7.56786      -3.06695
Nuclear contribution   :      3.18232      -7.31445       2.96777
                        -----------------------------------------
Total Dipole Moment    :     -0.07181       0.25341      -0.09918
                        -----------------------------------------
Magnitude (a.u.)       :      0.28145
Magnitude (Debye)      :      0.71538

Rotational constants in cm-1:     0.002241     0.001381     0.001346
Rotational constants in MHz :    67.190558    41.411432    40.339302

                             ****ORCA TERMINATED NORMALLY****
TOTAL RUN TIME: 0 days 0 hours 15 minutes 26 seconds 425 msec
