                         Program Version 5.0.3 -  RELEASE  -
|  1> !R2SCAN def2-TZVP VERYSLOWCONV
|  2> !KDIIS
|  3> %scf
|  4>   AutoTRAHIter 200
|  5>   maxiter 400
|  6> end
|  7>
|  8> %pal nprocs 6 end
|  9>
| 10> *xyzfile 0 5 pbe.xyz
| 11>
| 12> $new_job
| 13>
| 14> !R2SCAN def2-TZVP VERYSLOWCONV
| 15> !KDIIS
| 16> %scf
| 17>   AutoTRAHIter 200
| 18>   maxiter 400
| 19> end
| 20>
| 21>
| 22> %pal nprocs 6 end
| 23>
| 24> *xyzfile 0 3 pbe.xyz
| 25>
| 26>
| 27>
| 28>
| 29>
| 30>                          ****END OF INPUT****
 Total Charge           Charge          ....    0
 Multiplicity           Mult            ....    5
 Number of Electrons    NEL             ....  214
FINAL SINGLE POINT ENERGY     -2402.873721716305

CARTESIAN COORDINATES (ANGSTROEM)
---------------------------------
  Au    10.403558    5.440320    7.810247
  Au     8.553476    3.466189    8.573691
  Au    10.245123    4.481904   10.536539
  Au     7.577303    4.191161   11.285099
  Au     8.861205    6.583079   11.999990
  Au     6.010365    4.741350    8.961433
  Au     8.079530    8.524694   10.362126
  Au     7.372447    9.826476    8.027754
  Au     9.124053    7.749233    7.525863
  Au     6.306813    7.339358    8.342165
  Cr     8.344437    6.025103    9.427401

 Multiplicity           Mult            ....    3
 Number of Electrons    NEL             ....  214
 Basis Dimension        Dim             ....  445

ORBITAL ENERGIES
----------------
                 SPIN UP ORBITALS
  NO   OCC          E(Eh)            E(eV)
   0   1.0000    -215.293802     -5858.4422
   1   1.0000     -24.597078      -669.3205
   2   1.0000     -20.866390      -567.8033
   3   1.0000     -20.862237      -567.6903
   4   1.0000     -20.861464      -567.6693
   5   1.0000      -4.115263      -111.9820
   6   1.0000      -4.114409      -111.9587
   7   1.0000      -4.111687      -111.8847
   8   1.0000      -4.111501      -111.8796
   9   1.0000      -4.108969      -111.8107
  10   1.0000      -4.106850      -111.7531
  11   1.0000      -4.106781      -111.7512
  12   1.0000      -4.106430      -111.7416
  13   1.0000      -4.106056      -111.7315
  14   1.0000      -4.105493      -111.7161
  15   1.0000      -2.914285       -79.3017
  16   1.0000      -2.307166       -62.7812
  17   1.0000      -2.305010       -62.7225
  18   1.0000      -2.303488       -62.6811
  19   1.0000      -2.303128       -62.6713
  20   1.0000      -2.301475       -62.6263
  21   1.0000      -2.299312       -62.5675
  22   1.0000      -2.299121       -62.5623
  23   1.0000      -2.298915       -62.5567
  24   1.0000      -2.297676       -62.5229
  25   1.0000      -2.297556       -62.5197
  26   1.0000      -2.297138       -62.5083
  27   1.0000      -2.296509       -62.4912
  28   1.0000      -2.295400       -62.4610
  29   1.0000      -2.294974       -62.4494
  30   1.0000      -2.294623       -62.4399
  31   1.0000      -2.294453       -62.4353
  32   1.0000      -2.293835       -62.4184
  33   1.0000      -2.293441       -62.4077
  34   1.0000      -2.292758       -62.3891
  35   1.0000      -2.292584       -62.3844
  36   1.0000      -2.291761       -62.3620
  37   1.0000      -2.291404       -62.3523
  38   1.0000      -2.290819       -62.3363
  39   1.0000      -2.290394       -62.3248
  40   1.0000      -2.290043       -62.3152
  41   1.0000      -2.289165       -62.2913
  42   1.0000      -2.288856       -62.2829
  43   1.0000      -2.287468       -62.2452
  44   1.0000      -2.287119       -62.2357
  45   1.0000      -2.286950       -62.2311
  46   1.0000      -1.862882       -50.6916
  47   1.0000      -1.859746       -50.6063
  48   1.0000      -1.858895       -50.5831
  49   1.0000      -0.410511       -11.1706
  50   1.0000      -0.386840       -10.5264
  51   1.0000      -0.367692       -10.0054
  52   1.0000      -0.365163        -9.9366
  53   1.0000      -0.364533        -9.9194
  54   1.0000      -0.363605        -9.8942
  55   1.0000      -0.360965        -9.8223
  56   1.0000      -0.357666        -9.7326
  57   1.0000      -0.342443        -9.3184
  58   1.0000      -0.341204        -9.2846
  59   1.0000      -0.338380        -9.2078
  60   1.0000      -0.332257        -9.0412
  61   1.0000      -0.330233        -8.9861
  62   1.0000      -0.329244        -8.9592
  63   1.0000      -0.327071        -8.9001
  64   1.0000      -0.325718        -8.8632
  65   1.0000      -0.322563        -8.7774
  66   1.0000      -0.320959        -8.7337
  67   1.0000      -0.318955        -8.6792
  68   1.0000      -0.318133        -8.6568
  69   1.0000      -0.315618        -8.5884
  70   1.0000      -0.314404        -8.5554
  71   1.0000      -0.310690        -8.4543
  72   1.0000      -0.305263        -8.3066
  73   1.0000      -0.300610        -8.1800
  74   1.0000      -0.296587        -8.0705
  75   1.0000      -0.296127        -8.0580
  76   1.0000      -0.295299        -8.0355
  77   1.0000      -0.289209        -7.8698
  78   1.0000      -0.287789        -7.8311
  79   1.0000      -0.283975        -7.7273
  80   1.0000      -0.283281        -7.7085
  81   1.0000      -0.280216        -7.6251
  82   1.0000      -0.279828        -7.6145
  83   1.0000      -0.277068        -7.5394
  84   1.0000      -0.275193        -7.4884
  85   1.0000      -0.274484        -7.4691
  86   1.0000      -0.272019        -7.4020
  87   1.0000      -0.270870        -7.3707
  88   1.0000      -0.269241        -7.3264
  89   1.0000      -0.266547        -7.2531
  90   1.0000      -0.265446        -7.2232
  91   1.0000      -0.262706        -7.1486
  92   1.0000      -0.261459        -7.1146
  93   1.0000      -0.259774        -7.0688
  94   1.0000      -0.259119        -7.0510
  95   1.0000      -0.255947        -6.9647
  96   1.0000      -0.251808        -6.8520
  97   1.0000      -0.251270        -6.8374
  98   1.0000      -0.245047        -6.6681
  99   1.0000      -0.241176        -6.5627
 100   1.0000      -0.239724        -6.5232
 101   1.0000      -0.237060        -6.4507
 102   1.0000      -0.233546        -6.3551
 103   1.0000      -0.217364        -5.9148
 104   1.0000      -0.214808        -5.8452
 105   1.0000      -0.212705        -5.7880
 106   1.0000      -0.205909        -5.6031
 107   1.0000      -0.204890        -5.5753
 108   0.0000      -0.184908        -5.0316
 109   0.0000      -0.158871        -4.3231
 110   0.0000      -0.154124        -4.1939
 111   0.0000      -0.123746        -3.3673
 112   0.0000      -0.123415        -3.3583

                 SPIN DOWN ORBITALS
  NO   OCC          E(Eh)            E(eV)
   0   1.0000    -215.293178     -5858.4252
   1   1.0000     -24.537109      -667.6887
   2   1.0000     -20.825088      -566.6794
   3   1.0000     -20.814101      -566.3805
   4   1.0000     -20.812293      -566.3313
   5   1.0000      -4.115962      -112.0010
   6   1.0000      -4.115583      -111.9907
   7   1.0000      -4.112024      -111.8939
   8   1.0000      -4.111814      -111.8881
   9   1.0000      -4.109289      -111.8194
  10   1.0000      -4.106999      -111.7571
  11   1.0000      -4.106902      -111.7545
  12   1.0000      -4.106058      -111.7315
  13   1.0000      -4.105666      -111.7209
  14   1.0000      -4.105440      -111.7147
  15   1.0000      -2.756582       -75.0104
  16   1.0000      -2.308075       -62.8059
  17   1.0000      -2.305559       -62.7374
  18   1.0000      -2.303654       -62.6856
  19   1.0000      -2.303519       -62.6819
  20   1.0000      -2.302218       -62.6465
  21   1.0000      -2.299713       -62.5784
  22   1.0000      -2.299497       -62.5725
  23   1.0000      -2.299431       -62.5707
  24   1.0000      -2.298458       -62.5442
  25   1.0000      -2.298348       -62.5412
  26   1.0000      -2.296890       -62.5016
  27   1.0000      -2.296316       -62.4859
  28   1.0000      -2.294668       -62.4411
  29   1.0000      -2.294550       -62.4379
  30   1.0000      -2.294094       -62.4255
  31   1.0000      -2.293992       -62.4227
  32   1.0000      -2.293834       -62.4184
  33   1.0000      -2.293396       -62.4065
  34   1.0000      -2.292775       -62.3896
  35   1.0000      -2.292675       -62.3869
  36   1.0000      -2.291733       -62.3612
  37   1.0000      -2.291578       -62.3570
  38   1.0000      -2.290878       -62.3380
  39   1.0000      -2.290390       -62.3247
  40   1.0000      -2.290019       -62.3146
  41   1.0000      -2.289160       -62.2912
  42   1.0000      -2.288809       -62.2817
  43   1.0000      -2.286935       -62.2307
  44   1.0000      -2.286594       -62.2214
  45   1.0000      -2.286568       -62.2207
  46   1.0000      -1.721740       -46.8509
  47   1.0000      -1.696023       -46.1511
  48   1.0000      -1.691878       -46.0383
  49   1.0000      -0.406303       -11.0561
  50   1.0000      -0.388138       -10.5618
  51   1.0000      -0.367782       -10.0079
  52   1.0000      -0.366281        -9.9670
  53   1.0000      -0.362775        -9.8716
  54   1.0000      -0.360494        -9.8096
  55   1.0000      -0.358386        -9.7522
  56   1.0000      -0.356007        -9.6874
  57   1.0000      -0.344037        -9.3617
  58   1.0000      -0.340721        -9.2715
  59   1.0000      -0.336695        -9.1619
  60   1.0000      -0.332002        -9.0342
  61   1.0000      -0.329343        -8.9619
  62   1.0000      -0.326815        -8.8931
  63   1.0000      -0.326163        -8.8753
  64   1.0000      -0.323351        -8.7988
  65   1.0000      -0.322100        -8.7648
  66   1.0000      -0.320374        -8.7178
  67   1.0000      -0.319789        -8.7019
  68   1.0000      -0.316302        -8.6070
  69   1.0000      -0.313712        -8.5365
  70   1.0000      -0.311286        -8.4705
  71   1.0000      -0.310608        -8.4521
  72   1.0000      -0.306254        -8.3336
  73   1.0000      -0.302145        -8.2218
  74   1.0000      -0.298521        -8.1232
  75   1.0000      -0.298366        -8.1189
  76   1.0000      -0.297267        -8.0890
  77   1.0000      -0.289902        -7.8886
  78   1.0000      -0.288499        -7.8504
  79   1.0000      -0.285723        -7.7749
  80   1.0000      -0.284622        -7.7450
  81   1.0000      -0.281623        -7.6633
  82   1.0000      -0.280697        -7.6382
  83   1.0000      -0.278111        -7.5678
  84   1.0000      -0.276082        -7.5126
  85   1.0000      -0.275898        -7.5076
  86   1.0000      -0.273714        -7.4481
  87   1.0000      -0.273342        -7.4380
  88   1.0000      -0.270516        -7.3611
  89   1.0000      -0.266901        -7.2628
  90   1.0000      -0.266050        -7.2396
  91   1.0000      -0.263827        -7.1791
  92   1.0000      -0.262376        -7.1396
  93   1.0000      -0.261228        -7.1084
  94   1.0000      -0.260379        -7.0853
  95   1.0000      -0.257986        -7.0201
  96   1.0000      -0.252859        -6.8806
  97   1.0000      -0.252481        -6.8704
  98   1.0000      -0.245876        -6.6906
  99   1.0000      -0.243284        -6.6201
 100   1.0000      -0.241612        -6.5746
 101   1.0000      -0.239332        -6.5126
 102   1.0000      -0.235943        -6.4203
 103   1.0000      -0.210501        -5.7280
 104   1.0000      -0.190520        -5.1843
 105   1.0000      -0.185026        -5.0348
 106   0.0000      -0.138926        -3.7804
 107   0.0000      -0.136173        -3.7055
 108   0.0000      -0.135423        -3.6850
 109   0.0000      -0.089794        -2.4434
 110   0.0000      -0.089326        -2.4307

MULLIKEN ATOMIC CHARGES AND SPIN POPULATIONS
--------------------------------------------
   0 Au:    0.247531   -0.030664
   1 Au:    0.421620   -0.175136
   2 Au:    0.431446   -0.177728
   3 Au:    0.420458   -0.177743
   4 Au:    0.244616   -0.029253
   5 Au:    0.243400   -0.043980
   6 Au:    0.112436   -0.188151
   7 Au:    0.342851   -0.224538
   8 Au:    0.108140   -0.189307
   9 Au:    0.118053   -0.214616
  10 Cr:   -2.690549    3.451116
Sum of atomic charges         :   -0.0000000

LOEWDIN ATOMIC CHARGES AND SPIN POPULATIONS
-------------------------------------------
   0 Au:    0.122748   -0.068109
   1 Au:    0.084522   -0.133936
   2 Au:    0.084405   -0.142470
   3 Au:    0.082878   -0.136092
   4 Au:    0.122750   -0.067204
   5 Au:    0.124123   -0.088076
   6 Au:    0.062043   -0.132464
   7 Au:    0.133159   -0.196772
   8 Au:    0.062930   -0.132154
   9 Au:    0.053363   -0.150022
  10 Cr:   -0.932921    3.247297

  Mayer bond orders larger than 0.100000
B(  0-Au,  1-Au) :   0.2052 B(  0-Au,  2-Au) :   0.1866 B(  0-Au,  8-Au) :   0.4421
B(  0-Au, 10-Cr) :   0.5022 B(  1-Au,  2-Au) :   0.1377 B(  1-Au,  5-Au) :   0.2023
B(  1-Au, 10-Cr) :   0.7211 B(  2-Au,  3-Au) :   0.1421 B(  2-Au,  4-Au) :   0.1828
B(  2-Au, 10-Cr) :   0.7508 B(  3-Au,  4-Au) :   0.2086 B(  3-Au,  5-Au) :   0.2054
B(  3-Au, 10-Cr) :   0.7079 B(  4-Au,  6-Au) :   0.4400 B(  4-Au, 10-Cr) :   0.5016
B(  5-Au,  9-Au) :   0.4130 B(  5-Au, 10-Cr) :   0.4891 B(  6-Au,  7-Au) :   0.2839
B(  6-Au, 10-Cr) :   0.7312 B(  7-Au,  8-Au) :   0.2850 B(  7-Au,  9-Au) :   0.3059
B(  7-Au, 10-Cr) :   0.2882 B(  8-Au, 10-Cr) :   0.7273 B(  9-Au, 10-Cr) :   0.7616

FINAL SINGLE POINT ENERGY     -2402.867310747334

DIPOLE MOMENT
-------------
                                X             Y             Z
Electronic contribution:     -3.26175       7.57668      -3.07149
Nuclear contribution   :      3.18232      -7.31445       2.96777
                        -----------------------------------------
Total Dipole Moment    :     -0.07942       0.26223      -0.10372
                        -----------------------------------------
Magnitude (a.u.)       :      0.29297
Magnitude (Debye)      :      0.74466

Rotational constants in cm-1:     0.002241     0.001381     0.001346
Rotational constants in MHz :    67.190558    41.411432    40.339302

                             ****ORCA TERMINATED NORMALLY****
TOTAL RUN TIME: 0 days 0 hours 5 minutes 1 seconds 15 msec
