                         Program Version 5.0.3 -  RELEASE  -
|  1> !RI-B2PLYP def2-TZVP def2-TZVP/C
|  2> !RIJCOSX VERYSLOWCONV
|  3>
|  4> %scf
|  5>   AutoTRAHIter 200
|  6>   maxiter 400
|  7> end
|  8>
|  9>
| 10> %pal nprocs 6 end
| 11>
| 12> *xyzfile 0 6 pbe.xyz
| 13>
| 14> $new_job
| 15>
| 16> !RI-B2PLYP def2-TZVP def2-TZVP/C
| 17> !RIJCOSX VERYSLOWCONV
| 18>
| 19> %scf
| 20>   AutoTRAHIter 200
| 21>   maxiter 400
| 22> end
| 23>
| 24>
| 25> %pal nprocs 6 end
| 26>
| 27> *xyzfile 0 4 pbe.xyz
| 28>
| 29>
| 30>
| 31>
| 32>
| 33>                          ****END OF INPUT****
 Total Charge           Charge          ....    0
 Multiplicity           Mult            ....    6
 Number of Electrons    NEL             ....  215
MP2 TOTAL ENERGY:    -2506.648491627 Eh
FINAL SINGLE POINT ENERGY     -2506.648491626895

CARTESIAN COORDINATES (ANGSTROEM)
---------------------------------
  Au     9.620322    7.099092    9.165754
  Au     8.028863    7.113122    4.913406
  Au     9.428267    4.361282    9.257526
  Au     8.906321    5.427267    6.779842
  Au     8.107483    9.801207    5.845744
  Au     6.314062    9.994150    8.016424
  Au     9.092775    9.628130    8.512477
  Au     7.000902    5.635693    9.087997
  Au     5.151813    7.421774    8.387706
  Au     5.647033    8.421811    5.768198
  Mn     7.631699    7.669630    7.476719

 Multiplicity           Mult            ....    4
 Number of Electrons    NEL             ....  215
 Basis Dimension        Dim             ....  445

ORBITAL ENERGIES
----------------
                 SPIN UP ORBITALS
  NO   OCC          E(Eh)            E(eV)
   0   1.0000    -237.614586     -6465.8216
   1   1.0000     -28.119690      -765.1757
   2   1.0000     -24.037452      -654.0923
   3   1.0000     -24.037451      -654.0923
   4   1.0000     -24.036966      -654.0791
   5   1.0000      -4.394591      -119.5829
   6   1.0000      -4.394522      -119.5810
   7   1.0000      -4.394448      -119.5790
   8   1.0000      -4.394403      -119.5778
   9   1.0000      -4.394392      -119.5775
  10   1.0000      -4.394353      -119.5764
  11   1.0000      -4.392776      -119.5335
  12   1.0000      -4.392768      -119.5333
  13   1.0000      -4.392725      -119.5321
  14   1.0000      -4.386132      -119.3527
  15   1.0000      -3.596598       -97.8684
  16   1.0000      -2.518061       -68.5199
  17   1.0000      -2.517723       -68.5107
  18   1.0000      -2.517677       -68.5095
  19   1.0000      -2.517555       -68.5061
  20   1.0000      -2.515590       -68.4527
  21   1.0000      -2.515583       -68.4525
  22   1.0000      -2.515232       -68.4429
  23   1.0000      -2.513384       -68.3927
  24   1.0000      -2.513381       -68.3926
  25   1.0000      -2.513288       -68.3900
  26   1.0000      -2.512933       -68.3804
  27   1.0000      -2.512894       -68.3793
  28   1.0000      -2.511698       -68.3468
  29   1.0000      -2.511660       -68.3457
  30   1.0000      -2.510981       -68.3273
  31   1.0000      -2.510863       -68.3241
  32   1.0000      -2.508864       -68.2697
  33   1.0000      -2.508836       -68.2689
  34   1.0000      -2.508072       -68.2481
  35   1.0000      -2.507491       -68.2323
  36   1.0000      -2.507453       -68.2313
  37   1.0000      -2.507045       -68.2202
  38   1.0000      -2.507033       -68.2198
  39   1.0000      -2.506636       -68.2090
  40   1.0000      -2.505864       -68.1880
  41   1.0000      -2.505839       -68.1873
  42   1.0000      -2.505645       -68.1821
  43   1.0000      -2.504032       -68.1382
  44   1.0000      -2.500552       -68.0435
  45   1.0000      -2.500550       -68.0434
  46   1.0000      -2.397894       -65.2500
  47   1.0000      -2.397869       -65.2493
  48   1.0000      -2.397101       -65.2284
  49   1.0000      -0.517633       -14.0855
  50   1.0000      -0.507402       -13.8071
  51   1.0000      -0.507370       -13.8062
  52   1.0000      -0.501957       -13.6589
  53   1.0000      -0.501943       -13.6586
  54   1.0000      -0.485582       -13.2134
  55   1.0000      -0.466722       -12.7001
  56   1.0000      -0.450688       -12.2639
  57   1.0000      -0.447558       -12.1787
  58   1.0000      -0.447527       -12.1778
  59   1.0000      -0.444124       -12.0852
  60   1.0000      -0.439689       -11.9645
  61   1.0000      -0.439595       -11.9620
  62   1.0000      -0.435328       -11.8459
  63   1.0000      -0.432453       -11.7676
  64   1.0000      -0.432426       -11.7669
  65   1.0000      -0.422125       -11.4866
  66   1.0000      -0.422056       -11.4847
  67   1.0000      -0.420206       -11.4344
  68   1.0000      -0.420177       -11.4336
  69   1.0000      -0.419533       -11.4161
  70   1.0000      -0.419483       -11.4147
  71   1.0000      -0.403073       -10.9682
  72   1.0000      -0.402791       -10.9605
  73   1.0000      -0.402698       -10.9580
  74   1.0000      -0.395692       -10.7673
  75   1.0000      -0.393254       -10.7010
  76   1.0000      -0.393183       -10.6990
  77   1.0000      -0.383375       -10.4322
  78   1.0000      -0.383348       -10.4314
  79   1.0000      -0.381340       -10.3768
  80   1.0000      -0.381315       -10.3761
  81   1.0000      -0.378729       -10.3057
  82   1.0000      -0.376597       -10.2477
  83   1.0000      -0.376524       -10.2457
  84   1.0000      -0.369176       -10.0458
  85   1.0000      -0.366696        -9.9783
  86   1.0000      -0.366670        -9.9776
  87   1.0000      -0.364753        -9.9254
  88   1.0000      -0.364703        -9.9241
  89   1.0000      -0.362843        -9.8735
  90   1.0000      -0.362276        -9.8580
  91   1.0000      -0.359750        -9.7893
  92   1.0000      -0.359739        -9.7890
  93   1.0000      -0.352728        -9.5982
  94   1.0000      -0.352669        -9.5966
  95   1.0000      -0.350395        -9.5347
  96   1.0000      -0.348819        -9.4918
  97   1.0000      -0.348671        -9.4878
  98   1.0000      -0.348641        -9.4870
  99   1.0000      -0.345010        -9.3882
 100   1.0000      -0.340039        -9.2529
 101   1.0000      -0.340021        -9.2524
 102   1.0000      -0.326826        -8.8934
 103   1.0000      -0.321684        -8.7535
 104   1.0000      -0.321480        -8.7479
 105   1.0000      -0.321440        -8.7468
 106   1.0000      -0.269119        -7.3231
 107   1.0000      -0.269057        -7.3214
 108   1.0000      -0.218355        -5.9417
 109   0.0000      -0.104412        -2.8412
 110   0.0000      -0.104370        -2.8400
 111   0.0000      -0.069739        -1.8977
 112   0.0000      -0.059294        -1.6135
 113   0.0000      -0.059177        -1.6103

                 SPIN DOWN ORBITALS
  NO   OCC          E(Eh)            E(eV)
   0   1.0000    -237.612429     -6465.7629
   1   1.0000     -28.019470      -762.4485
   2   1.0000     -23.945318      -651.5852
   3   1.0000     -23.945195      -651.5819
   4   1.0000     -23.945192      -651.5818
   5   1.0000      -4.395146      -119.5980
   6   1.0000      -4.394956      -119.5928
   7   1.0000      -4.394904      -119.5914
   8   1.0000      -4.394565      -119.5822
   9   1.0000      -4.394482      -119.5799
  10   1.0000      -4.394434      -119.5786
  11   1.0000      -4.392113      -119.5155
  12   1.0000      -4.392108      -119.5153
  13   1.0000      -4.392060      -119.5140
  14   1.0000      -4.387054      -119.3778
  15   1.0000      -3.314789       -90.2000
  16   1.0000      -2.516932       -68.4892
  17   1.0000      -2.516753       -68.4843
  18   1.0000      -2.516161       -68.4682
  19   1.0000      -2.516114       -68.4669
  20   1.0000      -2.514680       -68.4279
  21   1.0000      -2.514670       -68.4276
  22   1.0000      -2.513789       -68.4037
  23   1.0000      -2.512424       -68.3665
  24   1.0000      -2.512423       -68.3665
  25   1.0000      -2.511750       -68.3482
  26   1.0000      -2.511707       -68.3470
  27   1.0000      -2.511660       -68.3458
  28   1.0000      -2.510919       -68.3256
  29   1.0000      -2.510401       -68.3115
  30   1.0000      -2.510379       -68.3109
  31   1.0000      -2.509932       -68.2987
  32   1.0000      -2.508898       -68.2706
  33   1.0000      -2.508873       -68.2699
  34   1.0000      -2.508028       -68.2469
  35   1.0000      -2.507281       -68.2266
  36   1.0000      -2.507252       -68.2258
  37   1.0000      -2.506958       -68.2178
  38   1.0000      -2.506948       -68.2175
  39   1.0000      -2.506452       -68.2040
  40   1.0000      -2.505293       -68.1725
  41   1.0000      -2.505270       -68.1719
  42   1.0000      -2.505137       -68.1682
  43   1.0000      -2.504909       -68.1621
  44   1.0000      -2.501701       -68.0747
  45   1.0000      -2.501695       -68.0746
  46   1.0000      -2.076880       -56.5148
  47   1.0000      -2.074344       -56.4458
  48   1.0000      -2.074326       -56.4453
  49   1.0000      -0.490560       -13.3488
  50   1.0000      -0.472705       -12.8630
  51   1.0000      -0.457502       -12.4493
  52   1.0000      -0.457406       -12.4466
  53   1.0000      -0.454588       -12.3700
  54   1.0000      -0.452678       -12.3180
  55   1.0000      -0.452670       -12.3178
  56   1.0000      -0.451051       -12.2737
  57   1.0000      -0.445177       -12.1139
  58   1.0000      -0.434355       -11.8194
  59   1.0000      -0.434330       -11.8187
  60   1.0000      -0.425353       -11.5744
  61   1.0000      -0.425295       -11.5729
  62   1.0000      -0.425041       -11.5659
  63   1.0000      -0.422782       -11.5045
  64   1.0000      -0.422759       -11.5039
  65   1.0000      -0.420992       -11.4558
  66   1.0000      -0.416101       -11.3227
  67   1.0000      -0.416062       -11.3216
  68   1.0000      -0.409684       -11.1481
  69   1.0000      -0.409646       -11.1470
  70   1.0000      -0.405830       -11.0432
  71   1.0000      -0.403455       -10.9786
  72   1.0000      -0.397227       -10.8091
  73   1.0000      -0.397196       -10.8083
  74   1.0000      -0.384017       -10.4496
  75   1.0000      -0.384002       -10.4492
  76   1.0000      -0.382457       -10.4072
  77   1.0000      -0.378599       -10.3022
  78   1.0000      -0.378530       -10.3003
  79   1.0000      -0.376026       -10.2322
  80   1.0000      -0.373771       -10.1708
  81   1.0000      -0.373749       -10.1702
  82   1.0000      -0.367469        -9.9993
  83   1.0000      -0.367281        -9.9942
  84   1.0000      -0.367257        -9.9936
  85   1.0000      -0.366818        -9.9816
  86   1.0000      -0.366804        -9.9812
  87   1.0000      -0.362495        -9.8640
  88   1.0000      -0.354549        -9.6478
  89   1.0000      -0.354502        -9.6465
  90   1.0000      -0.352200        -9.5838
  91   1.0000      -0.352039        -9.5795
  92   1.0000      -0.351361        -9.5610
  93   1.0000      -0.351341        -9.5605
  94   1.0000      -0.350221        -9.5300
  95   1.0000      -0.342338        -9.3155
  96   1.0000      -0.342331        -9.3153
  97   1.0000      -0.331014        -9.0073
  98   1.0000      -0.329024        -8.9532
  99   1.0000      -0.324573        -8.8321
 100   1.0000      -0.324540        -8.8312
 101   1.0000      -0.288495        -7.8504
 102   1.0000      -0.288476        -7.8498
 103   1.0000      -0.231181        -6.2907
 104   1.0000      -0.209431        -5.6989
 105   1.0000      -0.209372        -5.6973
 106   0.0000      -0.077972        -2.1217
 107   0.0000      -0.077858        -2.1186
 108   0.0000      -0.070306        -1.9131
 109   0.0000      -0.042252        -1.1497
 110   0.0000      -0.009063        -0.2466

MULLIKEN ATOMIC CHARGES AND SPIN POPULATIONS
--------------------------------------------
   0 Au:    0.028459   -0.305633
   1 Au:    0.205528    0.008809
   2 Au:    0.274822    0.032649
   3 Au:    0.029131   -0.305403
   4 Au:    0.205935   -0.257667
   5 Au:    0.205984   -0.255851
   6 Au:    0.204706    0.008417
   7 Au:    0.027767   -0.304701
   8 Au:    0.205601    0.009008
   9 Au:    0.204979   -0.254293
  10 Mn:   -1.592911    4.624666
Sum of atomic charges         :   -0.0000000

LOEWDIN ATOMIC CHARGES AND SPIN POPULATIONS
-------------------------------------------
   0 Au:   -0.023530   -0.163536
   1 Au:    0.072135   -0.105850
   2 Au:    0.089699   -0.048004
   3 Au:   -0.023428   -0.163678
   4 Au:    0.012978   -0.191542
   5 Au:    0.012903   -0.190686
   6 Au:    0.072111   -0.106429
   7 Au:   -0.023526   -0.163260
   8 Au:    0.071740   -0.105180
   9 Au:    0.013110   -0.189916
  10 Mn:   -0.274193    4.428081

  Mayer bond orders larger than 0.100000
B(  0-Au,  2-Au) :   0.3289 B(  0-Au,  6-Au) :   0.3747 B(  0-Au, 10-Mn) :   0.4996
B(  1-Au,  3-Au) :   0.3754 B(  1-Au,  4-Au) :   0.1495 B(  1-Au,  9-Au) :   0.1481
B(  1-Au, 10-Mn) :   0.5033 B(  2-Au,  3-Au) :   0.3281 B(  2-Au,  7-Au) :   0.3271
B(  2-Au, 10-Mn) :   0.1019 B(  3-Au, 10-Mn) :   0.4998 B(  4-Au,  5-Au) :   0.1880
B(  4-Au,  6-Au) :   0.1486 B(  4-Au,  9-Au) :   0.1883 B(  4-Au, 10-Mn) :   0.4302
B(  5-Au,  6-Au) :   0.1497 B(  5-Au,  8-Au) :   0.1489 B(  5-Au,  9-Au) :   0.1880
B(  5-Au, 10-Mn) :   0.4304 B(  6-Au, 10-Mn) :   0.5033 B(  7-Au,  8-Au) :   0.3758
B(  7-Au, 10-Mn) :   0.5009 B(  8-Au,  9-Au) :   0.1492 B(  8-Au, 10-Mn) :   0.5024
B(  9-Au, 10-Mn) :   0.4310

MP2 TOTAL ENERGY:    -2506.661975867 Eh
FINAL SINGLE POINT ENERGY     -2506.661975867323

DIPOLE MOMENT
-------------
                                X             Y             Z
Electronic contribution:      3.51829      -6.42668       3.46973
Nuclear contribution   :     -3.55243       6.49306      -3.50548
                        -----------------------------------------
Total Dipole Moment    :     -0.03413       0.06638      -0.03575
                        -----------------------------------------
Magnitude (a.u.)       :      0.08276
Magnitude (Debye)      :      0.21037

Rotational constants in cm-1:     0.002289     0.001360     0.001359
Rotational constants in MHz :    68.619124    40.759069    40.746877

                             ****ORCA TERMINATED NORMALLY****
TOTAL RUN TIME: 0 days 0 hours 27 minutes 49 seconds 587 msec
