                         Program Version 5.0.3 -  RELEASE  -
|  1> !PBE def2-TZVP VERYSLOWCONV
|  2> !KDIIS
|  3>
|  4> %scf
|  5>   AutoTRAHIter 200
|  6>   maxiter 400
|  7> end
|  8>
|  9>
| 10> %pal nprocs 6 end
| 11>
| 12> *xyzfile 0 6 pbe.xyz
| 13>
| 14> $new_job
| 15>
| 16> !PBE def2-TZVP VERYSLOWCONV
| 17> !KDIIS
| 18>
| 19> %scf
| 20>   AutoTRAHIter 200
| 21>   maxiter 400
| 22> end
| 23>
| 24>
| 25> %pal nprocs 6 end
| 26>
| 27> *xyzfile 0 4 pbe.xyz
| 28>
| 29>
| 30>
| 31>
| 32>
| 33>                          ****END OF INPUT****
 Total Charge           Charge          ....    0
 Multiplicity           Mult            ....    6
 Number of Electrons    NEL             ....  215
FINAL SINGLE POINT ENERGY     -2509.010908352394

CARTESIAN COORDINATES (ANGSTROEM)
---------------------------------
  Au     9.620322    7.099092    9.165754
  Au     8.028863    7.113122    4.913406
  Au     9.428267    4.361282    9.257526
  Au     8.906321    5.427267    6.779842
  Au     8.107483    9.801207    5.845744
  Au     6.314062    9.994150    8.016424
  Au     9.092775    9.628130    8.512477
  Au     7.000902    5.635693    9.087997
  Au     5.151813    7.421774    8.387706
  Au     5.647033    8.421811    5.768198
  Mn     7.631699    7.669630    7.476719

 Multiplicity           Mult            ....    4
 Number of Electrons    NEL             ....  215
 Basis Dimension        Dim             ....  445

ORBITAL ENERGIES
----------------
                 SPIN UP ORBITALS
  NO   OCC          E(Eh)            E(eV)
   0   1.0000    -234.197346     -6372.8338
   1   1.0000     -26.894072      -731.8249
   2   1.0000     -23.043313      -627.0404
   3   1.0000     -23.043310      -627.0403
   4   1.0000     -23.041754      -626.9980
   5   1.0000      -4.022542      -109.4589
   6   1.0000      -4.022417      -109.4555
   7   1.0000      -4.022381      -109.4545
   8   1.0000      -4.020677      -109.4082
   9   1.0000      -4.020546      -109.4046
  10   1.0000      -4.020379      -109.4001
  11   1.0000      -4.019770      -109.3835
  12   1.0000      -4.019765      -109.3834
  13   1.0000      -4.019727      -109.3823
  14   1.0000      -4.018589      -109.3514
  15   1.0000      -3.099743       -84.3483
  16   1.0000      -2.241802       -61.0025
  17   1.0000      -2.241228       -60.9869
  18   1.0000      -2.241157       -60.9850
  19   1.0000      -2.238490       -60.9124
  20   1.0000      -2.237979       -60.8985
  21   1.0000      -2.236861       -60.8681
  22   1.0000      -2.236853       -60.8679
  23   1.0000      -2.236559       -60.8599
  24   1.0000      -2.236495       -60.8581
  25   1.0000      -2.235773       -60.8385
  26   1.0000      -2.235289       -60.8253
  27   1.0000      -2.235229       -60.8237
  28   1.0000      -2.234550       -60.8052
  29   1.0000      -2.234510       -60.8041
  30   1.0000      -2.234295       -60.7983
  31   1.0000      -2.233333       -60.7721
  32   1.0000      -2.232648       -60.7535
  33   1.0000      -2.232312       -60.7443
  34   1.0000      -2.232271       -60.7432
  35   1.0000      -2.231293       -60.7166
  36   1.0000      -2.230004       -60.6815
  37   1.0000      -2.229899       -60.6786
  38   1.0000      -2.229243       -60.6608
  39   1.0000      -2.229173       -60.6589
  40   1.0000      -2.228903       -60.6515
  41   1.0000      -2.228865       -60.6505
  42   1.0000      -2.228577       -60.6427
  43   1.0000      -2.227987       -60.6266
  44   1.0000      -2.227963       -60.6260
  45   1.0000      -2.227906       -60.6244
  46   1.0000      -2.003435       -54.5162
  47   1.0000      -2.003430       -54.5161
  48   1.0000      -1.999855       -54.4188
  49   1.0000      -0.413030       -11.2391
  50   1.0000      -0.382276       -10.4023
  51   1.0000      -0.363590        -9.8938
  52   1.0000      -0.363515        -9.8918
  53   1.0000      -0.361352        -9.8329
  54   1.0000      -0.359324        -9.7777
  55   1.0000      -0.359290        -9.7768
  56   1.0000      -0.354297        -9.6409
  57   1.0000      -0.337905        -9.1949
  58   1.0000      -0.336191        -9.1482
  59   1.0000      -0.336172        -9.1477
  60   1.0000      -0.328021        -8.9259
  61   1.0000      -0.327991        -8.9251
  62   1.0000      -0.326784        -8.8922
  63   1.0000      -0.320120        -8.7109
  64   1.0000      -0.320049        -8.7090
  65   1.0000      -0.317462        -8.6386
  66   1.0000      -0.317408        -8.6371
  67   1.0000      -0.314929        -8.5697
  68   1.0000      -0.314858        -8.5677
  69   1.0000      -0.313887        -8.5413
  70   1.0000      -0.313176        -8.5219
  71   1.0000      -0.301192        -8.1958
  72   1.0000      -0.301127        -8.1941
  73   1.0000      -0.298785        -8.1303
  74   1.0000      -0.289953        -7.8900
  75   1.0000      -0.286698        -7.8015
  76   1.0000      -0.286656        -7.8003
  77   1.0000      -0.284339        -7.7373
  78   1.0000      -0.279306        -7.6003
  79   1.0000      -0.279295        -7.6000
  80   1.0000      -0.275656        -7.5010
  81   1.0000      -0.275649        -7.5008
  82   1.0000      -0.273725        -7.4484
  83   1.0000      -0.273652        -7.4464
  84   1.0000      -0.273607        -7.4452
  85   1.0000      -0.267084        -7.2677
  86   1.0000      -0.267043        -7.2666
  87   1.0000      -0.266366        -7.2482
  88   1.0000      -0.263015        -7.1570
  89   1.0000      -0.260040        -7.0761
  90   1.0000      -0.260020        -7.0755
  91   1.0000      -0.256060        -6.9677
  92   1.0000      -0.256047        -6.9674
  93   1.0000      -0.255985        -6.9657
  94   1.0000      -0.253425        -6.8960
  95   1.0000      -0.250693        -6.8217
  96   1.0000      -0.248404        -6.7594
  97   1.0000      -0.248386        -6.7589
  98   1.0000      -0.242806        -6.6071
  99   1.0000      -0.242793        -6.6067
 100   1.0000      -0.237632        -6.4663
 101   1.0000      -0.237607        -6.4656
 102   1.0000      -0.237535        -6.4636
 103   1.0000      -0.235283        -6.4024
 104   1.0000      -0.230190        -6.2638
 105   1.0000      -0.230136        -6.2623
 106   1.0000      -0.226520        -6.1639
 107   1.0000      -0.226469        -6.1625
 108   1.0000      -0.200083        -5.4445
 109   0.0000      -0.169839        -4.6216
 110   0.0000      -0.169799        -4.6205
 111   0.0000      -0.132217        -3.5978
 112   0.0000      -0.130568        -3.5529
 113   0.0000      -0.130451        -3.5498

                 SPIN DOWN ORBITALS
  NO   OCC          E(Eh)            E(eV)
   0   1.0000    -234.196623     -6372.8141
   1   1.0000     -26.830773      -730.1025
   2   1.0000     -22.994706      -625.7178
   3   1.0000     -22.994703      -625.7177
   4   1.0000     -22.994700      -625.7176
   5   1.0000      -4.021987      -109.4438
   6   1.0000      -4.021857      -109.4403
   7   1.0000      -4.021820      -109.4393
   8   1.0000      -4.020678      -109.4082
   9   1.0000      -4.020549      -109.4047
  10   1.0000      -4.020381      -109.4001
  11   1.0000      -4.019281      -109.3702
  12   1.0000      -4.019173      -109.3673
  13   1.0000      -4.019170      -109.3672
  14   1.0000      -4.019131      -109.3661
  15   1.0000      -2.944736       -80.1303
  16   1.0000      -2.241256       -60.9877
  17   1.0000      -2.240386       -60.9640
  18   1.0000      -2.240311       -60.9620
  19   1.0000      -2.237619       -60.8887
  20   1.0000      -2.237557       -60.8870
  21   1.0000      -2.236420       -60.8561
  22   1.0000      -2.236393       -60.8553
  23   1.0000      -2.235688       -60.8362
  24   1.0000      -2.235617       -60.8342
  25   1.0000      -2.235078       -60.8196
  26   1.0000      -2.234549       -60.8052
  27   1.0000      -2.234485       -60.8034
  28   1.0000      -2.234018       -60.7907
  29   1.0000      -2.233989       -60.7899
  30   1.0000      -2.233960       -60.7892
  31   1.0000      -2.233665       -60.7811
  32   1.0000      -2.232684       -60.7544
  33   1.0000      -2.232256       -60.7428
  34   1.0000      -2.232220       -60.7418
  35   1.0000      -2.231018       -60.7091
  36   1.0000      -2.230059       -60.6830
  37   1.0000      -2.229954       -60.6801
  38   1.0000      -2.229724       -60.6739
  39   1.0000      -2.229707       -60.6734
  40   1.0000      -2.228971       -60.6534
  41   1.0000      -2.228872       -60.6507
  42   1.0000      -2.228385       -60.6374
  43   1.0000      -2.227628       -60.6169
  44   1.0000      -2.227611       -60.6164
  45   1.0000      -2.227570       -60.6153
  46   1.0000      -1.851615       -50.3850
  47   1.0000      -1.849389       -50.3244
  48   1.0000      -1.849371       -50.3239
  49   1.0000      -0.406354       -11.0575
  50   1.0000      -0.382841       -10.4176
  51   1.0000      -0.360175        -9.8009
  52   1.0000      -0.360119        -9.7993
  53   1.0000      -0.354812        -9.6549
  54   1.0000      -0.354756        -9.6534
  55   1.0000      -0.354705        -9.6520
  56   1.0000      -0.351389        -9.5618
  57   1.0000      -0.339602        -9.2410
  58   1.0000      -0.330308        -8.9881
  59   1.0000      -0.330282        -8.9874
  60   1.0000      -0.326255        -8.8778
  61   1.0000      -0.322560        -8.7773
  62   1.0000      -0.322518        -8.7762
  63   1.0000      -0.319084        -8.6827
  64   1.0000      -0.319071        -8.6824
  65   1.0000      -0.315023        -8.5722
  66   1.0000      -0.314986        -8.5712
  67   1.0000      -0.314933        -8.5698
  68   1.0000      -0.308920        -8.4061
  69   1.0000      -0.307781        -8.3751
  70   1.0000      -0.307733        -8.3738
  71   1.0000      -0.300806        -8.1853
  72   1.0000      -0.300772        -8.1844
  73   1.0000      -0.299308        -8.1446
  74   1.0000      -0.289063        -7.8658
  75   1.0000      -0.287126        -7.8131
  76   1.0000      -0.287084        -7.8120
  77   1.0000      -0.280403        -7.6302
  78   1.0000      -0.279400        -7.6029
  79   1.0000      -0.279383        -7.6024
  80   1.0000      -0.274369        -7.4660
  81   1.0000      -0.274348        -7.4654
  82   1.0000      -0.273454        -7.4411
  83   1.0000      -0.270666        -7.3652
  84   1.0000      -0.270652        -7.3648
  85   1.0000      -0.267992        -7.2924
  86   1.0000      -0.267944        -7.2911
  87   1.0000      -0.266957        -7.2643
  88   1.0000      -0.263596        -7.1728
  89   1.0000      -0.259759        -7.0684
  90   1.0000      -0.259750        -7.0682
  91   1.0000      -0.255912        -6.9637
  92   1.0000      -0.255851        -6.9620
  93   1.0000      -0.255259        -6.9459
  94   1.0000      -0.253332        -6.8935
  95   1.0000      -0.252682        -6.8758
  96   1.0000      -0.247951        -6.7471
  97   1.0000      -0.247920        -6.7462
  98   1.0000      -0.237897        -6.4735
  99   1.0000      -0.237849        -6.4722
 100   1.0000      -0.236545        -6.4367
 101   1.0000      -0.234843        -6.3904
 102   1.0000      -0.234803        -6.3893
 103   1.0000      -0.209259        -5.6942
 104   1.0000      -0.190372        -5.1803
 105   1.0000      -0.190341        -5.1794
 106   0.0000      -0.146970        -3.9993
 107   0.0000      -0.146883        -3.9969
 108   0.0000      -0.140449        -3.8218
 109   0.0000      -0.123132        -3.3506
 110   0.0000      -0.123117        -3.3502

MULLIKEN ATOMIC CHARGES AND SPIN POPULATIONS
--------------------------------------------
   0 Au:    0.079277   -0.179398
   1 Au:    0.237657    0.012820
   2 Au:    0.325609    0.032821
   3 Au:    0.080298   -0.180167
   4 Au:    0.230655   -0.164655
   5 Au:    0.230143   -0.163527
   6 Au:    0.237965    0.012859
   7 Au:    0.079385   -0.179435
   8 Au:    0.238247    0.012761
   9 Au:    0.230900   -0.164591
  10 Mn:   -1.970136    3.960513
Sum of atomic charges         :    0.0000000

LOEWDIN ATOMIC CHARGES AND SPIN POPULATIONS
-------------------------------------------
   0 Au:    0.015173   -0.090991
   1 Au:    0.093954   -0.055105
   2 Au:    0.077106   -0.034536
   3 Au:    0.015337   -0.091477
   4 Au:    0.034316   -0.129377
   5 Au:    0.034048   -0.128799
   6 Au:    0.093777   -0.054774
   7 Au:    0.015316   -0.090970
   8 Au:    0.093839   -0.054829
   9 Au:    0.034678   -0.129272
  10 Mn:   -0.507543    3.860131

  Mayer bond orders larger than 0.100000
B(  0-Au,  2-Au) :   0.3548 B(  0-Au,  3-Au) :   0.1114 B(  0-Au,  6-Au) :   0.3809
B(  0-Au,  7-Au) :   0.1108 B(  0-Au, 10-Mn) :   0.5958 B(  1-Au,  3-Au) :   0.3809
B(  1-Au,  4-Au) :   0.1819 B(  1-Au,  5-Au) :   0.1050 B(  1-Au,  9-Au) :   0.1807
B(  1-Au, 10-Mn) :   0.5414 B(  2-Au,  3-Au) :   0.3548 B(  2-Au,  7-Au) :   0.3544
B(  2-Au, 10-Mn) :   0.1135 B(  3-Au,  7-Au) :   0.1110 B(  3-Au, 10-Mn) :   0.5947
B(  4-Au,  5-Au) :   0.2166 B(  4-Au,  6-Au) :   0.1812 B(  4-Au,  8-Au) :   0.1047
B(  4-Au,  9-Au) :   0.2162 B(  4-Au, 10-Mn) :   0.5094 B(  5-Au,  6-Au) :   0.1820
B(  5-Au,  8-Au) :   0.1815 B(  5-Au,  9-Au) :   0.2157 B(  5-Au, 10-Mn) :   0.5095
B(  6-Au,  9-Au) :   0.1048 B(  6-Au, 10-Mn) :   0.5409 B(  7-Au,  8-Au) :   0.3810
B(  7-Au, 10-Mn) :   0.5960 B(  8-Au,  9-Au) :   0.1817 B(  8-Au, 10-Mn) :   0.5410
B(  9-Au, 10-Mn) :   0.5102

FINAL SINGLE POINT ENERGY     -2509.031391522323

DIPOLE MOMENT
-------------
                                X             Y             Z
Electronic contribution:      3.55445      -6.49793       3.50648
Nuclear contribution   :     -3.55243       6.49306      -3.50548
                        -----------------------------------------
Total Dipole Moment    :      0.00202      -0.00487       0.00099
                        -----------------------------------------
Magnitude (a.u.)       :      0.00536
Magnitude (Debye)      :      0.01363

Rotational constants in cm-1:     0.002289     0.001360     0.001359
Rotational constants in MHz :    68.619124    40.759069    40.746877

                             ****ORCA TERMINATED NORMALLY****
TOTAL RUN TIME: 0 days 0 hours 3 minutes 5 seconds 783 msec
