                         Program Version 5.0.3 -  RELEASE  -
|  1> !R2SCAN def2-TZVP VERYSLOWCONV
|  2> !KDIIS
|  3> %scf
|  4>   AutoTRAHIter 200
|  5>   maxiter 400
|  6> end
|  7>
|  8> %pal nprocs 6 end
|  9>
| 10> *xyzfile 0 6 pbe.xyz
| 11>
| 12> $new_job
| 13>
| 14> !R2SCAN def2-TZVP VERYSLOWCONV
| 15> !KDIIS
| 16> %scf
| 17>   AutoTRAHIter 200
| 18>   maxiter 400
| 19> end
| 20>
| 21>
| 22> %pal nprocs 6 end
| 23>
| 24> *xyzfile 0 4 pbe.xyz
| 25>
| 26>
| 27>
| 28>
| 29>
| 30>                          ****END OF INPUT****
 Total Charge           Charge          ....    0
 Multiplicity           Mult            ....    6
 Number of Electrons    NEL             ....  215
FINAL SINGLE POINT ENERGY     -2509.415729996823

CARTESIAN COORDINATES (ANGSTROEM)
---------------------------------
  Au     9.620322    7.099092    9.165754
  Au     8.028863    7.113122    4.913406
  Au     9.428267    4.361282    9.257526
  Au     8.906321    5.427267    6.779842
  Au     8.107483    9.801207    5.845744
  Au     6.314062    9.994150    8.016424
  Au     9.092775    9.628130    8.512477
  Au     7.000902    5.635693    9.087997
  Au     5.151813    7.421774    8.387706
  Au     5.647033    8.421811    5.768198
  Mn     7.631699    7.669630    7.476719

 Multiplicity           Mult            ....    4
 Number of Electrons    NEL             ....  215
 Basis Dimension        Dim             ....  445

ORBITAL ENERGIES
----------------
                 SPIN UP ORBITALS
  NO   OCC          E(Eh)            E(eV)
   0   1.0000    -235.037884     -6395.7060
   1   1.0000     -27.218424      -740.6510
   2   1.0000     -23.265837      -633.0956
   3   1.0000     -23.265833      -633.0955
   4   1.0000     -23.264566      -633.0610
   5   1.0000      -4.113401      -111.9313
   6   1.0000      -4.113336      -111.9296
   7   1.0000      -4.113315      -111.9290
   8   1.0000      -4.111733      -111.8859
   9   1.0000      -4.111553      -111.8810
  10   1.0000      -4.111538      -111.8806
  11   1.0000      -4.111128      -111.8695
  12   1.0000      -4.111102      -111.8688
  13   1.0000      -4.111061      -111.8676
  14   1.0000      -4.109343      -111.8209
  15   1.0000      -3.237433       -88.0950
  16   1.0000      -2.305644       -62.7398
  17   1.0000      -2.305071       -62.7242
  18   1.0000      -2.305040       -62.7233
  19   1.0000      -2.302306       -62.6489
  20   1.0000      -2.302158       -62.6449
  21   1.0000      -2.300983       -62.6129
  22   1.0000      -2.300967       -62.6125
  23   1.0000      -2.300279       -62.5938
  24   1.0000      -2.300264       -62.5934
  25   1.0000      -2.299828       -62.5815
  26   1.0000      -2.299268       -62.5663
  27   1.0000      -2.299260       -62.5660
  28   1.0000      -2.298441       -62.5438
  29   1.0000      -2.298433       -62.5435
  30   1.0000      -2.297885       -62.5286
  31   1.0000      -2.297170       -62.5092
  32   1.0000      -2.296290       -62.4852
  33   1.0000      -2.296148       -62.4814
  34   1.0000      -2.296115       -62.4805
  35   1.0000      -2.295289       -62.4580
  36   1.0000      -2.293991       -62.4227
  37   1.0000      -2.293977       -62.4223
  38   1.0000      -2.293266       -62.4029
  39   1.0000      -2.293238       -62.4022
  40   1.0000      -2.292677       -62.3869
  41   1.0000      -2.292263       -62.3756
  42   1.0000      -2.292247       -62.3752
  43   1.0000      -2.292125       -62.3719
  44   1.0000      -2.292095       -62.3711
  45   1.0000      -2.292023       -62.3691
  46   1.0000      -2.094851       -57.0038
  47   1.0000      -2.094843       -57.0036
  48   1.0000      -2.091940       -56.9246
  49   1.0000      -0.419851       -11.4247
  50   1.0000      -0.388310       -10.5664
  51   1.0000      -0.374477       -10.1901
  52   1.0000      -0.374421       -10.1885
  53   1.0000      -0.372899       -10.1471
  54   1.0000      -0.369733       -10.0610
  55   1.0000      -0.369713       -10.0604
  56   1.0000      -0.362939        -9.8761
  57   1.0000      -0.348522        -9.4838
  58   1.0000      -0.348510        -9.4834
  59   1.0000      -0.347375        -9.4525
  60   1.0000      -0.338132        -9.2011
  61   1.0000      -0.338112        -9.2005
  62   1.0000      -0.335741        -9.1360
  63   1.0000      -0.330783        -9.0010
  64   1.0000      -0.330719        -8.9993
  65   1.0000      -0.326452        -8.8832
  66   1.0000      -0.326387        -8.8814
  67   1.0000      -0.325692        -8.8625
  68   1.0000      -0.325598        -8.8600
  69   1.0000      -0.323740        -8.8094
  70   1.0000      -0.323452        -8.8016
  71   1.0000      -0.309915        -8.4332
  72   1.0000      -0.309851        -8.4315
  73   1.0000      -0.308505        -8.3949
  74   1.0000      -0.299988        -8.1631
  75   1.0000      -0.294943        -8.0258
  76   1.0000      -0.294908        -8.0249
  77   1.0000      -0.293290        -7.9808
  78   1.0000      -0.288663        -7.8549
  79   1.0000      -0.288649        -7.8545
  80   1.0000      -0.285208        -7.7609
  81   1.0000      -0.285204        -7.7608
  82   1.0000      -0.283464        -7.7134
  83   1.0000      -0.283439        -7.7128
  84   1.0000      -0.281709        -7.6657
  85   1.0000      -0.275704        -7.5023
  86   1.0000      -0.275693        -7.5020
  87   1.0000      -0.274200        -7.4614
  88   1.0000      -0.271521        -7.3885
  89   1.0000      -0.269126        -7.3233
  90   1.0000      -0.269106        -7.3227
  91   1.0000      -0.265296        -7.2191
  92   1.0000      -0.264842        -7.2067
  93   1.0000      -0.264797        -7.2055
  94   1.0000      -0.261323        -7.1110
  95   1.0000      -0.258819        -7.0428
  96   1.0000      -0.258773        -7.0416
  97   1.0000      -0.258206        -7.0261
  98   1.0000      -0.252796        -6.8789
  99   1.0000      -0.252792        -6.8788
 100   1.0000      -0.250410        -6.8140
 101   1.0000      -0.248659        -6.7663
 102   1.0000      -0.248631        -6.7656
 103   1.0000      -0.242654        -6.6029
 104   1.0000      -0.240666        -6.5489
 105   1.0000      -0.240627        -6.5478
 106   1.0000      -0.231833        -6.3085
 107   1.0000      -0.231783        -6.3071
 108   1.0000      -0.202053        -5.4981
 109   0.0000      -0.167293        -4.5523
 110   0.0000      -0.167249        -4.5511
 111   0.0000      -0.127503        -3.4695
 112   0.0000      -0.125545        -3.4163
 113   0.0000      -0.125433        -3.4132

                 SPIN DOWN ORBITALS
  NO   OCC          E(Eh)            E(eV)
   0   1.0000    -235.036826     -6395.6772
   1   1.0000     -27.132652      -738.3170
   2   1.0000     -23.199633      -631.2941
   3   1.0000     -23.199550      -631.2919
   4   1.0000     -23.199547      -631.2918
   5   1.0000      -4.113050      -111.9218
   6   1.0000      -4.112981      -111.9199
   7   1.0000      -4.112959      -111.9193
   8   1.0000      -4.112036      -111.8942
   9   1.0000      -4.111860      -111.8894
  10   1.0000      -4.111845      -111.8890
  11   1.0000      -4.110642      -111.8563
  12   1.0000      -4.110618      -111.8556
  13   1.0000      -4.110575      -111.8544
  14   1.0000      -4.110142      -111.8426
  15   1.0000      -3.032912       -82.5297
  16   1.0000      -2.304979       -62.7217
  17   1.0000      -2.304070       -62.6969
  18   1.0000      -2.304035       -62.6960
  19   1.0000      -2.301963       -62.6396
  20   1.0000      -2.301382       -62.6238
  21   1.0000      -2.300517       -62.6002
  22   1.0000      -2.300505       -62.5999
  23   1.0000      -2.299395       -62.5697
  24   1.0000      -2.299381       -62.5693
  25   1.0000      -2.298846       -62.5548
  26   1.0000      -2.298524       -62.5460
  27   1.0000      -2.298512       -62.5457
  28   1.0000      -2.297987       -62.5314
  29   1.0000      -2.297970       -62.5309
  30   1.0000      -2.297950       -62.5304
  31   1.0000      -2.297472       -62.5174
  32   1.0000      -2.296391       -62.4880
  33   1.0000      -2.296104       -62.4802
  34   1.0000      -2.296070       -62.4792
  35   1.0000      -2.295056       -62.4517
  36   1.0000      -2.294212       -62.4287
  37   1.0000      -2.294199       -62.4283
  38   1.0000      -2.293283       -62.4034
  39   1.0000      -2.293266       -62.4029
  40   1.0000      -2.292987       -62.3953
  41   1.0000      -2.292955       -62.3945
  42   1.0000      -2.292491       -62.3818
  43   1.0000      -2.291829       -62.3638
  44   1.0000      -2.291801       -62.3631
  45   1.0000      -2.291743       -62.3615
  46   1.0000      -1.892291       -51.4919
  47   1.0000      -1.889918       -51.4273
  48   1.0000      -1.889909       -51.4270
  49   1.0000      -0.413696       -11.2572
  50   1.0000      -0.389878       -10.6091
  51   1.0000      -0.368647       -10.0314
  52   1.0000      -0.368613       -10.0305
  53   1.0000      -0.364479        -9.9180
  54   1.0000      -0.363981        -9.9044
  55   1.0000      -0.363950        -9.9036
  56   1.0000      -0.360301        -9.8043
  57   1.0000      -0.349571        -9.5123
  58   1.0000      -0.340421        -9.2633
  59   1.0000      -0.340395        -9.2626
  60   1.0000      -0.336016        -9.1435
  61   1.0000      -0.332111        -9.0372
  62   1.0000      -0.332059        -9.0358
  63   1.0000      -0.328791        -8.9468
  64   1.0000      -0.328781        -8.9466
  65   1.0000      -0.324693        -8.8353
  66   1.0000      -0.324538        -8.8311
  67   1.0000      -0.324517        -8.8306
  68   1.0000      -0.318422        -8.6647
  69   1.0000      -0.317124        -8.6294
  70   1.0000      -0.317093        -8.6285
  71   1.0000      -0.309400        -8.4192
  72   1.0000      -0.309366        -8.4183
  73   1.0000      -0.309225        -8.4144
  74   1.0000      -0.298023        -8.1096
  75   1.0000      -0.295686        -8.0460
  76   1.0000      -0.295656        -8.0452
  77   1.0000      -0.288942        -7.8625
  78   1.0000      -0.288779        -7.8581
  79   1.0000      -0.288742        -7.8571
  80   1.0000      -0.283482        -7.7139
  81   1.0000      -0.283448        -7.7130
  82   1.0000      -0.281627        -7.6635
  83   1.0000      -0.279219        -7.5979
  84   1.0000      -0.279218        -7.5979
  85   1.0000      -0.277021        -7.5381
  86   1.0000      -0.277005        -7.5377
  87   1.0000      -0.274452        -7.4682
  88   1.0000      -0.272400        -7.4124
  89   1.0000      -0.267939        -7.2910
  90   1.0000      -0.267929        -7.2907
  91   1.0000      -0.264392        -7.1945
  92   1.0000      -0.264348        -7.1933
  93   1.0000      -0.264138        -7.1876
  94   1.0000      -0.261471        -7.1150
  95   1.0000      -0.260425        -7.0865
  96   1.0000      -0.256173        -6.9708
  97   1.0000      -0.256164        -6.9706
  98   1.0000      -0.245033        -6.6677
  99   1.0000      -0.245010        -6.6671
 100   1.0000      -0.244351        -6.6491
 101   1.0000      -0.241046        -6.5592
 102   1.0000      -0.241004        -6.5581
 103   1.0000      -0.211197        -5.7470
 104   1.0000      -0.191591        -5.2135
 105   1.0000      -0.191555        -5.2125
 106   0.0000      -0.141417        -3.8482
 107   0.0000      -0.141304        -3.8451
 108   0.0000      -0.133190        -3.6243
 109   0.0000      -0.105369        -2.8672
 110   0.0000      -0.105360        -2.8670

MULLIKEN ATOMIC CHARGES AND SPIN POPULATIONS
--------------------------------------------
   0 Au:    0.073966   -0.216684
   1 Au:    0.218522    0.012101
   2 Au:    0.276810    0.033893
   3 Au:    0.074855   -0.217507
   4 Au:    0.209567   -0.209910
   5 Au:    0.209111   -0.208789
   6 Au:    0.218902    0.012231
   7 Au:    0.074109   -0.216608
   8 Au:    0.219212    0.011998
   9 Au:    0.209753   -0.210113
  10 Mn:   -1.784807    4.209387
Sum of atomic charges         :   -0.0000000

LOEWDIN ATOMIC CHARGES AND SPIN POPULATIONS
-------------------------------------------
   0 Au:    0.008578   -0.111873
   1 Au:    0.085835   -0.071598
   2 Au:    0.070601   -0.039287
   3 Au:    0.008674   -0.112404
   4 Au:    0.028011   -0.158510
   5 Au:    0.027904   -0.157938
   6 Au:    0.085617   -0.071170
   7 Au:    0.008734   -0.111833
   8 Au:    0.085692   -0.071304
   9 Au:    0.028342   -0.158558
  10 Mn:   -0.437988    4.064475

  Mayer bond orders larger than 0.100000
B(  0-Au,  2-Au) :   0.3447 B(  0-Au,  6-Au) :   0.3913 B(  0-Au, 10-Mn) :   0.5677
B(  1-Au,  3-Au) :   0.3911 B(  1-Au,  4-Au) :   0.1634 B(  1-Au,  5-Au) :   0.1013
B(  1-Au,  9-Au) :   0.1621 B(  1-Au, 10-Mn) :   0.5332 B(  2-Au,  3-Au) :   0.3448
B(  2-Au,  7-Au) :   0.3443 B(  2-Au, 10-Mn) :   0.1006 B(  3-Au, 10-Mn) :   0.5663
B(  4-Au,  5-Au) :   0.2011 B(  4-Au,  6-Au) :   0.1625 B(  4-Au,  8-Au) :   0.1010
B(  4-Au,  9-Au) :   0.2006 B(  4-Au, 10-Mn) :   0.4764 B(  5-Au,  6-Au) :   0.1634
B(  5-Au,  8-Au) :   0.1629 B(  5-Au,  9-Au) :   0.2002 B(  5-Au, 10-Mn) :   0.4764
B(  6-Au,  9-Au) :   0.1011 B(  6-Au, 10-Mn) :   0.5325 B(  7-Au,  8-Au) :   0.3914
B(  7-Au, 10-Mn) :   0.5679 B(  8-Au,  9-Au) :   0.1632 B(  8-Au, 10-Mn) :   0.5326
B(  9-Au, 10-Mn) :   0.4771

FINAL SINGLE POINT ENERGY     -2509.436129907945

DIPOLE MOMENT
-------------
                                X             Y             Z
Electronic contribution:      3.54077      -6.47285       3.49338
Nuclear contribution   :     -3.55243       6.49306      -3.50548
                        -----------------------------------------
Total Dipole Moment    :     -0.01166       0.02021      -0.01210
                        -----------------------------------------
Magnitude (a.u.)       :      0.02628
Magnitude (Debye)      :      0.06681

Rotational constants in cm-1:     0.002289     0.001360     0.001359
Rotational constants in MHz :    68.619124    40.759069    40.746877

                             ****ORCA TERMINATED NORMALLY****
TOTAL RUN TIME: 0 days 0 hours 6 minutes 4 seconds 364 msec
