                         Program Version 5.0.3 -  RELEASE  -
|  1> !RI-B2PLYP def2-TZVP def2-TZVP/C
|  2> !RIJCOSX VERYSLOWCONV
|  3>
|  4> %scf
|  5>   AutoTRAHIter 200
|  6>   maxiter 400
|  7> end
|  8>
|  9>
| 10> %pal nprocs 6 end
| 11>
| 12> *xyzfile 0 5 pbe.xyz
| 13>
| 14> $new_job
| 15>
| 16> !RI-B2PLYP def2-TZVP def2-TZVP/C
| 17> !RIJCOSX VERYSLOWCONV
| 18>
| 19> %scf
| 20>   AutoTRAHIter 200
| 21>   maxiter 400
| 22> end
| 23>
| 24>
| 25> %pal nprocs 6 end
| 26>
| 27> *xyzfile 0 3 pbe.xyz
| 28>
| 29>
| 30>
| 31>
| 32>
| 33>                          ****END OF INPUT****
 Total Charge           Charge          ....    0
 Multiplicity           Mult            ....    5
 Number of Electrons    NEL             ....  252
MP2 TOTAL ENERGY:    -2671.283115030 Eh
FINAL SINGLE POINT ENERGY     -2671.283115030042

CARTESIAN COORDINATES (ANGSTROEM)
---------------------------------
  Au    11.594697    4.361410    7.022919
  Au    10.929901    6.894328    6.204083
  Au     6.302455    9.070601    6.071740
  Au     8.877277    4.640179    6.289869
  Au     9.128194    8.839842    5.784637
  Au     7.175556    6.521196    5.476674
  Au     9.790009    8.303548    9.699897
  Au     7.879377    9.542341    8.296935
  Au     6.148543    7.234332    8.245947
  Au    10.552237    5.831805    9.140493
  Au     7.539477    5.065795    9.000771
  Au     9.594300    3.272525    8.661176
  Cr     8.685334    6.993076    7.597584

 Multiplicity           Mult            ....    3
 Number of Electrons    NEL             ....  252
 Basis Dimension        Dim             ....  525

ORBITAL ENERGIES
----------------
                 SPIN UP ORBITALS
  NO   OCC          E(Eh)            E(eV)
   0   1.0000    -217.734571     -5924.8589
   1   1.0000     -25.421777      -691.7617
   2   1.0000     -21.560471      -586.6902
   3   1.0000     -21.560196      -586.6828
   4   1.0000     -21.556641      -586.5860
   5   1.0000      -4.397944      -119.6741
   6   1.0000      -4.397521      -119.6626
   7   1.0000      -4.396844      -119.6442
   8   1.0000      -4.393948      -119.5654
   9   1.0000      -4.390841      -119.4809
  10   1.0000      -4.389864      -119.4543
  11   1.0000      -4.389765      -119.4516
  12   1.0000      -4.389517      -119.4448
  13   1.0000      -4.388051      -119.4049
  14   1.0000      -4.387774      -119.3974
  15   1.0000      -4.386612      -119.3658
  16   1.0000      -4.380558      -119.2011
  17   1.0000      -3.210762       -87.3693
  18   1.0000      -2.520496       -68.5862
  19   1.0000      -2.518068       -68.5201
  20   1.0000      -2.517551       -68.5061
  21   1.0000      -2.517060       -68.4927
  22   1.0000      -2.516140       -68.4676
  23   1.0000      -2.514693       -68.4283
  24   1.0000      -2.514426       -68.4210
  25   1.0000      -2.513838       -68.4050
  26   1.0000      -2.513057       -68.3838
  27   1.0000      -2.512743       -68.3752
  28   1.0000      -2.512506       -68.3688
  29   1.0000      -2.512070       -68.3569
  30   1.0000      -2.510984       -68.3273
  31   1.0000      -2.510636       -68.3179
  32   1.0000      -2.510017       -68.3010
  33   1.0000      -2.509794       -68.2950
  34   1.0000      -2.509277       -68.2809
  35   1.0000      -2.508320       -68.2549
  36   1.0000      -2.508074       -68.2482
  37   1.0000      -2.507248       -68.2257
  38   1.0000      -2.506833       -68.2144
  39   1.0000      -2.506623       -68.2087
  40   1.0000      -2.506394       -68.2025
  41   1.0000      -2.506251       -68.1986
  42   1.0000      -2.504835       -68.1600
  43   1.0000      -2.504028       -68.1381
  44   1.0000      -2.503567       -68.1255
  45   1.0000      -2.502973       -68.1094
  46   1.0000      -2.502483       -68.0960
  47   1.0000      -2.502278       -68.0904
  48   1.0000      -2.500224       -68.0345
  49   1.0000      -2.499895       -68.0256
  50   1.0000      -2.499631       -68.0184
  51   1.0000      -2.498559       -67.9892
  52   1.0000      -2.497739       -67.9669
  53   1.0000      -2.492295       -67.8188
  54   1.0000      -2.101566       -57.1865
  55   1.0000      -2.093885       -56.9775
  56   1.0000      -2.093590       -56.9695
  57   1.0000      -0.482929       -13.1412
  58   1.0000      -0.469902       -12.7867
  59   1.0000      -0.468525       -12.7492
  60   1.0000      -0.462504       -12.5854
  61   1.0000      -0.457446       -12.4477
  62   1.0000      -0.456734       -12.4284
  63   1.0000      -0.454749       -12.3743
  64   1.0000      -0.452170       -12.3042
  65   1.0000      -0.448302       -12.1989
  66   1.0000      -0.446571       -12.1518
  67   1.0000      -0.438485       -11.9318
  68   1.0000      -0.437727       -11.9112
  69   1.0000      -0.437339       -11.9006
  70   1.0000      -0.435804       -11.8588
  71   1.0000      -0.432443       -11.7674
  72   1.0000      -0.432108       -11.7583
  73   1.0000      -0.430616       -11.7177
  74   1.0000      -0.427252       -11.6261
  75   1.0000      -0.424988       -11.5645
  76   1.0000      -0.422710       -11.5025
  77   1.0000      -0.420782       -11.4501
  78   1.0000      -0.414062       -11.2672
  79   1.0000      -0.410170       -11.1613
  80   1.0000      -0.409585       -11.1454
  81   1.0000      -0.407042       -11.0762
  82   1.0000      -0.403759       -10.9868
  83   1.0000      -0.399776       -10.8785
  84   1.0000      -0.396446       -10.7878
  85   1.0000      -0.394647       -10.7389
  86   1.0000      -0.390565       -10.6278
  87   1.0000      -0.388370       -10.5681
  88   1.0000      -0.387316       -10.5394
  89   1.0000      -0.384723       -10.4688
  90   1.0000      -0.381388       -10.3781
  91   1.0000      -0.380738       -10.3604
  92   1.0000      -0.378541       -10.3006
  93   1.0000      -0.376853       -10.2547
  94   1.0000      -0.372270       -10.1300
  95   1.0000      -0.372028       -10.1234
  96   1.0000      -0.371412       -10.1066
  97   1.0000      -0.368814       -10.0359
  98   1.0000      -0.368243       -10.0204
  99   1.0000      -0.364875        -9.9288
 100   1.0000      -0.362633        -9.8678
 101   1.0000      -0.359271        -9.7763
 102   1.0000      -0.357615        -9.7312
 103   1.0000      -0.357045        -9.7157
 104   1.0000      -0.353461        -9.6182
 105   1.0000      -0.352640        -9.5958
 106   1.0000      -0.351484        -9.5644
 107   1.0000      -0.351156        -9.5554
 108   1.0000      -0.346395        -9.4259
 109   1.0000      -0.345450        -9.4002
 110   1.0000      -0.344995        -9.3878
 111   1.0000      -0.344842        -9.3836
 112   1.0000      -0.338407        -9.2085
 113   1.0000      -0.338005        -9.1976
 114   1.0000      -0.335222        -9.1219
 115   1.0000      -0.330219        -8.9857
 116   1.0000      -0.329382        -8.9629
 117   1.0000      -0.326179        -8.8758
 118   1.0000      -0.323563        -8.8046
 119   1.0000      -0.316349        -8.6083
 120   1.0000      -0.314561        -8.5596
 121   1.0000      -0.299367        -8.1462
 122   1.0000      -0.289181        -7.8690
 123   1.0000      -0.276087        -7.5127
 124   1.0000      -0.271998        -7.4014
 125   1.0000      -0.240845        -6.5537
 126   1.0000      -0.234103        -6.3703
 127   0.0000      -0.123649        -3.3647
 128   0.0000      -0.111183        -3.0254
 129   0.0000      -0.071146        -1.9360
 130   0.0000      -0.067652        -1.8409
 131   0.0000      -0.057486        -1.5643

                 SPIN DOWN ORBITALS
  NO   OCC          E(Eh)            E(eV)
   0   1.0000    -217.733231     -5924.8224
   1   1.0000     -25.351804      -689.8577
   2   1.0000     -21.499210      -585.0233
   3   1.0000     -21.498836      -585.0131
   4   1.0000     -21.485494      -584.6500
   5   1.0000      -4.399508      -119.7167
   6   1.0000      -4.399108      -119.7058
   7   1.0000      -4.397421      -119.6599
   8   1.0000      -4.394639      -119.5842
   9   1.0000      -4.391602      -119.5016
  10   1.0000      -4.390181      -119.4629
  11   1.0000      -4.390004      -119.4581
  12   1.0000      -4.389688      -119.4495
  13   1.0000      -4.387315      -119.3849
  14   1.0000      -4.387025      -119.3770
  15   1.0000      -4.386722      -119.3688
  16   1.0000      -4.380936      -119.2113
  17   1.0000      -2.994399       -81.4817
  18   1.0000      -2.521636       -68.6172
  19   1.0000      -2.518634       -68.5355
  20   1.0000      -2.518102       -68.5210
  21   1.0000      -2.517743       -68.5113
  22   1.0000      -2.515711       -68.4560
  23   1.0000      -2.515557       -68.4518
  24   1.0000      -2.515190       -68.4418
  25   1.0000      -2.513950       -68.4080
  26   1.0000      -2.512731       -68.3749
  27   1.0000      -2.512482       -68.3681
  28   1.0000      -2.511540       -68.3425
  29   1.0000      -2.511248       -68.3345
  30   1.0000      -2.511146       -68.3317
  31   1.0000      -2.510623       -68.3175
  32   1.0000      -2.510009       -68.3008
  33   1.0000      -2.509304       -68.2816
  34   1.0000      -2.508806       -68.2681
  35   1.0000      -2.508716       -68.2656
  36   1.0000      -2.507471       -68.2318
  37   1.0000      -2.507158       -68.2232
  38   1.0000      -2.506782       -68.2130
  39   1.0000      -2.505699       -68.1835
  40   1.0000      -2.505611       -68.1811
  41   1.0000      -2.505351       -68.1741
  42   1.0000      -2.504621       -68.1542
  43   1.0000      -2.503346       -68.1195
  44   1.0000      -2.503150       -68.1142
  45   1.0000      -2.502998       -68.1101
  46   1.0000      -2.502632       -68.1001
  47   1.0000      -2.502423       -68.0944
  48   1.0000      -2.500406       -68.0395
  49   1.0000      -2.499458       -68.0137
  50   1.0000      -2.499166       -68.0058
  51   1.0000      -2.498768       -67.9949
  52   1.0000      -2.498398       -67.9849
  53   1.0000      -2.491890       -67.8078
  54   1.0000      -1.857659       -50.5495
  55   1.0000      -1.856788       -50.5258
  56   1.0000      -1.828028       -49.7432
  57   1.0000      -0.481449       -13.1009
  58   1.0000      -0.469126       -12.7656
  59   1.0000      -0.461725       -12.5642
  60   1.0000      -0.460055       -12.5187
  61   1.0000      -0.456723       -12.4281
  62   1.0000      -0.455357       -12.3909
  63   1.0000      -0.451395       -12.2831
  64   1.0000      -0.444980       -12.1085
  65   1.0000      -0.444833       -12.1045
  66   1.0000      -0.443555       -12.0697
  67   1.0000      -0.439618       -11.9626
  68   1.0000      -0.437570       -11.9069
  69   1.0000      -0.437407       -11.9025
  70   1.0000      -0.433688       -11.8012
  71   1.0000      -0.431457       -11.7405
  72   1.0000      -0.430933       -11.7263
  73   1.0000      -0.426144       -11.5960
  74   1.0000      -0.422712       -11.5026
  75   1.0000      -0.420940       -11.4544
  76   1.0000      -0.420111       -11.4318
  77   1.0000      -0.416877       -11.3438
  78   1.0000      -0.411990       -11.2108
  79   1.0000      -0.411349       -11.1934
  80   1.0000      -0.410802       -11.1785
  81   1.0000      -0.405590       -11.0367
  82   1.0000      -0.404815       -11.0156
  83   1.0000      -0.397407       -10.8140
  84   1.0000      -0.396247       -10.7824
  85   1.0000      -0.392523       -10.6811
  86   1.0000      -0.388431       -10.5698
  87   1.0000      -0.387839       -10.5536
  88   1.0000      -0.385752       -10.4969
  89   1.0000      -0.383823       -10.4443
  90   1.0000      -0.380642       -10.3578
  91   1.0000      -0.380124       -10.3437
  92   1.0000      -0.375688       -10.2230
  93   1.0000      -0.375310       -10.2127
  94   1.0000      -0.374097       -10.1797
  95   1.0000      -0.372496       -10.1361
  96   1.0000      -0.369408       -10.0521
  97   1.0000      -0.368626       -10.0308
  98   1.0000      -0.368206       -10.0194
  99   1.0000      -0.365677        -9.9506
 100   1.0000      -0.362695        -9.8694
 101   1.0000      -0.359152        -9.7730
 102   1.0000      -0.357999        -9.7416
 103   1.0000      -0.356627        -9.7043
 104   1.0000      -0.354530        -9.6473
 105   1.0000      -0.354090        -9.6353
 106   1.0000      -0.353923        -9.6307
 107   1.0000      -0.350122        -9.5273
 108   1.0000      -0.346726        -9.4349
 109   1.0000      -0.346202        -9.4206
 110   1.0000      -0.344926        -9.3859
 111   1.0000      -0.339995        -9.2517
 112   1.0000      -0.338394        -9.2082
 113   1.0000      -0.333728        -9.0812
 114   1.0000      -0.332882        -9.0582
 115   1.0000      -0.332588        -9.0502
 116   1.0000      -0.327196        -8.9035
 117   1.0000      -0.326023        -8.8715
 118   1.0000      -0.317968        -8.6524
 119   1.0000      -0.291191        -7.9237
 120   1.0000      -0.289080        -7.8663
 121   1.0000      -0.245080        -6.6690
 122   1.0000      -0.226323        -6.1586
 123   1.0000      -0.217971        -5.9313
 124   1.0000      -0.214056        -5.8248
 125   0.0000      -0.078797        -2.1442
 126   0.0000      -0.069204        -1.8831
 127   0.0000      -0.068823        -1.8728
 128   0.0000      -0.056079        -1.5260
 129   0.0000      -0.041336        -1.1248

MULLIKEN ATOMIC CHARGES AND SPIN POPULATIONS
--------------------------------------------
   0 Au:    0.316503   -0.233719
   1 Au:    0.213622   -0.078344
   2 Au:    0.428512   -0.114330
   3 Au:    0.225061   -0.175111
   4 Au:    0.224630   -0.157548
   5 Au:    0.356196   -0.109361
   6 Au:    0.188241   -0.044900
   7 Au:    0.314171   -0.237151
   8 Au:    0.217550   -0.160466
   9 Au:    0.061458   -0.162612
  10 Au:    0.206719   -0.074772
  11 Au:    0.323383   -0.229074
  12 Cr:   -3.076044    3.777389
Sum of atomic charges         :   -0.0000000

LOEWDIN ATOMIC CHARGES AND SPIN POPULATIONS
-------------------------------------------
   0 Au:    0.122542   -0.199022
   1 Au:    0.095138   -0.104070
   2 Au:    0.129119   -0.130964
   3 Au:    0.018650   -0.125122
   4 Au:    0.085224   -0.124867
   5 Au:    0.083882   -0.104730
   6 Au:    0.154552   -0.139127
   7 Au:    0.056460   -0.174954
   8 Au:    0.085978   -0.124948
   9 Au:   -0.005987   -0.146164
  10 Au:    0.095770   -0.102161
  11 Au:    0.124106   -0.195839
  12 Cr:   -1.045435    3.671968

  Mayer bond orders larger than 0.100000
B(  0-Au,  1-Au) :   0.1995 B(  0-Au,  3-Au) :   0.1956 B(  0-Au,  9-Au) :   0.2273
B(  0-Au, 11-Au) :   0.1740 B(  0-Au, 12-Cr) :   0.3330 B(  1-Au,  4-Au) :   0.4926
B(  1-Au, 12-Cr) :   0.6485 B(  2-Au,  4-Au) :   0.1535 B(  2-Au,  5-Au) :   0.2466
B(  2-Au,  7-Au) :   0.1885 B(  2-Au,  8-Au) :   0.1521 B(  2-Au, 12-Cr) :   0.2983
B(  3-Au,  5-Au) :   0.3510 B(  3-Au, 11-Au) :   0.1915 B(  3-Au, 12-Cr) :   0.5004
B(  4-Au, 12-Cr) :   0.5247 B(  5-Au, 12-Cr) :   0.7578 B(  6-Au,  7-Au) :   0.3373
B(  6-Au,  9-Au) :   0.4632 B(  6-Au, 12-Cr) :   0.6319 B(  7-Au,  8-Au) :   0.1046
B(  7-Au, 12-Cr) :   0.3765 B(  8-Au, 10-Au) :   0.4965 B(  8-Au, 12-Cr) :   0.5183
B(  9-Au, 11-Au) :   0.2365 B(  9-Au, 12-Cr) :   0.4319 B( 10-Au, 11-Au) :   0.1959
B( 10-Au, 12-Cr) :   0.6473 B( 11-Au, 12-Cr) :   0.3290

MP2 TOTAL ENERGY:    -2671.300650752 Eh
FINAL SINGLE POINT ENERGY     -2671.300650751592

DIPOLE MOMENT
-------------
                                X             Y             Z
Electronic contribution:      3.85202     -12.98933      -3.81629
Nuclear contribution   :     -3.76767      12.69239       3.73214
                        -----------------------------------------
Total Dipole Moment    :      0.08435      -0.29694      -0.08416
                        -----------------------------------------
Magnitude (a.u.)       :      0.31995
Magnitude (Debye)      :      0.81325

Rotational constants in cm-1:     0.001793     0.001041     0.001035
Rotational constants in MHz :    53.745825    31.200667    31.034795

                             ****ORCA TERMINATED NORMALLY****
TOTAL RUN TIME: 0 days 1 hours 3 minutes 56 seconds 290 msec
