                         Program Version 5.0.3 -  RELEASE  -
|  1> !PBE def2-TZVP VERYSLOWCONV
|  2>
|  3> %scf
|  4>   AutoTRAHIter 200
|  5>   maxiter 400
|  6> end
|  7>
|  8>
|  9> %pal nprocs 6 end
| 10>
| 11> *xyzfile 0 5 pbe.xyz
| 12>
| 13> $new_job
| 14>
| 15> !PBE def2-TZVP VERYSLOWCONV
| 16>
| 17> %scf
| 18>   AutoTRAHIter 200
| 19>   maxiter 400
| 20> end
| 21>
| 22>
| 23> %pal nprocs 6 end
| 24>
| 25> *xyzfile 0 3 pbe.xyz
| 26>
| 27>
| 28>
| 29>
| 30>
| 31>                          ****END OF INPUT****
 Total Charge           Charge          ....    0
 Multiplicity           Mult            ....    5
 Number of Electrons    NEL             ....  252
FINAL SINGLE POINT ENERGY     -2674.140402427060

CARTESIAN COORDINATES (ANGSTROEM)
---------------------------------
  Au    11.594697    4.361410    7.022919
  Au    10.929901    6.894328    6.204083
  Au     6.302455    9.070601    6.071740
  Au     8.877277    4.640179    6.289869
  Au     9.128194    8.839842    5.784637
  Au     7.175556    6.521196    5.476674
  Au     9.790009    8.303548    9.699897
  Au     7.879377    9.542341    8.296935
  Au     6.148543    7.234332    8.245947
  Au    10.552237    5.831805    9.140493
  Au     7.539477    5.065795    9.000771
  Au     9.594300    3.272525    8.661176
  Cr     8.685334    6.993076    7.597584

 Multiplicity           Mult            ....    3
 Number of Electrons    NEL             ....  252
 Basis Dimension        Dim             ....  525

ORBITAL ENERGIES
----------------
                 SPIN UP ORBITALS
  NO   OCC          E(Eh)            E(eV)
   0   1.0000    -214.511123     -5837.1444
   1   1.0000     -24.315318      -661.6534
   2   1.0000     -20.679707      -562.7234
   3   1.0000     -20.679377      -562.7145
   4   1.0000     -20.677997      -562.6769
   5   1.0000      -4.027464      -109.5929
   6   1.0000      -4.027257      -109.5872
   7   1.0000      -4.023421      -109.4828
   8   1.0000      -4.023230      -109.4776
   9   1.0000      -4.022823      -109.4666
  10   1.0000      -4.022602      -109.4606
  11   1.0000      -4.021065      -109.4187
  12   1.0000      -4.020088      -109.3921
  13   1.0000      -4.019616      -109.3793
  14   1.0000      -4.018589      -109.3514
  15   1.0000      -4.016311      -109.2894
  16   1.0000      -4.011157      -109.1491
  17   1.0000      -2.809486       -76.4500
  18   1.0000      -2.245996       -61.1167
  19   1.0000      -2.245729       -61.1094
  20   1.0000      -2.243286       -61.0429
  21   1.0000      -2.243139       -61.0389
  22   1.0000      -2.240521       -60.9677
  23   1.0000      -2.240114       -60.9566
  24   1.0000      -2.239968       -60.9526
  25   1.0000      -2.239851       -60.9495
  26   1.0000      -2.238385       -60.9096
  27   1.0000      -2.238275       -60.9066
  28   1.0000      -2.237970       -60.8983
  29   1.0000      -2.236751       -60.8651
  30   1.0000      -2.236560       -60.8599
  31   1.0000      -2.235684       -60.8361
  32   1.0000      -2.235652       -60.8352
  33   1.0000      -2.235399       -60.8283
  34   1.0000      -2.235189       -60.8226
  35   1.0000      -2.234767       -60.8111
  36   1.0000      -2.233166       -60.7675
  37   1.0000      -2.232976       -60.7624
  38   1.0000      -2.232644       -60.7533
  39   1.0000      -2.232172       -60.7405
  40   1.0000      -2.231147       -60.7126
  41   1.0000      -2.230604       -60.6978
  42   1.0000      -2.230109       -60.6844
  43   1.0000      -2.229783       -60.6755
  44   1.0000      -2.229386       -60.6647
  45   1.0000      -2.228740       -60.6471
  46   1.0000      -2.228327       -60.6359
  47   1.0000      -2.228262       -60.6341
  48   1.0000      -2.228109       -60.6299
  49   1.0000      -2.227863       -60.6232
  50   1.0000      -2.227001       -60.5998
  51   1.0000      -2.226844       -60.5955
  52   1.0000      -2.226027       -60.5733
  53   1.0000      -2.216673       -60.3187
  54   1.0000      -1.799331       -48.9623
  55   1.0000      -1.799273       -48.9607
  56   1.0000      -1.796803       -48.8935
  57   1.0000      -0.412860       -11.2345
  58   1.0000      -0.383957       -10.4480
  59   1.0000      -0.369592       -10.0571
  60   1.0000      -0.365165        -9.9366
  61   1.0000      -0.364926        -9.9301
  62   1.0000      -0.361494        -9.8367
  63   1.0000      -0.358459        -9.7542
  64   1.0000      -0.350316        -9.5326
  65   1.0000      -0.349861        -9.5202
  66   1.0000      -0.344959        -9.3868
  67   1.0000      -0.341780        -9.3003
  68   1.0000      -0.338234        -9.2038
  69   1.0000      -0.335682        -9.1344
  70   1.0000      -0.334299        -9.0967
  71   1.0000      -0.332376        -9.0444
  72   1.0000      -0.329778        -8.9737
  73   1.0000      -0.329635        -8.9698
  74   1.0000      -0.327253        -8.9050
  75   1.0000      -0.326604        -8.8873
  76   1.0000      -0.321987        -8.7617
  77   1.0000      -0.321742        -8.7551
  78   1.0000      -0.317691        -8.6448
  79   1.0000      -0.315099        -8.5743
  80   1.0000      -0.310727        -8.4553
  81   1.0000      -0.309534        -8.4228
  82   1.0000      -0.306867        -8.3503
  83   1.0000      -0.302964        -8.2441
  84   1.0000      -0.299846        -8.1592
  85   1.0000      -0.296664        -8.0726
  86   1.0000      -0.295467        -8.0401
  87   1.0000      -0.288520        -7.8510
  88   1.0000      -0.288104        -7.8397
  89   1.0000      -0.285679        -7.7737
  90   1.0000      -0.285335        -7.7644
  91   1.0000      -0.282620        -7.6905
  92   1.0000      -0.280768        -7.6401
  93   1.0000      -0.278070        -7.5667
  94   1.0000      -0.276313        -7.5189
  95   1.0000      -0.275902        -7.5077
  96   1.0000      -0.274550        -7.4709
  97   1.0000      -0.271065        -7.3761
  98   1.0000      -0.270109        -7.3500
  99   1.0000      -0.268931        -7.3180
 100   1.0000      -0.267924        -7.2906
 101   1.0000      -0.265345        -7.2204
 102   1.0000      -0.264274        -7.1913
 103   1.0000      -0.262119        -7.1326
 104   1.0000      -0.260709        -7.0943
 105   1.0000      -0.260321        -7.0837
 106   1.0000      -0.257425        -7.0049
 107   1.0000      -0.255601        -6.9553
 108   1.0000      -0.254384        -6.9221
 109   1.0000      -0.252950        -6.8831
 110   1.0000      -0.252295        -6.8653
 111   1.0000      -0.250088        -6.8052
 112   1.0000      -0.247392        -6.7319
 113   1.0000      -0.245004        -6.6669
 114   1.0000      -0.243905        -6.6370
 115   1.0000      -0.241749        -6.5783
 116   1.0000      -0.240569        -6.5462
 117   1.0000      -0.238208        -6.4820
 118   1.0000      -0.237638        -6.4665
 119   1.0000      -0.234294        -6.3755
 120   1.0000      -0.232643        -6.3305
 121   1.0000      -0.225574        -6.1382
 122   1.0000      -0.217082        -5.9071
 123   1.0000      -0.213781        -5.8173
 124   1.0000      -0.208105        -5.6628
 125   1.0000      -0.206983        -5.6323
 126   1.0000      -0.202421        -5.5082
 127   0.0000      -0.178776        -4.8647
 128   0.0000      -0.171543        -4.6679
 129   0.0000      -0.163182        -4.4404
 130   0.0000      -0.134972        -3.6728
 131   0.0000      -0.128272        -3.4905

                 SPIN DOWN ORBITALS
  NO   OCC          E(Eh)            E(eV)
   0   1.0000    -214.510712     -5837.1332
   1   1.0000     -24.273872      -660.5256
   2   1.0000     -20.648781      -561.8819
   3   1.0000     -20.647452      -561.8457
   4   1.0000     -20.645812      -561.8011
   5   1.0000      -4.027332      -109.5893
   6   1.0000      -4.027084      -109.5825
   7   1.0000      -4.023407      -109.4825
   8   1.0000      -4.023209      -109.4771
   9   1.0000      -4.022607      -109.4607
  10   1.0000      -4.022379      -109.4545
  11   1.0000      -4.020915      -109.4146
  12   1.0000      -4.020541      -109.4045
  13   1.0000      -4.020083      -109.3920
  14   1.0000      -4.018255      -109.3423
  15   1.0000      -4.016421      -109.2924
  16   1.0000      -4.010798      -109.1394
  17   1.0000      -2.698363       -73.4262
  18   1.0000      -2.245705       -61.1088
  19   1.0000      -2.245569       -61.1050
  20   1.0000      -2.242990       -61.0349
  21   1.0000      -2.242832       -61.0306
  22   1.0000      -2.240113       -60.9566
  23   1.0000      -2.239612       -60.9429
  24   1.0000      -2.239439       -60.9382
  25   1.0000      -2.238872       -60.9228
  26   1.0000      -2.238234       -60.9054
  27   1.0000      -2.237969       -60.8982
  28   1.0000      -2.237828       -60.8944
  29   1.0000      -2.237063       -60.8736
  30   1.0000      -2.236893       -60.8690
  31   1.0000      -2.236025       -60.8453
  32   1.0000      -2.235786       -60.8388
  33   1.0000      -2.235603       -60.8338
  34   1.0000      -2.235200       -60.8229
  35   1.0000      -2.235086       -60.8198
  36   1.0000      -2.233469       -60.7758
  37   1.0000      -2.232971       -60.7622
  38   1.0000      -2.232694       -60.7547
  39   1.0000      -2.232396       -60.7466
  40   1.0000      -2.231694       -60.7275
  41   1.0000      -2.231174       -60.7133
  42   1.0000      -2.230135       -60.6851
  43   1.0000      -2.229829       -60.6767
  44   1.0000      -2.229481       -60.6673
  45   1.0000      -2.228868       -60.6506
  46   1.0000      -2.228278       -60.6345
  47   1.0000      -2.227921       -60.6248
  48   1.0000      -2.227713       -60.6192
  49   1.0000      -2.227666       -60.6179
  50   1.0000      -2.226916       -60.5975
  51   1.0000      -2.226755       -60.5931
  52   1.0000      -2.225902       -60.5699
  53   1.0000      -2.216179       -60.3053
  54   1.0000      -1.692279       -46.0492
  55   1.0000      -1.689528       -45.9744
  56   1.0000      -1.685590       -45.8672
  57   1.0000      -0.408462       -11.1148
  58   1.0000      -0.383327       -10.4308
  59   1.0000      -0.366802        -9.9812
  60   1.0000      -0.365146        -9.9361
  61   1.0000      -0.363900        -9.9022
  62   1.0000      -0.360184        -9.8011
  63   1.0000      -0.355990        -9.6870
  64   1.0000      -0.348062        -9.4713
  65   1.0000      -0.347559        -9.4576
  66   1.0000      -0.341371        -9.2892
  67   1.0000      -0.338963        -9.2237
  68   1.0000      -0.337572        -9.1858
  69   1.0000      -0.334575        -9.1042
  70   1.0000      -0.334298        -9.0967
  71   1.0000      -0.332926        -9.0594
  72   1.0000      -0.328222        -8.9314
  73   1.0000      -0.327722        -8.9178
  74   1.0000      -0.325647        -8.8613
  75   1.0000      -0.324428        -8.8281
  76   1.0000      -0.320934        -8.7331
  77   1.0000      -0.319453        -8.6928
  78   1.0000      -0.316933        -8.6242
  79   1.0000      -0.314213        -8.5502
  80   1.0000      -0.310757        -8.4561
  81   1.0000      -0.310551        -8.4505
  82   1.0000      -0.306846        -8.3497
  83   1.0000      -0.303135        -8.2487
  84   1.0000      -0.299313        -8.1447
  85   1.0000      -0.296493        -8.0680
  86   1.0000      -0.294654        -8.0179
  87   1.0000      -0.288714        -7.8563
  88   1.0000      -0.287794        -7.8313
  89   1.0000      -0.286370        -7.7925
  90   1.0000      -0.285171        -7.7599
  91   1.0000      -0.282432        -7.6854
  92   1.0000      -0.280588        -7.6352
  93   1.0000      -0.277066        -7.5393
  94   1.0000      -0.276469        -7.5231
  95   1.0000      -0.275872        -7.5069
  96   1.0000      -0.274625        -7.4729
  97   1.0000      -0.272030        -7.4023
  98   1.0000      -0.270228        -7.3533
  99   1.0000      -0.269672        -7.3381
 100   1.0000      -0.268788        -7.3141
 101   1.0000      -0.266509        -7.2521
 102   1.0000      -0.264983        -7.2106
 103   1.0000      -0.262789        -7.1509
 104   1.0000      -0.261252        -7.1090
 105   1.0000      -0.260827        -7.0975
 106   1.0000      -0.258280        -7.0281
 107   1.0000      -0.256074        -6.9681
 108   1.0000      -0.254979        -6.9383
 109   1.0000      -0.253795        -6.9061
 110   1.0000      -0.252736        -6.8773
 111   1.0000      -0.250621        -6.8197
 112   1.0000      -0.247877        -6.7451
 113   1.0000      -0.244924        -6.6647
 114   1.0000      -0.244355        -6.6492
 115   1.0000      -0.242064        -6.5869
 116   1.0000      -0.241477        -6.5709
 117   1.0000      -0.239288        -6.5114
 118   1.0000      -0.239049        -6.5049
 119   1.0000      -0.236041        -6.4230
 120   1.0000      -0.233508        -6.3541
 121   1.0000      -0.222171        -6.0456
 122   1.0000      -0.201324        -5.4783
 123   1.0000      -0.200921        -5.4673
 124   1.0000      -0.194102        -5.2818
 125   0.0000      -0.142058        -3.8656
 126   0.0000      -0.138680        -3.7737
 127   0.0000      -0.130677        -3.5559
 128   0.0000      -0.126188        -3.4338
 129   0.0000      -0.122860        -3.3432

MULLIKEN ATOMIC CHARGES AND SPIN POPULATIONS
--------------------------------------------
   0 Au:    0.326967   -0.090484
   1 Au:    0.247514   -0.051003
   2 Au:    0.451067   -0.030731
   3 Au:    0.258468   -0.108093
   4 Au:    0.243000   -0.076184
   5 Au:    0.379323   -0.072506
   6 Au:    0.166436   -0.033144
   7 Au:    0.352755   -0.108248
   8 Au:    0.234206   -0.077418
   9 Au:    0.124027   -0.089817
  10 Au:    0.236596   -0.049273
  11 Au:    0.335687   -0.089552
  12 Cr:   -3.356048    2.876453
Sum of atomic charges         :   -0.0000000

LOEWDIN ATOMIC CHARGES AND SPIN POPULATIONS
-------------------------------------------
   0 Au:    0.084983   -0.091601
   1 Au:    0.127720   -0.061075
   2 Au:    0.089385   -0.055026
   3 Au:    0.050144   -0.075031
   4 Au:    0.114145   -0.071331
   5 Au:    0.115437   -0.067341
   6 Au:    0.169610   -0.066859
   7 Au:    0.060017   -0.077637
   8 Au:    0.114253   -0.071259
   9 Au:    0.019135   -0.058332
  10 Au:    0.127869   -0.060428
  11 Au:    0.086608   -0.090724
  12 Cr:   -1.159304    2.846644

  Mayer bond orders larger than 0.100000
B(  0-Au,  1-Au) :   0.2634 B(  0-Au,  3-Au) :   0.2341 B(  0-Au,  9-Au) :   0.2601
B(  0-Au, 11-Au) :   0.1954 B(  0-Au, 12-Cr) :   0.3480 B(  1-Au,  4-Au) :   0.4906
B(  1-Au, 12-Cr) :   0.7706 B(  2-Au,  4-Au) :   0.1916 B(  2-Au,  5-Au) :   0.2889
B(  2-Au,  7-Au) :   0.2371 B(  2-Au,  8-Au) :   0.1901 B(  2-Au, 12-Cr) :   0.2784
B(  3-Au,  5-Au) :   0.3614 B(  3-Au, 11-Au) :   0.2310 B(  3-Au, 12-Cr) :   0.6263
B(  4-Au,  7-Au) :   0.1274 B(  4-Au, 12-Cr) :   0.6654 B(  5-Au, 12-Cr) :   0.9153
B(  6-Au,  7-Au) :   0.3855 B(  6-Au,  9-Au) :   0.5026 B(  6-Au, 12-Cr) :   0.7188
B(  7-Au,  8-Au) :   0.1339 B(  7-Au, 12-Cr) :   0.4805 B(  8-Au, 10-Au) :   0.4966
B(  8-Au, 12-Cr) :   0.6584 B(  9-Au, 11-Au) :   0.2673 B(  9-Au, 12-Cr) :   0.5163
B( 10-Au, 11-Au) :   0.2598 B( 10-Au, 12-Cr) :   0.7668 B( 11-Au, 12-Cr) :   0.3414

FINAL SINGLE POINT ENERGY     -2674.157401823778

DIPOLE MOMENT
-------------
                                X             Y             Z
Electronic contribution:      3.75979     -12.89232      -3.86732
Nuclear contribution   :     -3.76767      12.69239       3.73214
                        -----------------------------------------
Total Dipole Moment    :     -0.00787      -0.19993      -0.13518
                        -----------------------------------------
Magnitude (a.u.)       :      0.24147
Magnitude (Debye)      :      0.61377

Rotational constants in cm-1:     0.001793     0.001041     0.001035
Rotational constants in MHz :    53.745825    31.200667    31.034795

                             ****ORCA TERMINATED NORMALLY****
TOTAL RUN TIME: 0 days 1 hours 3 minutes 37 seconds 138 msec
