                         Program Version 5.0.3 -  RELEASE  -
|  1> !R2SCAN def2-TZVP VERYSLOWCONV
|  2> !KDIIS
|  3> %scf
|  4>   AutoTRAHIter 200
|  5>   maxiter 400
|  6> end
|  7>
|  8> %pal nprocs 6 end
|  9>
| 10> *xyzfile 0 5 pbe.xyz
| 11>
| 12> $new_job
| 13>
| 14> !R2SCAN def2-TZVP VERYSLOWCONV
| 15> !KDIIS
| 16> %scf
| 17>   AutoTRAHIter 200
| 18>   maxiter 400
| 19> end
| 20>
| 21>
| 22> %pal nprocs 6 end
| 23>
| 24> *xyzfile 0 3 pbe.xyz
| 25>
| 26>
| 27>
| 28>
| 29>
| 30>                          ****END OF INPUT****
 Total Charge           Charge          ....    0
 Multiplicity           Mult            ....    5
 Number of Electrons    NEL             ....  252
FINAL SINGLE POINT ENERGY     -2674.572593203938

CARTESIAN COORDINATES (ANGSTROEM)
---------------------------------
  Au    11.594697    4.361410    7.022919
  Au    10.929901    6.894328    6.204083
  Au     6.302455    9.070601    6.071740
  Au     8.877277    4.640179    6.289869
  Au     9.128194    8.839842    5.784637
  Au     7.175556    6.521196    5.476674
  Au     9.790009    8.303548    9.699897
  Au     7.879377    9.542341    8.296935
  Au     6.148543    7.234332    8.245947
  Au    10.552237    5.831805    9.140493
  Au     7.539477    5.065795    9.000771
  Au     9.594300    3.272525    8.661176
  Cr     8.685334    6.993076    7.597584

 Multiplicity           Mult            ....    3
 Number of Electrons    NEL             ....  252
 Basis Dimension        Dim             ....  525

ORBITAL ENERGIES
----------------
                 SPIN UP ORBITALS
  NO   OCC          E(Eh)            E(eV)
   0   1.0000    -215.306663     -5858.7922
   1   1.0000     -24.610945      -669.6978
   2   1.0000     -20.878274      -568.1267
   3   1.0000     -20.877532      -568.1065
   4   1.0000     -20.876598      -568.0811
   5   1.0000      -4.117571      -112.0448
   6   1.0000      -4.116969      -112.0284
   7   1.0000      -4.113567      -111.9359
   8   1.0000      -4.113385      -111.9309
   9   1.0000      -4.112829      -111.9158
  10   1.0000      -4.112612      -111.9099
  11   1.0000      -4.111336      -111.8751
  12   1.0000      -4.111075      -111.8680
  13   1.0000      -4.110852      -111.8620
  14   1.0000      -4.109007      -111.8118
  15   1.0000      -4.107299      -111.7653
  16   1.0000      -4.102205      -111.6267
  17   1.0000      -2.922672       -79.5299
  18   1.0000      -2.308804       -62.8258
  19   1.0000      -2.308260       -62.8109
  20   1.0000      -2.306069       -62.7513
  21   1.0000      -2.305926       -62.7474
  22   1.0000      -2.303476       -62.6808
  23   1.0000      -2.302777       -62.6617
  24   1.0000      -2.302703       -62.6597
  25   1.0000      -2.302525       -62.6549
  26   1.0000      -2.301202       -62.6189
  27   1.0000      -2.300946       -62.6119
  28   1.0000      -2.300739       -62.6063
  29   1.0000      -2.299962       -62.5851
  30   1.0000      -2.299693       -62.5778
  31   1.0000      -2.298909       -62.5565
  32   1.0000      -2.298853       -62.5550
  33   1.0000      -2.298717       -62.5513
  34   1.0000      -2.298074       -62.5338
  35   1.0000      -2.298063       -62.5335
  36   1.0000      -2.296776       -62.4985
  37   1.0000      -2.296332       -62.4864
  38   1.0000      -2.296169       -62.4819
  39   1.0000      -2.295983       -62.4769
  40   1.0000      -2.295158       -62.4544
  41   1.0000      -2.294591       -62.4390
  42   1.0000      -2.293576       -62.4114
  43   1.0000      -2.293296       -62.4038
  44   1.0000      -2.292883       -62.3925
  45   1.0000      -2.292377       -62.3787
  46   1.0000      -2.291933       -62.3667
  47   1.0000      -2.291808       -62.3633
  48   1.0000      -2.291361       -62.3511
  49   1.0000      -2.291124       -62.3447
  50   1.0000      -2.290512       -62.3280
  51   1.0000      -2.290161       -62.3184
  52   1.0000      -2.289545       -62.3017
  53   1.0000      -2.280885       -62.0660
  54   1.0000      -1.869649       -50.8757
  55   1.0000      -1.869002       -50.8581
  56   1.0000      -1.867903       -50.8282
  57   1.0000      -0.417019       -11.3477
  58   1.0000      -0.388725       -10.5778
  59   1.0000      -0.377938       -10.2842
  60   1.0000      -0.372518       -10.1367
  61   1.0000      -0.371839       -10.1183
  62   1.0000      -0.369854       -10.0642
  63   1.0000      -0.366735        -9.9794
  64   1.0000      -0.358459        -9.7542
  65   1.0000      -0.357891        -9.7387
  66   1.0000      -0.353778        -9.6268
  67   1.0000      -0.350319        -9.5327
  68   1.0000      -0.346535        -9.4297
  69   1.0000      -0.344533        -9.3752
  70   1.0000      -0.342667        -9.3244
  71   1.0000      -0.341183        -9.2841
  72   1.0000      -0.338303        -9.2057
  73   1.0000      -0.338078        -9.1996
  74   1.0000      -0.335362        -9.1257
  75   1.0000      -0.334927        -9.1138
  76   1.0000      -0.330521        -8.9939
  77   1.0000      -0.330421        -8.9912
  78   1.0000      -0.325556        -8.8588
  79   1.0000      -0.323502        -8.8029
  80   1.0000      -0.319152        -8.6846
  81   1.0000      -0.317887        -8.6501
  82   1.0000      -0.315276        -8.5791
  83   1.0000      -0.310959        -8.4616
  84   1.0000      -0.308161        -8.3855
  85   1.0000      -0.305000        -8.2995
  86   1.0000      -0.303571        -8.2606
  87   1.0000      -0.296974        -8.0811
  88   1.0000      -0.296475        -8.0675
  89   1.0000      -0.294159        -8.0045
  90   1.0000      -0.293378        -7.9832
  91   1.0000      -0.290811        -7.9134
  92   1.0000      -0.288984        -7.8637
  93   1.0000      -0.285762        -7.7760
  94   1.0000      -0.284383        -7.7384
  95   1.0000      -0.284099        -7.7307
  96   1.0000      -0.282388        -7.6842
  97   1.0000      -0.279316        -7.6006
  98   1.0000      -0.278718        -7.5843
  99   1.0000      -0.276522        -7.5245
 100   1.0000      -0.276149        -7.5144
 101   1.0000      -0.272426        -7.4131
 102   1.0000      -0.271665        -7.3924
 103   1.0000      -0.269874        -7.3437
 104   1.0000      -0.268335        -7.3018
 105   1.0000      -0.267827        -7.2879
 106   1.0000      -0.265086        -7.2134
 107   1.0000      -0.262869        -7.1530
 108   1.0000      -0.262347        -7.1388
 109   1.0000      -0.260477        -7.0879
 110   1.0000      -0.259949        -7.0736
 111   1.0000      -0.256788        -6.9875
 112   1.0000      -0.254710        -6.9310
 113   1.0000      -0.252327        -6.8662
 114   1.0000      -0.251280        -6.8377
 115   1.0000      -0.248312        -6.7569
 116   1.0000      -0.247326        -6.7301
 117   1.0000      -0.244455        -6.6520
 118   1.0000      -0.243134        -6.6160
 119   1.0000      -0.238308        -6.4847
 120   1.0000      -0.237591        -6.4652
 121   1.0000      -0.231433        -6.2976
 122   1.0000      -0.230778        -6.2798
 123   1.0000      -0.218158        -5.9364
 124   1.0000      -0.213672        -5.8143
 125   1.0000      -0.209555        -5.7023
 126   1.0000      -0.208202        -5.6655
 127   0.0000      -0.176992        -4.8162
 128   0.0000      -0.170399        -4.6368
 129   0.0000      -0.160586        -4.3698
 130   0.0000      -0.130133        -3.5411
 131   0.0000      -0.121960        -3.3187

                 SPIN DOWN ORBITALS
  NO   OCC          E(Eh)            E(eV)
   0   1.0000    -215.306040     -5858.7752
   1   1.0000     -24.553149      -668.1251
   2   1.0000     -20.834945      -566.9477
   3   1.0000     -20.832582      -566.8834
   4   1.0000     -20.831273      -566.8478
   5   1.0000      -4.117444      -112.0414
   6   1.0000      -4.117225      -112.0354
   7   1.0000      -4.113783      -111.9417
   8   1.0000      -4.113594      -111.9366
   9   1.0000      -4.112739      -111.9133
  10   1.0000      -4.112512      -111.9071
  11   1.0000      -4.112013      -111.8936
  12   1.0000      -4.111548      -111.8809
  13   1.0000      -4.111064      -111.8677
  14   1.0000      -4.108872      -111.8081
  15   1.0000      -4.107481      -111.7702
  16   1.0000      -4.102093      -111.6236
  17   1.0000      -2.771999       -75.4299
  18   1.0000      -2.308571       -62.8194
  19   1.0000      -2.308172       -62.8085
  20   1.0000      -2.305759       -62.7429
  21   1.0000      -2.305607       -62.7388
  22   1.0000      -2.302958       -62.6667
  23   1.0000      -2.302457       -62.6530
  24   1.0000      -2.302243       -62.6472
  25   1.0000      -2.301968       -62.6397
  26   1.0000      -2.301233       -62.6197
  27   1.0000      -2.300794       -62.6078
  28   1.0000      -2.300537       -62.6008
  29   1.0000      -2.300243       -62.5928
  30   1.0000      -2.300062       -62.5879
  31   1.0000      -2.299315       -62.5675
  32   1.0000      -2.299156       -62.5632
  33   1.0000      -2.298604       -62.5482
  34   1.0000      -2.298602       -62.5481
  35   1.0000      -2.298176       -62.5366
  36   1.0000      -2.297093       -62.5071
  37   1.0000      -2.296782       -62.4986
  38   1.0000      -2.296390       -62.4879
  39   1.0000      -2.295863       -62.4736
  40   1.0000      -2.295753       -62.4706
  41   1.0000      -2.295338       -62.4593
  42   1.0000      -2.293698       -62.4147
  43   1.0000      -2.293457       -62.4082
  44   1.0000      -2.292970       -62.3949
  45   1.0000      -2.292517       -62.3826
  46   1.0000      -2.291940       -62.3669
  47   1.0000      -2.291460       -62.3538
  48   1.0000      -2.291231       -62.3476
  49   1.0000      -2.290983       -62.3408
  50   1.0000      -2.290444       -62.3261
  51   1.0000      -2.290078       -62.3162
  52   1.0000      -2.289424       -62.2984
  53   1.0000      -2.280463       -62.0546
  54   1.0000      -1.722789       -46.8795
  55   1.0000      -1.717929       -46.7472
  56   1.0000      -1.714713       -46.6597
  57   1.0000      -0.412877       -11.2349
  58   1.0000      -0.388763       -10.5788
  59   1.0000      -0.374741       -10.1972
  60   1.0000      -0.372093       -10.1252
  61   1.0000      -0.371588       -10.1114
  62   1.0000      -0.368564       -10.0291
  63   1.0000      -0.364241        -9.9115
  64   1.0000      -0.356368        -9.6973
  65   1.0000      -0.355622        -9.6770
  66   1.0000      -0.349823        -9.5192
  67   1.0000      -0.347905        -9.4670
  68   1.0000      -0.346486        -9.4284
  69   1.0000      -0.343773        -9.3545
  70   1.0000      -0.343208        -9.3392
  71   1.0000      -0.341639        -9.2965
  72   1.0000      -0.337175        -9.1750
  73   1.0000      -0.336673        -9.1613
  74   1.0000      -0.333775        -9.0825
  75   1.0000      -0.333084        -9.0637
  76   1.0000      -0.329550        -8.9675
  77   1.0000      -0.327779        -8.9193
  78   1.0000      -0.325411        -8.8549
  79   1.0000      -0.322706        -8.7813
  80   1.0000      -0.319653        -8.6982
  81   1.0000      -0.319482        -8.6935
  82   1.0000      -0.315342        -8.5809
  83   1.0000      -0.311606        -8.4792
  84   1.0000      -0.308007        -8.3813
  85   1.0000      -0.305154        -8.3037
  86   1.0000      -0.302904        -8.2424
  87   1.0000      -0.297593        -8.0979
  88   1.0000      -0.296506        -8.0683
  89   1.0000      -0.295429        -8.0390
  90   1.0000      -0.293551        -7.9879
  91   1.0000      -0.290832        -7.9139
  92   1.0000      -0.288857        -7.8602
  93   1.0000      -0.285576        -7.7709
  94   1.0000      -0.285222        -7.7613
  95   1.0000      -0.284005        -7.7282
  96   1.0000      -0.282544        -7.6884
  97   1.0000      -0.280866        -7.6427
  98   1.0000      -0.279198        -7.5974
  99   1.0000      -0.277753        -7.5581
 100   1.0000      -0.277423        -7.5491
 101   1.0000      -0.274433        -7.4677
 102   1.0000      -0.273162        -7.4331
 103   1.0000      -0.271193        -7.3795
 104   1.0000      -0.269349        -7.3294
 105   1.0000      -0.268491        -7.3060
 106   1.0000      -0.266519        -7.2524
 107   1.0000      -0.263606        -7.1731
 108   1.0000      -0.263264        -7.1638
 109   1.0000      -0.261867        -7.1258
 110   1.0000      -0.260418        -7.0863
 111   1.0000      -0.257734        -7.0133
 112   1.0000      -0.255658        -6.9568
 113   1.0000      -0.252424        -6.8688
 114   1.0000      -0.251858        -6.8534
 115   1.0000      -0.249134        -6.7793
 116   1.0000      -0.248592        -6.7645
 117   1.0000      -0.246565        -6.7094
 118   1.0000      -0.245392        -6.6775
 119   1.0000      -0.241931        -6.5833
 120   1.0000      -0.239922        -6.5286
 121   1.0000      -0.224195        -6.1007
 122   1.0000      -0.203216        -5.5298
 123   1.0000      -0.202973        -5.5232
 124   1.0000      -0.195461        -5.3188
 125   0.0000      -0.136766        -3.7216
 126   0.0000      -0.131400        -3.5756
 127   0.0000      -0.126400        -3.4395
 128   0.0000      -0.115425        -3.1409
 129   0.0000      -0.110656        -3.0111

MULLIKEN ATOMIC CHARGES AND SPIN POPULATIONS
--------------------------------------------
   0 Au:    0.293299   -0.125529
   1 Au:    0.214963   -0.071308
   2 Au:    0.398633   -0.048671
   3 Au:    0.246805   -0.139436
   4 Au:    0.225230   -0.105218
   5 Au:    0.338985   -0.102555
   6 Au:    0.160384   -0.052240
   7 Au:    0.308490   -0.166270
   8 Au:    0.217470   -0.106359
   9 Au:    0.106954   -0.124212
  10 Au:    0.204067   -0.069115
  11 Au:    0.301635   -0.124303
  12 Cr:   -3.016916    3.235214
Sum of atomic charges         :    0.0000000

LOEWDIN ATOMIC CHARGES AND SPIN POPULATIONS
-------------------------------------------
   0 Au:    0.086184   -0.116901
   1 Au:    0.120219   -0.080061
   2 Au:    0.089343   -0.069595
   3 Au:    0.043840   -0.093834
   4 Au:    0.108241   -0.091818
   5 Au:    0.108961   -0.086758
   6 Au:    0.165858   -0.094581
   7 Au:    0.055351   -0.106962
   8 Au:    0.108406   -0.091628
   9 Au:    0.013115   -0.084924
  10 Au:    0.120441   -0.079135
  11 Au:    0.087871   -0.115741
  12 Cr:   -1.107830    3.111939

  Mayer bond orders larger than 0.100000
B(  0-Au,  1-Au) :   0.2573 B(  0-Au,  3-Au) :   0.2212 B(  0-Au,  9-Au) :   0.2497
B(  0-Au, 11-Au) :   0.1828 B(  0-Au, 12-Cr) :   0.3306 B(  1-Au,  4-Au) :   0.4900
B(  1-Au, 12-Cr) :   0.7497 B(  2-Au,  4-Au) :   0.1813 B(  2-Au,  5-Au) :   0.2811
B(  2-Au,  7-Au) :   0.2269 B(  2-Au,  8-Au) :   0.1797 B(  2-Au, 12-Cr) :   0.2782
B(  3-Au,  5-Au) :   0.3716 B(  3-Au, 11-Au) :   0.2176 B(  3-Au, 12-Cr) :   0.5925
B(  4-Au,  7-Au) :   0.1068 B(  4-Au, 12-Cr) :   0.6496 B(  5-Au, 12-Cr) :   0.8662
B(  6-Au,  7-Au) :   0.3817 B(  6-Au,  9-Au) :   0.5022 B(  6-Au, 12-Cr) :   0.6913
B(  7-Au,  8-Au) :   0.1132 B(  7-Au, 12-Cr) :   0.4728 B(  8-Au, 10-Au) :   0.4959
B(  8-Au, 12-Cr) :   0.6414 B(  9-Au, 11-Au) :   0.2584 B(  9-Au, 12-Cr) :   0.5085
B( 10-Au, 11-Au) :   0.2535 B( 10-Au, 12-Cr) :   0.7473 B( 11-Au, 12-Cr) :   0.3241

FINAL SINGLE POINT ENERGY     -2674.589876154794

DIPOLE MOMENT
-------------
                                X             Y             Z
Electronic contribution:      3.76758     -12.89311      -3.85824
Nuclear contribution   :     -3.76767      12.69239       3.73214
                        -----------------------------------------
Total Dipole Moment    :     -0.00009      -0.20072      -0.12611
                        -----------------------------------------
Magnitude (a.u.)       :      0.23704
Magnitude (Debye)      :      0.60252

Rotational constants in cm-1:     0.001793     0.001041     0.001035
Rotational constants in MHz :    53.745825    31.200667    31.034795

                             ****ORCA TERMINATED NORMALLY****
TOTAL RUN TIME: 0 days 0 hours 16 minutes 34 seconds 866 msec
