                         Program Version 5.0.3 -  RELEASE  -
|  1> !CASSCF def2-TZVP def2-TZVP/C
|  2> !MOREAD RIJCOSX
|  3> %maxcore 6000
|  4> %moinp "pbe.qro"
|  5> %pal nprocs 2 end
|  6>
|  7> %casscf
|  8>  mult 5,3
|  9>  bweight 1,1
| 10>  nroots 5,45
| 11>  nel 6
| 12>  norb 5
| 13> end
| 14>
| 15>
| 16> *xyzfile 0 5 pbe.xyz
| 17>
| 18>
| 19>                          ****END OF INPUT****

CARTESIAN COORDINATES (ANGSTROEM)
---------------------------------
  Au     7.954869    8.933313   10.802903
  Au     9.548569    6.908858    9.560746
  Au     6.799053   11.211120    6.715001
  Au     8.781465   10.528479    8.657953
  Au     6.870052    6.397393   10.036346
  Au     5.950448    9.991148    9.161575
  Au     5.392492    8.811109    6.708986
  Au     6.024995    6.133859    7.485314
  Au     8.874258    9.466716    6.090414
  Au     6.645180    9.768005    4.327399
  Au     9.525045    6.792965    6.862911
  Au     7.281990    7.234965    5.218692
  Cr     7.626051    8.156590    8.128798

 Total Charge           Charge          ....    0
 Multiplicity           Mult            ....    5
 Number of Electrons    NEL             ....  252
 Basis Dimension        Dim             ....  525

ORBITAL ENERGIES
----------------

  NO   OCC          E(Eh)            E(eV)
   0   2.0000    -220.514899     -6000.5155
   1   2.0000     -26.357956      -717.2364
   2   2.0000     -22.292840      -606.6190
   3   2.0000     -22.289292      -606.5225
   4   2.0000     -22.278002      -606.2153
   5   2.0000      -4.718335      -128.3924
   6   2.0000      -4.718262      -128.3904
   7   2.0000      -4.713222      -128.2533
   8   2.0000      -4.713122      -128.2506
   9   2.0000      -4.708283      -128.1189
  10   2.0000      -4.708260      -128.1183
  11   2.0000      -4.707858      -128.1073
  12   2.0000      -4.705663      -128.0476
  13   2.0000      -4.702350      -127.9575
  14   2.0000      -4.702113      -127.9510
  15   2.0000      -4.694770      -127.7512
  16   2.0000      -4.694232      -127.7366
  17   2.0000      -3.409057       -92.7652
  18   2.0000      -2.757412       -75.0330
  19   2.0000      -2.757242       -75.0284
  20   2.0000      -2.755971       -74.9938
  21   2.0000      -2.755915       -74.9923
  22   2.0000      -2.754669       -74.9584
  23   2.0000      -2.754091       -74.9426
  24   2.0000      -2.752674       -74.9041
  25   2.0000      -2.750698       -74.8503
  26   2.0000      -2.749494       -74.8175
  27   2.0000      -2.748521       -74.7911
  28   2.0000      -2.748495       -74.7904
  29   2.0000      -2.747475       -74.7626
  30   2.0000      -2.747369       -74.7597
  31   2.0000      -2.746666       -74.7406
  32   2.0000      -2.746606       -74.7389
  33   2.0000      -2.745985       -74.7221
  34   2.0000      -2.744338       -74.6772
  35   2.0000      -2.743108       -74.6438
  36   2.0000      -2.742908       -74.6383
  37   2.0000      -2.742673       -74.6319
  38   2.0000      -2.742216       -74.6195
  39   2.0000      -2.741748       -74.6068
  40   2.0000      -2.741508       -74.6002
  41   2.0000      -2.740100       -74.5619
  42   2.0000      -2.739969       -74.5583
  43   2.0000      -2.738928       -74.5300
  44   2.0000      -2.737626       -74.4946
  45   2.0000      -2.736611       -74.4670
  46   2.0000      -2.736496       -74.4639
  47   2.0000      -2.734387       -74.4065
  48   2.0000      -2.730832       -74.3097
  49   2.0000      -2.730696       -74.3060
  50   2.0000      -2.728971       -74.2591
  51   2.0000      -2.728835       -74.2554
  52   2.0000      -2.728767       -74.2535
  53   2.0000      -2.728445       -74.2448
  54   2.0000      -2.172956       -59.1291
  55   2.0000      -2.171133       -59.0795
  56   2.0000      -2.161829       -58.8264
  57   2.0000      -0.554009       -15.0754
  58   2.0000      -0.551906       -15.0181
  59   2.0000      -0.546816       -14.8796
  60   2.0000      -0.540356       -14.7038
  61   2.0000      -0.537749       -14.6329
  62   2.0000      -0.536477       -14.5983
  63   2.0000      -0.535146       -14.5621
  64   2.0000      -0.534147       -14.5349
  65   2.0000      -0.531332       -14.4583
  66   2.0000      -0.530802       -14.4439
  67   2.0000      -0.526853       -14.3364
  68   2.0000      -0.526409       -14.3243
  69   2.0000      -0.520310       -14.1584
  70   2.0000      -0.517933       -14.0937
  71   2.0000      -0.517047       -14.0696
  72   2.0000      -0.516331       -14.0501
  73   2.0000      -0.513422       -13.9709
  74   2.0000      -0.511398       -13.9158
  75   2.0000      -0.507866       -13.8197
  76   2.0000      -0.503499       -13.7009
  77   2.0000      -0.502890       -13.6843
  78   2.0000      -0.499844       -13.6014
  79   2.0000      -0.498801       -13.5731
  80   2.0000      -0.496009       -13.4971
  81   2.0000      -0.492805       -13.4099
  82   2.0000      -0.489273       -13.3138
  83   2.0000      -0.485986       -13.2244
  84   2.0000      -0.484054       -13.1718
  85   2.0000      -0.482092       -13.1184
  86   2.0000      -0.473996       -12.8981
  87   2.0000      -0.471905       -12.8412
  88   2.0000      -0.470303       -12.7976
  89   2.0000      -0.465886       -12.6774
  90   2.0000      -0.464207       -12.6317
  91   2.0000      -0.461961       -12.5706
  92   2.0000      -0.454935       -12.3794
  93   2.0000      -0.453899       -12.3512
  94   2.0000      -0.452241       -12.3061
  95   2.0000      -0.450943       -12.2708
  96   2.0000      -0.448010       -12.1910
  97   2.0000      -0.445502       -12.1227
  98   2.0000      -0.443097       -12.0573
  99   2.0000      -0.441806       -12.0222
 100   2.0000      -0.440591       -11.9891
 101   2.0000      -0.440567       -11.9884
 102   2.0000      -0.440007       -11.9732
 103   2.0000      -0.438260       -11.9257
 104   2.0000      -0.435548       -11.8519
 105   2.0000      -0.429789       -11.6952
 106   2.0000      -0.428389       -11.6571
 107   2.0000      -0.426209       -11.5977
 108   2.0000      -0.425798       -11.5865
 109   2.0000      -0.423328       -11.5193
 110   2.0000      -0.419886       -11.4257
 111   2.0000      -0.414607       -11.2820
 112   2.0000      -0.414387       -11.2760
 113   2.0000      -0.412700       -11.2301
 114   2.0000      -0.408708       -11.1215
 115   2.0000      -0.405975       -11.0471
 116   2.0000      -0.399967       -10.8837
 117   2.0000      -0.397928       -10.8282
 118   2.0000      -0.356711        -9.7066
 119   2.0000      -0.331626        -9.0240
 120   2.0000      -0.291876        -7.9423
 121   2.0000      -0.237982        -6.4758
 122   2.0000      -0.219393        -5.9700
 123   1.2000      -0.128515        -3.4971
 124   1.2000      -0.096863        -2.6358
 125   1.2000      -0.141670        -3.8550
 126   1.2000      -0.088567        -2.4100
 127   1.2000      -0.110986        -3.0201
 128   0.0000      -0.014038        -0.3820
 129   0.0000      -0.007896        -0.2149
 130   0.0000       0.000713         0.0194
 131   0.0000       0.014130         0.3845
 132   0.0000       0.017299         0.4707

MULLIKEN ATOMIC CHARGES AND SPIN DENSITIES
------------------------------------------
   0 Au:    0.364483    0.012890
   1 Au:    0.379492    0.032746
   2 Au:    0.251994    0.032277
   3 Au:    0.438767    0.043804
   4 Au:    0.379264    0.032588
   5 Au:    0.440367    0.043865
   6 Au:    0.345092    0.038665
   7 Au:    0.331865    0.046538
   8 Au:    0.345904    0.038386
   9 Au:    0.086986    0.016589
  10 Au:    0.332880    0.046626
  11 Au:    0.338691    0.011018
  12 Cr:   -4.035786    2.604008
Sum of atomic charges       :    0.0000000

LOEWDIN ATOMIC CHARGES AND SPIN DENSITIES
-----------------------------------------
   0 Au:    0.073136    0.030290
   1 Au:    0.110452    0.063390
   2 Au:    0.045002    0.056845
   3 Au:    0.131010    0.058824
   4 Au:    0.110467    0.063220
   5 Au:    0.131507    0.058995
   6 Au:    0.031787    0.056413
   7 Au:    0.154011    0.064852
   8 Au:    0.032252    0.056162
   9 Au:    0.078711    0.023530
  10 Au:    0.154077    0.064973
  11 Au:    0.040522    0.023788
  12 Cr:   -1.092935    2.378719

  Mayer bond orders larger than 0.100000
B(  0-Au,  1-Au) :   0.1474 B(  0-Au,  3-Au) :   0.1973 B(  0-Au,  4-Au) :   0.1470
B(  0-Au,  5-Au) :   0.1967 B(  0-Au, 12-Cr) :   0.4089 B(  1-Au,  4-Au) :   0.2284
B(  1-Au,  6-Au) :   0.1149 B(  1-Au, 10-Au) :   0.2234 B(  1-Au, 12-Cr) :   0.3297
B(  2-Au,  3-Au) :   0.1299 B(  2-Au,  5-Au) :   0.1289 B(  2-Au,  6-Au) :   0.1644
B(  2-Au,  8-Au) :   0.1640 B(  2-Au,  9-Au) :   0.2299 B(  2-Au, 12-Cr) :   0.4814
B(  3-Au,  5-Au) :   0.1274 B(  3-Au,  8-Au) :   0.1607 B(  3-Au, 12-Cr) :   0.4307
B(  4-Au,  7-Au) :   0.2241 B(  4-Au,  8-Au) :   0.1149 B(  4-Au, 12-Cr) :   0.3303
B(  5-Au,  6-Au) :   0.1615 B(  5-Au, 12-Cr) :   0.4296 B(  6-Au,  7-Au) :   0.2038
B(  6-Au,  9-Au) :   0.1838 B(  6-Au, 11-Au) :   0.1252 B(  6-Au, 12-Cr) :   0.3572
B(  7-Au, 11-Au) :   0.1314 B(  7-Au, 12-Cr) :   0.4354 B(  8-Au,  9-Au) :   0.1819
B(  8-Au, 10-Au) :   0.2055 B(  8-Au, 11-Au) :   0.1253 B(  8-Au, 12-Cr) :   0.3578
B(  9-Au, 11-Au) :   0.2605 B(  9-Au, 12-Cr) :   0.4702 B( 10-Au, 11-Au) :   0.1313
B( 10-Au, 12-Cr) :   0.4341 B( 11-Au, 12-Cr) :   0.4301

FINAL SINGLE POINT ENERGY     -2660.847655171005

DIPOLE MOMENT
-------------
                                X             Y             Z
Electronic contribution:     -5.42578      12.49286     -17.24208
Nuclear contribution   :      5.45310     -12.57490      17.30927
                        -----------------------------------------
Total Dipole Moment    :      0.02732      -0.08204       0.06719
                        -----------------------------------------
Magnitude (a.u.)       :      0.10951
Magnitude (Debye)      :      0.27834

Rotational constants in cm-1:     0.001646     0.001225     0.001075
Rotational constants in MHz :    49.331643    36.724713    32.213157

                             ****ORCA TERMINATED NORMALLY****
TOTAL RUN TIME: 0 days 0 hours 33 minutes 36 seconds 487 msec
