                         Program Version 5.0.3 -  RELEASE  -
|  1> !SC-NEVPT2 def2-TZVP def2-TZVP/C
|  2> !MOREAD RIJCOSX def2/J
|  3> %maxcore 4000
|  4> %moinp "casscf.gbw"
|  5> %pal nprocs 6 end
|  6>
|  7> %casscf
|  8>  mult 6,4
|  9>  bweight 1,1
| 10>  nroots 1,24
| 11>  nel 5
| 12>  norb 5
| 13>  ptsettings
| 14>   d4tpre 1e-14 # default = 1e-10
| 15>   d3tpre 1e-14
| 16>  end
| 17>  rel
| 18>    dosoc true
| 19>    gtensor true
| 20>  end
| 21> end
| 22>
| 23>
| 24> *xyzfile 0 6 pbe.xyz
| 25>
| 26>
| 27>                          ****END OF INPUT****

CARTESIAN COORDINATES (ANGSTROEM)
---------------------------------
  Au     5.486576    8.048517    9.134200
  Au     9.483220    9.812500    8.141620
  Au     5.420094    8.957479    6.199820
  Au     4.215995   10.323290    8.233938
  Au     6.931056   10.548294    8.071267
  Au     6.954791    7.146175    5.003923
  Au     9.975179    7.219689    8.451003
  Au     7.248219    6.121896    9.347907
  Au     9.476313    4.569978    8.877550
  Au     8.477259    5.632226    6.569674
  Mn     7.584146    8.002260    7.488494

 Total Charge           Charge          ....    0
 Multiplicity           Mult            ....    6
 Number of Electrons    NEL             ....  215
 Basis Dimension        Dim             ....  445

ORBITAL ENERGIES
----------------

  NO   OCC          E(Eh)            E(eV)
   0   2.0000    -240.475182     -6543.6624
   1   2.0000     -29.045787      -790.3761
   2   2.0000     -24.754816      -673.6128
   3   2.0000     -24.749739      -673.4746
   4   2.0000     -24.749312      -673.4630
   5   2.0000      -4.712052      -128.2215
   6   2.0000      -4.712040      -128.2211
   7   2.0000      -4.711912      -128.2176
   8   2.0000      -4.711907      -128.2175
   9   2.0000      -4.706353      -128.0664
  10   2.0000      -4.706337      -128.0659
  11   2.0000      -4.696390      -127.7953
  12   2.0000      -4.696360      -127.7945
  13   2.0000      -4.693783      -127.7243
  14   2.0000      -4.693274      -127.7105
  15   2.0000      -3.738820      -101.7385
  16   2.0000      -2.754012       -74.9405
  17   2.0000      -2.753251       -74.9198
  18   2.0000      -2.752246       -74.8924
  19   2.0000      -2.751354       -74.8681
  20   2.0000      -2.750966       -74.8576
  21   2.0000      -2.750859       -74.8547
  22   2.0000      -2.748184       -74.7819
  23   2.0000      -2.748166       -74.7814
  24   2.0000      -2.745660       -74.7132
  25   2.0000      -2.745589       -74.7113
  26   2.0000      -2.744421       -74.6795
  27   2.0000      -2.744416       -74.6793
  28   2.0000      -2.743218       -74.6468
  29   2.0000      -2.742874       -74.6374
  30   2.0000      -2.740655       -74.5770
  31   2.0000      -2.740429       -74.5709
  32   2.0000      -2.739805       -74.5539
  33   2.0000      -2.739681       -74.5505
  34   2.0000      -2.735541       -74.4379
  35   2.0000      -2.733072       -74.3707
  36   2.0000      -2.733027       -74.3694
  37   2.0000      -2.731602       -74.3307
  38   2.0000      -2.731574       -74.3299
  39   2.0000      -2.729438       -74.2718
  40   2.0000      -2.729282       -74.2675
  41   2.0000      -2.727927       -74.2307
  42   2.0000      -2.727890       -74.2297
  43   2.0000      -2.725406       -74.1621
  44   2.0000      -2.725002       -74.1511
  45   2.0000      -2.724596       -74.1400
  46   2.0000      -2.411821       -65.6290
  47   2.0000      -2.409620       -65.5691
  48   2.0000      -2.407547       -65.5127
  49   2.0000      -0.557413       -15.1680
  50   2.0000      -0.548062       -14.9135
  51   2.0000      -0.539988       -14.6938
  52   2.0000      -0.538750       -14.6601
  53   2.0000      -0.536877       -14.6092
  54   2.0000      -0.536522       -14.5995
  55   2.0000      -0.533138       -14.5074
  56   2.0000      -0.523092       -14.2340
  57   2.0000      -0.521095       -14.1797
  58   2.0000      -0.518931       -14.1208
  59   2.0000      -0.513401       -13.9703
  60   2.0000      -0.513195       -13.9647
  61   2.0000      -0.502848       -13.6832
  62   2.0000      -0.502709       -13.6794
  63   2.0000      -0.497182       -13.5290
  64   2.0000      -0.497151       -13.5282
  65   2.0000      -0.493124       -13.4186
  66   2.0000      -0.490501       -13.3472
  67   2.0000      -0.490283       -13.3413
  68   2.0000      -0.486665       -13.2428
  69   2.0000      -0.485663       -13.2156
  70   2.0000      -0.477116       -12.9830
  71   2.0000      -0.469760       -12.7828
  72   2.0000      -0.466945       -12.7062
  73   2.0000      -0.466367       -12.6905
  74   2.0000      -0.464074       -12.6281
  75   2.0000      -0.462076       -12.5737
  76   2.0000      -0.456899       -12.4329
  77   2.0000      -0.456594       -12.4246
  78   2.0000      -0.456092       -12.4109
  79   2.0000      -0.451779       -12.2935
  80   2.0000      -0.449711       -12.2373
  81   2.0000      -0.448425       -12.2023
  82   2.0000      -0.443395       -12.0654
  83   2.0000      -0.443042       -12.0558
  84   2.0000      -0.438693       -11.9374
  85   2.0000      -0.438308       -11.9270
  86   2.0000      -0.435863       -11.8604
  87   2.0000      -0.435717       -11.8565
  88   2.0000      -0.435284       -11.8447
  89   2.0000      -0.434581       -11.8256
  90   2.0000      -0.429008       -11.6739
  91   2.0000      -0.427985       -11.6461
  92   2.0000      -0.425632       -11.5820
  93   2.0000      -0.418242       -11.3809
  94   2.0000      -0.417971       -11.3736
  95   2.0000      -0.415095       -11.2953
  96   2.0000      -0.410194       -11.1619
  97   2.0000      -0.400226       -10.8907
  98   2.0000      -0.393981       -10.7208
  99   2.0000      -0.384049       -10.4505
 100   2.0000      -0.362191        -9.8557
 101   2.0000      -0.301371        -8.2007
 102   2.0000      -0.295238        -8.0338
 103   2.0000      -0.285748        -7.7756
 104   2.0000      -0.250309        -6.8113
 105   1.0000      -0.075503        -2.0545
 106   1.0000      -0.069918        -1.9026
 107   1.0000      -0.094546        -2.5727
 108   1.0000      -0.088347        -2.4040
 109   1.0000      -0.064920        -1.7666
 110   0.0000      -0.028000        -0.7619
 111   0.0000      -0.004321        -0.1176
 112   0.0000       0.003166         0.0862
 113   0.0000       0.013627         0.3708
 114   0.0000       0.038217         1.0399

MULLIKEN ATOMIC CHARGES AND SPIN DENSITIES
------------------------------------------
   0 Au:   -0.034604    0.042880
   1 Au:    0.199331    0.023598
   2 Au:    0.037461    0.114221
   3 Au:    0.393423    0.088597
   4 Au:    0.034328    0.114415
   5 Au:    0.196768    0.023880
   6 Au:    0.035889    0.114172
   7 Au:   -0.036841    0.042820
   8 Au:    0.393496    0.088871
   9 Au:    0.036823    0.114363
  10 Mn:   -1.256072    3.232185
Sum of atomic charges       :    0.0000000

LOEWDIN ATOMIC CHARGES AND SPIN DENSITIES
-----------------------------------------
   0 Au:   -0.052638    0.056277
   1 Au:    0.109703    0.090231
   2 Au:   -0.012633    0.086352
   3 Au:    0.139430    0.093650
   4 Au:   -0.013144    0.086401
   5 Au:    0.109408    0.090359
   6 Au:   -0.012965    0.086237
   7 Au:   -0.052828    0.056301
   8 Au:    0.139389    0.093855
   9 Au:   -0.012910    0.086543
  10 Mn:   -0.340813    3.173794

  Mayer bond orders larger than 0.100000
B(  0-Au,  2-Au) :   0.1367 B(  0-Au,  3-Au) :   0.2474 B(  0-Au,  4-Au) :   0.1363
B(  0-Au,  7-Au) :   0.6280 B(  0-Au, 10-Mn) :   0.3911 B(  1-Au,  4-Au) :   0.3235
B(  1-Au,  6-Au) :   0.3225 B(  1-Au, 10-Mn) :   0.4407 B(  2-Au,  3-Au) :   0.3217
B(  2-Au,  4-Au) :   0.2729 B(  2-Au,  5-Au) :   0.3223 B(  2-Au, 10-Mn) :   0.4213
B(  3-Au,  4-Au) :   0.3218 B(  4-Au, 10-Mn) :   0.4229 B(  5-Au,  9-Au) :   0.3224
B(  5-Au, 10-Mn) :   0.4428 B(  6-Au,  7-Au) :   0.1370 B(  6-Au,  8-Au) :   0.3218
B(  6-Au,  9-Au) :   0.2734 B(  6-Au, 10-Mn) :   0.4222 B(  7-Au,  8-Au) :   0.2482
B(  7-Au,  9-Au) :   0.1364 B(  7-Au, 10-Mn) :   0.3921 B(  8-Au,  9-Au) :   0.3212
B(  9-Au, 10-Mn) :   0.4209

FINAL SINGLE POINT ENERGY     -2502.956200403071

DIPOLE MOMENT
-------------
                                X             Y             Z
Electronic contribution:     -7.71158      -5.82924      11.16772
Nuclear contribution   :      7.86929       5.94900     -11.39402
                        -----------------------------------------
Total Dipole Moment    :      0.15771       0.11976      -0.22629
                        -----------------------------------------
Magnitude (a.u.)       :      0.30071
Magnitude (Debye)      :      0.76433

Rotational constants in cm-1:     0.002364     0.001210     0.001148
Rotational constants in MHz :    70.874428    36.262003    34.430306

                             ****ORCA TERMINATED NORMALLY****
TOTAL RUN TIME: 0 days 0 hours 37 minutes 14 seconds 212 msec
