                         Program Version 5.0.3 -  RELEASE  -
|  1> %pal nprocs 1 end
|  2>
|  3> !PBE def2-TZVP OPT UNO
|  4> !SLOWCONV
|  5>
|  6> *xyz 0 5
|  7>  Au  6.80178744448104      5.54207868406046      7.61439855829191
|  8>  Au  8.83690996288426      5.84743816117562      5.73961408770388
|  9>  Au  7.44706324532768      8.12533800110644      4.75509533963631
| 10>  Au  5.48758923557024      7.88947611200323      6.60268121872863
| 11>  Au  10.19621774610739      8.00444051255911      4.65815517241651
| 12>  Au  11.03472072274347      7.57348563665948      7.24353725308877
| 13>  Au  9.43177680026026      5.64527586002455      8.42865491319822
| 14>  Au  7.36549837264211      7.51949525383495      9.90821558834749
| 15>  Au  5.58660593436586      9.55082868737978      8.93588511696898
| 16>  Au  6.98208611774852     10.24303795700295      6.59065340545225
| 17>  Au  10.04119309593736      8.03380519712060      9.76160572069454
| 18>  Au  8.31608765072937     10.10013888938710      9.04664416988345
| 19>  Au  4.83157197650535      6.83230114616440      9.07277322427926
| 20>  Au  9.76442041398288     10.02163857569527      6.64196719983042
| 21>  Fe  8.24576427071395      7.91270770582586      7.38152983147905
| 22> *
| 23>
| 24>
| 25>                          ****END OF INPUT****
 Total Charge           Charge          ....    0
 Multiplicity           Mult            ....    5
 Number of Electrons    NEL             ....  292
FINAL SINGLE POINT ENERGY     -3165.080700350891
FINAL SINGLE POINT ENERGY     -3165.080709463108
FINAL SINGLE POINT ENERGY     -3165.080718941775
FINAL SINGLE POINT ENERGY     -3165.080723475332
FINAL SINGLE POINT ENERGY     -3165.080727934560
FINAL SINGLE POINT ENERGY     -3165.080732964896
FINAL SINGLE POINT ENERGY     -3165.080736056414
FINAL SINGLE POINT ENERGY     -3165.080740142857
                    ***********************HURRAY********************

CARTESIAN COORDINATES (ANGSTROEM)
---------------------------------
  Au     6.794082    5.542100    7.599635
  Au     8.853938    5.860598    5.754695
  Au     7.449924    8.126336    4.751630
  Au     5.486740    7.886091    6.599229
  Au    10.195812    8.021627    4.645853
  Au    11.022870    7.546125    7.229693
  Au     9.406555    5.644206    8.456534
  Au     7.370030    7.520656    9.916765
  Au     5.591226    9.540994    8.940205
  Au     6.978676   10.235402    6.590113
  Au    10.047594    8.043279    9.747518
  Au     8.314367   10.107358    9.045243
  Au     4.836507    6.825439    9.072425
  Au     9.769810   10.020320    6.646814
  Fe     8.251161    7.920955    7.385059

 Multiplicity           Mult            ....    5
 Number of Electrons    NEL             ....  292
 Basis Dimension        Dim             ....  605

ORBITAL ENERGIES
----------------
                 SPIN UP ORBITALS
  NO   OCC          E(Eh)            E(eV)
   0   1.0000    -254.776048     -6932.8087
   1   1.0000     -29.615996      -805.8922
   2   1.0000     -25.556436      -695.4260
   3   1.0000     -25.548720      -695.2160
   4   1.0000     -25.547362      -695.1791
   5   1.0000      -4.035499      -109.8115
   6   1.0000      -4.033079      -109.7457
   7   1.0000      -4.032287      -109.7241
   8   1.0000      -4.030599      -109.6782
   9   1.0000      -4.030348      -109.6713
  10   1.0000      -4.030060      -109.6635
  11   1.0000      -4.028964      -109.6337
  12   1.0000      -4.027552      -109.5953
  13   1.0000      -4.026016      -109.5535
  14   1.0000      -4.025268      -109.5331
  15   1.0000      -4.024921      -109.5237
  16   1.0000      -4.024097      -109.5012
  17   1.0000      -4.019747      -109.3829
  18   1.0000      -4.016581      -109.2967
  19   1.0000      -3.395679       -92.4011
  20   1.0000      -2.252514       -61.2940
  21   1.0000      -2.248760       -61.1919
  22   1.0000      -2.248324       -61.1800
  23   1.0000      -2.248269       -61.1785
  24   1.0000      -2.247945       -61.1697
  25   1.0000      -2.246695       -61.1357
  26   1.0000      -2.246112       -61.1198
  27   1.0000      -2.245854       -61.1128
  28   1.0000      -2.245430       -61.1013
  29   1.0000      -2.245077       -61.0917
  30   1.0000      -2.244856       -61.0856
  31   1.0000      -2.244497       -61.0759
  32   1.0000      -2.244190       -61.0675
  33   1.0000      -2.244062       -61.0640
  34   1.0000      -2.243540       -61.0498
  35   1.0000      -2.242760       -61.0286
  36   1.0000      -2.242607       -61.0245
  37   1.0000      -2.241447       -60.9929
  38   1.0000      -2.241283       -60.9884
  39   1.0000      -2.241035       -60.9817
  40   1.0000      -2.240753       -60.9740
  41   1.0000      -2.240105       -60.9564
  42   1.0000      -2.239935       -60.9517
  43   1.0000      -2.239600       -60.9426
  44   1.0000      -2.239437       -60.9382
  45   1.0000      -2.238611       -60.9157
  46   1.0000      -2.238434       -60.9109
  47   1.0000      -2.238396       -60.9098
  48   1.0000      -2.237876       -60.8957
  49   1.0000      -2.237782       -60.8931
  50   1.0000      -2.237532       -60.8863
  51   1.0000      -2.236910       -60.8694
  52   1.0000      -2.236754       -60.8652
  53   1.0000      -2.235989       -60.8444
  54   1.0000      -2.234183       -60.7952
  55   1.0000      -2.233394       -60.7737
  56   1.0000      -2.233051       -60.7644
  57   1.0000      -2.232753       -60.7563
  58   1.0000      -2.231536       -60.7232
  59   1.0000      -2.230799       -60.7031
  60   1.0000      -2.228712       -60.6463
  61   1.0000      -2.227866       -60.6233
  62   1.0000      -2.220492       -60.4227
  63   1.0000      -2.204372       -59.9840
  64   1.0000      -2.201906       -59.9169
  65   1.0000      -0.438246       -11.9253
  66   1.0000      -0.392127       -10.6703
  67   1.0000      -0.387119       -10.5340
  68   1.0000      -0.385729       -10.4962
  69   1.0000      -0.382751       -10.4152
  70   1.0000      -0.379618       -10.3299
  71   1.0000      -0.374785       -10.1984
  72   1.0000      -0.371689       -10.1142
  73   1.0000      -0.368908       -10.0385
  74   1.0000      -0.363191        -9.8829
  75   1.0000      -0.358448        -9.7539
  76   1.0000      -0.356797        -9.7090
  77   1.0000      -0.354445        -9.6449
  78   1.0000      -0.353271        -9.6130
  79   1.0000      -0.351192        -9.5564
  80   1.0000      -0.348613        -9.4862
  81   1.0000      -0.346984        -9.4419
  82   1.0000      -0.345577        -9.4036
  83   1.0000      -0.342329        -9.3152
  84   1.0000      -0.341891        -9.3033
  85   1.0000      -0.339480        -9.2377
  86   1.0000      -0.337047        -9.1715
  87   1.0000      -0.333488        -9.0747
  88   1.0000      -0.332586        -9.0501
  89   1.0000      -0.330221        -8.9858
  90   1.0000      -0.328794        -8.9469
  91   1.0000      -0.327530        -8.9125
  92   1.0000      -0.322566        -8.7775
  93   1.0000      -0.321552        -8.7499
  94   1.0000      -0.320032        -8.7085
  95   1.0000      -0.317715        -8.6455
  96   1.0000      -0.315539        -8.5862
  97   1.0000      -0.314682        -8.5629
  98   1.0000      -0.312574        -8.5056
  99   1.0000      -0.307433        -8.3657
 100   1.0000      -0.305017        -8.2999
 101   1.0000      -0.302448        -8.2300
 102   1.0000      -0.300272        -8.1708
 103   1.0000      -0.298513        -8.1230
 104   1.0000      -0.296144        -8.0585
 105   1.0000      -0.293068        -7.9748
 106   1.0000      -0.288144        -7.8408
 107   1.0000      -0.285441        -7.7672
 108   1.0000      -0.284121        -7.7313
 109   1.0000      -0.280856        -7.6425
 110   1.0000      -0.278566        -7.5802
 111   1.0000      -0.277658        -7.5555
 112   1.0000      -0.276050        -7.5117
 113   1.0000      -0.275633        -7.5004
 114   1.0000      -0.274733        -7.4759
 115   1.0000      -0.272989        -7.4284
 116   1.0000      -0.271337        -7.3834
 117   1.0000      -0.269979        -7.3465
 118   1.0000      -0.268580        -7.3084
 119   1.0000      -0.266491        -7.2516
 120   1.0000      -0.266090        -7.2407
 121   1.0000      -0.264362        -7.1937
 122   1.0000      -0.263549        -7.1715
 123   1.0000      -0.261700        -7.1212
 124   1.0000      -0.260045        -7.0762
 125   1.0000      -0.259861        -7.0712
 126   1.0000      -0.258968        -7.0469
 127   1.0000      -0.258139        -7.0243
 128   1.0000      -0.256567        -6.9815
 129   1.0000      -0.255822        -6.9613
 130   1.0000      -0.254558        -6.9269
 131   1.0000      -0.253705        -6.9037
 132   1.0000      -0.252569        -6.8727
 133   1.0000      -0.252025        -6.8579
 134   1.0000      -0.250560        -6.8181
 135   1.0000      -0.250084        -6.8051
 136   1.0000      -0.248707        -6.7677
 137   1.0000      -0.247099        -6.7239
 138   1.0000      -0.246269        -6.7013
 139   1.0000      -0.245797        -6.6885
 140   1.0000      -0.244580        -6.6553
 141   1.0000      -0.243524        -6.6266
 142   1.0000      -0.238744        -6.4966
 143   1.0000      -0.229586        -6.2473
 144   1.0000      -0.222241        -6.0475
 145   1.0000      -0.201784        -5.4908
 146   1.0000      -0.200074        -5.4443
 147   1.0000      -0.197471        -5.3734
 148   0.0000      -0.177184        -4.8214
 149   0.0000      -0.148262        -4.0344
 150   0.0000      -0.135939        -3.6991
 151   0.0000      -0.124337        -3.3834
 152   0.0000      -0.117602        -3.2001

                 SPIN DOWN ORBITALS
  NO   OCC          E(Eh)            E(eV)
   0   1.0000    -254.775316     -6932.7888
   1   1.0000     -29.553954      -804.2040
   2   1.0000     -25.506728      -694.0734
   3   1.0000     -25.502954      -693.9707
   4   1.0000     -25.502264      -693.9519
   5   1.0000      -4.034386      -109.7812
   6   1.0000      -4.032677      -109.7347
   7   1.0000      -4.031827      -109.7116
   8   1.0000      -4.030382      -109.6723
   9   1.0000      -4.029763      -109.6554
  10   1.0000      -4.029430      -109.6464
  11   1.0000      -4.028516      -109.6215
  12   1.0000      -4.026961      -109.5792
  13   1.0000      -4.025974      -109.5523
  14   1.0000      -4.025113      -109.5289
  15   1.0000      -4.024690      -109.5174
  16   1.0000      -4.023342      -109.4807
  17   1.0000      -4.019900      -109.3871
  18   1.0000      -4.016401      -109.2918
  19   1.0000      -3.256121       -88.6036
  20   1.0000      -2.251258       -61.2598
  21   1.0000      -2.247773       -61.1650
  22   1.0000      -2.247637       -61.1613
  23   1.0000      -2.247332       -61.1530
  24   1.0000      -2.247083       -61.1462
  25   1.0000      -2.246200       -61.1222
  26   1.0000      -2.245434       -61.1014
  27   1.0000      -2.245333       -61.0986
  28   1.0000      -2.244927       -61.0876
  29   1.0000      -2.244600       -61.0787
  30   1.0000      -2.244263       -61.0695
  31   1.0000      -2.243823       -61.0575
  32   1.0000      -2.243598       -61.0514
  33   1.0000      -2.243467       -61.0478
  34   1.0000      -2.243173       -61.0398
  35   1.0000      -2.242377       -61.0182
  36   1.0000      -2.241911       -61.0055
  37   1.0000      -2.241213       -60.9865
  38   1.0000      -2.240292       -60.9614
  39   1.0000      -2.240178       -60.9583
  40   1.0000      -2.240129       -60.9570
  41   1.0000      -2.239991       -60.9533
  42   1.0000      -2.239543       -60.9411
  43   1.0000      -2.239198       -60.9317
  44   1.0000      -2.238508       -60.9129
  45   1.0000      -2.238423       -60.9106
  46   1.0000      -2.238372       -60.9092
  47   1.0000      -2.237959       -60.8980
  48   1.0000      -2.237751       -60.8923
  49   1.0000      -2.237525       -60.8861
  50   1.0000      -2.237312       -60.8804
  51   1.0000      -2.236818       -60.8669
  52   1.0000      -2.236222       -60.8507
  53   1.0000      -2.235726       -60.8372
  54   1.0000      -2.234055       -60.7917
  55   1.0000      -2.233248       -60.7698
  56   1.0000      -2.232825       -60.7583
  57   1.0000      -2.232727       -60.7556
  58   1.0000      -2.231424       -60.7201
  59   1.0000      -2.231019       -60.7091
  60   1.0000      -2.228571       -60.6425
  61   1.0000      -2.227586       -60.6157
  62   1.0000      -2.075514       -56.4776
  63   1.0000      -2.071006       -56.3549
  64   1.0000      -2.070585       -56.3435
  65   1.0000      -0.433640       -11.7999
  66   1.0000      -0.390644       -10.6300
  67   1.0000      -0.385575       -10.4920
  68   1.0000      -0.384708       -10.4684
  69   1.0000      -0.373887       -10.1740
  70   1.0000      -0.370072       -10.0702
  71   1.0000      -0.367826       -10.0090
  72   1.0000      -0.366010        -9.9596
  73   1.0000      -0.362933        -9.8759
  74   1.0000      -0.357181        -9.7194
  75   1.0000      -0.355573        -9.6756
  76   1.0000      -0.353195        -9.6109
  77   1.0000      -0.351804        -9.5731
  78   1.0000      -0.350336        -9.5331
  79   1.0000      -0.348278        -9.4771
  80   1.0000      -0.346510        -9.4290
  81   1.0000      -0.345937        -9.4134
  82   1.0000      -0.343781        -9.3547
  83   1.0000      -0.340839        -9.2747
  84   1.0000      -0.340156        -9.2561
  85   1.0000      -0.338535        -9.2120
  86   1.0000      -0.335829        -9.1384
  87   1.0000      -0.331858        -9.0303
  88   1.0000      -0.331154        -9.0112
  89   1.0000      -0.328447        -8.9375
  90   1.0000      -0.327937        -8.9236
  91   1.0000      -0.323006        -8.7894
  92   1.0000      -0.320632        -8.7248
  93   1.0000      -0.316968        -8.6251
  94   1.0000      -0.315702        -8.5907
  95   1.0000      -0.313832        -8.5398
  96   1.0000      -0.309910        -8.4331
  97   1.0000      -0.307416        -8.3652
  98   1.0000      -0.306087        -8.3291
  99   1.0000      -0.300915        -8.1883
 100   1.0000      -0.299561        -8.1515
 101   1.0000      -0.296652        -8.0723
 102   1.0000      -0.293769        -7.9939
 103   1.0000      -0.290102        -7.8941
 104   1.0000      -0.288720        -7.8565
 105   1.0000      -0.285633        -7.7725
 106   1.0000      -0.284752        -7.7485
 107   1.0000      -0.281988        -7.6733
 108   1.0000      -0.279484        -7.6052
 109   1.0000      -0.279204        -7.5975
 110   1.0000      -0.276937        -7.5358
 111   1.0000      -0.274941        -7.4815
 112   1.0000      -0.274809        -7.4779
 113   1.0000      -0.273127        -7.4322
 114   1.0000      -0.272296        -7.4095
 115   1.0000      -0.270858        -7.3704
 116   1.0000      -0.267348        -7.2749
 117   1.0000      -0.267109        -7.2684
 118   1.0000      -0.265492        -7.2244
 119   1.0000      -0.264428        -7.1955
 120   1.0000      -0.261111        -7.1052
 121   1.0000      -0.259669        -7.0660
 122   1.0000      -0.259410        -7.0589
 123   1.0000      -0.257502        -7.0070
 124   1.0000      -0.256711        -6.9855
 125   1.0000      -0.255656        -6.9567
 126   1.0000      -0.254000        -6.9117
 127   1.0000      -0.253406        -6.8955
 128   1.0000      -0.251868        -6.8537
 129   1.0000      -0.250754        -6.8234
 130   1.0000      -0.249230        -6.7819
 131   1.0000      -0.248966        -6.7747
 132   1.0000      -0.246923        -6.7191
 133   1.0000      -0.246679        -6.7125
 134   1.0000      -0.245521        -6.6810
 135   1.0000      -0.243698        -6.6313
 136   1.0000      -0.243596        -6.6286
 137   1.0000      -0.238818        -6.4986
 138   1.0000      -0.229766        -6.2522
 139   1.0000      -0.225324        -6.1314
 140   1.0000      -0.211565        -5.7570
 141   1.0000      -0.210518        -5.7285
 142   1.0000      -0.205874        -5.6021
 143   1.0000      -0.197526        -5.3750
 144   0.0000      -0.173586        -4.7235
 145   0.0000      -0.169408        -4.6098
 146   0.0000      -0.167931        -4.5696
 147   0.0000      -0.161462        -4.3936
 148   0.0000      -0.157108        -4.2751

MULLIKEN ATOMIC CHARGES AND SPIN POPULATIONS
--------------------------------------------
   0 Au:    0.041046    0.078730
   1 Au:    0.228595    0.052459
   2 Au:    0.128510    0.096769
   3 Au:    0.048109    0.075323
   4 Au:    0.312613    0.028506
   5 Au:    0.132792    0.115155
   6 Au:    0.310991   -0.015983
   7 Au:   -0.109178    0.096611
   8 Au:    0.129427    0.122053
   9 Au:    0.292907   -0.005248
  10 Au:    0.294850    0.051702
  11 Au:    0.235699    0.004486
  12 Au:    0.393158    0.047225
  13 Au:    0.134827    0.107264
  14 Fe:   -2.574345    3.144948
Sum of atomic charges         :   -0.0000000

LOEWDIN ATOMIC CHARGES AND SPIN POPULATIONS
-------------------------------------------
   0 Au:    0.034664    0.038042
   1 Au:    0.041029    0.048940
   2 Au:    0.048396    0.051471
   3 Au:   -0.004809    0.063578
   4 Au:    0.061379    0.028257
   5 Au:    0.010122    0.077041
   6 Au:    0.063365    0.014128
   7 Au:    0.002678    0.068699
   8 Au:   -0.001433    0.092261
   9 Au:    0.050519    0.031730
  10 Au:    0.077826    0.028528
  11 Au:    0.042985    0.030561
  12 Au:    0.089188    0.044862
  13 Au:    0.060618    0.051657
  14 Fe:   -0.576528    3.330246

  Mayer bond orders larger than 0.100000
B(  0-Au,  1-Au) :   0.2136 B(  0-Au,  3-Au) :   0.1737 B(  0-Au,  6-Au) :   0.2204
B(  0-Au,  7-Au) :   0.1324 B(  0-Au, 12-Au) :   0.2933 B(  0-Au, 14-Fe) :   0.5211
B(  1-Au,  2-Au) :   0.1718 B(  1-Au,  4-Au) :   0.2930 B(  1-Au,  5-Au) :   0.1016
B(  1-Au,  6-Au) :   0.2235 B(  1-Au, 14-Fe) :   0.4806 B(  2-Au,  3-Au) :   0.3251
B(  2-Au,  4-Au) :   0.2977 B(  2-Au,  9-Au) :   0.1345 B(  2-Au, 14-Fe) :   0.5196
B(  3-Au,  8-Au) :   0.2291 B(  3-Au,  9-Au) :   0.2283 B(  3-Au, 12-Au) :   0.2864
B(  3-Au, 14-Fe) :   0.4208 B(  4-Au,  5-Au) :   0.2864 B(  4-Au, 13-Au) :   0.2160
B(  4-Au, 14-Fe) :   0.1988 B(  5-Au,  6-Au) :   0.2522 B(  5-Au, 10-Au) :   0.2522
B(  5-Au, 13-Au) :   0.1843 B(  5-Au, 14-Fe) :   0.4518 B(  6-Au, 10-Au) :   0.1883
B(  6-Au, 14-Fe) :   0.4593 B(  7-Au,  8-Au) :   0.2428 B(  7-Au, 10-Au) :   0.3613
B(  7-Au, 11-Au) :   0.1877 B(  7-Au, 12-Au) :   0.3415 B(  7-Au, 14-Fe) :   0.5362
B(  8-Au,  9-Au) :   0.2754 B(  8-Au, 11-Au) :   0.2804 B(  8-Au, 12-Au) :   0.2167
B(  8-Au, 14-Fe) :   0.2417 B(  9-Au, 11-Au) :   0.1792 B(  9-Au, 13-Au) :   0.1916
B(  9-Au, 14-Fe) :   0.4706 B( 10-Au, 11-Au) :   0.1968 B( 10-Au, 14-Fe) :   0.3862
B( 11-Au, 13-Au) :   0.1917 B( 11-Au, 14-Fe) :   0.4714 B( 13-Au, 14-Fe) :   0.5545

FINAL SINGLE POINT ENERGY     -3165.080743078283

DIPOLE MOMENT
-------------
                                X             Y             Z
Electronic contribution:     -9.28699      -0.00394       4.48746
Nuclear contribution   :      9.26685      -0.07405      -4.37836
                        -----------------------------------------
Total Dipole Moment    :     -0.02014      -0.07800       0.10911
                        -----------------------------------------
Magnitude (a.u.)       :      0.13562
Magnitude (Debye)      :      0.34472

Rotational constants in cm-1:     0.001254     0.000968     0.000954
Rotational constants in MHz :    37.579529    29.034236    28.590580

                             ****ORCA TERMINATED NORMALLY****
TOTAL RUN TIME: 0 days 1 hours 20 minutes 34 seconds 438 msec
