                         Program Version 5.0.3 -  RELEASE  -
|  1> !RI-B2PLYP def2-TZVP def2-TZVP/C
|  2> !RIJCOSX VERYSLOWCONV
|  3>
|  4> %scf
|  5>   AutoTRAHIter 200
|  6>   maxiter 400
|  7> end
|  8>
|  9>
| 10> %pal nprocs 6 end
| 11>
| 12> *xyzfile 0 5 pbe.xyz
| 13>
| 14> $new_job
| 15>
| 16> !RI-B2PLYP def2-TZVP def2-TZVP/C
| 17> !RIJCOSX VERYSLOWCONV
| 18>
| 19> %scf
| 20>   AutoTRAHIter 200
| 21>   maxiter 400
| 22> end
| 23>
| 24>
| 25> %pal nprocs 6 end
| 26>
| 27> *xyzfile 0 3 pbe.xyz
| 28>
| 29>
| 30>
| 31>
| 32>
| 33>                          ****END OF INPUT****
 Total Charge           Charge          ....    0
 Multiplicity           Mult            ....    5
 Number of Electrons    NEL             ....  216
MP2 TOTAL ENERGY:    -2619.355818311 Eh
FINAL SINGLE POINT ENERGY     -2619.355818310929

CARTESIAN COORDINATES (ANGSTROEM)
---------------------------------
  Au    10.061932    2.863342    7.278145
  Au    11.600888    4.974662    7.573515
  Au     8.598929    4.855320    8.567224
  Au    13.825454    6.275031    8.049339
  Au     9.314092    4.804353    5.415430
  Au     7.965973    7.088525    5.173839
  Au    11.793561    7.955567    7.576102
  Au     7.295993    7.136462    8.136776
  Au     9.553844    9.241498    7.057204
  Au     6.913903    9.300731    6.458050
  Fe     9.632895    6.693393    7.114578

 Multiplicity           Mult            ....    3
 Number of Electrons    NEL             ....  216
 Basis Dimension        Dim             ....  445

ORBITAL ENERGIES
----------------
                 SPIN UP ORBITALS
  NO   OCC          E(Eh)            E(eV)
   0   1.0000    -258.324968     -7029.3798
   1   1.0000     -30.889264      -840.5396
   2   1.0000     -26.604469      -723.9444
   3   1.0000     -26.586331      -723.4509
   4   1.0000     -26.570609      -723.0230
   5   1.0000      -4.406841      -119.9162
   6   1.0000      -4.404116      -119.8421
   7   1.0000      -4.403908      -119.8364
   8   1.0000      -4.402357      -119.7942
   9   1.0000      -4.401866      -119.7809
  10   1.0000      -4.401689      -119.7761
  11   1.0000      -4.397583      -119.6643
  12   1.0000      -4.394614      -119.5835
  13   1.0000      -4.389420      -119.4422
  14   1.0000      -4.366841      -118.8278
  15   1.0000      -3.902594      -106.1950
  16   1.0000      -2.647744       -72.0488
  17   1.0000      -2.609907       -71.0192
  18   1.0000      -2.575304       -70.0776
  19   1.0000      -2.529393       -68.8283
  20   1.0000      -2.528298       -68.7985
  21   1.0000      -2.526801       -68.7578
  22   1.0000      -2.525299       -68.7169
  23   1.0000      -2.523780       -68.6755
  24   1.0000      -2.523043       -68.6555
  25   1.0000      -2.522978       -68.6537
  26   1.0000      -2.522439       -68.6391
  27   1.0000      -2.521647       -68.6175
  28   1.0000      -2.520712       -68.5921
  29   1.0000      -2.520260       -68.5798
  30   1.0000      -2.519266       -68.5527
  31   1.0000      -2.518182       -68.5232
  32   1.0000      -2.517857       -68.5144
  33   1.0000      -2.516535       -68.4784
  34   1.0000      -2.515796       -68.4583
  35   1.0000      -2.515301       -68.4448
  36   1.0000      -2.514822       -68.4318
  37   1.0000      -2.513952       -68.4081
  38   1.0000      -2.513583       -68.3981
  39   1.0000      -2.513397       -68.3930
  40   1.0000      -2.512825       -68.3775
  41   1.0000      -2.510676       -68.3190
  42   1.0000      -2.509826       -68.2958
  43   1.0000      -2.506520       -68.2059
  44   1.0000      -2.505687       -68.1832
  45   1.0000      -2.500226       -68.0346
  46   1.0000      -2.486366       -67.6575
  47   1.0000      -2.483650       -67.5836
  48   1.0000      -2.479443       -67.4691
  49   1.0000      -0.558054       -15.1854
  50   1.0000      -0.553422       -15.0594
  51   1.0000      -0.537956       -14.6385
  52   1.0000      -0.526051       -14.3146
  53   1.0000      -0.500935       -13.6311
  54   1.0000      -0.475852       -12.9486
  55   1.0000      -0.469322       -12.7709
  56   1.0000      -0.466231       -12.6868
  57   1.0000      -0.463320       -12.6076
  58   1.0000      -0.462740       -12.5918
  59   1.0000      -0.451410       -12.2835
  60   1.0000      -0.449565       -12.2333
  61   1.0000      -0.445408       -12.1202
  62   1.0000      -0.438139       -11.9224
  63   1.0000      -0.435931       -11.8623
  64   1.0000      -0.431226       -11.7343
  65   1.0000      -0.428369       -11.6565
  66   1.0000      -0.422534       -11.4977
  67   1.0000      -0.422161       -11.4876
  68   1.0000      -0.419151       -11.4057
  69   1.0000      -0.414332       -11.2745
  70   1.0000      -0.414036       -11.2665
  71   1.0000      -0.403917       -10.9911
  72   1.0000      -0.401977       -10.9384
  73   1.0000      -0.399435       -10.8692
  74   1.0000      -0.398111       -10.8331
  75   1.0000      -0.397656       -10.8208
  76   1.0000      -0.392962       -10.6930
  77   1.0000      -0.390986       -10.6393
  78   1.0000      -0.386803       -10.5255
  79   1.0000      -0.384869       -10.4728
  80   1.0000      -0.383298       -10.4301
  81   1.0000      -0.379712       -10.3325
  82   1.0000      -0.379097       -10.3158
  83   1.0000      -0.378554       -10.3010
  84   1.0000      -0.375845       -10.2273
  85   1.0000      -0.374086       -10.1794
  86   1.0000      -0.373031       -10.1507
  87   1.0000      -0.371763       -10.1162
  88   1.0000      -0.371578       -10.1111
  89   1.0000      -0.369619       -10.0578
  90   1.0000      -0.367845       -10.0096
  91   1.0000      -0.365802        -9.9540
  92   1.0000      -0.363033        -9.8786
  93   1.0000      -0.362904        -9.8751
  94   1.0000      -0.360430        -9.8078
  95   1.0000      -0.355918        -9.6850
  96   1.0000      -0.353785        -9.6270
  97   1.0000      -0.353214        -9.6114
  98   1.0000      -0.344609        -9.3773
  99   1.0000      -0.338326        -9.2063
 100   1.0000      -0.337183        -9.1752
 101   1.0000      -0.336288        -9.1509
 102   1.0000      -0.332256        -9.0411
 103   1.0000      -0.323687        -8.8080
 104   1.0000      -0.322142        -8.7659
 105   1.0000      -0.313699        -8.5362
 106   1.0000      -0.302735        -8.2378
 107   1.0000      -0.247645        -6.7388
 108   1.0000      -0.235338        -6.4039
 109   0.0000      -0.153398        -4.1742
 110   0.0000      -0.088748        -2.4150
 111   0.0000      -0.074629        -2.0308
 112   0.0000      -0.062732        -1.7070
 113   0.0000      -0.053878        -1.4661

                 SPIN DOWN ORBITALS
  NO   OCC          E(Eh)            E(eV)
   0   1.0000    -258.323150     -7029.3303
   1   1.0000     -30.796832      -838.0244
   2   1.0000     -26.507563      -721.3074
   3   1.0000     -26.502137      -721.1598
   4   1.0000     -26.498299      -721.0554
   5   1.0000      -4.408182      -119.9527
   6   1.0000      -4.403318      -119.8204
   7   1.0000      -4.403090      -119.8142
   8   1.0000      -4.402105      -119.7874
   9   1.0000      -4.401557      -119.7725
  10   1.0000      -4.400792      -119.7516
  11   1.0000      -4.400405      -119.7411
  12   1.0000      -4.396767      -119.6421
  13   1.0000      -4.388151      -119.4077
  14   1.0000      -4.368873      -118.8831
  15   1.0000      -3.658958       -99.5653
  16   1.0000      -2.529409       -68.8287
  17   1.0000      -2.527517       -68.7772
  18   1.0000      -2.526627       -68.7530
  19   1.0000      -2.525243       -68.7153
  20   1.0000      -2.523629       -68.6714
  21   1.0000      -2.523163       -68.6587
  22   1.0000      -2.521626       -68.6169
  23   1.0000      -2.521328       -68.6088
  24   1.0000      -2.520662       -68.5907
  25   1.0000      -2.520539       -68.5874
  26   1.0000      -2.519898       -68.5699
  27   1.0000      -2.519394       -68.5562
  28   1.0000      -2.518877       -68.5421
  29   1.0000      -2.516572       -68.4794
  30   1.0000      -2.516538       -68.4785
  31   1.0000      -2.515731       -68.4565
  32   1.0000      -2.515564       -68.4520
  33   1.0000      -2.515104       -68.4395
  34   1.0000      -2.514900       -68.4339
  35   1.0000      -2.513687       -68.4009
  36   1.0000      -2.513170       -68.3868
  37   1.0000      -2.512995       -68.3821
  38   1.0000      -2.511175       -68.3325
  39   1.0000      -2.508266       -68.2534
  40   1.0000      -2.506525       -68.2060
  41   1.0000      -2.504422       -68.1488
  42   1.0000      -2.498685       -67.9927
  43   1.0000      -2.489276       -67.7367
  44   1.0000      -2.486057       -67.6491
  45   1.0000      -2.480148       -67.4883
  46   1.0000      -2.338505       -63.6340
  47   1.0000      -2.333518       -63.4982
  48   1.0000      -2.324823       -63.2616
  49   1.0000      -0.494100       -13.4451
  50   1.0000      -0.479739       -13.0544
  51   1.0000      -0.473178       -12.8758
  52   1.0000      -0.468168       -12.7395
  53   1.0000      -0.466798       -12.7022
  54   1.0000      -0.464136       -12.6298
  55   1.0000      -0.459032       -12.4909
  56   1.0000      -0.447645       -12.1810
  57   1.0000      -0.445780       -12.1303
  58   1.0000      -0.439425       -11.9574
  59   1.0000      -0.438546       -11.9334
  60   1.0000      -0.435130       -11.8405
  61   1.0000      -0.430963       -11.7271
  62   1.0000      -0.425861       -11.5883
  63   1.0000      -0.423403       -11.5214
  64   1.0000      -0.422767       -11.5041
  65   1.0000      -0.418572       -11.3899
  66   1.0000      -0.416376       -11.3302
  67   1.0000      -0.413631       -11.2555
  68   1.0000      -0.408322       -11.1110
  69   1.0000      -0.405065       -11.0224
  70   1.0000      -0.401699       -10.9308
  71   1.0000      -0.398089       -10.8326
  72   1.0000      -0.397038       -10.8040
  73   1.0000      -0.392525       -10.6812
  74   1.0000      -0.391431       -10.6514
  75   1.0000      -0.386711       -10.5230
  76   1.0000      -0.385884       -10.5004
  77   1.0000      -0.384782       -10.4705
  78   1.0000      -0.383542       -10.4367
  79   1.0000      -0.382329       -10.4037
  80   1.0000      -0.380514       -10.3543
  81   1.0000      -0.378221       -10.2919
  82   1.0000      -0.376067       -10.2333
  83   1.0000      -0.373959       -10.1760
  84   1.0000      -0.373433       -10.1616
  85   1.0000      -0.371173       -10.1001
  86   1.0000      -0.369064       -10.0428
  87   1.0000      -0.367123        -9.9899
  88   1.0000      -0.363867        -9.9013
  89   1.0000      -0.363553        -9.8928
  90   1.0000      -0.358195        -9.7470
  91   1.0000      -0.355811        -9.6821
  92   1.0000      -0.355191        -9.6652
  93   1.0000      -0.348608        -9.4861
  94   1.0000      -0.343825        -9.3560
  95   1.0000      -0.340602        -9.2682
  96   1.0000      -0.339629        -9.2418
  97   1.0000      -0.336528        -9.1574
  98   1.0000      -0.334743        -9.1088
  99   1.0000      -0.334046        -9.0899
 100   1.0000      -0.327901        -8.9226
 101   1.0000      -0.319550        -8.6954
 102   1.0000      -0.309263        -8.4155
 103   1.0000      -0.268371        -7.3027
 104   1.0000      -0.255619        -6.9557
 105   1.0000      -0.246332        -6.7030
 106   1.0000      -0.174774        -4.7559
 107   0.0000      -0.094904        -2.5825
 108   0.0000      -0.075529        -2.0553
 109   0.0000      -0.067001        -1.8232
 110   0.0000      -0.036705        -0.9988
 111   0.0000      -0.030514        -0.8303

MULLIKEN ATOMIC CHARGES AND SPIN POPULATIONS
--------------------------------------------
   0 Au:    0.320014   -0.659993
   1 Au:   -0.506432   -0.044818
   2 Au:    0.144526   -0.034489
   3 Au:    0.291963   -0.266894
   4 Au:    0.152257   -0.022531
   5 Au:    0.097723   -0.030632
   6 Au:    0.001991   -0.091438
   7 Au:    0.101498   -0.015121
   8 Au:    0.115024   -0.103097
   9 Au:    0.291673   -0.242607
  10 Fe:   -1.010237    3.511620
Sum of atomic charges         :   -0.0000000

LOEWDIN ATOMIC CHARGES AND SPIN POPULATIONS
-------------------------------------------
   0 Au:    0.058245   -0.480655
   1 Au:   -0.124195   -0.127836
   2 Au:    0.032903   -0.155803
   3 Au:    0.044277   -0.189947
   4 Au:    0.038123   -0.152688
   5 Au:    0.006059   -0.069301
   6 Au:   -0.060854   -0.097594
   7 Au:    0.007047   -0.060833
   8 Au:    0.009048   -0.077721
   9 Au:    0.116644   -0.157526
  10 Fe:   -0.127296    3.569905

  Mayer bond orders larger than 0.100000
B(  0-Au,  1-Au) :   0.1723 B(  0-Au,  2-Au) :   0.2340 B(  0-Au,  4-Au) :   0.2144
B(  1-Au,  3-Au) :   0.5747 B(  1-Au,  4-Au) :   0.1071 B(  1-Au,  6-Au) :   0.2482
B(  1-Au, 10-Fe) :   0.5736 B(  2-Au,  7-Au) :   0.4811 B(  2-Au, 10-Fe) :   0.4890
B(  3-Au,  6-Au) :   0.4259 B(  4-Au,  5-Au) :   0.4800 B(  4-Au, 10-Fe) :   0.4921
B(  5-Au,  7-Au) :   0.1289 B(  5-Au,  9-Au) :   0.3318 B(  5-Au, 10-Fe) :   0.4131
B(  6-Au,  8-Au) :   0.4842 B(  6-Au, 10-Fe) :   0.4817 B(  7-Au,  9-Au) :   0.3282
B(  7-Au, 10-Fe) :   0.4246 B(  8-Au,  9-Au) :   0.2446 B(  8-Au, 10-Fe) :   0.6283

MP2 TOTAL ENERGY:    -2619.295912600 Eh
FINAL SINGLE POINT ENERGY     -2619.295912599757

DIPOLE MOMENT
-------------
                                X             Y             Z
Electronic contribution:      1.39853      -8.89778       0.31068
Nuclear contribution   :     -2.25609       9.23632      -0.52970
                        -----------------------------------------
Total Dipole Moment    :     -0.85756       0.33855      -0.21902
                        -----------------------------------------
Magnitude (a.u.)       :      0.94763
Magnitude (Debye)      :      2.40868

Rotational constants in cm-1:     0.002095     0.001358     0.001016
Rotational constants in MHz :    62.807837    40.705007    30.469913

                             ****ORCA TERMINATED NORMALLY****
TOTAL RUN TIME: 0 days 0 hours 15 minutes 19 seconds 50 msec
