                         Program Version 5.0.3 -  RELEASE  -
|  1> !PBE def2-TZVP VERYSLOWCONV
|  2>
|  3> %scf
|  4>   AutoTRAHIter 200
|  5>   maxiter 400
|  6> end
|  7>
|  8>
|  9> %pal nprocs 6 end
| 10>
| 11> *xyzfile 0 5 pbe.xyz
| 12>
| 13> $new_job
| 14>
| 15> !PBE def2-TZVP VERYSLOWCONV
| 16>
| 17> %scf
| 18>   AutoTRAHIter 200
| 19>   maxiter 400
| 20> end
| 21>
| 22>
| 23> %pal nprocs 6 end
| 24>
| 25> *xyzfile 0 3 pbe.xyz
| 26>
| 27>
| 28>
| 29>
| 30>
| 31>                          ****END OF INPUT****
 Total Charge           Charge          ....    0
 Multiplicity           Mult            ....    5
 Number of Electrons    NEL             ....  216
FINAL SINGLE POINT ENERGY     -2621.739556631222

CARTESIAN COORDINATES (ANGSTROEM)
---------------------------------
  Au    10.061932    2.863342    7.278145
  Au    11.600888    4.974662    7.573515
  Au     8.598929    4.855320    8.567224
  Au    13.825454    6.275031    8.049339
  Au     9.314092    4.804353    5.415430
  Au     7.965973    7.088525    5.173839
  Au    11.793561    7.955567    7.576102
  Au     7.295993    7.136462    8.136776
  Au     9.553844    9.241498    7.057204
  Au     6.913903    9.300731    6.458050
  Fe     9.632895    6.693393    7.114578

 Multiplicity           Mult            ....    3
 Number of Electrons    NEL             ....  216
 Basis Dimension        Dim             ....  445

ORBITAL ENERGIES
----------------
                 SPIN UP ORBITALS
  NO   OCC          E(Eh)            E(eV)
   0   1.0000    -254.742037     -6931.8832
   1   1.0000     -29.573074      -804.7243
   2   1.0000     -25.513902      -694.2686
   3   1.0000     -25.512899      -694.2413
   4   1.0000     -25.505857      -694.0497
   5   1.0000      -4.035259      -109.8050
   6   1.0000      -4.028216      -109.6133
   7   1.0000      -4.024942      -109.5242
   8   1.0000      -4.023176      -109.4762
   9   1.0000      -4.018814      -109.3575
  10   1.0000      -4.018791      -109.3569
  11   1.0000      -4.014279      -109.2341
  12   1.0000      -4.014232      -109.2328
  13   1.0000      -4.013710      -109.2186
  14   1.0000      -4.013553      -109.2143
  15   1.0000      -3.337399       -90.8152
  16   1.0000      -2.256195       -61.3942
  17   1.0000      -2.249435       -61.2102
  18   1.0000      -2.248740       -61.1913
  19   1.0000      -2.242902       -61.0325
  20   1.0000      -2.242079       -61.0101
  21   1.0000      -2.241039       -60.9818
  22   1.0000      -2.239077       -60.9284
  23   1.0000      -2.238135       -60.9028
  24   1.0000      -2.238092       -60.9016
  25   1.0000      -2.237058       -60.8734
  26   1.0000      -2.235821       -60.8398
  27   1.0000      -2.235481       -60.8305
  28   1.0000      -2.233302       -60.7712
  29   1.0000      -2.233037       -60.7640
  30   1.0000      -2.232955       -60.7618
  31   1.0000      -2.232000       -60.7358
  32   1.0000      -2.231228       -60.7148
  33   1.0000      -2.231034       -60.7095
  34   1.0000      -2.229807       -60.6761
  35   1.0000      -2.227994       -60.6268
  36   1.0000      -2.227458       -60.6122
  37   1.0000      -2.227116       -60.6029
  38   1.0000      -2.227001       -60.5998
  39   1.0000      -2.225482       -60.5584
  40   1.0000      -2.225109       -60.5483
  41   1.0000      -2.224952       -60.5440
  42   1.0000      -2.224022       -60.5187
  43   1.0000      -2.220652       -60.4270
  44   1.0000      -2.220194       -60.4146
  45   1.0000      -2.219309       -60.3905
  46   1.0000      -2.159401       -58.7603
  47   1.0000      -2.156484       -58.6809
  48   1.0000      -2.139045       -58.2064
  49   1.0000      -0.405730       -11.0405
  50   1.0000      -0.382812       -10.4169
  51   1.0000      -0.376116       -10.2346
  52   1.0000      -0.365464        -9.9448
  53   1.0000      -0.358690        -9.7604
  54   1.0000      -0.357120        -9.7177
  55   1.0000      -0.354871        -9.6565
  56   1.0000      -0.340359        -9.2616
  57   1.0000      -0.336137        -9.1467
  58   1.0000      -0.335286        -9.1236
  59   1.0000      -0.329516        -8.9666
  60   1.0000      -0.324501        -8.8301
  61   1.0000      -0.323044        -8.7905
  62   1.0000      -0.322366        -8.7720
  63   1.0000      -0.316963        -8.6250
  64   1.0000      -0.316644        -8.6163
  65   1.0000      -0.314894        -8.5687
  66   1.0000      -0.314227        -8.5505
  67   1.0000      -0.313410        -8.5283
  68   1.0000      -0.307796        -8.3756
  69   1.0000      -0.307722        -8.3735
  70   1.0000      -0.299233        -8.1425
  71   1.0000      -0.298691        -8.1278
  72   1.0000      -0.294194        -8.0054
  73   1.0000      -0.293590        -7.9890
  74   1.0000      -0.291673        -7.9368
  75   1.0000      -0.288761        -7.8576
  76   1.0000      -0.287662        -7.8277
  77   1.0000      -0.282840        -7.6965
  78   1.0000      -0.280494        -7.6326
  79   1.0000      -0.277299        -7.5457
  80   1.0000      -0.274638        -7.4733
  81   1.0000      -0.273839        -7.4515
  82   1.0000      -0.273306        -7.4370
  83   1.0000      -0.270353        -7.3567
  84   1.0000      -0.267816        -7.2877
  85   1.0000      -0.266721        -7.2578
  86   1.0000      -0.265812        -7.2331
  87   1.0000      -0.265215        -7.2169
  88   1.0000      -0.263550        -7.1716
  89   1.0000      -0.263057        -7.1581
  90   1.0000      -0.259543        -7.0625
  91   1.0000      -0.258048        -7.0218
  92   1.0000      -0.256365        -6.9760
  93   1.0000      -0.255018        -6.9394
  94   1.0000      -0.253593        -6.9006
  95   1.0000      -0.251798        -6.8518
  96   1.0000      -0.246880        -6.7180
  97   1.0000      -0.246526        -6.7083
  98   1.0000      -0.244447        -6.6517
  99   1.0000      -0.244045        -6.6408
 100   1.0000      -0.241799        -6.5797
 101   1.0000      -0.241456        -6.5703
 102   1.0000      -0.240413        -6.5420
 103   1.0000      -0.237194        -6.4544
 104   1.0000      -0.236524        -6.4362
 105   1.0000      -0.214236        -5.8297
 106   1.0000      -0.211659        -5.7595
 107   1.0000      -0.208777        -5.6811
 108   1.0000      -0.208680        -5.6785
 109   0.0000      -0.193742        -5.2720
 110   0.0000      -0.154688        -4.2093
 111   0.0000      -0.142943        -3.8897
 112   0.0000      -0.127520        -3.4700
 113   0.0000      -0.124590        -3.3903

                 SPIN DOWN ORBITALS
  NO   OCC          E(Eh)            E(eV)
   0   1.0000    -254.741550     -6931.8700
   1   1.0000     -29.535567      -803.7036
   2   1.0000     -25.487828      -693.5591
   3   1.0000     -25.484002      -693.4550
   4   1.0000     -25.475836      -693.2327
   5   1.0000      -4.034450      -109.7830
   6   1.0000      -4.028542      -109.6222
   7   1.0000      -4.025250      -109.5326
   8   1.0000      -4.024802      -109.5204
   9   1.0000      -4.018329      -109.3443
  10   1.0000      -4.018318      -109.3440
  11   1.0000      -4.013860      -109.2227
  12   1.0000      -4.013673      -109.2176
  13   1.0000      -4.013536      -109.2139
  14   1.0000      -4.013517      -109.2133
  15   1.0000      -3.251638       -88.4816
  16   1.0000      -2.255616       -61.3784
  17   1.0000      -2.249787       -61.2198
  18   1.0000      -2.247942       -61.1696
  19   1.0000      -2.244145       -61.0663
  20   1.0000      -2.242819       -61.0302
  21   1.0000      -2.242232       -61.0142
  22   1.0000      -2.239617       -60.9431
  23   1.0000      -2.238619       -60.9159
  24   1.0000      -2.237685       -60.8905
  25   1.0000      -2.237588       -60.8879
  26   1.0000      -2.235837       -60.8402
  27   1.0000      -2.235650       -60.8351
  28   1.0000      -2.232939       -60.7613
  29   1.0000      -2.232816       -60.7580
  30   1.0000      -2.232588       -60.7518
  31   1.0000      -2.231301       -60.7168
  32   1.0000      -2.230693       -60.7003
  33   1.0000      -2.230356       -60.6911
  34   1.0000      -2.229449       -60.6664
  35   1.0000      -2.227623       -60.6167
  36   1.0000      -2.227434       -60.6116
  37   1.0000      -2.227166       -60.6043
  38   1.0000      -2.226940       -60.5981
  39   1.0000      -2.225511       -60.5592
  40   1.0000      -2.224366       -60.5281
  41   1.0000      -2.224327       -60.5270
  42   1.0000      -2.224070       -60.5200
  43   1.0000      -2.220096       -60.4119
  44   1.0000      -2.219650       -60.3997
  45   1.0000      -2.219281       -60.3897
  46   1.0000      -2.078221       -56.5513
  47   1.0000      -2.074792       -56.4580
  48   1.0000      -2.049649       -55.7738
  49   1.0000      -0.403540       -10.9809
  50   1.0000      -0.380796       -10.3620
  51   1.0000      -0.376300       -10.2396
  52   1.0000      -0.361055        -9.8248
  53   1.0000      -0.356876        -9.7111
  54   1.0000      -0.356274        -9.6947
  55   1.0000      -0.350849        -9.5471
  56   1.0000      -0.335845        -9.1388
  57   1.0000      -0.334941        -9.1142
  58   1.0000      -0.333071        -9.0633
  59   1.0000      -0.325026        -8.8444
  60   1.0000      -0.323468        -8.8020
  61   1.0000      -0.320099        -8.7103
  62   1.0000      -0.318341        -8.6625
  63   1.0000      -0.316320        -8.6075
  64   1.0000      -0.315570        -8.5871
  65   1.0000      -0.314811        -8.5665
  66   1.0000      -0.311381        -8.4731
  67   1.0000      -0.310027        -8.4363
  68   1.0000      -0.305785        -8.3208
  69   1.0000      -0.303195        -8.2504
  70   1.0000      -0.298375        -8.1192
  71   1.0000      -0.297988        -8.1087
  72   1.0000      -0.293382        -7.9833
  73   1.0000      -0.292895        -7.9701
  74   1.0000      -0.287698        -7.8287
  75   1.0000      -0.286342        -7.7918
  76   1.0000      -0.285971        -7.7817
  77   1.0000      -0.280679        -7.6377
  78   1.0000      -0.280299        -7.6273
  79   1.0000      -0.277943        -7.5632
  80   1.0000      -0.273969        -7.4551
  81   1.0000      -0.272371        -7.4116
  82   1.0000      -0.271267        -7.3816
  83   1.0000      -0.270149        -7.3511
  84   1.0000      -0.268016        -7.2931
  85   1.0000      -0.266845        -7.2612
  86   1.0000      -0.265389        -7.2216
  87   1.0000      -0.264884        -7.2079
  88   1.0000      -0.263674        -7.1749
  89   1.0000      -0.262607        -7.1459
  90   1.0000      -0.258952        -7.0464
  91   1.0000      -0.258021        -7.0211
  92   1.0000      -0.255537        -6.9535
  93   1.0000      -0.254758        -6.9323
  94   1.0000      -0.252764        -6.8781
  95   1.0000      -0.251318        -6.8387
  96   1.0000      -0.246415        -6.7053
  97   1.0000      -0.244811        -6.6616
  98   1.0000      -0.244667        -6.6577
  99   1.0000      -0.242014        -6.5855
 100   1.0000      -0.241893        -6.5822
 101   1.0000      -0.236005        -6.4220
 102   1.0000      -0.221434        -6.0255
 103   1.0000      -0.218771        -5.9531
 104   1.0000      -0.215401        -5.8614
 105   1.0000      -0.192446        -5.2367
 106   1.0000      -0.180797        -4.9197
 107   0.0000      -0.163214        -4.4413
 108   0.0000      -0.153523        -4.1776
 109   0.0000      -0.153343        -4.1727
 110   0.0000      -0.140686        -3.8283
 111   0.0000      -0.138257        -3.7622

MULLIKEN ATOMIC CHARGES AND SPIN POPULATIONS
--------------------------------------------
   0 Au:    0.377717   -0.099069
   1 Au:   -0.278725    0.035608
   2 Au:    0.132733    0.037125
   3 Au:    0.337918   -0.004524
   4 Au:    0.134625    0.037785
   5 Au:    0.112220    0.008895
   6 Au:   -0.005451   -0.023589
   7 Au:    0.112599    0.008362
   8 Au:    0.145657   -0.113229
   9 Au:    0.288899    0.008405
  10 Fe:   -1.358191    2.104231
Sum of atomic charges         :   -0.0000000

LOEWDIN ATOMIC CHARGES AND SPIN POPULATIONS
-------------------------------------------
   0 Au:    0.095925   -0.064285
   1 Au:   -0.071785    0.034598
   2 Au:    0.058736    0.013387
   3 Au:    0.103200    0.001996
   4 Au:    0.058780    0.014070
   5 Au:    0.023281    0.024233
   6 Au:    0.048309   -0.027515
   7 Au:    0.022964    0.023418
   8 Au:    0.054159   -0.097875
   9 Au:    0.048127   -0.003466
  10 Fe:   -0.441696    2.081439

  Mayer bond orders larger than 0.100000
B(  0-Au,  1-Au) :   0.5713 B(  0-Au,  2-Au) :   0.2374 B(  0-Au,  4-Au) :   0.2334
B(  0-Au, 10-Fe) :   0.1118 B(  1-Au,  3-Au) :   0.6682 B(  1-Au,  4-Au) :   0.1018
B(  1-Au,  6-Au) :   0.2514 B(  1-Au, 10-Fe) :   0.3758 B(  2-Au,  7-Au) :   0.4757
B(  2-Au, 10-Fe) :   0.6807 B(  3-Au,  6-Au) :   0.3799 B(  4-Au,  5-Au) :   0.4743
B(  4-Au, 10-Fe) :   0.6803 B(  5-Au,  7-Au) :   0.1169 B(  5-Au,  9-Au) :   0.3380
B(  5-Au, 10-Fe) :   0.6348 B(  6-Au,  8-Au) :   0.4983 B(  6-Au, 10-Fe) :   0.6469
B(  7-Au,  9-Au) :   0.3377 B(  7-Au, 10-Fe) :   0.6342 B(  8-Au,  9-Au) :   0.3463
B(  8-Au, 10-Fe) :   0.6800

FINAL SINGLE POINT ENERGY     -2621.705501852989

DIPOLE MOMENT
-------------
                                X             Y             Z
Electronic contribution:      2.54674      -9.54572       0.59794
Nuclear contribution   :     -2.25609       9.23632      -0.52970
                        -----------------------------------------
Total Dipole Moment    :      0.29065      -0.30939       0.06825
                        -----------------------------------------
Magnitude (a.u.)       :      0.42996
Magnitude (Debye)      :      1.09286

Rotational constants in cm-1:     0.002095     0.001358     0.001016
Rotational constants in MHz :    62.807837    40.705007    30.469913

                             ****ORCA TERMINATED NORMALLY****
TOTAL RUN TIME: 0 days 0 hours 8 minutes 25 seconds 50 msec
