                         Program Version 5.0.3 -  RELEASE  -
|  1> !R2SCAN def2-TZVP VERYSLOWCONV
|  2>
|  3> %scf
|  4>   AutoTRAHIter 400
|  5>   maxiter 800
|  6> end
|  7>
|  8> %pal nprocs 6 end
|  9>
| 10> *xyzfile 0 5 pbe.xyz
| 11>
| 12> $new_job
| 13>
| 14> !R2SCAN def2-TZVP VERYSLOWCONV
| 15> %scf
| 16>   AutoTRAHIter 400
| 17>   maxiter 800
| 18> end
| 19>
| 20>
| 21> %pal nprocs 6 end
| 22>
| 23> *xyzfile 0 3 pbe.xyz
| 24>
| 25>
| 26>
| 27>
| 28>
| 29>                          ****END OF INPUT****
 Total Charge           Charge          ....    0
 Multiplicity           Mult            ....    5
 Number of Electrons    NEL             ....  216
FINAL SINGLE POINT ENERGY     -2622.142421068429

CARTESIAN COORDINATES (ANGSTROEM)
---------------------------------
  Au    10.061932    2.863342    7.278145
  Au    11.600888    4.974662    7.573515
  Au     8.598929    4.855320    8.567224
  Au    13.825454    6.275031    8.049339
  Au     9.314092    4.804353    5.415430
  Au     7.965973    7.088525    5.173839
  Au    11.793561    7.955567    7.576102
  Au     7.295993    7.136462    8.136776
  Au     9.553844    9.241498    7.057204
  Au     6.913903    9.300731    6.458050
  Fe     9.632895    6.693393    7.114578

 Multiplicity           Mult            ....    3
 Number of Electrons    NEL             ....  216
 Basis Dimension        Dim             ....  445

ORBITAL ENERGIES
----------------
                 SPIN UP ORBITALS
  NO   OCC          E(Eh)            E(eV)
   0   1.0000    -255.613366     -6955.5933
   1   1.0000     -29.911970      -813.9461
   2   1.0000     -25.746027      -700.5850
   3   1.0000     -25.742272      -700.4828
   4   1.0000     -25.740194      -700.4263
   5   1.0000      -4.118622      -112.0734
   6   1.0000      -4.116450      -112.0143
   7   1.0000      -4.114394      -111.9583
   8   1.0000      -4.113171      -111.9251
   9   1.0000      -4.110455      -111.8512
  10   1.0000      -4.110443      -111.8508
  11   1.0000      -4.109832      -111.8342
  12   1.0000      -4.107063      -111.7589
  13   1.0000      -4.106930      -111.7552
  14   1.0000      -4.099704      -111.5586
  15   1.0000      -3.489072       -94.9425
  16   1.0000      -2.311887       -62.9096
  17   1.0000      -2.308859       -62.8272
  18   1.0000      -2.305708       -62.7415
  19   1.0000      -2.304865       -62.7186
  20   1.0000      -2.303608       -62.6844
  21   1.0000      -2.303372       -62.6780
  22   1.0000      -2.302950       -62.6665
  23   1.0000      -2.301471       -62.6262
  24   1.0000      -2.300936       -62.6117
  25   1.0000      -2.300481       -62.5993
  26   1.0000      -2.300021       -62.5867
  27   1.0000      -2.298368       -62.5418
  28   1.0000      -2.297603       -62.5209
  29   1.0000      -2.297007       -62.5047
  30   1.0000      -2.296527       -62.4917
  31   1.0000      -2.296068       -62.4792
  32   1.0000      -2.295991       -62.4771
  33   1.0000      -2.294691       -62.4417
  34   1.0000      -2.294277       -62.4305
  35   1.0000      -2.293179       -62.4006
  36   1.0000      -2.292284       -62.3762
  37   1.0000      -2.291582       -62.3571
  38   1.0000      -2.290978       -62.3407
  39   1.0000      -2.290640       -62.3315
  40   1.0000      -2.289505       -62.3006
  41   1.0000      -2.289298       -62.2950
  42   1.0000      -2.286848       -62.2283
  43   1.0000      -2.286366       -62.2152
  44   1.0000      -2.286117       -62.2084
  45   1.0000      -2.278418       -61.9989
  46   1.0000      -2.260316       -61.5063
  47   1.0000      -2.254540       -61.3491
  48   1.0000      -2.247877       -61.1678
  49   1.0000      -0.409052       -11.1309
  50   1.0000      -0.386869       -10.5272
  51   1.0000      -0.381845       -10.3905
  52   1.0000      -0.374004       -10.1772
  53   1.0000      -0.370278       -10.0758
  54   1.0000      -0.368889       -10.0380
  55   1.0000      -0.364380        -9.9153
  56   1.0000      -0.352439        -9.5903
  57   1.0000      -0.345437        -9.3998
  58   1.0000      -0.342047        -9.3076
  59   1.0000      -0.338304        -9.2057
  60   1.0000      -0.337484        -9.1834
  61   1.0000      -0.333583        -9.0773
  62   1.0000      -0.331497        -9.0205
  63   1.0000      -0.326701        -8.8900
  64   1.0000      -0.326497        -8.8844
  65   1.0000      -0.324461        -8.8290
  66   1.0000      -0.323750        -8.8097
  67   1.0000      -0.323258        -8.7963
  68   1.0000      -0.317107        -8.6289
  69   1.0000      -0.314006        -8.5445
  70   1.0000      -0.307923        -8.3790
  71   1.0000      -0.307728        -8.3737
  72   1.0000      -0.304380        -8.2826
  73   1.0000      -0.303474        -8.2579
  74   1.0000      -0.299294        -8.1442
  75   1.0000      -0.297311        -8.0902
  76   1.0000      -0.294951        -8.0260
  77   1.0000      -0.291774        -7.9396
  78   1.0000      -0.289868        -7.8877
  79   1.0000      -0.285594        -7.7714
  80   1.0000      -0.283965        -7.7271
  81   1.0000      -0.282727        -7.6934
  82   1.0000      -0.280930        -7.6445
  83   1.0000      -0.280886        -7.6433
  84   1.0000      -0.276422        -7.5218
  85   1.0000      -0.275676        -7.5015
  86   1.0000      -0.274838        -7.4787
  87   1.0000      -0.271736        -7.3943
  88   1.0000      -0.271623        -7.3912
  89   1.0000      -0.267935        -7.2909
  90   1.0000      -0.267659        -7.2834
  91   1.0000      -0.267352        -7.2750
  92   1.0000      -0.265381        -7.2214
  93   1.0000      -0.262216        -7.1353
  94   1.0000      -0.261909        -7.1269
  95   1.0000      -0.258242        -7.0271
  96   1.0000      -0.257653        -7.0111
  97   1.0000      -0.256893        -6.9904
  98   1.0000      -0.253033        -6.8854
  99   1.0000      -0.252725        -6.8770
 100   1.0000      -0.252153        -6.8614
 101   1.0000      -0.250053        -6.8043
 102   1.0000      -0.247808        -6.7432
 103   1.0000      -0.246799        -6.7157
 104   1.0000      -0.242415        -6.5964
 105   1.0000      -0.232135        -6.3167
 106   1.0000      -0.230289        -6.2665
 107   1.0000      -0.213603        -5.8124
 108   1.0000      -0.209787        -5.7086
 109   0.0000      -0.205451        -5.5906
 110   0.0000      -0.144696        -3.9374
 111   0.0000      -0.140246        -3.8163
 112   0.0000      -0.121430        -3.3043
 113   0.0000      -0.118301        -3.2191

                 SPIN DOWN ORBITALS
  NO   OCC          E(Eh)            E(eV)
   0   1.0000    -255.612448     -6955.5683
   1   1.0000     -29.839158      -811.9648
   2   1.0000     -25.688002      -699.0061
   3   1.0000     -25.687882      -699.0028
   4   1.0000     -25.686006      -698.9518
   5   1.0000      -4.119904      -112.1083
   6   1.0000      -4.118569      -112.0719
   7   1.0000      -4.113737      -111.9405
   8   1.0000      -4.112675      -111.9116
   9   1.0000      -4.111042      -111.8671
  10   1.0000      -4.110438      -111.8507
  11   1.0000      -4.110422      -111.8503
  12   1.0000      -4.106693      -111.7488
  13   1.0000      -4.106593      -111.7461
  14   1.0000      -4.100302      -111.5749
  15   1.0000      -3.326677       -90.5235
  16   1.0000      -2.314319       -62.9758
  17   1.0000      -2.308031       -62.8047
  18   1.0000      -2.307336       -62.7858
  19   1.0000      -2.306371       -62.7595
  20   1.0000      -2.303561       -62.6831
  21   1.0000      -2.303434       -62.6796
  22   1.0000      -2.302345       -62.6500
  23   1.0000      -2.302255       -62.6475
  24   1.0000      -2.301514       -62.6274
  25   1.0000      -2.301272       -62.6208
  26   1.0000      -2.299443       -62.5710
  27   1.0000      -2.298693       -62.5506
  28   1.0000      -2.297239       -62.5110
  29   1.0000      -2.297025       -62.5052
  30   1.0000      -2.296878       -62.5012
  31   1.0000      -2.295998       -62.4773
  32   1.0000      -2.295691       -62.4689
  33   1.0000      -2.295157       -62.4544
  34   1.0000      -2.294273       -62.4303
  35   1.0000      -2.293130       -62.3992
  36   1.0000      -2.292435       -62.3803
  37   1.0000      -2.291511       -62.3552
  38   1.0000      -2.291278       -62.3488
  39   1.0000      -2.289692       -62.3057
  40   1.0000      -2.289461       -62.2994
  41   1.0000      -2.289246       -62.2935
  42   1.0000      -2.286894       -62.2295
  43   1.0000      -2.286558       -62.2204
  44   1.0000      -2.286030       -62.2060
  45   1.0000      -2.278691       -62.0063
  46   1.0000      -2.097451       -57.0745
  47   1.0000      -2.094714       -57.0001
  48   1.0000      -2.092508       -56.9400
  49   1.0000      -0.409126       -11.1329
  50   1.0000      -0.387983       -10.5575
  51   1.0000      -0.381953       -10.3935
  52   1.0000      -0.370154       -10.0724
  53   1.0000      -0.369747       -10.0613
  54   1.0000      -0.363336        -9.8869
  55   1.0000      -0.361454        -9.8357
  56   1.0000      -0.344941        -9.3863
  57   1.0000      -0.344879        -9.3846
  58   1.0000      -0.340832        -9.2745
  59   1.0000      -0.336785        -9.1644
  60   1.0000      -0.331791        -9.0285
  61   1.0000      -0.327894        -8.9224
  62   1.0000      -0.327406        -8.9092
  63   1.0000      -0.326127        -8.8744
  64   1.0000      -0.324621        -8.8334
  65   1.0000      -0.323262        -8.7964
  66   1.0000      -0.318759        -8.6739
  67   1.0000      -0.317172        -8.6307
  68   1.0000      -0.315984        -8.5983
  69   1.0000      -0.313555        -8.5323
  70   1.0000      -0.307854        -8.3771
  71   1.0000      -0.304024        -8.2729
  72   1.0000      -0.303682        -8.2636
  73   1.0000      -0.300780        -8.1846
  74   1.0000      -0.296402        -8.0655
  75   1.0000      -0.293460        -7.9855
  76   1.0000      -0.293292        -7.9809
  77   1.0000      -0.290981        -7.9180
  78   1.0000      -0.287331        -7.8187
  79   1.0000      -0.287287        -7.8175
  80   1.0000      -0.284377        -7.7383
  81   1.0000      -0.282274        -7.6811
  82   1.0000      -0.281607        -7.6629
  83   1.0000      -0.279217        -7.5979
  84   1.0000      -0.278082        -7.5670
  85   1.0000      -0.278027        -7.5655
  86   1.0000      -0.275620        -7.5000
  87   1.0000      -0.273188        -7.4338
  88   1.0000      -0.269869        -7.3435
  89   1.0000      -0.269201        -7.3253
  90   1.0000      -0.268398        -7.3035
  91   1.0000      -0.266487        -7.2515
  92   1.0000      -0.262898        -7.1538
  93   1.0000      -0.262010        -7.1297
  94   1.0000      -0.260150        -7.0790
  95   1.0000      -0.259437        -7.0596
  96   1.0000      -0.255036        -6.9399
  97   1.0000      -0.253167        -6.8890
  98   1.0000      -0.252243        -6.8639
  99   1.0000      -0.251449        -6.8423
 100   1.0000      -0.246071        -6.6959
 101   1.0000      -0.246050        -6.6954
 102   1.0000      -0.225948        -6.1484
 103   1.0000      -0.223655        -6.0860
 104   1.0000      -0.222077        -6.0430
 105   1.0000      -0.175156        -4.7662
 106   1.0000      -0.168059        -4.5731
 107   0.0000      -0.147861        -4.0235
 108   0.0000      -0.134414        -3.6576
 109   0.0000      -0.132831        -3.6145
 110   0.0000      -0.124393        -3.3849
 111   0.0000      -0.122208        -3.3255

MULLIKEN ATOMIC CHARGES AND SPIN POPULATIONS
--------------------------------------------
   0 Au:    0.371257   -0.413279
   1 Au:   -0.282195   -0.052051
   2 Au:    0.109243   -0.030320
   3 Au:    0.302249   -0.043307
   4 Au:    0.111254   -0.032843
   5 Au:    0.104596   -0.067288
   6 Au:    0.010229    0.073242
   7 Au:    0.106071   -0.063459
   8 Au:    0.137169   -0.148173
   9 Au:    0.274065   -0.176613
  10 Fe:   -1.243938    2.954090
Sum of atomic charges         :   -0.0000000

LOEWDIN ATOMIC CHARGES AND SPIN POPULATIONS
-------------------------------------------
   0 Au:    0.097769   -0.312569
   1 Au:   -0.082897   -0.088443
   2 Au:    0.056173   -0.097073
   3 Au:    0.086143   -0.036082
   4 Au:    0.056418   -0.098848
   5 Au:    0.020142   -0.072567
   6 Au:    0.022659    0.032061
   7 Au:    0.019999   -0.070447
   8 Au:    0.047535   -0.107377
   9 Au:    0.063937   -0.155722
  10 Fe:   -0.387879    3.007067

  Mayer bond orders larger than 0.100000
B(  0-Au,  1-Au) :   0.4068 B(  0-Au,  2-Au) :   0.2416 B(  0-Au,  4-Au) :   0.2383
B(  0-Au, 10-Fe) :   0.1374 B(  1-Au,  3-Au) :   0.6445 B(  1-Au,  6-Au) :   0.2161
B(  1-Au, 10-Fe) :   0.4605 B(  2-Au,  7-Au) :   0.4203 B(  2-Au, 10-Fe) :   0.6309
B(  3-Au,  6-Au) :   0.3780 B(  4-Au,  5-Au) :   0.4174 B(  4-Au, 10-Fe) :   0.6320
B(  5-Au,  9-Au) :   0.3515 B(  5-Au, 10-Fe) :   0.5509 B(  6-Au,  8-Au) :   0.4911
B(  6-Au, 10-Fe) :   0.6019 B(  7-Au,  9-Au) :   0.3516 B(  7-Au, 10-Fe) :   0.5506
B(  8-Au,  9-Au) :   0.3016 B(  8-Au, 10-Fe) :   0.6134

FINAL SINGLE POINT ENERGY     -2622.097850536874

DIPOLE MOMENT
-------------
                                X             Y             Z
Electronic contribution:      2.32815      -9.40209       0.54594
Nuclear contribution   :     -2.25609       9.23632      -0.52970
                        -----------------------------------------
Total Dipole Moment    :      0.07206      -0.16576       0.01624
                        -----------------------------------------
Magnitude (a.u.)       :      0.18148
Magnitude (Debye)      :      0.46128

Rotational constants in cm-1:     0.002095     0.001358     0.001016
Rotational constants in MHz :    62.807837    40.705007    30.469913

                             ****ORCA TERMINATED NORMALLY****
TOTAL RUN TIME: 0 days 0 hours 8 minutes 58 seconds 536 msec
