                         Program Version 5.0.3 -  RELEASE  -
|  1> !RI-B2PLYP def2-TZVP def2-TZVP/C
|  2> !RIJCOSX VERYSLOWCONV
|  3>
|  4> %scf
|  5>   AutoTRAHIter 200
|  6>   maxiter 400
|  7> end
|  8>
|  9>
| 10> %pal nprocs 6 end
| 11>
| 12> *xyzfile 0 6 pbe.xyz
| 13>
| 14> $new_job
| 15>
| 16> !RI-B2PLYP def2-TZVP def2-TZVP/C
| 17> !RIJCOSX VERYSLOWCONV
| 18>
| 19> %scf
| 20>   AutoTRAHIter 200
| 21>   maxiter 400
| 22> end
| 23>
| 24>
| 25> %pal nprocs 6 end
| 26>
| 27> *xyzfile 0 4 pbe.xyz
| 28>
| 29>
| 30>
| 31>
| 32>
| 33>                          ****END OF INPUT****
 Total Charge           Charge          ....    0
 Multiplicity           Mult            ....    6
 Number of Electrons    NEL             ....  253
MP2 TOTAL ENERGY:    -2777.844089393 Eh
FINAL SINGLE POINT ENERGY     -2777.844089393099

CARTESIAN COORDINATES (ANGSTROEM)
---------------------------------
  Au     7.468505    9.296277   10.076400
  Au     7.620721    6.978265    8.735777
  Au     6.145466    6.781759    6.289352
  Au     8.483860    5.140120    6.899290
  Au    10.470292    6.751522    7.861800
  Au     8.644905    7.741929    5.713037
  Au    11.670758    8.946321    8.946395
  Au    10.706081   11.358872    7.592238
  Au     9.846552   10.701513   10.164251
  Au     7.946455   11.512041    8.083233
  Au    10.938384    9.097795    6.021921
  Au     6.586264    9.322529    7.194101
  Mn     9.165883    9.127597    8.021660

 Multiplicity           Mult            ....    4
 Number of Electrons    NEL             ....  253
 Basis Dimension        Dim             ....  525

ORBITAL ENERGIES
----------------
                 SPIN UP ORBITALS
  NO   OCC          E(Eh)            E(eV)
   0   1.0000    -237.619933     -6465.9671
   1   1.0000     -28.123801      -765.2875
   2   1.0000     -24.041875      -654.2127
   3   1.0000     -24.041511      -654.2028
   4   1.0000     -24.041065      -654.1906
   5   1.0000      -4.401770      -119.7783
   6   1.0000      -4.401760      -119.7780
   7   1.0000      -4.398825      -119.6981
   8   1.0000      -4.398771      -119.6966
   9   1.0000      -4.397633      -119.6657
  10   1.0000      -4.397534      -119.6630
  11   1.0000      -4.393548      -119.5545
  12   1.0000      -4.393368      -119.5496
  13   1.0000      -4.392636      -119.5297
  14   1.0000      -4.392469      -119.5252
  15   1.0000      -4.386917      -119.3741
  16   1.0000      -4.386845      -119.3721
  17   1.0000      -3.600468       -97.9737
  18   1.0000      -2.524528       -68.6959
  19   1.0000      -2.524460       -68.6940
  20   1.0000      -2.520644       -68.5902
  21   1.0000      -2.520393       -68.5834
  22   1.0000      -2.520254       -68.5796
  23   1.0000      -2.519837       -68.5682
  24   1.0000      -2.518462       -68.5308
  25   1.0000      -2.518342       -68.5276
  26   1.0000      -2.517886       -68.5152
  27   1.0000      -2.517183       -68.4960
  28   1.0000      -2.516222       -68.4699
  29   1.0000      -2.515926       -68.4618
  30   1.0000      -2.515347       -68.4461
  31   1.0000      -2.514995       -68.4365
  32   1.0000      -2.514946       -68.4352
  33   1.0000      -2.513607       -68.3987
  34   1.0000      -2.512506       -68.3688
  35   1.0000      -2.512355       -68.3646
  36   1.0000      -2.512282       -68.3627
  37   1.0000      -2.512265       -68.3622
  38   1.0000      -2.511496       -68.3413
  39   1.0000      -2.511227       -68.3340
  40   1.0000      -2.510432       -68.3123
  41   1.0000      -2.510064       -68.3023
  42   1.0000      -2.509401       -68.2843
  43   1.0000      -2.508204       -68.2517
  44   1.0000      -2.507724       -68.2386
  45   1.0000      -2.506765       -68.2125
  46   1.0000      -2.505963       -68.1907
  47   1.0000      -2.505557       -68.1797
  48   1.0000      -2.505385       -68.1750
  49   1.0000      -2.505357       -68.1742
  50   1.0000      -2.504366       -68.1473
  51   1.0000      -2.502337       -68.0920
  52   1.0000      -2.501754       -68.0762
  53   1.0000      -2.501391       -68.0663
  54   1.0000      -2.402307       -65.3701
  55   1.0000      -2.401671       -65.3528
  56   1.0000      -2.400892       -65.3316
  57   1.0000      -0.518905       -14.1201
  58   1.0000      -0.518337       -14.1047
  59   1.0000      -0.517207       -14.0739
  60   1.0000      -0.508240       -13.8299
  61   1.0000      -0.506728       -13.7888
  62   1.0000      -0.484694       -13.1892
  63   1.0000      -0.473808       -12.8930
  64   1.0000      -0.465248       -12.6600
  65   1.0000      -0.459721       -12.5097
  66   1.0000      -0.458838       -12.4856
  67   1.0000      -0.455029       -12.3820
  68   1.0000      -0.451376       -12.2826
  69   1.0000      -0.451252       -12.2792
  70   1.0000      -0.446614       -12.1530
  71   1.0000      -0.443322       -12.0634
  72   1.0000      -0.439842       -11.9687
  73   1.0000      -0.437987       -11.9182
  74   1.0000      -0.434595       -11.8259
  75   1.0000      -0.432072       -11.7573
  76   1.0000      -0.430138       -11.7046
  77   1.0000      -0.426533       -11.6065
  78   1.0000      -0.424921       -11.5627
  79   1.0000      -0.424304       -11.5459
  80   1.0000      -0.421867       -11.4796
  81   1.0000      -0.419418       -11.4129
  82   1.0000      -0.418995       -11.4014
  83   1.0000      -0.417337       -11.3563
  84   1.0000      -0.411240       -11.1904
  85   1.0000      -0.410712       -11.1761
  86   1.0000      -0.403902       -10.9907
  87   1.0000      -0.399997       -10.8845
  88   1.0000      -0.393937       -10.7196
  89   1.0000      -0.392020       -10.6674
  90   1.0000      -0.388926       -10.5832
  91   1.0000      -0.386578       -10.5193
  92   1.0000      -0.385764       -10.4972
  93   1.0000      -0.385306       -10.4847
  94   1.0000      -0.380087       -10.3427
  95   1.0000      -0.378285       -10.2937
  96   1.0000      -0.377533       -10.2732
  97   1.0000      -0.374701       -10.1961
  98   1.0000      -0.370938       -10.0937
  99   1.0000      -0.370651       -10.0859
 100   1.0000      -0.367240        -9.9931
 101   1.0000      -0.366807        -9.9813
 102   1.0000      -0.365852        -9.9553
 103   1.0000      -0.364926        -9.9301
 104   1.0000      -0.364241        -9.9115
 105   1.0000      -0.362750        -9.8709
 106   1.0000      -0.361118        -9.8265
 107   1.0000      -0.357724        -9.7342
 108   1.0000      -0.357087        -9.7168
 109   1.0000      -0.356336        -9.6964
 110   1.0000      -0.355068        -9.6619
 111   1.0000      -0.354721        -9.6525
 112   1.0000      -0.350138        -9.5277
 113   1.0000      -0.349597        -9.5130
 114   1.0000      -0.346981        -9.4418
 115   1.0000      -0.345206        -9.3935
 116   1.0000      -0.343085        -9.3358
 117   1.0000      -0.339931        -9.2500
 118   1.0000      -0.336287        -9.1508
 119   1.0000      -0.333950        -9.0872
 120   1.0000      -0.330965        -9.0060
 121   1.0000      -0.328703        -8.9445
 122   1.0000      -0.324709        -8.8358
 123   1.0000      -0.320206        -8.7133
 124   1.0000      -0.300605        -8.1799
 125   1.0000      -0.249688        -6.7944
 126   1.0000      -0.233621        -6.3572
 127   1.0000      -0.217796        -5.9265
 128   0.0000      -0.112012        -3.0480
 129   0.0000      -0.111860        -3.0439
 130   0.0000      -0.086532        -2.3546
 131   0.0000      -0.062444        -1.6992
 132   0.0000      -0.052252        -1.4218

                 SPIN DOWN ORBITALS
  NO   OCC          E(Eh)            E(eV)
   0   1.0000    -237.617802     -6465.9091
   1   1.0000     -28.023741      -762.5648
   2   1.0000     -23.950039      -651.7137
   3   1.0000     -23.949518      -651.6995
   4   1.0000     -23.949195      -651.6907
   5   1.0000      -4.401790      -119.7788
   6   1.0000      -4.401781      -119.7786
   7   1.0000      -4.399000      -119.7029
   8   1.0000      -4.398944      -119.7013
   9   1.0000      -4.397950      -119.6743
  10   1.0000      -4.397859      -119.6718
  11   1.0000      -4.394360      -119.5766
  12   1.0000      -4.394183      -119.5718
  13   1.0000      -4.392990      -119.5393
  14   1.0000      -4.392831      -119.5350
  15   1.0000      -4.387224      -119.3824
  16   1.0000      -4.387151      -119.3804
  17   1.0000      -3.319230       -90.3208
  18   1.0000      -2.523574       -68.6699
  19   1.0000      -2.523475       -68.6672
  20   1.0000      -2.519540       -68.5602
  21   1.0000      -2.519479       -68.5585
  22   1.0000      -2.518943       -68.5439
  23   1.0000      -2.518397       -68.5291
  24   1.0000      -2.517279       -68.4987
  25   1.0000      -2.517155       -68.4953
  26   1.0000      -2.517056       -68.4926
  27   1.0000      -2.516608       -68.4804
  28   1.0000      -2.515956       -68.4626
  29   1.0000      -2.515370       -68.4467
  30   1.0000      -2.515314       -68.4452
  31   1.0000      -2.515077       -68.4387
  32   1.0000      -2.514948       -68.4352
  33   1.0000      -2.512865       -68.3785
  34   1.0000      -2.512732       -68.3749
  35   1.0000      -2.512619       -68.3718
  36   1.0000      -2.511788       -68.3492
  37   1.0000      -2.511734       -68.3478
  38   1.0000      -2.511451       -68.3400
  39   1.0000      -2.511004       -68.3279
  40   1.0000      -2.510391       -68.3112
  41   1.0000      -2.510274       -68.3080
  42   1.0000      -2.509807       -68.2953
  43   1.0000      -2.508607       -68.2627
  44   1.0000      -2.508492       -68.2595
  45   1.0000      -2.507252       -68.2258
  46   1.0000      -2.506766       -68.2126
  47   1.0000      -2.506328       -68.2007
  48   1.0000      -2.506022       -68.1923
  49   1.0000      -2.505865       -68.1881
  50   1.0000      -2.504370       -68.1474
  51   1.0000      -2.502876       -68.1067
  52   1.0000      -2.502768       -68.1038
  53   1.0000      -2.502072       -68.0848
  54   1.0000      -2.080233       -56.6060
  55   1.0000      -2.079727       -56.5923
  56   1.0000      -2.079607       -56.5890
  57   1.0000      -0.500541       -13.6204
  58   1.0000      -0.477164       -12.9843
  59   1.0000      -0.467168       -12.7123
  60   1.0000      -0.464661       -12.6441
  61   1.0000      -0.463318       -12.6075
  62   1.0000      -0.461647       -12.5621
  63   1.0000      -0.458896       -12.4872
  64   1.0000      -0.454557       -12.3691
  65   1.0000      -0.453589       -12.3428
  66   1.0000      -0.451598       -12.2886
  67   1.0000      -0.447959       -12.1896
  68   1.0000      -0.446085       -12.1386
  69   1.0000      -0.443344       -12.0640
  70   1.0000      -0.441450       -12.0125
  71   1.0000      -0.436928       -11.8894
  72   1.0000      -0.436127       -11.8676
  73   1.0000      -0.430462       -11.7135
  74   1.0000      -0.430112       -11.7039
  75   1.0000      -0.427530       -11.6337
  76   1.0000      -0.424260       -11.5447
  77   1.0000      -0.421557       -11.4712
  78   1.0000      -0.420222       -11.4348
  79   1.0000      -0.419344       -11.4109
  80   1.0000      -0.414721       -11.2851
  81   1.0000      -0.412612       -11.2277
  82   1.0000      -0.412341       -11.2204
  83   1.0000      -0.406321       -11.0565
  84   1.0000      -0.402503       -10.9527
  85   1.0000      -0.395636       -10.7658
  86   1.0000      -0.391711       -10.6590
  87   1.0000      -0.389448       -10.5974
  88   1.0000      -0.387912       -10.5556
  89   1.0000      -0.385366       -10.4863
  90   1.0000      -0.384245       -10.4558
  91   1.0000      -0.381157       -10.3718
  92   1.0000      -0.379607       -10.3296
  93   1.0000      -0.378671       -10.3042
  94   1.0000      -0.373655       -10.1677
  95   1.0000      -0.372440       -10.1346
  96   1.0000      -0.372354       -10.1323
  97   1.0000      -0.371064       -10.0972
  98   1.0000      -0.369472       -10.0538
  99   1.0000      -0.366019        -9.9599
 100   1.0000      -0.365818        -9.9544
 101   1.0000      -0.364952        -9.9308
 102   1.0000      -0.361009        -9.8236
 103   1.0000      -0.360677        -9.8145
 104   1.0000      -0.359766        -9.7897
 105   1.0000      -0.357716        -9.7339
 106   1.0000      -0.357093        -9.7170
 107   1.0000      -0.353712        -9.6250
 108   1.0000      -0.350851        -9.5471
 109   1.0000      -0.349375        -9.5070
 110   1.0000      -0.348926        -9.4948
 111   1.0000      -0.346126        -9.4186
 112   1.0000      -0.343309        -9.3419
 113   1.0000      -0.339691        -9.2435
 114   1.0000      -0.337650        -9.1879
 115   1.0000      -0.334537        -9.1032
 116   1.0000      -0.332978        -9.0608
 117   1.0000      -0.328573        -8.9409
 118   1.0000      -0.323448        -8.8015
 119   1.0000      -0.313663        -8.5352
 120   1.0000      -0.276172        -7.5150
 121   1.0000      -0.242349        -6.5947
 122   1.0000      -0.228139        -6.2080
 123   1.0000      -0.218401        -5.9430
 124   1.0000      -0.211516        -5.7556
 125   0.0000      -0.092160        -2.5078
 126   0.0000      -0.069123        -1.8809
 127   0.0000      -0.057058        -1.5526
 128   0.0000      -0.051132        -1.3914
 129   0.0000      -0.048206        -1.3118

MULLIKEN ATOMIC CHARGES AND SPIN POPULATIONS
--------------------------------------------
   0 Au:    0.292383   -0.153452
   1 Au:   -0.027297   -0.229775
   2 Au:    0.299981    0.075316
   3 Au:    0.300516    0.075278
   4 Au:    0.013327   -0.156477
   5 Au:   -0.027722   -0.229983
   6 Au:    0.220990   -0.083794
   7 Au:    0.236539   -0.230951
   8 Au:    0.236841   -0.231839
   9 Au:    0.220987   -0.083932
  10 Au:    0.292470   -0.154155
  11 Au:    0.013367   -0.156703
  12 Mn:   -2.072383    4.560466
Sum of atomic charges         :   -0.0000000

LOEWDIN ATOMIC CHARGES AND SPIN POPULATIONS
-------------------------------------------
   0 Au:    0.091143   -0.180216
   1 Au:   -0.058130   -0.112488
   2 Au:    0.067925    0.006889
   3 Au:    0.068045    0.006917
   4 Au:    0.001828   -0.113068
   5 Au:   -0.058354   -0.112569
   6 Au:    0.052871   -0.129590
   7 Au:    0.020275   -0.166415
   8 Au:    0.020770   -0.166765
   9 Au:    0.052816   -0.129632
  10 Au:    0.091262   -0.180569
  11 Au:    0.001614   -0.113064
  12 Mn:   -0.352064    4.390571

  Mayer bond orders larger than 0.100000
B(  0-Au,  1-Au) :   0.3483 B(  0-Au,  8-Au) :   0.1872 B(  0-Au, 12-Mn) :   0.5052
B(  1-Au,  2-Au) :   0.1900 B(  1-Au,  3-Au) :   0.3401 B(  1-Au,  4-Au) :   0.1463
B(  1-Au,  5-Au) :   0.1061 B(  1-Au, 11-Au) :   0.1076 B(  1-Au, 12-Mn) :   0.4014
B(  2-Au,  3-Au) :   0.1114 B(  2-Au,  5-Au) :   0.3401 B(  2-Au, 11-Au) :   0.3804
B(  3-Au,  4-Au) :   0.3804 B(  3-Au,  5-Au) :   0.1902 B(  4-Au,  5-Au) :   0.1080
B(  4-Au,  6-Au) :   0.2734 B(  4-Au, 12-Mn) :   0.5026 B(  5-Au, 10-Au) :   0.3487
B(  5-Au, 11-Au) :   0.1463 B(  5-Au, 12-Mn) :   0.4014 B(  6-Au,  7-Au) :   0.1077
B(  6-Au,  8-Au) :   0.1833 B(  6-Au,  9-Au) :   0.1080 B(  6-Au, 12-Mn) :   0.4787
B(  7-Au,  8-Au) :   0.1718 B(  7-Au,  9-Au) :   0.1841 B(  7-Au, 10-Au) :   0.1875
B(  7-Au, 12-Mn) :   0.4148 B(  8-Au,  9-Au) :   0.1071 B(  8-Au, 12-Mn) :   0.4154
B(  9-Au, 11-Au) :   0.2734 B(  9-Au, 12-Mn) :   0.4772 B( 10-Au, 12-Mn) :   0.5047
B( 11-Au, 12-Mn) :   0.5025

MP2 TOTAL ENERGY:    -2777.855341446 Eh
FINAL SINGLE POINT ENERGY     -2777.855341445540

DIPOLE MOMENT
-------------
                                X             Y             Z
Electronic contribution:    -10.51636     -17.92901      -8.14675
Nuclear contribution   :     10.49745      17.89479       8.13189
                        -----------------------------------------
Total Dipole Moment    :     -0.01892      -0.03421      -0.01487
                        -----------------------------------------
Magnitude (a.u.)       :      0.04183
Magnitude (Debye)      :      0.10632

Rotational constants in cm-1:     0.001730     0.001168     0.000996
Rotational constants in MHz :    51.861552    35.018381    29.872095

                             ****ORCA TERMINATED NORMALLY****
TOTAL RUN TIME: 0 days 0 hours 35 minutes 7 seconds 26 msec
