                         Program Version 5.0.3 -  RELEASE  -
|  1> !PBE def2-TZVP VERYSLOWCONV
|  2> !KDIIS
|  3>
|  4> %scf
|  5>   AutoTRAHIter 200
|  6>   maxiter 400
|  7> end
|  8>
|  9>
| 10> %pal nprocs 6 end
| 11>
| 12> *xyzfile 0 6 pbe.xyz
| 13>
| 14> $new_job
| 15>
| 16> !PBE def2-TZVP VERYSLOWCONV
| 17> !KDIIS
| 18>
| 19> %scf
| 20>   AutoTRAHIter 200
| 21>   maxiter 400
| 22> end
| 23>
| 24>
| 25> %pal nprocs 6 end
| 26>
| 27> *xyzfile 0 4 pbe.xyz
| 28>
| 29>
| 30>
| 31>
| 32>
| 33>                          ****END OF INPUT****
 Total Charge           Charge          ....    0
 Multiplicity           Mult            ....    6
 Number of Electrons    NEL             ....  253
FINAL SINGLE POINT ENERGY     -2780.631935570894

CARTESIAN COORDINATES (ANGSTROEM)
---------------------------------
  Au     7.468505    9.296277   10.076400
  Au     7.620721    6.978265    8.735777
  Au     6.145466    6.781759    6.289352
  Au     8.483860    5.140120    6.899290
  Au    10.470292    6.751522    7.861800
  Au     8.644905    7.741929    5.713037
  Au    11.670758    8.946321    8.946395
  Au    10.706081   11.358872    7.592238
  Au     9.846552   10.701513   10.164251
  Au     7.946455   11.512041    8.083233
  Au    10.938384    9.097795    6.021921
  Au     6.586264    9.322529    7.194101
  Mn     9.165883    9.127597    8.021660

 Multiplicity           Mult            ....    4
 Number of Electrons    NEL             ....  253
 Basis Dimension        Dim             ....  525

ORBITAL ENERGIES
----------------
                 SPIN UP ORBITALS
  NO   OCC          E(Eh)            E(eV)
   0   1.0000    -234.197921     -6372.8494
   1   1.0000     -26.892719      -731.7881
   2   1.0000     -23.045157      -627.0906
   3   1.0000     -23.042801      -627.0265
   4   1.0000     -23.037150      -626.8727
   5   1.0000      -4.030612      -109.6785
   6   1.0000      -4.030514      -109.6759
   7   1.0000      -4.029387      -109.6452
   8   1.0000      -4.029254      -109.6416
   9   1.0000      -4.028622      -109.6244
  10   1.0000      -4.028437      -109.6194
  11   1.0000      -4.027132      -109.5838
  12   1.0000      -4.027125      -109.5837
  13   1.0000      -4.026159      -109.5574
  14   1.0000      -4.026139      -109.5568
  15   1.0000      -4.015936      -109.2792
  16   1.0000      -4.015864      -109.2772
  17   1.0000      -3.096985       -84.2732
  18   1.0000      -2.248807       -61.1932
  19   1.0000      -2.248660       -61.1892
  20   1.0000      -2.246722       -61.1364
  21   1.0000      -2.244856       -61.0856
  22   1.0000      -2.244755       -61.0829
  23   1.0000      -2.244101       -61.0651
  24   1.0000      -2.244078       -61.0645
  25   1.0000      -2.243790       -61.0566
  26   1.0000      -2.243506       -61.0489
  27   1.0000      -2.243370       -61.0452
  28   1.0000      -2.243177       -61.0400
  29   1.0000      -2.242596       -61.0241
  30   1.0000      -2.241846       -61.0037
  31   1.0000      -2.241567       -60.9961
  32   1.0000      -2.241316       -60.9893
  33   1.0000      -2.240923       -60.9786
  34   1.0000      -2.240851       -60.9767
  35   1.0000      -2.240598       -60.9698
  36   1.0000      -2.240514       -60.9675
  37   1.0000      -2.240074       -60.9555
  38   1.0000      -2.240065       -60.9553
  39   1.0000      -2.239695       -60.9452
  40   1.0000      -2.238741       -60.9192
  41   1.0000      -2.238251       -60.9059
  42   1.0000      -2.236857       -60.8680
  43   1.0000      -2.236712       -60.8640
  44   1.0000      -2.235778       -60.8386
  45   1.0000      -2.235731       -60.8373
  46   1.0000      -2.235406       -60.8285
  47   1.0000      -2.235279       -60.8250
  48   1.0000      -2.230295       -60.6894
  49   1.0000      -2.230005       -60.6815
  50   1.0000      -2.228275       -60.6344
  51   1.0000      -2.227645       -60.6173
  52   1.0000      -2.227512       -60.6137
  53   1.0000      -2.226728       -60.5923
  54   1.0000      -2.005218       -54.5648
  55   1.0000      -2.002429       -54.4889
  56   1.0000      -1.991114       -54.1810
  57   1.0000      -0.426656       -11.6099
  58   1.0000      -0.391743       -10.6599
  59   1.0000      -0.378022       -10.2865
  60   1.0000      -0.375464       -10.2169
  61   1.0000      -0.374014       -10.1774
  62   1.0000      -0.370475       -10.0811
  63   1.0000      -0.364411        -9.9161
  64   1.0000      -0.358865        -9.7652
  65   1.0000      -0.355156        -9.6643
  66   1.0000      -0.351558        -9.5664
  67   1.0000      -0.349138        -9.5005
  68   1.0000      -0.347316        -9.4510
  69   1.0000      -0.343833        -9.3562
  70   1.0000      -0.343097        -9.3361
  71   1.0000      -0.337452        -9.1825
  72   1.0000      -0.334516        -9.1026
  73   1.0000      -0.334250        -9.0954
  74   1.0000      -0.331853        -9.0302
  75   1.0000      -0.329767        -8.9734
  76   1.0000      -0.326906        -8.8956
  77   1.0000      -0.326516        -8.8849
  78   1.0000      -0.324041        -8.8176
  79   1.0000      -0.321854        -8.7581
  80   1.0000      -0.321232        -8.7412
  81   1.0000      -0.317365        -8.6359
  82   1.0000      -0.314811        -8.5664
  83   1.0000      -0.310347        -8.4450
  84   1.0000      -0.306879        -8.3506
  85   1.0000      -0.302499        -8.2314
  86   1.0000      -0.301066        -8.1924
  87   1.0000      -0.295055        -8.0288
  88   1.0000      -0.294199        -8.0056
  89   1.0000      -0.291678        -7.9370
  90   1.0000      -0.290398        -7.9021
  91   1.0000      -0.286069        -7.7843
  92   1.0000      -0.285992        -7.7823
  93   1.0000      -0.283899        -7.7253
  94   1.0000      -0.281797        -7.6681
  95   1.0000      -0.277459        -7.5500
  96   1.0000      -0.276187        -7.5154
  97   1.0000      -0.276118        -7.5136
  98   1.0000      -0.274554        -7.4710
  99   1.0000      -0.272929        -7.4268
 100   1.0000      -0.272605        -7.4180
 101   1.0000      -0.271054        -7.3758
 102   1.0000      -0.268364        -7.3026
 103   1.0000      -0.267169        -7.2700
 104   1.0000      -0.265455        -7.2234
 105   1.0000      -0.264483        -7.1970
 106   1.0000      -0.263194        -7.1619
 107   1.0000      -0.262106        -7.1323
 108   1.0000      -0.260048        -7.0763
 109   1.0000      -0.258833        -7.0432
 110   1.0000      -0.258505        -7.0343
 111   1.0000      -0.255395        -6.9497
 112   1.0000      -0.254004        -6.9118
 113   1.0000      -0.253498        -6.8980
 114   1.0000      -0.252423        -6.8688
 115   1.0000      -0.251654        -6.8479
 116   1.0000      -0.247820        -6.7435
 117   1.0000      -0.246778        -6.7152
 118   1.0000      -0.245061        -6.6684
 119   1.0000      -0.241623        -6.5749
 120   1.0000      -0.240388        -6.5413
 121   1.0000      -0.236646        -6.4395
 122   1.0000      -0.234241        -6.3740
 123   1.0000      -0.230941        -6.2842
 124   1.0000      -0.229734        -6.2514
 125   1.0000      -0.227820        -6.1993
 126   1.0000      -0.208303        -5.6682
 127   1.0000      -0.198601        -5.4042
 128   0.0000      -0.180838        -4.9209
 129   0.0000      -0.176152        -4.7933
 130   0.0000      -0.145546        -3.9605
 131   0.0000      -0.126892        -3.4529
 132   0.0000      -0.121197        -3.2979

                 SPIN DOWN ORBITALS
  NO   OCC          E(Eh)            E(eV)
   0   1.0000    -234.197290     -6372.8322
   1   1.0000     -26.831419      -730.1200
   2   1.0000     -22.998034      -625.8083
   3   1.0000     -22.994723      -625.7182
   4   1.0000     -22.992712      -625.6635
   5   1.0000      -4.030541      -109.6766
   6   1.0000      -4.030455      -109.6743
   7   1.0000      -4.029074      -109.6367
   8   1.0000      -4.028939      -109.6330
   9   1.0000      -4.028174      -109.6122
  10   1.0000      -4.028000      -109.6074
  11   1.0000      -4.026799      -109.5748
  12   1.0000      -4.026797      -109.5747
  13   1.0000      -4.025405      -109.5368
  14   1.0000      -4.025391      -109.5365
  15   1.0000      -4.016160      -109.2853
  16   1.0000      -4.016090      -109.2834
  17   1.0000      -2.946960       -80.1909
  18   1.0000      -2.248823       -61.1936
  19   1.0000      -2.248679       -61.1897
  20   1.0000      -2.246009       -61.1170
  21   1.0000      -2.244144       -61.0663
  22   1.0000      -2.244133       -61.0660
  23   1.0000      -2.244019       -61.0629
  24   1.0000      -2.243983       -61.0619
  25   1.0000      -2.243109       -61.0381
  26   1.0000      -2.243101       -61.0379
  27   1.0000      -2.242878       -61.0318
  28   1.0000      -2.242733       -61.0279
  29   1.0000      -2.242542       -61.0227
  30   1.0000      -2.241159       -60.9850
  31   1.0000      -2.241059       -60.9823
  32   1.0000      -2.240871       -60.9772
  33   1.0000      -2.240531       -60.9679
  34   1.0000      -2.240240       -60.9600
  35   1.0000      -2.240199       -60.9589
  36   1.0000      -2.239824       -60.9487
  37   1.0000      -2.239470       -60.9391
  38   1.0000      -2.239206       -60.9319
  39   1.0000      -2.238954       -60.9250
  40   1.0000      -2.238393       -60.9098
  41   1.0000      -2.237883       -60.8959
  42   1.0000      -2.236660       -60.8626
  43   1.0000      -2.236507       -60.8584
  44   1.0000      -2.235436       -60.8293
  45   1.0000      -2.235393       -60.8281
  46   1.0000      -2.234785       -60.8116
  47   1.0000      -2.234674       -60.8086
  48   1.0000      -2.230564       -60.6967
  49   1.0000      -2.230296       -60.6894
  50   1.0000      -2.228622       -60.6439
  51   1.0000      -2.227675       -60.6181
  52   1.0000      -2.227589       -60.6158
  53   1.0000      -2.227105       -60.6026
  54   1.0000      -1.855916       -50.5021
  55   1.0000      -1.851181       -50.3732
  56   1.0000      -1.850118       -50.3443
  57   1.0000      -0.420644       -11.4463
  58   1.0000      -0.390630       -10.6296
  59   1.0000      -0.377627       -10.2757
  60   1.0000      -0.372842       -10.1455
  61   1.0000      -0.369070       -10.0429
  62   1.0000      -0.364029        -9.9057
  63   1.0000      -0.362227        -9.8567
  64   1.0000      -0.356991        -9.7142
  65   1.0000      -0.350897        -9.5484
  66   1.0000      -0.349809        -9.5188
  67   1.0000      -0.347513        -9.4563
  68   1.0000      -0.347439        -9.4543
  69   1.0000      -0.342413        -9.3175
  70   1.0000      -0.337583        -9.1861
  71   1.0000      -0.337418        -9.1816
  72   1.0000      -0.333514        -9.0754
  73   1.0000      -0.331606        -9.0234
  74   1.0000      -0.329100        -8.9553
  75   1.0000      -0.327310        -8.9066
  76   1.0000      -0.326902        -8.8954
  77   1.0000      -0.322438        -8.7740
  78   1.0000      -0.321276        -8.7424
  79   1.0000      -0.318587        -8.6692
  80   1.0000      -0.317109        -8.6290
  81   1.0000      -0.317041        -8.6271
  82   1.0000      -0.315611        -8.5882
  83   1.0000      -0.307701        -8.3730
  84   1.0000      -0.307267        -8.3611
  85   1.0000      -0.300604        -8.1798
  86   1.0000      -0.296928        -8.0798
  87   1.0000      -0.295012        -8.0277
  88   1.0000      -0.290683        -7.9099
  89   1.0000      -0.290592        -7.9074
  90   1.0000      -0.290194        -7.8966
  91   1.0000      -0.285596        -7.7715
  92   1.0000      -0.285089        -7.7577
  93   1.0000      -0.282724        -7.6933
  94   1.0000      -0.278908        -7.5895
  95   1.0000      -0.277407        -7.5486
  96   1.0000      -0.276211        -7.5161
  97   1.0000      -0.276175        -7.5151
  98   1.0000      -0.274591        -7.4720
  99   1.0000      -0.272955        -7.4275
 100   1.0000      -0.272372        -7.4116
 101   1.0000      -0.271389        -7.3849
 102   1.0000      -0.268929        -7.3179
 103   1.0000      -0.266904        -7.2628
 104   1.0000      -0.266393        -7.2489
 105   1.0000      -0.264359        -7.1936
 106   1.0000      -0.263467        -7.1693
 107   1.0000      -0.262395        -7.1401
 108   1.0000      -0.260029        -7.0758
 109   1.0000      -0.259097        -7.0504
 110   1.0000      -0.258754        -7.0410
 111   1.0000      -0.254265        -6.9189
 112   1.0000      -0.253119        -6.8877
 113   1.0000      -0.252184        -6.8623
 114   1.0000      -0.251254        -6.8370
 115   1.0000      -0.248060        -6.7501
 116   1.0000      -0.247545        -6.7360
 117   1.0000      -0.243688        -6.6311
 118   1.0000      -0.241921        -6.5830
 119   1.0000      -0.237956        -6.4751
 120   1.0000      -0.229632        -6.2486
 121   1.0000      -0.218347        -5.9415
 122   1.0000      -0.208225        -5.6661
 123   1.0000      -0.198341        -5.3971
 124   1.0000      -0.158371        -4.3095
 125   0.0000      -0.194565        -5.2944
 126   0.0000      -0.141185        -3.8418
 127   0.0000      -0.138203        -3.7607
 128   0.0000      -0.126722        -3.4483
 129   0.0000      -0.126442        -3.4407

MULLIKEN ATOMIC CHARGES AND SPIN POPULATIONS
--------------------------------------------
   0 Au:    0.285002   -0.138382
   1 Au:    0.055237   -0.037449
   2 Au:    0.292008   -0.091972
   3 Au:    0.291762   -0.092785
   4 Au:    0.053340   -0.067434
   5 Au:    0.053788   -0.039040
   6 Au:    0.282141   -0.029483
   7 Au:    0.326847    0.014363
   8 Au:    0.326852    0.014298
   9 Au:    0.281572   -0.029801
  10 Au:    0.284346   -0.139400
  11 Au:    0.052973   -0.067590
  12 Mn:   -2.585868    3.704674
Sum of atomic charges         :   -0.0000000

LOEWDIN ATOMIC CHARGES AND SPIN POPULATIONS
-------------------------------------------
   0 Au:    0.108032   -0.111407
   1 Au:   -0.015627   -0.051090
   2 Au:    0.037866   -0.085077
   3 Au:    0.037822   -0.085395
   4 Au:    0.028747   -0.069499
   5 Au:   -0.015989   -0.051816
   6 Au:    0.078340   -0.048600
   7 Au:    0.063450   -0.012018
   8 Au:    0.064148   -0.011712
   9 Au:    0.078405   -0.048507
  10 Au:    0.107854   -0.112284
  11 Au:    0.028382   -0.069749
  12 Mn:   -0.601429    3.757155

  Mayer bond orders larger than 0.100000
B(  0-Au,  1-Au) :   0.3216 B(  0-Au,  8-Au) :   0.1944 B(  0-Au, 11-Au) :   0.1065
B(  0-Au, 12-Mn) :   0.5585 B(  1-Au,  2-Au) :   0.2465 B(  1-Au,  3-Au) :   0.3365
B(  1-Au,  4-Au) :   0.1601 B(  1-Au,  5-Au) :   0.1236 B(  1-Au, 11-Au) :   0.1440
B(  1-Au, 12-Mn) :   0.4526 B(  2-Au,  3-Au) :   0.2431 B(  2-Au,  5-Au) :   0.3359
B(  2-Au, 11-Au) :   0.3923 B(  2-Au, 12-Mn) :   0.1089 B(  3-Au,  4-Au) :   0.3924
B(  3-Au,  5-Au) :   0.2463 B(  3-Au, 12-Mn) :   0.1091 B(  4-Au,  5-Au) :   0.1444
B(  4-Au,  6-Au) :   0.2846 B(  4-Au, 10-Au) :   0.1058 B(  4-Au, 12-Mn) :   0.5632
B(  5-Au, 10-Au) :   0.3211 B(  5-Au, 11-Au) :   0.1603 B(  5-Au, 12-Mn) :   0.4541
B(  6-Au,  7-Au) :   0.1415 B(  6-Au,  8-Au) :   0.2094 B(  6-Au,  9-Au) :   0.1231
B(  6-Au, 12-Mn) :   0.5134 B(  7-Au,  8-Au) :   0.2842 B(  7-Au,  9-Au) :   0.2107
B(  7-Au, 10-Au) :   0.1955 B(  7-Au, 12-Mn) :   0.4173 B(  8-Au,  9-Au) :   0.1407
B(  8-Au, 12-Mn) :   0.4195 B(  9-Au, 11-Au) :   0.2846 B(  9-Au, 12-Mn) :   0.5120
B( 10-Au, 12-Mn) :   0.5581 B( 11-Au, 12-Mn) :   0.5629

FINAL SINGLE POINT ENERGY     -2780.659080669242

DIPOLE MOMENT
-------------
                                X             Y             Z
Electronic contribution:    -10.23425     -17.44148      -7.92626
Nuclear contribution   :     10.49745      17.89479       8.13189
                        -----------------------------------------
Total Dipole Moment    :      0.26320       0.45331       0.20563
                        -----------------------------------------
Magnitude (a.u.)       :      0.56307
Magnitude (Debye)      :      1.43120

Rotational constants in cm-1:     0.001730     0.001168     0.000996
Rotational constants in MHz :    51.861552    35.018381    29.872095

                             ****ORCA TERMINATED NORMALLY****
TOTAL RUN TIME: 0 days 0 hours 10 minutes 42 seconds 623 msec
