                         Program Version 5.0.3 -  RELEASE  -
|  1> !R2SCAN def2-TZVP VERYSLOWCONV
|  2> !KDIIS
|  3> %scf
|  4>   AutoTRAHIter 200
|  5>   maxiter 400
|  6> end
|  7>
|  8> %pal nprocs 6 end
|  9>
| 10> *xyzfile 0 6 pbe.xyz
| 11>
| 12> $new_job
| 13>
| 14> !R2SCAN def2-TZVP VERYSLOWCONV
| 15> !KDIIS
| 16> %scf
| 17>   AutoTRAHIter 200
| 18>   maxiter 400
| 19> end
| 20>
| 21>
| 22> %pal nprocs 6 end
| 23>
| 24> *xyzfile 0 4 pbe.xyz
| 25>
| 26>
| 27>
| 28>
| 29>
| 30>                          ****END OF INPUT****
 Total Charge           Charge          ....    0
 Multiplicity           Mult            ....    6
 Number of Electrons    NEL             ....  253
FINAL SINGLE POINT ENERGY     -2781.077971971231

CARTESIAN COORDINATES (ANGSTROEM)
---------------------------------
  Au     7.468505    9.296277   10.076400
  Au     7.620721    6.978265    8.735777
  Au     6.145466    6.781759    6.289352
  Au     8.483860    5.140120    6.899290
  Au    10.470292    6.751522    7.861800
  Au     8.644905    7.741929    5.713037
  Au    11.670758    8.946321    8.946395
  Au    10.706081   11.358872    7.592238
  Au     9.846552   10.701513   10.164251
  Au     7.946455   11.512041    8.083233
  Au    10.938384    9.097795    6.021921
  Au     6.586264    9.322529    7.194101
  Mn     9.165883    9.127597    8.021660

 Multiplicity           Mult            ....    4
 Number of Electrons    NEL             ....  253
 Basis Dimension        Dim             ....  525

ORBITAL ENERGIES
----------------
                 SPIN UP ORBITALS
  NO   OCC          E(Eh)            E(eV)
   0   1.0000    -235.041145     -6395.7947
   1   1.0000     -27.220103      -740.6967
   2   1.0000     -23.269723      -633.2014
   3   1.0000     -23.267825      -633.1497
   4   1.0000     -23.264238      -633.0521
   5   1.0000      -4.122008      -112.1655
   6   1.0000      -4.121963      -112.1643
   7   1.0000      -4.121929      -112.1634
   8   1.0000      -4.121856      -112.1614
   9   1.0000      -4.120373      -112.1211
  10   1.0000      -4.120245      -112.1176
  11   1.0000      -4.118669      -112.0747
  12   1.0000      -4.118669      -112.0747
  13   1.0000      -4.118022      -112.0571
  14   1.0000      -4.117956      -112.0553
  15   1.0000      -4.105985      -111.7295
  16   1.0000      -4.105916      -111.7276
  17   1.0000      -3.238145       -88.1144
  18   1.0000      -2.313028       -62.9407
  19   1.0000      -2.312934       -62.9381
  20   1.0000      -2.312443       -62.9248
  21   1.0000      -2.310150       -62.8624
  22   1.0000      -2.309857       -62.8544
  23   1.0000      -2.309057       -62.8326
  24   1.0000      -2.308546       -62.8187
  25   1.0000      -2.308503       -62.8176
  26   1.0000      -2.307965       -62.8029
  27   1.0000      -2.307816       -62.7989
  28   1.0000      -2.307639       -62.7941
  29   1.0000      -2.307165       -62.7811
  30   1.0000      -2.306796       -62.7711
  31   1.0000      -2.306227       -62.7556
  32   1.0000      -2.306063       -62.7512
  33   1.0000      -2.305694       -62.7411
  34   1.0000      -2.305422       -62.7337
  35   1.0000      -2.305361       -62.7321
  36   1.0000      -2.305080       -62.7244
  37   1.0000      -2.304889       -62.7192
  38   1.0000      -2.304646       -62.7126
  39   1.0000      -2.304383       -62.7054
  40   1.0000      -2.303043       -62.6690
  41   1.0000      -2.302686       -62.6593
  42   1.0000      -2.301587       -62.6294
  43   1.0000      -2.301482       -62.6265
  44   1.0000      -2.300376       -62.5964
  45   1.0000      -2.300321       -62.5949
  46   1.0000      -2.300078       -62.5883
  47   1.0000      -2.299948       -62.5848
  48   1.0000      -2.292920       -62.3935
  49   1.0000      -2.292621       -62.3854
  50   1.0000      -2.291079       -62.3434
  51   1.0000      -2.290474       -62.3270
  52   1.0000      -2.290357       -62.3238
  53   1.0000      -2.289441       -62.2989
  54   1.0000      -2.098674       -57.1078
  55   1.0000      -2.096296       -57.0431
  56   1.0000      -2.089067       -56.8464
  57   1.0000      -0.434038       -11.8108
  58   1.0000      -0.397754       -10.8234
  59   1.0000      -0.387737       -10.5509
  60   1.0000      -0.387320       -10.5395
  61   1.0000      -0.384515       -10.4632
  62   1.0000      -0.379460       -10.3256
  63   1.0000      -0.375793       -10.2258
  64   1.0000      -0.368578       -10.0295
  65   1.0000      -0.368009       -10.0140
  66   1.0000      -0.362209        -9.8562
  67   1.0000      -0.360768        -9.8170
  68   1.0000      -0.357321        -9.7232
  69   1.0000      -0.356448        -9.6994
  70   1.0000      -0.353087        -9.6080
  71   1.0000      -0.347527        -9.4567
  72   1.0000      -0.347044        -9.4436
  73   1.0000      -0.344518        -9.3748
  74   1.0000      -0.342979        -9.3329
  75   1.0000      -0.341171        -9.2837
  76   1.0000      -0.336892        -9.1673
  77   1.0000      -0.336646        -9.1606
  78   1.0000      -0.334610        -9.1052
  79   1.0000      -0.331899        -9.0314
  80   1.0000      -0.330688        -8.9985
  81   1.0000      -0.327454        -8.9105
  82   1.0000      -0.324474        -8.8294
  83   1.0000      -0.320565        -8.7230
  84   1.0000      -0.316382        -8.6092
  85   1.0000      -0.314833        -8.5670
  86   1.0000      -0.310613        -8.4522
  87   1.0000      -0.305285        -8.3072
  88   1.0000      -0.303608        -8.2616
  89   1.0000      -0.300448        -8.1756
  90   1.0000      -0.300092        -8.1659
  91   1.0000      -0.296096        -8.0572
  92   1.0000      -0.295344        -8.0367
  93   1.0000      -0.292972        -7.9722
  94   1.0000      -0.291205        -7.9241
  95   1.0000      -0.286585        -7.7984
  96   1.0000      -0.285970        -7.7816
  97   1.0000      -0.285098        -7.7579
  98   1.0000      -0.284508        -7.7419
  99   1.0000      -0.282072        -7.6756
 100   1.0000      -0.281923        -7.6715
 101   1.0000      -0.279898        -7.6164
 102   1.0000      -0.278157        -7.5691
 103   1.0000      -0.276715        -7.5298
 104   1.0000      -0.274067        -7.4577
 105   1.0000      -0.273657        -7.4466
 106   1.0000      -0.273499        -7.4423
 107   1.0000      -0.271913        -7.3991
 108   1.0000      -0.270994        -7.3741
 109   1.0000      -0.269011        -7.3202
 110   1.0000      -0.267595        -7.2816
 111   1.0000      -0.267211        -7.2712
 112   1.0000      -0.263095        -7.1592
 113   1.0000      -0.262854        -7.1526
 114   1.0000      -0.260945        -7.1007
 115   1.0000      -0.260244        -7.0816
 116   1.0000      -0.255991        -6.9659
 117   1.0000      -0.255115        -6.9420
 118   1.0000      -0.254305        -6.9200
 119   1.0000      -0.254004        -6.9118
 120   1.0000      -0.250443        -6.8149
 121   1.0000      -0.248982        -6.7751
 122   1.0000      -0.246625        -6.7110
 123   1.0000      -0.243430        -6.6241
 124   1.0000      -0.240874        -6.5545
 125   1.0000      -0.230849        -6.2817
 126   1.0000      -0.212188        -5.7739
 127   1.0000      -0.201049        -5.4708
 128   0.0000      -0.180917        -4.9230
 129   0.0000      -0.176561        -4.8045
 130   0.0000      -0.140668        -3.8278
 131   0.0000      -0.122728        -3.3396
 132   0.0000      -0.116426        -3.1681

                 SPIN DOWN ORBITALS
  NO   OCC          E(Eh)            E(eV)
   0   1.0000    -235.040190     -6395.7687
   1   1.0000     -27.135676      -738.3993
   2   1.0000     -23.204429      -631.4246
   3   1.0000     -23.201968      -631.3577
   4   1.0000     -23.201093      -631.3338
   5   1.0000      -4.122203      -112.1708
   6   1.0000      -4.122175      -112.1701
   7   1.0000      -4.121762      -112.1588
   8   1.0000      -4.121610      -112.1547
   9   1.0000      -4.120225      -112.1170
  10   1.0000      -4.120105      -112.1137
  11   1.0000      -4.118541      -112.0712
  12   1.0000      -4.118536      -112.0711
  13   1.0000      -4.117421      -112.0407
  14   1.0000      -4.117362      -112.0391
  15   1.0000      -4.106354      -111.7396
  16   1.0000      -4.106285      -111.7377
  17   1.0000      -3.037009       -82.6412
  18   1.0000      -2.313359       -62.9497
  19   1.0000      -2.313257       -62.9469
  20   1.0000      -2.311606       -62.9020
  21   1.0000      -2.309309       -62.8395
  22   1.0000      -2.309226       -62.8372
  23   1.0000      -2.308661       -62.8219
  24   1.0000      -2.308404       -62.8149
  25   1.0000      -2.308347       -62.8133
  26   1.0000      -2.307733       -62.7966
  27   1.0000      -2.307347       -62.7861
  28   1.0000      -2.307254       -62.7836
  29   1.0000      -2.307068       -62.7785
  30   1.0000      -2.306262       -62.7566
  31   1.0000      -2.305858       -62.7456
  32   1.0000      -2.305727       -62.7420
  33   1.0000      -2.305501       -62.7359
  34   1.0000      -2.305149       -62.7263
  35   1.0000      -2.305017       -62.7227
  36   1.0000      -2.304288       -62.7029
  37   1.0000      -2.303924       -62.6930
  38   1.0000      -2.303874       -62.6916
  39   1.0000      -2.303647       -62.6854
  40   1.0000      -2.302641       -62.6580
  41   1.0000      -2.302301       -62.6488
  42   1.0000      -2.301536       -62.6280
  43   1.0000      -2.301427       -62.6250
  44   1.0000      -2.300164       -62.5906
  45   1.0000      -2.300114       -62.5893
  46   1.0000      -2.299574       -62.5746
  47   1.0000      -2.299457       -62.5714
  48   1.0000      -2.293456       -62.4081
  49   1.0000      -2.293191       -62.4009
  50   1.0000      -2.291398       -62.3521
  51   1.0000      -2.290571       -62.3296
  52   1.0000      -2.290482       -62.3272
  53   1.0000      -2.289754       -62.3074
  54   1.0000      -1.897002       -51.6201
  55   1.0000      -1.894833       -51.5610
  56   1.0000      -1.892912       -51.5088
  57   1.0000      -0.428213       -11.6523
  58   1.0000      -0.397486       -10.8162
  59   1.0000      -0.385910       -10.5012
  60   1.0000      -0.381957       -10.3936
  61   1.0000      -0.378359       -10.2957
  62   1.0000      -0.373384       -10.1603
  63   1.0000      -0.371964       -10.1217
  64   1.0000      -0.367164        -9.9910
  65   1.0000      -0.361328        -9.8322
  66   1.0000      -0.360031        -9.7969
  67   1.0000      -0.357556        -9.7296
  68   1.0000      -0.357472        -9.7273
  69   1.0000      -0.352494        -9.5919
  70   1.0000      -0.348129        -9.4731
  71   1.0000      -0.347619        -9.4592
  72   1.0000      -0.343696        -9.3524
  73   1.0000      -0.342157        -9.3106
  74   1.0000      -0.339368        -9.2347
  75   1.0000      -0.338022        -9.1981
  76   1.0000      -0.337303        -9.1785
  77   1.0000      -0.332935        -9.0596
  78   1.0000      -0.330809        -9.0018
  79   1.0000      -0.329056        -8.9541
  80   1.0000      -0.327309        -8.9065
  81   1.0000      -0.326901        -8.8954
  82   1.0000      -0.325677        -8.8621
  83   1.0000      -0.317127        -8.6295
  84   1.0000      -0.315728        -8.5914
  85   1.0000      -0.309866        -8.4319
  86   1.0000      -0.305872        -8.3232
  87   1.0000      -0.305077        -8.3016
  88   1.0000      -0.300773        -8.1844
  89   1.0000      -0.299833        -8.1589
  90   1.0000      -0.299350        -8.1457
  91   1.0000      -0.294808        -8.0221
  92   1.0000      -0.293747        -7.9933
  93   1.0000      -0.292429        -7.9574
  94   1.0000      -0.287567        -7.8251
  95   1.0000      -0.286805        -7.8044
  96   1.0000      -0.285534        -7.7698
  97   1.0000      -0.285269        -7.7626
  98   1.0000      -0.283740        -7.7209
  99   1.0000      -0.282237        -7.6801
 100   1.0000      -0.282003        -7.6737
 101   1.0000      -0.280108        -7.6221
 102   1.0000      -0.277815        -7.5597
 103   1.0000      -0.275469        -7.4959
 104   1.0000      -0.275104        -7.4859
 105   1.0000      -0.273508        -7.4425
 106   1.0000      -0.272572        -7.4171
 107   1.0000      -0.271647        -7.3919
 108   1.0000      -0.268776        -7.3138
 109   1.0000      -0.268068        -7.2945
 110   1.0000      -0.268020        -7.2932
 111   1.0000      -0.262517        -7.1434
 112   1.0000      -0.261796        -7.1238
 113   1.0000      -0.260565        -7.0903
 114   1.0000      -0.259284        -7.0555
 115   1.0000      -0.255917        -6.9639
 116   1.0000      -0.255439        -6.9508
 117   1.0000      -0.250897        -6.8273
 118   1.0000      -0.249435        -6.7875
 119   1.0000      -0.245690        -6.6856
 120   1.0000      -0.234853        -6.3907
 121   1.0000      -0.221582        -6.0296
 122   1.0000      -0.210512        -5.7283
 123   1.0000      -0.201251        -5.4763
 124   1.0000      -0.156124        -4.2483
 125   0.0000      -0.194478        -5.2920
 126   0.0000      -0.135904        -3.6981
 127   0.0000      -0.124379        -3.3845
 128   0.0000      -0.118802        -3.2328
 129   0.0000      -0.116960        -3.1826

MULLIKEN ATOMIC CHARGES AND SPIN POPULATIONS
--------------------------------------------
   0 Au:    0.244045   -0.198665
   1 Au:    0.079738   -0.033585
   2 Au:    0.247198   -0.134828
   3 Au:    0.246926   -0.135686
   4 Au:    0.041155   -0.090656
   5 Au:    0.079035   -0.034367
   6 Au:    0.247893   -0.050343
   7 Au:    0.314102    0.008982
   8 Au:    0.314134    0.008700
   9 Au:    0.247517   -0.050291
  10 Au:    0.243538   -0.199269
  11 Au:    0.040657   -0.090968
  12 Mn:   -2.345939    4.000977
Sum of atomic charges         :   -0.0000000

LOEWDIN ATOMIC CHARGES AND SPIN POPULATIONS
-------------------------------------------
   0 Au:    0.095518   -0.149960
   1 Au:   -0.016995   -0.064189
   2 Au:    0.028156   -0.110421
   3 Au:    0.028054   -0.110827
   4 Au:    0.022174   -0.091917
   5 Au:   -0.017234   -0.064547
   6 Au:    0.067881   -0.070881
   7 Au:    0.061625   -0.020686
   8 Au:    0.062257   -0.020649
   9 Au:    0.067832   -0.070833
  10 Au:    0.095526   -0.150389
  11 Au:    0.021884   -0.092061
  12 Mn:   -0.516678    4.017359

  Mayer bond orders larger than 0.100000
B(  0-Au,  1-Au) :   0.3055 B(  0-Au,  8-Au) :   0.1731 B(  0-Au, 12-Mn) :   0.5314
B(  1-Au,  2-Au) :   0.2227 B(  1-Au,  3-Au) :   0.3150 B(  1-Au,  4-Au) :   0.1458
B(  1-Au,  5-Au) :   0.1106 B(  1-Au, 11-Au) :   0.1230 B(  1-Au, 12-Mn) :   0.4548
B(  2-Au,  3-Au) :   0.2434 B(  2-Au,  5-Au) :   0.3146 B(  2-Au, 11-Au) :   0.3967
B(  3-Au,  4-Au) :   0.3968 B(  3-Au,  5-Au) :   0.2228 B(  4-Au,  5-Au) :   0.1233
B(  4-Au,  6-Au) :   0.2832 B(  4-Au, 12-Mn) :   0.5440 B(  5-Au, 10-Au) :   0.3056
B(  5-Au, 11-Au) :   0.1460 B(  5-Au, 12-Mn) :   0.4551 B(  6-Au,  7-Au) :   0.1240
B(  6-Au,  8-Au) :   0.1974 B(  6-Au,  9-Au) :   0.1223 B(  6-Au, 12-Mn) :   0.4970
B(  7-Au,  8-Au) :   0.2965 B(  7-Au,  9-Au) :   0.1986 B(  7-Au, 10-Au) :   0.1738
B(  7-Au, 12-Mn) :   0.4032 B(  8-Au,  9-Au) :   0.1232 B(  8-Au, 12-Mn) :   0.4046
B(  9-Au, 11-Au) :   0.2833 B(  9-Au, 12-Mn) :   0.4955 B( 10-Au, 12-Mn) :   0.5309
B( 11-Au, 12-Mn) :   0.5436

FINAL SINGLE POINT ENERGY     -2781.103745667640

DIPOLE MOMENT
-------------
                                X             Y             Z
Electronic contribution:    -10.18077     -17.35156      -7.88637
Nuclear contribution   :     10.49745      17.89479       8.13189
                        -----------------------------------------
Total Dipole Moment    :      0.31667       0.54323       0.24552
                        -----------------------------------------
Magnitude (a.u.)       :      0.67503
Magnitude (Debye)      :      1.71578

Rotational constants in cm-1:     0.001730     0.001168     0.000996
Rotational constants in MHz :    51.861552    35.018381    29.872095

                             ****ORCA TERMINATED NORMALLY****
TOTAL RUN TIME: 0 days 0 hours 24 minutes 7 seconds 799 msec
