                         Program Version 5.0.3 -  RELEASE  -
|  1> !RI-B2PLYP def2-TZVP def2-TZVP/C
|  2> !RIJCOSX VERYSLOWCONV
|  3>
|  4> %scf
|  5>   AutoTRAHIter 200
|  6>   maxiter 400
|  7> end
|  8>
|  9>
| 10> %pal nprocs 6 end
| 11>
| 12> *xyzfile 0 5 pbe.xyz
| 13>
| 14> $new_job
| 15>
| 16> !RI-B2PLYP def2-TZVP def2-TZVP/C
| 17> !RIJCOSX VERYSLOWCONV
| 18>
| 19> %scf
| 20>   AutoTRAHIter 200
| 21>   maxiter 400
| 22> end
| 23>
| 24>
| 25> %pal nprocs 6 end
| 26>
| 27> *xyzfile 0 3 pbe.xyz
| 28>
| 29>
| 30>
| 31>
| 32>
| 33>                          ****END OF INPUT****
 Total Charge           Charge          ....    0
 Multiplicity           Mult            ....    5
 Number of Electrons    NEL             ....  214
MP2 TOTAL ENERGY:    -2400.084937080 Eh
FINAL SINGLE POINT ENERGY     -2400.084937080353

CARTESIAN COORDINATES (ANGSTROEM)
---------------------------------
  Au     9.726124    4.312543    9.480403
  Au    11.272329    5.304325    7.392775
  Au     9.166651    4.418535    5.806529
  Au    10.013793    7.180614    5.770168
  Au     6.639687    5.188048    6.226295
  Au     7.483424    7.948933    6.168043
  Au     7.194215    5.078541    9.875694
  Au     5.935117    6.956714    8.255258
  Au     8.042168    7.836723    9.842813
  Au    10.571299    7.075065    9.419943
  Cr     8.605302    6.129876    7.823281

 Multiplicity           Mult            ....    3
 Number of Electrons    NEL             ....  214
 Basis Dimension        Dim             ....  445

ORBITAL ENERGIES
----------------
                 SPIN UP ORBITALS
  NO   OCC          E(Eh)            E(eV)
   0   1.0000    -217.727170     -5924.6575
   1   1.0000     -25.412088      -691.4981
   2   1.0000     -21.550496      -586.4188
   3   1.0000     -21.549815      -586.4003
   4   1.0000     -21.548474      -586.3638
   5   1.0000      -4.395300      -119.6022
   6   1.0000      -4.395250      -119.6008
   7   1.0000      -4.385880      -119.3459
   8   1.0000      -4.385867      -119.3455
   9   1.0000      -4.385787      -119.3433
  10   1.0000      -4.385773      -119.3430
  11   1.0000      -4.385542      -119.3367
  12   1.0000      -4.385538      -119.3366
  13   1.0000      -4.385456      -119.3343
  14   1.0000      -4.385442      -119.3339
  15   1.0000      -3.201281       -87.1113
  16   1.0000      -2.515224       -68.4427
  17   1.0000      -2.515158       -68.4409
  18   1.0000      -2.513892       -68.4065
  19   1.0000      -2.513658       -68.4001
  20   1.0000      -2.512752       -68.3755
  21   1.0000      -2.512567       -68.3704
  22   1.0000      -2.508882       -68.2701
  23   1.0000      -2.508869       -68.2698
  24   1.0000      -2.508524       -68.2604
  25   1.0000      -2.508478       -68.2592
  26   1.0000      -2.506012       -68.1921
  27   1.0000      -2.505750       -68.1849
  28   1.0000      -2.505529       -68.1789
  29   1.0000      -2.505033       -68.1654
  30   1.0000      -2.504948       -68.1631
  31   1.0000      -2.504801       -68.1591
  32   1.0000      -2.504742       -68.1575
  33   1.0000      -2.504168       -68.1419
  34   1.0000      -2.501331       -68.0647
  35   1.0000      -2.501111       -68.0587
  36   1.0000      -2.500992       -68.0555
  37   1.0000      -2.500703       -68.0476
  38   1.0000      -2.500656       -68.0463
  39   1.0000      -2.500613       -68.0451
  40   1.0000      -2.499943       -68.0269
  41   1.0000      -2.499815       -68.0234
  42   1.0000      -2.498983       -68.0008
  43   1.0000      -2.498941       -67.9996
  44   1.0000      -2.498457       -67.9865
  45   1.0000      -2.498415       -67.9853
  46   1.0000      -2.090027       -56.8725
  47   1.0000      -2.087504       -56.8039
  48   1.0000      -2.085845       -56.7587
  49   1.0000      -0.481356       -13.0984
  50   1.0000      -0.462692       -12.5905
  51   1.0000      -0.461035       -12.5454
  52   1.0000      -0.453772       -12.3478
  53   1.0000      -0.444585       -12.0978
  54   1.0000      -0.443155       -12.0589
  55   1.0000      -0.442955       -12.0534
  56   1.0000      -0.439248       -11.9525
  57   1.0000      -0.438583       -11.9345
  58   1.0000      -0.436843       -11.8871
  59   1.0000      -0.435011       -11.8373
  60   1.0000      -0.433328       -11.7915
  61   1.0000      -0.429771       -11.6947
  62   1.0000      -0.425811       -11.5869
  63   1.0000      -0.424332       -11.5467
  64   1.0000      -0.422862       -11.5067
  65   1.0000      -0.420000       -11.4288
  66   1.0000      -0.410401       -11.1676
  67   1.0000      -0.406929       -11.0731
  68   1.0000      -0.405595       -11.0368
  69   1.0000      -0.404854       -11.0166
  70   1.0000      -0.399735       -10.8774
  71   1.0000      -0.398013       -10.8305
  72   1.0000      -0.394300       -10.7295
  73   1.0000      -0.392852       -10.6901
  74   1.0000      -0.386922       -10.5287
  75   1.0000      -0.386806       -10.5255
  76   1.0000      -0.385873       -10.5001
  77   1.0000      -0.385116       -10.4796
  78   1.0000      -0.381125       -10.3709
  79   1.0000      -0.376140       -10.2353
  80   1.0000      -0.371595       -10.1116
  81   1.0000      -0.364713        -9.9243
  82   1.0000      -0.363753        -9.8982
  83   1.0000      -0.361095        -9.8259
  84   1.0000      -0.360216        -9.8020
  85   1.0000      -0.358201        -9.7471
  86   1.0000      -0.358039        -9.7427
  87   1.0000      -0.357629        -9.7316
  88   1.0000      -0.352567        -9.5938
  89   1.0000      -0.348709        -9.4888
  90   1.0000      -0.345094        -9.3905
  91   1.0000      -0.344552        -9.3757
  92   1.0000      -0.343620        -9.3504
  93   1.0000      -0.341768        -9.3000
  94   1.0000      -0.338230        -9.2037
  95   1.0000      -0.338032        -9.1983
  96   1.0000      -0.335169        -9.1204
  97   1.0000      -0.333378        -9.0717
  98   1.0000      -0.330981        -9.0064
  99   1.0000      -0.327715        -8.9176
 100   1.0000      -0.311521        -8.4769
 101   1.0000      -0.309151        -8.4124
 102   1.0000      -0.303227        -8.2512
 103   1.0000      -0.287157        -7.8140
 104   1.0000      -0.284490        -7.7414
 105   1.0000      -0.280722        -7.6388
 106   1.0000      -0.260319        -7.0836
 107   1.0000      -0.240608        -6.5473
 108   0.0000      -0.105593        -2.8733
 109   0.0000      -0.105570        -2.8727
 110   0.0000      -0.087515        -2.3814
 111   0.0000      -0.080525        -2.1912
 112   0.0000      -0.046354        -1.2614

                 SPIN DOWN ORBITALS
  NO   OCC          E(Eh)            E(eV)
   0   1.0000    -217.725814     -5924.6206
   1   1.0000     -25.341479      -689.5767
   2   1.0000     -21.488302      -584.7264
   3   1.0000     -21.483637      -584.5995
   4   1.0000     -21.481254      -584.5346
   5   1.0000      -4.395628      -119.6111
   6   1.0000      -4.395588      -119.6100
   7   1.0000      -4.385791      -119.3434
   8   1.0000      -4.385776      -119.3430
   9   1.0000      -4.385694      -119.3408
  10   1.0000      -4.385685      -119.3405
  11   1.0000      -4.385452      -119.3342
  12   1.0000      -4.385446      -119.3341
  13   1.0000      -4.385364      -119.3318
  14   1.0000      -4.385350      -119.3314
  15   1.0000      -2.981357       -81.1268
  16   1.0000      -2.514030       -68.4102
  17   1.0000      -2.513932       -68.4076
  18   1.0000      -2.513659       -68.4001
  19   1.0000      -2.513372       -68.3923
  20   1.0000      -2.511890       -68.3520
  21   1.0000      -2.511628       -68.3449
  22   1.0000      -2.507843       -68.2419
  23   1.0000      -2.507784       -68.2403
  24   1.0000      -2.507660       -68.2369
  25   1.0000      -2.507418       -68.2303
  26   1.0000      -2.504937       -68.1628
  27   1.0000      -2.504795       -68.1589
  28   1.0000      -2.504673       -68.1556
  29   1.0000      -2.504537       -68.1519
  30   1.0000      -2.503880       -68.1340
  31   1.0000      -2.503563       -68.1254
  32   1.0000      -2.503349       -68.1196
  33   1.0000      -2.503302       -68.1183
  34   1.0000      -2.500616       -68.0452
  35   1.0000      -2.500428       -68.0401
  36   1.0000      -2.500425       -68.0400
  37   1.0000      -2.500090       -68.0309
  38   1.0000      -2.499957       -68.0273
  39   1.0000      -2.499912       -68.0261
  40   1.0000      -2.499363       -68.0111
  41   1.0000      -2.499281       -68.0089
  42   1.0000      -2.498438       -67.9859
  43   1.0000      -2.498416       -67.9854
  44   1.0000      -2.497875       -67.9706
  45   1.0000      -2.497850       -67.9700
  46   1.0000      -1.843676       -50.1690
  47   1.0000      -1.831652       -49.8418
  48   1.0000      -1.828409       -49.7535
  49   1.0000      -0.472835       -12.8665
  50   1.0000      -0.456037       -12.4094
  51   1.0000      -0.452053       -12.3010
  52   1.0000      -0.450797       -12.2668
  53   1.0000      -0.446806       -12.1582
  54   1.0000      -0.446593       -12.1524
  55   1.0000      -0.442629       -12.0445
  56   1.0000      -0.438982       -11.9453
  57   1.0000      -0.436083       -11.8664
  58   1.0000      -0.431734       -11.7481
  59   1.0000      -0.430580       -11.7167
  60   1.0000      -0.430195       -11.7062
  61   1.0000      -0.426458       -11.6045
  62   1.0000      -0.425321       -11.5736
  63   1.0000      -0.425229       -11.5711
  64   1.0000      -0.423427       -11.5220
  65   1.0000      -0.422410       -11.4944
  66   1.0000      -0.410841       -11.1795
  67   1.0000      -0.410188       -11.1618
  68   1.0000      -0.407481       -11.0881
  69   1.0000      -0.405632       -11.0378
  70   1.0000      -0.400388       -10.8951
  71   1.0000      -0.392419       -10.6783
  72   1.0000      -0.388065       -10.5598
  73   1.0000      -0.387394       -10.5415
  74   1.0000      -0.386907       -10.5283
  75   1.0000      -0.385067       -10.4782
  76   1.0000      -0.384631       -10.4664
  77   1.0000      -0.377252       -10.2656
  78   1.0000      -0.375697       -10.2232
  79   1.0000      -0.372443       -10.1347
  80   1.0000      -0.368080       -10.0160
  81   1.0000      -0.364558        -9.9201
  82   1.0000      -0.364070        -9.9069
  83   1.0000      -0.363921        -9.9028
  84   1.0000      -0.360632        -9.8133
  85   1.0000      -0.360219        -9.8020
  86   1.0000      -0.358855        -9.7649
  87   1.0000      -0.356983        -9.7140
  88   1.0000      -0.352645        -9.5960
  89   1.0000      -0.352008        -9.5786
  90   1.0000      -0.346601        -9.4315
  91   1.0000      -0.344966        -9.3870
  92   1.0000      -0.344444        -9.3728
  93   1.0000      -0.341370        -9.2891
  94   1.0000      -0.340988        -9.2788
  95   1.0000      -0.337471        -9.1831
  96   1.0000      -0.334243        -9.0952
  97   1.0000      -0.332778        -9.0553
  98   1.0000      -0.328300        -8.9335
  99   1.0000      -0.312654        -8.5077
 100   1.0000      -0.309978        -8.4349
 101   1.0000      -0.303445        -8.2572
 102   1.0000      -0.254906        -6.9363
 103   1.0000      -0.220465        -5.9991
 104   1.0000      -0.217906        -5.9295
 105   1.0000      -0.213049        -5.7974
 106   0.0000      -0.101740        -2.7685
 107   0.0000      -0.052081        -1.4172
 108   0.0000      -0.033630        -0.9151
 109   0.0000      -0.031026        -0.8443
 110   0.0000      -0.029401        -0.8000

MULLIKEN ATOMIC CHARGES AND SPIN POPULATIONS
--------------------------------------------
   0 Au:    0.319441   -0.129425
   1 Au:    0.398405   -0.276497
   2 Au:    0.320112   -0.128981
   3 Au:    0.322317   -0.128132
   4 Au:    0.321317   -0.127884
   5 Au:    0.318934   -0.128610
   6 Au:    0.322516   -0.127750
   7 Au:    0.399796   -0.277522
   8 Au:    0.318104   -0.129568
   9 Au:    0.323202   -0.127910
  10 Cr:   -3.364144    3.582280
Sum of atomic charges         :    0.0000000

LOEWDIN ATOMIC CHARGES AND SPIN POPULATIONS
-------------------------------------------
   0 Au:    0.100431   -0.155613
   1 Au:    0.078210   -0.214891
   2 Au:    0.100697   -0.155565
   3 Au:    0.100531   -0.155045
   4 Au:    0.100376   -0.154991
   5 Au:    0.100565   -0.155305
   6 Au:    0.100575   -0.154937
   7 Au:    0.078603   -0.215383
   8 Au:    0.100191   -0.155787
   9 Au:    0.100793   -0.155071
  10 Cr:   -0.960971    3.672589

  Mayer bond orders larger than 0.100000
B(  0-Au,  1-Au) :   0.1660 B(  0-Au,  5-Au) :   0.1024 B(  0-Au,  6-Au) :   0.3840
B(  0-Au, 10-Cr) :   0.5508 B(  1-Au,  2-Au) :   0.1660 B(  1-Au,  3-Au) :   0.1632
B(  1-Au,  9-Au) :   0.1631 B(  1-Au, 10-Cr) :   0.4836 B(  2-Au,  4-Au) :   0.3842
B(  2-Au,  8-Au) :   0.1024 B(  2-Au, 10-Cr) :   0.5505 B(  3-Au,  5-Au) :   0.3846
B(  3-Au,  6-Au) :   0.1025 B(  3-Au, 10-Cr) :   0.5494 B(  4-Au,  7-Au) :   0.1628
B(  4-Au,  9-Au) :   0.1026 B(  4-Au, 10-Cr) :   0.5500 B(  5-Au,  7-Au) :   0.1654
B(  5-Au, 10-Cr) :   0.5505 B(  6-Au,  7-Au) :   0.1627 B(  6-Au, 10-Cr) :   0.5492
B(  7-Au,  8-Au) :   0.1659 B(  7-Au, 10-Cr) :   0.4833 B(  8-Au,  9-Au) :   0.3840
B(  8-Au, 10-Cr) :   0.5507 B(  9-Au, 10-Cr) :   0.5497

MP2 TOTAL ENERGY:    -2400.108405404 Eh
FINAL SINGLE POINT ENERGY     -2400.108405403695

DIPOLE MOMENT
-------------
                                X             Y             Z
Electronic contribution:     -0.02958       0.00456       0.01793
Nuclear contribution   :      0.02869      -0.00447      -0.01785
                        -----------------------------------------
Total Dipole Moment    :     -0.00088       0.00009       0.00007
                        -----------------------------------------
Magnitude (a.u.)       :      0.00089
Magnitude (Debye)      :      0.00226

Rotational constants in cm-1:     0.001939     0.001822     0.001482
Rotational constants in MHz :    58.120353    54.628882    44.428014

                             ****ORCA TERMINATED NORMALLY****
TOTAL RUN TIME: 0 days 1 hours 7 minutes 32 seconds 788 msec
