                         Program Version 5.0.3 -  RELEASE  -
|  1> !PBE def2-TZVP VERYSLOWCONV
|  2>
|  3> %scf
|  4>   AutoTRAHIter 200
|  5>   maxiter 400
|  6> end
|  7>
|  8>
|  9> %pal nprocs 6 end
| 10>
| 11> *xyzfile 0 5 pbe.xyz
| 12>
| 13> $new_job
| 14>
| 15> !PBE def2-TZVP VERYSLOWCONV
| 16>
| 17> %scf
| 18>   AutoTRAHIter 200
| 19>   maxiter 400
| 20> end
| 21>
| 22>
| 23> %pal nprocs 6 end
| 24>
| 25> *xyzfile 0 3 pbe.xyz
| 26>
| 27>
| 28>
| 29>
| 30>
| 31>                          ****END OF INPUT****
 Total Charge           Charge          ....    0
 Multiplicity           Mult            ....    5
 Number of Electrons    NEL             ....  214
FINAL SINGLE POINT ENERGY     -2402.467474646267

CARTESIAN COORDINATES (ANGSTROEM)
---------------------------------
  Au     9.726124    4.312543    9.480403
  Au    11.272329    5.304325    7.392775
  Au     9.166651    4.418535    5.806529
  Au    10.013793    7.180614    5.770168
  Au     6.639687    5.188048    6.226295
  Au     7.483424    7.948933    6.168043
  Au     7.194215    5.078541    9.875694
  Au     5.935117    6.956714    8.255258
  Au     8.042168    7.836723    9.842813
  Au    10.571299    7.075065    9.419943
  Cr     8.605302    6.129876    7.823281

 Multiplicity           Mult            ....    3
 Number of Electrons    NEL             ....  214
 Basis Dimension        Dim             ....  445

ORBITAL ENERGIES
----------------
                 SPIN UP ORBITALS
  NO   OCC          E(Eh)            E(eV)
   0   1.0000    -214.510398     -5837.1247
   1   1.0000     -24.313358      -661.6001
   2   1.0000     -20.677792      -562.6713
   3   1.0000     -20.677548      -562.6647
   4   1.0000     -20.675668      -562.6135
   5   1.0000      -4.024720      -109.5182
   6   1.0000      -4.024621      -109.5155
   7   1.0000      -4.015668      -109.2719
   8   1.0000      -4.015666      -109.2718
   9   1.0000      -4.015604      -109.2701
  10   1.0000      -4.015589      -109.2697
  11   1.0000      -4.015402      -109.2646
  12   1.0000      -4.015395      -109.2645
  13   1.0000      -4.015335      -109.2628
  14   1.0000      -4.015324      -109.2625
  15   1.0000      -2.808164       -76.4140
  16   1.0000      -2.239822       -60.9487
  17   1.0000      -2.239710       -60.9456
  18   1.0000      -2.237864       -60.8954
  19   1.0000      -2.237729       -60.8917
  20   1.0000      -2.236557       -60.8598
  21   1.0000      -2.236436       -60.8565
  22   1.0000      -2.234073       -60.7922
  23   1.0000      -2.234032       -60.7911
  24   1.0000      -2.233664       -60.7811
  25   1.0000      -2.233637       -60.7804
  26   1.0000      -2.232182       -60.7408
  27   1.0000      -2.232041       -60.7369
  28   1.0000      -2.231440       -60.7206
  29   1.0000      -2.231347       -60.7180
  30   1.0000      -2.231285       -60.7164
  31   1.0000      -2.230910       -60.7061
  32   1.0000      -2.230765       -60.7022
  33   1.0000      -2.230315       -60.6900
  34   1.0000      -2.227800       -60.6215
  35   1.0000      -2.227602       -60.6161
  36   1.0000      -2.227506       -60.6135
  37   1.0000      -2.227305       -60.6081
  38   1.0000      -2.224173       -60.5228
  39   1.0000      -2.224131       -60.5217
  40   1.0000      -2.223589       -60.5069
  41   1.0000      -2.223548       -60.5058
  42   1.0000      -2.222955       -60.4897
  43   1.0000      -2.222930       -60.4890
  44   1.0000      -2.222447       -60.4759
  45   1.0000      -2.222428       -60.4753
  46   1.0000      -1.798430       -48.9378
  47   1.0000      -1.797423       -48.9104
  48   1.0000      -1.795390       -48.8551
  49   1.0000      -0.407786       -11.0964
  50   1.0000      -0.365805        -9.9541
  51   1.0000      -0.361206        -9.8289
  52   1.0000      -0.360940        -9.8217
  53   1.0000      -0.357927        -9.7397
  54   1.0000      -0.349281        -9.5044
  55   1.0000      -0.344070        -9.3626
  56   1.0000      -0.343795        -9.3551
  57   1.0000      -0.337665        -9.1883
  58   1.0000      -0.336738        -9.1631
  59   1.0000      -0.333320        -9.0701
  60   1.0000      -0.333073        -9.0634
  61   1.0000      -0.329570        -8.9681
  62   1.0000      -0.329254        -8.9595
  63   1.0000      -0.323852        -8.8125
  64   1.0000      -0.319774        -8.7015
  65   1.0000      -0.319229        -8.6867
  66   1.0000      -0.313245        -8.5238
  67   1.0000      -0.312497        -8.5035
  68   1.0000      -0.305300        -8.3076
  69   1.0000      -0.303022        -8.2456
  70   1.0000      -0.300587        -8.1794
  71   1.0000      -0.299936        -8.1617
  72   1.0000      -0.298531        -8.1235
  73   1.0000      -0.298137        -8.1127
  74   1.0000      -0.289246        -7.8708
  75   1.0000      -0.286708        -7.8017
  76   1.0000      -0.284824        -7.7505
  77   1.0000      -0.284334        -7.7371
  78   1.0000      -0.282661        -7.6916
  79   1.0000      -0.277071        -7.5395
  80   1.0000      -0.272636        -7.4188
  81   1.0000      -0.268892        -7.3169
  82   1.0000      -0.265807        -7.2330
  83   1.0000      -0.265416        -7.2223
  84   1.0000      -0.264702        -7.2029
  85   1.0000      -0.263374        -7.1668
  86   1.0000      -0.261137        -7.1059
  87   1.0000      -0.260842        -7.0979
  88   1.0000      -0.260632        -7.0922
  89   1.0000      -0.255092        -6.9414
  90   1.0000      -0.251799        -6.8518
  91   1.0000      -0.248872        -6.7722
  92   1.0000      -0.248712        -6.7678
  93   1.0000      -0.248504        -6.7621
  94   1.0000      -0.246049        -6.6953
  95   1.0000      -0.244826        -6.6621
  96   1.0000      -0.241476        -6.5709
  97   1.0000      -0.240928        -6.5560
  98   1.0000      -0.239571        -6.5191
  99   1.0000      -0.237792        -6.4706
 100   1.0000      -0.235899        -6.4191
 101   1.0000      -0.225286        -6.1304
 102   1.0000      -0.217375        -5.9151
 103   1.0000      -0.215815        -5.8726
 104   1.0000      -0.215638        -5.8678
 105   1.0000      -0.213137        -5.7997
 106   1.0000      -0.211293        -5.7496
 107   1.0000      -0.207900        -5.6572
 108   0.0000      -0.171652        -4.6709
 109   0.0000      -0.169065        -4.6005
 110   0.0000      -0.162377        -4.4185
 111   0.0000      -0.148835        -4.0500
 112   0.0000      -0.113668        -3.0931

                 SPIN DOWN ORBITALS
  NO   OCC          E(Eh)            E(eV)
   0   1.0000    -214.509991     -5837.1136
   1   1.0000     -24.271070      -660.4494
   2   1.0000     -20.647323      -561.8422
   3   1.0000     -20.645823      -561.8014
   4   1.0000     -20.640906      -561.6676
   5   1.0000      -4.024740      -109.5187
   6   1.0000      -4.024647      -109.5162
   7   1.0000      -4.015247      -109.2604
   8   1.0000      -4.015245      -109.2604
   9   1.0000      -4.015181      -109.2586
  10   1.0000      -4.015170      -109.2583
  11   1.0000      -4.014982      -109.2532
  12   1.0000      -4.014974      -109.2530
  13   1.0000      -4.014914      -109.2514
  14   1.0000      -4.014904      -109.2511
  15   1.0000      -2.694463       -73.3201
  16   1.0000      -2.239544       -60.9411
  17   1.0000      -2.239438       -60.9382
  18   1.0000      -2.238131       -60.9026
  19   1.0000      -2.237996       -60.8990
  20   1.0000      -2.236447       -60.8568
  21   1.0000      -2.236318       -60.8533
  22   1.0000      -2.233420       -60.7744
  23   1.0000      -2.233407       -60.7741
  24   1.0000      -2.233085       -60.7653
  25   1.0000      -2.233064       -60.7648
  26   1.0000      -2.231342       -60.7179
  27   1.0000      -2.231235       -60.7150
  28   1.0000      -2.231010       -60.7089
  29   1.0000      -2.230672       -60.6997
  30   1.0000      -2.230503       -60.6951
  31   1.0000      -2.230384       -60.6918
  32   1.0000      -2.230304       -60.6897
  33   1.0000      -2.229903       -60.6787
  34   1.0000      -2.227633       -60.6170
  35   1.0000      -2.227455       -60.6121
  36   1.0000      -2.227382       -60.6101
  37   1.0000      -2.227184       -60.6047
  38   1.0000      -2.223724       -60.5106
  39   1.0000      -2.223680       -60.5094
  40   1.0000      -2.223176       -60.4957
  41   1.0000      -2.223134       -60.4946
  42   1.0000      -2.222558       -60.4789
  43   1.0000      -2.222532       -60.4782
  44   1.0000      -2.222066       -60.4655
  45   1.0000      -2.222044       -60.4649
  46   1.0000      -1.691719       -46.0340
  47   1.0000      -1.688210       -45.9385
  48   1.0000      -1.675405       -45.5901
  49   1.0000      -0.401355       -10.9214
  50   1.0000      -0.365997        -9.9593
  51   1.0000      -0.361643        -9.8408
  52   1.0000      -0.356683        -9.7058
  53   1.0000      -0.352333        -9.5875
  54   1.0000      -0.349368        -9.5068
  55   1.0000      -0.344661        -9.3787
  56   1.0000      -0.343933        -9.3589
  57   1.0000      -0.337133        -9.1738
  58   1.0000      -0.331942        -9.0326
  59   1.0000      -0.330727        -8.9995
  60   1.0000      -0.329840        -8.9754
  61   1.0000      -0.328625        -8.9423
  62   1.0000      -0.328250        -8.9321
  63   1.0000      -0.324486        -8.8297
  64   1.0000      -0.320872        -8.7314
  65   1.0000      -0.319296        -8.6885
  66   1.0000      -0.313958        -8.5432
  67   1.0000      -0.312486        -8.5032
  68   1.0000      -0.305959        -8.3256
  69   1.0000      -0.303783        -8.2664
  70   1.0000      -0.299833        -8.1589
  71   1.0000      -0.299107        -8.1391
  72   1.0000      -0.294339        -8.0094
  73   1.0000      -0.293407        -7.9840
  74   1.0000      -0.290100        -7.8940
  75   1.0000      -0.287240        -7.8162
  76   1.0000      -0.284812        -7.7501
  77   1.0000      -0.281624        -7.6634
  78   1.0000      -0.278019        -7.5653
  79   1.0000      -0.277411        -7.5487
  80   1.0000      -0.273544        -7.4435
  81   1.0000      -0.270192        -7.3523
  82   1.0000      -0.267194        -7.2707
  83   1.0000      -0.266163        -7.2427
  84   1.0000      -0.265465        -7.2237
  85   1.0000      -0.263113        -7.1597
  86   1.0000      -0.262585        -7.1453
  87   1.0000      -0.261809        -7.1242
  88   1.0000      -0.261388        -7.1127
  89   1.0000      -0.255712        -6.9583
  90   1.0000      -0.253250        -6.8913
  91   1.0000      -0.250203        -6.8084
  92   1.0000      -0.248995        -6.7755
  93   1.0000      -0.248891        -6.7727
  94   1.0000      -0.246555        -6.7091
  95   1.0000      -0.245377        -6.6770
  96   1.0000      -0.244138        -6.6433
  97   1.0000      -0.242664        -6.6032
  98   1.0000      -0.241159        -6.5623
  99   1.0000      -0.238294        -6.4843
 100   1.0000      -0.237970        -6.4755
 101   1.0000      -0.225824        -6.1450
 102   1.0000      -0.217294        -5.9129
 103   1.0000      -0.200641        -5.4597
 104   1.0000      -0.198784        -5.4092
 105   1.0000      -0.195393        -5.3169
 106   0.0000      -0.168654        -4.5893
 107   0.0000      -0.121633        -3.3098
 108   0.0000      -0.118731        -3.2308
 109   0.0000      -0.117465        -3.1964
 110   0.0000      -0.117260        -3.1908

MULLIKEN ATOMIC CHARGES AND SPIN POPULATIONS
--------------------------------------------
   0 Au:    0.343892   -0.053173
   1 Au:    0.459033   -0.165217
   2 Au:    0.344400   -0.053112
   3 Au:    0.346590   -0.052403
   4 Au:    0.345794   -0.052241
   5 Au:    0.343000   -0.052852
   6 Au:    0.346371   -0.052377
   7 Au:    0.459818   -0.165707
   8 Au:    0.342731   -0.053307
   9 Au:    0.347255   -0.052423
  10 Cr:   -3.678884    2.752811
Sum of atomic charges         :   -0.0000000

LOEWDIN ATOMIC CHARGES AND SPIN POPULATIONS
-------------------------------------------
   0 Au:    0.115068   -0.074052
   1 Au:    0.075783   -0.137435
   2 Au:    0.115261   -0.074094
   3 Au:    0.114860   -0.073738
   4 Au:    0.114761   -0.073624
   5 Au:    0.115134   -0.073862
   6 Au:    0.114804   -0.073786
   7 Au:    0.075985   -0.137750
   8 Au:    0.114845   -0.074195
   9 Au:    0.115055   -0.073832
  10 Cr:   -1.071556    2.866366

  Mayer bond orders larger than 0.100000
B(  0-Au,  1-Au) :   0.2113 B(  0-Au,  5-Au) :   0.1068 B(  0-Au,  6-Au) :   0.4253
B(  0-Au, 10-Cr) :   0.7076 B(  1-Au,  2-Au) :   0.2112 B(  1-Au,  3-Au) :   0.2083
B(  1-Au,  9-Au) :   0.2082 B(  1-Au, 10-Cr) :   0.5885 B(  2-Au,  4-Au) :   0.4255
B(  2-Au,  8-Au) :   0.1068 B(  2-Au, 10-Cr) :   0.7065 B(  3-Au,  5-Au) :   0.4259
B(  3-Au,  6-Au) :   0.1074 B(  3-Au, 10-Cr) :   0.7058 B(  4-Au,  7-Au) :   0.2078
B(  4-Au,  9-Au) :   0.1075 B(  4-Au, 10-Cr) :   0.7059 B(  5-Au,  7-Au) :   0.2108
B(  5-Au, 10-Cr) :   0.7068 B(  6-Au,  7-Au) :   0.2079 B(  6-Au, 10-Cr) :   0.7050
B(  7-Au,  8-Au) :   0.2111 B(  7-Au, 10-Cr) :   0.5880 B(  8-Au,  9-Au) :   0.4253
B(  8-Au, 10-Cr) :   0.7066 B(  9-Au, 10-Cr) :   0.7055

FINAL SINGLE POINT ENERGY     -2402.485309571858

DIPOLE MOMENT
-------------
                                X             Y             Z
Electronic contribution:     -0.02899       0.00439       0.01778
Nuclear contribution   :      0.02869      -0.00447      -0.01785
                        -----------------------------------------
Total Dipole Moment    :     -0.00030      -0.00008      -0.00008
                        -----------------------------------------
Magnitude (a.u.)       :      0.00032
Magnitude (Debye)      :      0.00082

Rotational constants in cm-1:     0.001939     0.001822     0.001482
Rotational constants in MHz :    58.120353    54.628882    44.428014

                             ****ORCA TERMINATED NORMALLY****
TOTAL RUN TIME: 0 days 2 hours 6 minutes 3 seconds 708 msec
