                         Program Version 5.0.3 -  RELEASE  -
|  1> !R2SCAN def2-TZVP VERYSLOWCONV
|  2> !KDIIS
|  3> %scf
|  4>   AutoTRAHIter 200
|  5>   maxiter 400
|  6> end
|  7>
|  8> %pal nprocs 6 end
|  9>
| 10> *xyzfile 0 5 pbe.xyz
| 11>
| 12> $new_job
| 13>
| 14> !R2SCAN def2-TZVP VERYSLOWCONV
| 15> !KDIIS
| 16> %scf
| 17>   AutoTRAHIter 200
| 18>   maxiter 400
| 19> end
| 20>
| 21>
| 22> %pal nprocs 6 end
| 23>
| 24> *xyzfile 0 3 pbe.xyz
| 25>
| 26>
| 27>
| 28>
| 29>
| 30>                          ****END OF INPUT****
 Total Charge           Charge          ....    0
 Multiplicity           Mult            ....    5
 Number of Electrons    NEL             ....  214
FINAL SINGLE POINT ENERGY     -2402.848361421242

CARTESIAN COORDINATES (ANGSTROEM)
---------------------------------
  Au     9.726124    4.312543    9.480403
  Au    11.272329    5.304325    7.392775
  Au     9.166651    4.418535    5.806529
  Au    10.013793    7.180614    5.770168
  Au     6.639687    5.188048    6.226295
  Au     7.483424    7.948933    6.168043
  Au     7.194215    5.078541    9.875694
  Au     5.935117    6.956714    8.255258
  Au     8.042168    7.836723    9.842813
  Au    10.571299    7.075065    9.419943
  Cr     8.605302    6.129876    7.823281

 Multiplicity           Mult            ....    3
 Number of Electrons    NEL             ....  214
 Basis Dimension        Dim             ....  445

ORBITAL ENERGIES
----------------
                 SPIN UP ORBITALS
  NO   OCC          E(Eh)            E(eV)
   0   1.0000    -215.304118     -5858.7229
   1   1.0000     -24.607137      -669.5942
   2   1.0000     -20.874374      -568.0206
   3   1.0000     -20.873404      -567.9942
   4   1.0000     -20.872875      -567.9798
   5   1.0000      -4.115025      -111.9755
   6   1.0000      -4.114942      -111.9733
   7   1.0000      -4.105987      -111.7296
   8   1.0000      -4.105986      -111.7295
   9   1.0000      -4.105914      -111.7276
  10   1.0000      -4.105900      -111.7272
  11   1.0000      -4.105694      -111.7216
  12   1.0000      -4.105688      -111.7214
  13   1.0000      -4.105618      -111.7195
  14   1.0000      -4.105608      -111.7193
  15   1.0000      -2.920789       -79.4787
  16   1.0000      -2.302899       -62.6651
  17   1.0000      -2.302801       -62.6624
  18   1.0000      -2.301314       -62.6219
  19   1.0000      -2.301163       -62.6178
  20   1.0000      -2.299997       -62.5861
  21   1.0000      -2.299867       -62.5826
  22   1.0000      -2.297235       -62.5109
  23   1.0000      -2.297203       -62.5101
  24   1.0000      -2.296837       -62.5001
  25   1.0000      -2.296823       -62.4997
  26   1.0000      -2.295068       -62.4520
  27   1.0000      -2.294934       -62.4483
  28   1.0000      -2.294475       -62.4358
  29   1.0000      -2.294281       -62.4306
  30   1.0000      -2.294130       -62.4265
  31   1.0000      -2.294038       -62.4239
  32   1.0000      -2.293851       -62.4189
  33   1.0000      -2.293377       -62.4060
  34   1.0000      -2.290855       -62.3373
  35   1.0000      -2.290643       -62.3316
  36   1.0000      -2.290561       -62.3293
  37   1.0000      -2.290341       -62.3233
  38   1.0000      -2.287686       -62.2511
  39   1.0000      -2.287642       -62.2499
  40   1.0000      -2.287073       -62.2344
  41   1.0000      -2.287028       -62.2332
  42   1.0000      -2.286385       -62.2157
  43   1.0000      -2.286358       -62.2150
  44   1.0000      -2.285852       -62.2012
  45   1.0000      -2.285831       -62.2006
  46   1.0000      -1.867989       -50.8306
  47   1.0000      -1.866494       -50.7899
  48   1.0000      -1.865930       -50.7745
  49   1.0000      -0.412800       -11.2329
  50   1.0000      -0.370683       -10.0868
  51   1.0000      -0.368758       -10.0344
  52   1.0000      -0.366928        -9.9846
  53   1.0000      -0.366738        -9.9795
  54   1.0000      -0.357582        -9.7303
  55   1.0000      -0.352426        -9.5900
  56   1.0000      -0.351969        -9.5776
  57   1.0000      -0.346285        -9.4229
  58   1.0000      -0.343344        -9.3429
  59   1.0000      -0.342652        -9.3240
  60   1.0000      -0.341945        -9.3048
  61   1.0000      -0.338577        -9.2132
  62   1.0000      -0.337867        -9.1938
  63   1.0000      -0.332210        -9.0399
  64   1.0000      -0.329078        -8.9547
  65   1.0000      -0.327857        -8.9214
  66   1.0000      -0.321296        -8.7429
  67   1.0000      -0.320483        -8.7208
  68   1.0000      -0.313695        -8.5361
  69   1.0000      -0.312055        -8.4914
  70   1.0000      -0.308963        -8.4073
  71   1.0000      -0.307637        -8.3712
  72   1.0000      -0.306676        -8.3451
  73   1.0000      -0.306096        -8.3293
  74   1.0000      -0.297674        -8.1001
  75   1.0000      -0.295273        -8.0348
  76   1.0000      -0.293241        -7.9795
  77   1.0000      -0.292868        -7.9693
  78   1.0000      -0.290106        -7.8942
  79   1.0000      -0.285227        -7.7614
  80   1.0000      -0.280911        -7.6440
  81   1.0000      -0.276460        -7.5229
  82   1.0000      -0.273851        -7.4519
  83   1.0000      -0.272896        -7.4259
  84   1.0000      -0.272283        -7.4092
  85   1.0000      -0.271181        -7.3792
  86   1.0000      -0.269411        -7.3310
  87   1.0000      -0.268792        -7.3142
  88   1.0000      -0.266497        -7.2518
  89   1.0000      -0.263050        -7.1579
  90   1.0000      -0.258756        -7.0411
  91   1.0000      -0.256680        -6.9846
  92   1.0000      -0.256659        -6.9840
  93   1.0000      -0.255529        -6.9533
  94   1.0000      -0.253986        -6.9113
  95   1.0000      -0.251490        -6.8434
  96   1.0000      -0.248340        -6.7577
  97   1.0000      -0.246199        -6.6994
  98   1.0000      -0.244647        -6.6572
  99   1.0000      -0.244583        -6.6555
 100   1.0000      -0.239488        -6.5168
 101   1.0000      -0.231952        -6.3117
 102   1.0000      -0.231239        -6.2923
 103   1.0000      -0.222458        -6.0534
 104   1.0000      -0.217068        -5.9067
 105   1.0000      -0.216724        -5.8974
 106   1.0000      -0.215540        -5.8651
 107   1.0000      -0.214753        -5.8437
 108   0.0000      -0.168662        -4.5895
 109   0.0000      -0.166676        -4.5355
 110   0.0000      -0.159148        -4.3306
 111   0.0000      -0.144835        -3.9412
 112   0.0000      -0.104368        -2.8400

                 SPIN DOWN ORBITALS
  NO   OCC          E(Eh)            E(eV)
   0   1.0000    -215.303496     -5858.7060
   1   1.0000     -24.548173      -667.9898
   2   1.0000     -20.831192      -566.8455
   3   1.0000     -20.828083      -566.7610
   4   1.0000     -20.825084      -566.6793
   5   1.0000      -4.115320      -111.9836
   6   1.0000      -4.115243      -111.9815
   7   1.0000      -4.105752      -111.7232
   8   1.0000      -4.105748      -111.7231
   9   1.0000      -4.105675      -111.7211
  10   1.0000      -4.105665      -111.7208
  11   1.0000      -4.105457      -111.7152
  12   1.0000      -4.105449      -111.7150
  13   1.0000      -4.105380      -111.7131
  14   1.0000      -4.105370      -111.7128
  15   1.0000      -2.766015       -75.2671
  16   1.0000      -2.302813       -62.6627
  17   1.0000      -2.302723       -62.6603
  18   1.0000      -2.301503       -62.6271
  19   1.0000      -2.301359       -62.6232
  20   1.0000      -2.299829       -62.5815
  21   1.0000      -2.299696       -62.5779
  22   1.0000      -2.296703       -62.4965
  23   1.0000      -2.296689       -62.4961
  24   1.0000      -2.296331       -62.4864
  25   1.0000      -2.296308       -62.4857
  26   1.0000      -2.294458       -62.4354
  27   1.0000      -2.294348       -62.4324
  28   1.0000      -2.294098       -62.4256
  29   1.0000      -2.293733       -62.4157
  30   1.0000      -2.293574       -62.4113
  31   1.0000      -2.293440       -62.4077
  32   1.0000      -2.293391       -62.4064
  33   1.0000      -2.292949       -62.3943
  34   1.0000      -2.290462       -62.3266
  35   1.0000      -2.290267       -62.3213
  36   1.0000      -2.290213       -62.3199
  37   1.0000      -2.289996       -62.3140
  38   1.0000      -2.287256       -62.2394
  39   1.0000      -2.287210       -62.2381
  40   1.0000      -2.286677       -62.2237
  41   1.0000      -2.286633       -62.2224
  42   1.0000      -2.285994       -62.2051
  43   1.0000      -2.285966       -62.2043
  44   1.0000      -2.285475       -62.1909
  45   1.0000      -2.285452       -62.1903
  46   1.0000      -1.719741       -46.7965
  47   1.0000      -1.712964       -46.6121
  48   1.0000      -1.704493       -46.3816
  49   1.0000      -0.406272       -11.0552
  50   1.0000      -0.372324       -10.1315
  51   1.0000      -0.368597       -10.0300
  52   1.0000      -0.364048        -9.9062
  53   1.0000      -0.360605        -9.8126
  54   1.0000      -0.358046        -9.7429
  55   1.0000      -0.353797        -9.6273
  56   1.0000      -0.352646        -9.5960
  57   1.0000      -0.344767        -9.3816
  58   1.0000      -0.340289        -9.2597
  59   1.0000      -0.340062        -9.2536
  60   1.0000      -0.338807        -9.2194
  61   1.0000      -0.337202        -9.1757
  62   1.0000      -0.336855        -9.1663
  63   1.0000      -0.333594        -9.0775
  64   1.0000      -0.329948        -8.9783
  65   1.0000      -0.328693        -8.9442
  66   1.0000      -0.322722        -8.7817
  67   1.0000      -0.321536        -8.7494
  68   1.0000      -0.315257        -8.5786
  69   1.0000      -0.312994        -8.5170
  70   1.0000      -0.308395        -8.3919
  71   1.0000      -0.307913        -8.3787
  72   1.0000      -0.301982        -8.2173
  73   1.0000      -0.300265        -8.1706
  74   1.0000      -0.298838        -8.1318
  75   1.0000      -0.295981        -8.0540
  76   1.0000      -0.293741        -7.9931
  77   1.0000      -0.289456        -7.8765
  78   1.0000      -0.286863        -7.8059
  79   1.0000      -0.284378        -7.7383
  80   1.0000      -0.282451        -7.6859
  81   1.0000      -0.278911        -7.5895
  82   1.0000      -0.275206        -7.4887
  83   1.0000      -0.274826        -7.4784
  84   1.0000      -0.274155        -7.4602
  85   1.0000      -0.271299        -7.3824
  86   1.0000      -0.270392        -7.3577
  87   1.0000      -0.270085        -7.3494
  88   1.0000      -0.269918        -7.3448
  89   1.0000      -0.264375        -7.1940
  90   1.0000      -0.261338        -7.1114
  91   1.0000      -0.257941        -7.0189
  92   1.0000      -0.256984        -6.9929
  93   1.0000      -0.256447        -6.9783
  94   1.0000      -0.253991        -6.9114
  95   1.0000      -0.252777        -6.8784
  96   1.0000      -0.251051        -6.8315
  97   1.0000      -0.250196        -6.8082
  98   1.0000      -0.248701        -6.7675
  99   1.0000      -0.245163        -6.6712
 100   1.0000      -0.243622        -6.6293
 101   1.0000      -0.232475        -6.3260
 102   1.0000      -0.221135        -6.0174
 103   1.0000      -0.200803        -5.4641
 104   1.0000      -0.200723        -5.4619
 105   1.0000      -0.196693        -5.3523
 106   0.0000      -0.165288        -4.4977
 107   0.0000      -0.107462        -2.9242
 108   0.0000      -0.102710        -2.7949
 109   0.0000      -0.098716        -2.6862
 110   0.0000      -0.095112        -2.5881

MULLIKEN ATOMIC CHARGES AND SPIN POPULATIONS
--------------------------------------------
   0 Au:    0.309643   -0.084463
   1 Au:    0.402127   -0.226193
   2 Au:    0.310171   -0.084344
   3 Au:    0.312297   -0.083473
   4 Au:    0.311633   -0.083291
   5 Au:    0.308952   -0.083993
   6 Au:    0.312243   -0.083352
   7 Au:    0.402858   -0.226881
   8 Au:    0.308670   -0.084582
   9 Au:    0.312975   -0.083511
  10 Cr:   -3.291568    3.124083
Sum of atomic charges         :   -0.0000000

LOEWDIN ATOMIC CHARGES AND SPIN POPULATIONS
-------------------------------------------
   0 Au:    0.109840   -0.099367
   1 Au:    0.072017   -0.169395
   2 Au:    0.110039   -0.099441
   3 Au:    0.109685   -0.099034
   4 Au:    0.109575   -0.098936
   5 Au:    0.109929   -0.099133
   6 Au:    0.109661   -0.099041
   7 Au:    0.072244   -0.169782
   8 Au:    0.109629   -0.099559
   9 Au:    0.109870   -0.099138
  10 Cr:   -1.022488    3.132825

  Mayer bond orders larger than 0.100000
B(  0-Au,  1-Au) :   0.2012 B(  0-Au,  6-Au) :   0.4273 B(  0-Au, 10-Cr) :   0.6902
B(  1-Au,  2-Au) :   0.2011 B(  1-Au,  3-Au) :   0.1981 B(  1-Au,  9-Au) :   0.1980
B(  1-Au, 10-Cr) :   0.5812 B(  2-Au,  4-Au) :   0.4275 B(  2-Au, 10-Cr) :   0.6889
B(  3-Au,  5-Au) :   0.4279 B(  3-Au, 10-Cr) :   0.6888 B(  4-Au,  7-Au) :   0.1976
B(  4-Au, 10-Cr) :   0.6888 B(  5-Au,  7-Au) :   0.2007 B(  5-Au, 10-Cr) :   0.6893
B(  6-Au,  7-Au) :   0.1977 B(  6-Au, 10-Cr) :   0.6879 B(  7-Au,  8-Au) :   0.2010
B(  7-Au, 10-Cr) :   0.5808 B(  8-Au,  9-Au) :   0.4274 B(  8-Au, 10-Cr) :   0.6891
B(  9-Au, 10-Cr) :   0.6883

FINAL SINGLE POINT ENERGY     -2402.874152031682

DIPOLE MOMENT
-------------
                                X             Y             Z
Electronic contribution:     -0.02922       0.00445       0.01782
Nuclear contribution   :      0.02869      -0.00447      -0.01785
                        -----------------------------------------
Total Dipole Moment    :     -0.00053      -0.00002      -0.00003
                        -----------------------------------------
Magnitude (a.u.)       :      0.00053
Magnitude (Debye)      :      0.00135

Rotational constants in cm-1:     0.001939     0.001822     0.001482
Rotational constants in MHz :    58.120353    54.628882    44.428014

                             ****ORCA TERMINATED NORMALLY****
TOTAL RUN TIME: 0 days 0 hours 40 minutes 13 seconds 66 msec
