                         Program Version 5.0.3 -  RELEASE  -
|  1> %pal nprocs 1 end
|  2>
|  3> !PBE def2-TZVP OPT UNO
|  4> !SLOWCONV KDIIS
|  5>
|  6> %geom maxiter 300 end
|  7>
|  8> *xyzfile 0 4 7.xyz                           ****END OF INPUT****
 Total Charge           Charge          ....    0
 Multiplicity           Mult            ....    4
 Number of Electrons    NEL             ....  215
FINAL SINGLE POINT ENERGY     -2509.018137706674
FINAL SINGLE POINT ENERGY     -2509.021668094420
FINAL SINGLE POINT ENERGY     -2509.023955771344
FINAL SINGLE POINT ENERGY     -2509.025045541542
FINAL SINGLE POINT ENERGY     -2509.026001486826
FINAL SINGLE POINT ENERGY     -2509.026698588630
FINAL SINGLE POINT ENERGY     -2509.027315912082
FINAL SINGLE POINT ENERGY     -2509.027732353445
FINAL SINGLE POINT ENERGY     -2509.028018514665
FINAL SINGLE POINT ENERGY     -2509.028247425981
FINAL SINGLE POINT ENERGY     -2509.028706642913
FINAL SINGLE POINT ENERGY     -2509.028717887634
FINAL SINGLE POINT ENERGY     -2509.028729955356
FINAL SINGLE POINT ENERGY     -2509.028739693430
FINAL SINGLE POINT ENERGY     -2509.028746925992
FINAL SINGLE POINT ENERGY     -2509.028752124960
FINAL SINGLE POINT ENERGY     -2509.028755677542
FINAL SINGLE POINT ENERGY     -2509.028757914647
FINAL SINGLE POINT ENERGY     -2509.028758845706
                    ***********************HURRAY********************

CARTESIAN COORDINATES (ANGSTROEM)
---------------------------------
  Au     9.987195    6.918108    9.004506
  Au     7.389454    5.457965    9.076965
  Au     4.130051    9.619421    8.903599
  Au     5.607455    7.371237    9.037313
  Au     9.348285    9.498729    8.655997
  Au     6.683039    9.953949    8.339745
  Au     8.224065    7.252022    4.903576
  Au     8.160989    9.705494    6.013941
  Au     9.871842    4.205590    8.884253
  Au     8.887850    5.296933    6.586029
  Mn     7.820757    7.563559    7.537503

 Multiplicity           Mult            ....    4
 Number of Electrons    NEL             ....  215
 Basis Dimension        Dim             ....  445

ORBITAL ENERGIES
----------------
                 SPIN UP ORBITALS
  NO   OCC          E(Eh)            E(eV)
   0   1.0000    -234.201372     -6372.9433
   1   1.0000     -26.898371      -731.9419
   2   1.0000     -23.048278      -627.1755
   3   1.0000     -23.046770      -627.1345
   4   1.0000     -23.045643      -627.1038
   5   1.0000      -4.028208      -109.6131
   6   1.0000      -4.027382      -109.5906
   7   1.0000      -4.025542      -109.5406
   8   1.0000      -4.023612      -109.4881
   9   1.0000      -4.022295      -109.4522
  10   1.0000      -4.021725      -109.4367
  11   1.0000      -4.020677      -109.4082
  12   1.0000      -4.020213      -109.3955
  13   1.0000      -4.016448      -109.2931
  14   1.0000      -4.005179      -108.9865
  15   1.0000      -3.105780       -84.5126
  16   1.0000      -2.248077       -61.1733
  17   1.0000      -2.246892       -61.1410
  18   1.0000      -2.243086       -61.0375
  19   1.0000      -2.242170       -61.0126
  20   1.0000      -2.241379       -60.9910
  21   1.0000      -2.240854       -60.9768
  22   1.0000      -2.240744       -60.9738
  23   1.0000      -2.240170       -60.9581
  24   1.0000      -2.238789       -60.9205
  25   1.0000      -2.238327       -60.9080
  26   1.0000      -2.238228       -60.9053
  27   1.0000      -2.237183       -60.8768
  28   1.0000      -2.236007       -60.8448
  29   1.0000      -2.235237       -60.8239
  30   1.0000      -2.234997       -60.8174
  31   1.0000      -2.234191       -60.7954
  32   1.0000      -2.233004       -60.7631
  33   1.0000      -2.232933       -60.7612
  34   1.0000      -2.232543       -60.7506
  35   1.0000      -2.231441       -60.7206
  36   1.0000      -2.231255       -60.7155
  37   1.0000      -2.230631       -60.6986
  38   1.0000      -2.230036       -60.6824
  39   1.0000      -2.228603       -60.6434
  40   1.0000      -2.228102       -60.6297
  41   1.0000      -2.225105       -60.5482
  42   1.0000      -2.223989       -60.5178
  43   1.0000      -2.223043       -60.4921
  44   1.0000      -2.218728       -60.3747
  45   1.0000      -2.211229       -60.1706
  46   1.0000      -2.011523       -54.7363
  47   1.0000      -2.007944       -54.6389
  48   1.0000      -2.005140       -54.5626
  49   1.0000      -0.407288       -11.0829
  50   1.0000      -0.383703       -10.4411
  51   1.0000      -0.373824       -10.1723
  52   1.0000      -0.370295       -10.0762
  53   1.0000      -0.361112        -9.8263
  54   1.0000      -0.358169        -9.7463
  55   1.0000      -0.350454        -9.5363
  56   1.0000      -0.348730        -9.4894
  57   1.0000      -0.340149        -9.2559
  58   1.0000      -0.337090        -9.1727
  59   1.0000      -0.333969        -9.0878
  60   1.0000      -0.331830        -9.0296
  61   1.0000      -0.329702        -8.9717
  62   1.0000      -0.325783        -8.8650
  63   1.0000      -0.323707        -8.8085
  64   1.0000      -0.322003        -8.7622
  65   1.0000      -0.319293        -8.6884
  66   1.0000      -0.317877        -8.6499
  67   1.0000      -0.314370        -8.5545
  68   1.0000      -0.310589        -8.4515
  69   1.0000      -0.305506        -8.3133
  70   1.0000      -0.300387        -8.1740
  71   1.0000      -0.297881        -8.1058
  72   1.0000      -0.295413        -8.0386
  73   1.0000      -0.293244        -7.9796
  74   1.0000      -0.290763        -7.9121
  75   1.0000      -0.288883        -7.8609
  76   1.0000      -0.285534        -7.7698
  77   1.0000      -0.282718        -7.6931
  78   1.0000      -0.279060        -7.5936
  79   1.0000      -0.278094        -7.5673
  80   1.0000      -0.274375        -7.4661
  81   1.0000      -0.273843        -7.4516
  82   1.0000      -0.273753        -7.4492
  83   1.0000      -0.271778        -7.3954
  84   1.0000      -0.270269        -7.3544
  85   1.0000      -0.267886        -7.2896
  86   1.0000      -0.266656        -7.2561
  87   1.0000      -0.265868        -7.2346
  88   1.0000      -0.262498        -7.1429
  89   1.0000      -0.261913        -7.1270
  90   1.0000      -0.259698        -7.0667
  91   1.0000      -0.259495        -7.0612
  92   1.0000      -0.256723        -6.9858
  93   1.0000      -0.256519        -6.9802
  94   1.0000      -0.254270        -6.9190
  95   1.0000      -0.251519        -6.8442
  96   1.0000      -0.251053        -6.8315
  97   1.0000      -0.247194        -6.7265
  98   1.0000      -0.246603        -6.7104
  99   1.0000      -0.245162        -6.6712
 100   1.0000      -0.243448        -6.6246
 101   1.0000      -0.242703        -6.6043
 102   1.0000      -0.239247        -6.5102
 103   1.0000      -0.236318        -6.4305
 104   1.0000      -0.235552        -6.4097
 105   1.0000      -0.233430        -6.3519
 106   1.0000      -0.229476        -6.2444
 107   1.0000      -0.224649        -6.1130
 108   1.0000      -0.208732        -5.6799
 109   0.0000      -0.187427        -5.1002
 110   0.0000      -0.164589        -4.4787
 111   0.0000      -0.134344        -3.6557
 112   0.0000      -0.127913        -3.4807
 113   0.0000      -0.123405        -3.3580

                 SPIN DOWN ORBITALS
  NO   OCC          E(Eh)            E(eV)
   0   1.0000    -234.200632     -6372.9232
   1   1.0000     -26.833438      -730.1750
   2   1.0000     -22.998519      -625.8215
   3   1.0000     -22.997546      -625.7950
   4   1.0000     -22.996654      -625.7708
   5   1.0000      -4.028136      -109.6111
   6   1.0000      -4.027250      -109.5871
   7   1.0000      -4.025955      -109.5518
   8   1.0000      -4.023495      -109.4849
   9   1.0000      -4.021584      -109.4329
  10   1.0000      -4.021275      -109.4245
  11   1.0000      -4.021104      -109.4198
  12   1.0000      -4.019438      -109.3745
  13   1.0000      -4.016370      -109.2910
  14   1.0000      -4.005485      -108.9948
  15   1.0000      -2.946417       -80.1761
  16   1.0000      -2.248224       -61.1773
  17   1.0000      -2.246619       -61.1336
  18   1.0000      -2.243240       -61.0417
  19   1.0000      -2.241848       -61.0038
  20   1.0000      -2.241592       -60.9968
  21   1.0000      -2.240453       -60.9658
  22   1.0000      -2.240326       -60.9624
  23   1.0000      -2.239371       -60.9364
  24   1.0000      -2.238782       -60.9204
  25   1.0000      -2.238431       -60.9108
  26   1.0000      -2.237350       -60.8814
  27   1.0000      -2.236550       -60.8596
  28   1.0000      -2.235538       -60.8321
  29   1.0000      -2.235181       -60.8224
  30   1.0000      -2.234980       -60.8169
  31   1.0000      -2.232892       -60.7601
  32   1.0000      -2.232707       -60.7550
  33   1.0000      -2.232704       -60.7550
  34   1.0000      -2.232498       -60.7494
  35   1.0000      -2.232213       -60.7416
  36   1.0000      -2.231283       -60.7163
  37   1.0000      -2.231182       -60.7136
  38   1.0000      -2.230537       -60.6960
  39   1.0000      -2.228289       -60.6348
  40   1.0000      -2.227868       -60.6234
  41   1.0000      -2.224354       -60.5277
  42   1.0000      -2.224159       -60.5224
  43   1.0000      -2.222576       -60.4794
  44   1.0000      -2.219115       -60.3852
  45   1.0000      -2.211439       -60.1763
  46   1.0000      -1.854995       -50.4770
  47   1.0000      -1.851032       -50.3691
  48   1.0000      -1.849244       -50.3205
  49   1.0000      -0.403414       -10.9774
  50   1.0000      -0.384124       -10.4525
  51   1.0000      -0.371690       -10.1142
  52   1.0000      -0.365776        -9.9533
  53   1.0000      -0.361166        -9.8278
  54   1.0000      -0.354150        -9.6369
  55   1.0000      -0.347152        -9.4465
  56   1.0000      -0.343581        -9.3493
  57   1.0000      -0.339080        -9.2268
  58   1.0000      -0.333122        -9.0647
  59   1.0000      -0.331909        -9.0317
  60   1.0000      -0.328048        -8.9266
  61   1.0000      -0.325038        -8.8447
  62   1.0000      -0.321240        -8.7414
  63   1.0000      -0.319979        -8.7071
  64   1.0000      -0.315922        -8.5967
  65   1.0000      -0.313652        -8.5349
  66   1.0000      -0.312620        -8.5068
  67   1.0000      -0.310723        -8.4552
  68   1.0000      -0.308072        -8.3831
  69   1.0000      -0.305359        -8.3093
  70   1.0000      -0.300707        -8.1827
  71   1.0000      -0.297321        -8.0905
  72   1.0000      -0.295033        -8.0283
  73   1.0000      -0.291535        -7.9331
  74   1.0000      -0.290495        -7.9048
  75   1.0000      -0.286028        -7.7832
  76   1.0000      -0.284928        -7.7533
  77   1.0000      -0.283682        -7.7194
  78   1.0000      -0.279079        -7.5941
  79   1.0000      -0.275390        -7.4938
  80   1.0000      -0.274240        -7.4625
  81   1.0000      -0.273694        -7.4476
  82   1.0000      -0.272341        -7.4108
  83   1.0000      -0.271802        -7.3961
  84   1.0000      -0.269810        -7.3419
  85   1.0000      -0.268206        -7.2983
  86   1.0000      -0.266637        -7.2556
  87   1.0000      -0.264211        -7.1895
  88   1.0000      -0.262482        -7.1425
  89   1.0000      -0.262291        -7.1373
  90   1.0000      -0.260213        -7.0807
  91   1.0000      -0.259446        -7.0599
  92   1.0000      -0.256927        -6.9913
  93   1.0000      -0.253930        -6.9098
  94   1.0000      -0.252752        -6.8777
  95   1.0000      -0.250333        -6.8119
  96   1.0000      -0.248335        -6.7575
  97   1.0000      -0.247177        -6.7260
  98   1.0000      -0.244523        -6.6538
  99   1.0000      -0.240334        -6.5398
 100   1.0000      -0.239353        -6.5131
 101   1.0000      -0.235710        -6.4140
 102   1.0000      -0.232431        -6.3248
 103   1.0000      -0.217458        -5.9173
 104   1.0000      -0.204443        -5.5632
 105   1.0000      -0.183622        -4.9966
 106   0.0000      -0.144508        -3.9323
 107   0.0000      -0.142028        -3.8648
 108   0.0000      -0.140267        -3.8169
 109   0.0000      -0.129923        -3.5354
 110   0.0000      -0.124854        -3.3974

MULLIKEN ATOMIC CHARGES AND SPIN POPULATIONS
--------------------------------------------
   0 Au:   -0.026014   -0.241779
   1 Au:    0.118216   -0.080606
   2 Au:    0.290558   -0.059212
   3 Au:   -0.057235    0.039461
   4 Au:    0.250955   -0.074596
   5 Au:   -0.039318   -0.106884
   6 Au:    0.205443   -0.085234
   7 Au:    0.209340   -0.262282
   8 Au:    0.362516   -0.085605
   9 Au:    0.037459   -0.182589
  10 Mn:   -1.351919    4.139326
Sum of atomic charges         :   -0.0000000

LOEWDIN ATOMIC CHARGES AND SPIN POPULATIONS
-------------------------------------------
   0 Au:    0.001391   -0.132403
   1 Au:    0.011546   -0.065221
   2 Au:    0.075872   -0.052837
   3 Au:    0.003063    0.023335
   4 Au:    0.103646   -0.153492
   5 Au:   -0.071934   -0.074418
   6 Au:    0.092634   -0.137153
   7 Au:    0.054663   -0.198307
   8 Au:    0.083224   -0.119965
   9 Au:   -0.018488   -0.108898
  10 Mn:   -0.335617    4.019361

  Mayer bond orders larger than 0.100000
B(  0-Au,  1-Au) :   0.1514 B(  0-Au,  4-Au) :   0.3716 B(  0-Au,  8-Au) :   0.4077
B(  0-Au, 10-Mn) :   0.5626 B(  1-Au,  3-Au) :   0.5162 B(  1-Au,  8-Au) :   0.2925
B(  1-Au,  9-Au) :   0.1474 B(  1-Au, 10-Mn) :   0.5732 B(  2-Au,  3-Au) :   0.4494
B(  2-Au,  5-Au) :   0.5650 B(  3-Au,  5-Au) :   0.2415 B(  3-Au, 10-Mn) :   0.6058
B(  4-Au,  5-Au) :   0.3146 B(  4-Au,  7-Au) :   0.1333 B(  4-Au, 10-Mn) :   0.4986
B(  5-Au,  7-Au) :   0.2263 B(  5-Au, 10-Mn) :   0.3967 B(  6-Au,  7-Au) :   0.3234
B(  6-Au,  9-Au) :   0.3938 B(  6-Au, 10-Mn) :   0.5644 B(  7-Au, 10-Mn) :   0.6071
B(  8-Au,  9-Au) :   0.3572 B(  9-Au, 10-Mn) :   0.5848

FINAL SINGLE POINT ENERGY     -2509.028759132344

DIPOLE MOMENT
-------------
                                X             Y             Z
Electronic contribution:      0.50634      -1.27644      14.59962
Nuclear contribution   :     -0.29937       1.28987     -14.59907
                        -----------------------------------------
Total Dipole Moment    :      0.20697       0.01343       0.00056
                        -----------------------------------------
Magnitude (a.u.)       :      0.20741
Magnitude (Debye)      :      0.52719

Rotational constants in cm-1:     0.002111     0.001264     0.001094
Rotational constants in MHz :    63.299470    37.901230    32.791810

                             ****ORCA TERMINATED NORMALLY****
TOTAL RUN TIME: 0 days 3 hours 5 minutes 31 seconds 995 msec
