                         Program Version 5.0.3 -  RELEASE  -
|  1> !CASSCF def2-TZVP def2-TZVP/C
|  2> !MOREAD RIJCOSX
|  3> %maxcore 6000
|  4> %moinp "pbe.qro"
|  5> %pal nprocs 2 end
|  6>
|  7> %casscf
|  8>  mult 5,3
|  9>  bweight 1,1
| 10>  nroots 5,45
| 11>  nel 6
| 12>  norb 5
| 13> end
| 14>
| 15>
| 16> *xyzfile 0 5 pbe.xyz
| 17>
| 18>
| 19>                          ****END OF INPUT****

CARTESIAN COORDINATES (ANGSTROEM)
---------------------------------
  Au     7.052646   10.700714    9.704066
  Au     7.420933    8.978553    5.570170
  Au     7.918355   11.234300    7.123630
  Au     9.987970    9.446073    6.543172
  Au     9.109566    6.809129    6.689849
  Au    10.461272    7.896633    8.861754
  Au     9.819378   10.615543    9.089965
  Au     8.672015    8.749626   10.840933
  Au     5.466146    5.614512    9.280866
  Au     8.214712    6.364495    9.473466
  Au     7.342867    4.742162    7.372827
  Au     6.879041    6.285689    5.077297
  Au     4.742370    8.008860    5.713027
  Au     5.471921   10.017963    7.555115
  Au     3.952388    7.862519    8.435692
  Au     6.026684    8.203389   10.255108
  Cr     6.493007    7.377949    7.595237

 Total Charge           Charge          ....    0
 Multiplicity           Mult            ....    5
 Number of Electrons    NEL             ....  328
 Basis Dimension        Dim             ....  685

ORBITAL ENERGIES
----------------

  NO   OCC          E(Eh)            E(eV)
   0   2.0000    -220.501870     -6000.1609
   1   2.0000     -26.339164      -716.7251
   2   2.0000     -22.273139      -606.0829
   3   2.0000     -22.272059      -606.0535
   4   2.0000     -22.259356      -605.7079
   5   2.0000      -4.720038      -128.4388
   6   2.0000      -4.718655      -128.4011
   7   2.0000      -4.718166      -128.3878
   8   2.0000      -4.717701      -128.3752
   9   2.0000      -4.717078      -128.3582
  10   2.0000      -4.716901      -128.3534
  11   2.0000      -4.715007      -128.3019
  12   2.0000      -4.714725      -128.2942
  13   2.0000      -4.711995      -128.2199
  14   2.0000      -4.711567      -128.2083
  15   2.0000      -4.707700      -128.1030
  16   2.0000      -4.707547      -128.0989
  17   2.0000      -4.707360      -128.0938
  18   2.0000      -4.704901      -128.0269
  19   2.0000      -4.704731      -128.0222
  20   2.0000      -4.694511      -127.7442
  21   2.0000      -3.395208       -92.3883
  22   2.0000      -2.760104       -75.1062
  23   2.0000      -2.758879       -75.0729
  24   2.0000      -2.758671       -75.0672
  25   2.0000      -2.757578       -75.0375
  26   2.0000      -2.757180       -75.0267
  27   2.0000      -2.756797       -75.0163
  28   2.0000      -2.756094       -74.9971
  29   2.0000      -2.755230       -74.9736
  30   2.0000      -2.754584       -74.9560
  31   2.0000      -2.753988       -74.9398
  32   2.0000      -2.753867       -74.9365
  33   2.0000      -2.753720       -74.9325
  34   2.0000      -2.753314       -74.9215
  35   2.0000      -2.752969       -74.9121
  36   2.0000      -2.752893       -74.9100
  37   2.0000      -2.752733       -74.9057
  38   2.0000      -2.751803       -74.8804
  39   2.0000      -2.751527       -74.8728
  40   2.0000      -2.750930       -74.8566
  41   2.0000      -2.750334       -74.8404
  42   2.0000      -2.749799       -74.8258
  43   2.0000      -2.749493       -74.8175
  44   2.0000      -2.749415       -74.8154
  45   2.0000      -2.748252       -74.7837
  46   2.0000      -2.748006       -74.7771
  47   2.0000      -2.747631       -74.7668
  48   2.0000      -2.747334       -74.7588
  49   2.0000      -2.746785       -74.7438
  50   2.0000      -2.746519       -74.7366
  51   2.0000      -2.746208       -74.7281
  52   2.0000      -2.745651       -74.7130
  53   2.0000      -2.745029       -74.6960
  54   2.0000      -2.744928       -74.6933
  55   2.0000      -2.744576       -74.6837
  56   2.0000      -2.743032       -74.6417
  57   2.0000      -2.742445       -74.6257
  58   2.0000      -2.742344       -74.6230
  59   2.0000      -2.741441       -74.5984
  60   2.0000      -2.741004       -74.5865
  61   2.0000      -2.740966       -74.5855
  62   2.0000      -2.740618       -74.5760
  63   2.0000      -2.740525       -74.5735
  64   2.0000      -2.739556       -74.5471
  65   2.0000      -2.739282       -74.5396
  66   2.0000      -2.738340       -74.5140
  67   2.0000      -2.729847       -74.2829
  68   2.0000      -2.729574       -74.2755
  69   2.0000      -2.728483       -74.2458
  70   2.0000      -2.161449       -58.8160
  71   2.0000      -2.161271       -58.8112
  72   2.0000      -2.147315       -58.4314
  73   2.0000      -0.564383       -15.3576
  74   2.0000      -0.560130       -15.2419
  75   2.0000      -0.559298       -15.2193
  76   2.0000      -0.552832       -15.0433
  77   2.0000      -0.550295       -14.9743
  78   2.0000      -0.549055       -14.9405
  79   2.0000      -0.547284       -14.8924
  80   2.0000      -0.545886       -14.8543
  81   2.0000      -0.542844       -14.7715
  82   2.0000      -0.540670       -14.7124
  83   2.0000      -0.539255       -14.6739
  84   2.0000      -0.537510       -14.6264
  85   2.0000      -0.536455       -14.5977
  86   2.0000      -0.535427       -14.5697
  87   2.0000      -0.534411       -14.5421
  88   2.0000      -0.533978       -14.5303
  89   2.0000      -0.531704       -14.4684
  90   2.0000      -0.531449       -14.4615
  91   2.0000      -0.529426       -14.4064
  92   2.0000      -0.527488       -14.3537
  93   2.0000      -0.527333       -14.3495
  94   2.0000      -0.524171       -14.2634
  95   2.0000      -0.523331       -14.2406
  96   2.0000      -0.519832       -14.1454
  97   2.0000      -0.517859       -14.0917
  98   2.0000      -0.515288       -14.0217
  99   2.0000      -0.514248       -13.9934
 100   2.0000      -0.509417       -13.8619
 101   2.0000      -0.509244       -13.8572
 102   2.0000      -0.508002       -13.8234
 103   2.0000      -0.506119       -13.7722
 104   2.0000      -0.504961       -13.7407
 105   2.0000      -0.503319       -13.6960
 106   2.0000      -0.500143       -13.6096
 107   2.0000      -0.493127       -13.4187
 108   2.0000      -0.489236       -13.3128
 109   2.0000      -0.486483       -13.2379
 110   2.0000      -0.483640       -13.1605
 111   2.0000      -0.483488       -13.1564
 112   2.0000      -0.481588       -13.1047
 113   2.0000      -0.480661       -13.0794
 114   2.0000      -0.476396       -12.9634
 115   2.0000      -0.471412       -12.8278
 116   2.0000      -0.469387       -12.7727
 117   2.0000      -0.465563       -12.6686
 118   2.0000      -0.463674       -12.6172
 119   2.0000      -0.461111       -12.5475
 120   2.0000      -0.459754       -12.5105
 121   2.0000      -0.457637       -12.4529
 122   2.0000      -0.455606       -12.3977
 123   2.0000      -0.454718       -12.3735
 124   2.0000      -0.452968       -12.3259
 125   2.0000      -0.452156       -12.3038
 126   2.0000      -0.449953       -12.2439
 127   2.0000      -0.448235       -12.1971
 128   2.0000      -0.447409       -12.1746
 129   2.0000      -0.446093       -12.1388
 130   2.0000      -0.445024       -12.1097
 131   2.0000      -0.442323       -12.0362
 132   2.0000      -0.439752       -11.9663
 133   2.0000      -0.439111       -11.9488
 134   2.0000      -0.437278       -11.8989
 135   2.0000      -0.434999       -11.8369
 136   2.0000      -0.434795       -11.8314
 137   2.0000      -0.432103       -11.7581
 138   2.0000      -0.431615       -11.7448
 139   2.0000      -0.431544       -11.7429
 140   2.0000      -0.428788       -11.6679
 141   2.0000      -0.427398       -11.6301
 142   2.0000      -0.426195       -11.5974
 143   2.0000      -0.422490       -11.4965
 144   2.0000      -0.415989       -11.3196
 145   2.0000      -0.414564       -11.2809
 146   2.0000      -0.412971       -11.2375
 147   2.0000      -0.412608       -11.2276
 148   2.0000      -0.410821       -11.1790
 149   2.0000      -0.406283       -11.0555
 150   2.0000      -0.403197       -10.9716
 151   2.0000      -0.398169       -10.8347
 152   2.0000      -0.397350       -10.8125
 153   2.0000      -0.381160       -10.3719
 154   2.0000      -0.380783       -10.3616
 155   2.0000      -0.357535        -9.7290
 156   2.0000      -0.357019        -9.7150
 157   2.0000      -0.264378        -7.1941
 158   2.0000      -0.260287        -7.0828
 159   2.0000      -0.233190        -6.3454
 160   2.0000      -0.227195        -6.1823
 161   1.2000      -0.110878        -3.0171
 162   1.2000      -0.085253        -2.3199
 163   1.2000      -0.094321        -2.5666
 164   1.2000      -0.163334        -4.4445
 165   1.2000      -0.087987        -2.3942
 166   0.0000      -0.022170        -0.6033
 167   0.0000      -0.018984        -0.5166
 168   0.0000      -0.014103        -0.3838
 169   0.0000      -0.003728        -0.1014
 170   0.0000      -0.002204        -0.0600

MULLIKEN ATOMIC CHARGES AND SPIN DENSITIES
------------------------------------------
   0 Au:    0.215753    0.027999
   1 Au:    0.048459    0.030738
   2 Au:    0.233870    0.019983
   3 Au:    0.210309    0.011662
   4 Au:    0.051947    0.044932
   5 Au:    0.207386    0.011345
   6 Au:   -0.025617    0.003403
   7 Au:    0.235635    0.019329
   8 Au:    0.607430    0.015089
   9 Au:    0.055400    0.031444
  10 Au:    0.608867    0.018285
  11 Au:    0.607681    0.018134
  12 Au:    0.609326    0.014815
  13 Au:    0.023032    0.024771
  14 Au:    0.618117    0.018903
  15 Au:    0.022147    0.025321
  16 Cr:   -4.329741    2.663845
Sum of atomic charges       :    0.0000000

LOEWDIN ATOMIC CHARGES AND SPIN DENSITIES
-----------------------------------------
   0 Au:    0.033925    0.028950
   1 Au:    0.010176    0.053280
   2 Au:    0.047666    0.024786
   3 Au:    0.049877    0.019163
   4 Au:    0.003825    0.053775
   5 Au:    0.049445    0.018903
   6 Au:   -0.030137    0.008177
   7 Au:    0.049277    0.024503
   8 Au:    0.169277    0.045927
   9 Au:    0.010604    0.053418
  10 Au:    0.161340    0.046870
  11 Au:    0.160916    0.046946
  12 Au:    0.169690    0.045817
  13 Au:    0.017888    0.054108
  14 Au:    0.157998    0.048399
  15 Au:    0.017691    0.054449
  16 Cr:   -1.079456    2.372528

  Mayer bond orders larger than 0.100000
B(  0-Au,  2-Au) :   0.2139 B(  0-Au,  6-Au) :   0.2528 B(  0-Au,  7-Au) :   0.2099
B(  0-Au, 13-Au) :   0.1964 B(  0-Au, 15-Au) :   0.1886 B(  0-Au, 16-Cr) :   0.2328
B(  1-Au,  2-Au) :   0.1689 B(  1-Au,  3-Au) :   0.2620 B(  1-Au,  4-Au) :   0.2242
B(  1-Au,  8-Au) :   0.1812 B(  1-Au, 11-Au) :   0.1498 B(  1-Au, 12-Au) :   0.1126
B(  1-Au, 13-Au) :   0.1427 B(  1-Au, 16-Cr) :   0.3601 B(  2-Au,  3-Au) :   0.1553
B(  2-Au,  6-Au) :   0.2634 B(  2-Au, 13-Au) :   0.2742 B(  2-Au, 16-Cr) :   0.2405
B(  3-Au,  4-Au) :   0.2128 B(  3-Au,  5-Au) :   0.1344 B(  3-Au,  6-Au) :   0.2676
B(  3-Au, 16-Cr) :   0.2664 B(  4-Au,  5-Au) :   0.2217 B(  4-Au,  9-Au) :   0.2326
B(  4-Au, 10-Au) :   0.1412 B(  4-Au, 11-Au) :   0.1402 B(  4-Au, 14-Au) :   0.1247
B(  4-Au, 16-Cr) :   0.3653 B(  5-Au,  6-Au) :   0.2708 B(  5-Au,  7-Au) :   0.1503
B(  5-Au,  9-Au) :   0.2573 B(  5-Au, 16-Cr) :   0.2668 B(  6-Au,  7-Au) :   0.2644
B(  7-Au,  9-Au) :   0.1676 B(  7-Au, 15-Au) :   0.2787 B(  7-Au, 16-Cr) :   0.2399
B(  8-Au,  9-Au) :   0.1113 B(  8-Au, 10-Au) :   0.1399 B(  8-Au, 14-Au) :   0.1311
B(  8-Au, 15-Au) :   0.1375 B(  8-Au, 16-Cr) :   0.3244 B(  9-Au, 10-Au) :   0.1485
B(  9-Au, 12-Au) :   0.1810 B(  9-Au, 15-Au) :   0.1498 B(  9-Au, 16-Cr) :   0.3544
B( 10-Au, 11-Au) :   0.1405 B( 10-Au, 13-Au) :   0.1270 B( 10-Au, 16-Cr) :   0.2915
B( 11-Au, 12-Au) :   0.1389 B( 11-Au, 15-Au) :   0.1288 B( 11-Au, 16-Cr) :   0.2949
B( 12-Au, 13-Au) :   0.1369 B( 12-Au, 14-Au) :   0.1306 B( 12-Au, 16-Cr) :   0.3225
B( 13-Au, 14-Au) :   0.1464 B( 13-Au, 16-Cr) :   0.3775 B( 14-Au, 15-Au) :   0.1457
B( 14-Au, 16-Cr) :   0.3111 B( 15-Au, 16-Cr) :   0.3797

FINAL SINGLE POINT ENERGY     -3200.147202011698

DIPOLE MOMENT
-------------
                                X             Y             Z
Electronic contribution:     31.55698      28.91812      12.98445
Nuclear contribution   :    -32.31465     -29.74013     -13.37381
                        -----------------------------------------
Total Dipole Moment    :     -0.75767      -0.82201      -0.38936
                        -----------------------------------------
Magnitude (a.u.)       :      1.18379
Magnitude (Debye)      :      3.00897

Rotational constants in cm-1:     0.000949     0.000760     0.000752
Rotational constants in MHz :    28.439881    22.793878    22.549729

                             ****ORCA TERMINATED NORMALLY****
TOTAL RUN TIME: 0 days 2 hours 40 minutes 26 seconds 535 msec
