                         Program Version 5.0.3 -  RELEASE  -
|  1> !SC-NEVPT2 def2-TZVP def2-TZVP/C
|  2> !MOREAD RIJCOSX def2/J
|  3> %maxcore 4000
|  4> %moinp "casscf.gbw"
|  5> %pal nprocs 2 end
|  6>
|  7> %casscf
|  8>  mult 5,3
|  9>  bweight 1,1
| 10>  nroots 5,45
| 11>  nel 6
| 12>  norb 5
| 13>  ptsettings
| 14>   d4tpre 1e-14 # default = 1e-10
| 15>   d3tpre 1e-14
| 16>  end
| 17>  rel
| 18>    dosoc true
| 19>    gtensor true
| 20>  end
| 21> end
| 22>
| 23>
| 24> *xyzfile 0 5 pbe.xyz
| 25>
| 26>
| 27>                          ****END OF INPUT****

CARTESIAN COORDINATES (ANGSTROEM)
---------------------------------
  Au     8.040673    9.971240    8.208794
  Au     7.242951    8.646474   10.504296
  Au     9.162803    7.494259    8.888051
  Au     7.429312    7.216054    5.206956
  Au     9.657737    8.567738    6.294551
  Au     9.404847    5.844431    6.632395
  Au     7.461598   10.006177    5.478126
  Au     5.389475   10.074499    7.364336
  Au     7.056835    4.537442    6.008357
  Au     4.888490    6.024413    5.203902
  Au     4.994631    5.249759    7.882118
  Au     5.737052    6.297467   10.336036
  Au     7.665285    5.161147    8.720121
  Au     3.855524    7.697778    7.203423
  Au     4.587888    8.747556    9.655998
  Au     5.093107    8.747112    4.860716
  Fe     6.504390    7.622455    8.002474

 Total Charge           Charge          ....    0
 Multiplicity           Mult            ....    5
 Number of Electrons    NEL             ....  330
 Basis Dimension        Dim             ....  685

ORBITAL ENERGIES
----------------

  NO   OCC          E(Eh)            E(eV)
   0   2.0000    -261.419121     -7113.5759
   1   2.0000     -31.977733      -870.1584
   2   2.0000     -27.458264      -747.1773
   3   2.0000     -27.457980      -747.1696
   4   2.0000     -27.457951      -747.1688
   5   2.0000      -4.725645      -128.5913
   6   2.0000      -4.720682      -128.4563
   7   2.0000      -4.720519      -128.4518
   8   2.0000      -4.719753      -128.4310
   9   2.0000      -4.719467      -128.4232
  10   2.0000      -4.719134      -128.4142
  11   2.0000      -4.719078      -128.4126
  12   2.0000      -4.716613      -128.3456
  13   2.0000      -4.715921      -128.3267
  14   2.0000      -4.715689      -128.3204
  15   2.0000      -4.714479      -128.2875
  16   2.0000      -4.714469      -128.2872
  17   2.0000      -4.714450      -128.2867
  18   2.0000      -4.708306      -128.1195
  19   2.0000      -4.707439      -128.0959
  20   2.0000      -4.707420      -128.0954
  21   2.0000      -4.210530      -114.5744
  22   2.0000      -2.789731       -75.9124
  23   2.0000      -2.789468       -75.9053
  24   2.0000      -2.789399       -75.9034
  25   2.0000      -2.762860       -75.1812
  26   2.0000      -2.762702       -75.1769
  27   2.0000      -2.760296       -75.1115
  28   2.0000      -2.760113       -75.1065
  29   2.0000      -2.759476       -75.0892
  30   2.0000      -2.759139       -75.0800
  31   2.0000      -2.758380       -75.0593
  32   2.0000      -2.757987       -75.0486
  33   2.0000      -2.757656       -75.0396
  34   2.0000      -2.757307       -75.0301
  35   2.0000      -2.757010       -75.0221
  36   2.0000      -2.756530       -75.0090
  37   2.0000      -2.756417       -75.0059
  38   2.0000      -2.756341       -75.0039
  39   2.0000      -2.755989       -74.9943
  40   2.0000      -2.755854       -74.9906
  41   2.0000      -2.755035       -74.9683
  42   2.0000      -2.754122       -74.9435
  43   2.0000      -2.754037       -74.9412
  44   2.0000      -2.752812       -74.9078
  45   2.0000      -2.752544       -74.9005
  46   2.0000      -2.752271       -74.8931
  47   2.0000      -2.752069       -74.8876
  48   2.0000      -2.752004       -74.8858
  49   2.0000      -2.751688       -74.8772
  50   2.0000      -2.751546       -74.8734
  51   2.0000      -2.751184       -74.8635
  52   2.0000      -2.750690       -74.8501
  53   2.0000      -2.750189       -74.8365
  54   2.0000      -2.750122       -74.8346
  55   2.0000      -2.749861       -74.8275
  56   2.0000      -2.749837       -74.8269
  57   2.0000      -2.749751       -74.8245
  58   2.0000      -2.748812       -74.7990
  59   2.0000      -2.748783       -74.7982
  60   2.0000      -2.748251       -74.7837
  61   2.0000      -2.747473       -74.7626
  62   2.0000      -2.747298       -74.7578
  63   2.0000      -2.747066       -74.7515
  64   2.0000      -2.743799       -74.6626
  65   2.0000      -2.743483       -74.6540
  66   2.0000      -2.743192       -74.6460
  67   2.0000      -2.742586       -74.6296
  68   2.0000      -2.742527       -74.6279
  69   2.0000      -2.742279       -74.6212
  70   2.0000      -2.741757       -74.6070
  71   2.0000      -2.741590       -74.6024
  72   2.0000      -2.741501       -74.6000
  73   2.0000      -0.583452       -15.8765
  74   2.0000      -0.561557       -15.2807
  75   2.0000      -0.558743       -15.2042
  76   2.0000      -0.558584       -15.1998
  77   2.0000      -0.557349       -15.1662
  78   2.0000      -0.554157       -15.0794
  79   2.0000      -0.552139       -15.0245
  80   2.0000      -0.551811       -15.0155
  81   2.0000      -0.549067       -14.9409
  82   2.0000      -0.548292       -14.9198
  83   2.0000      -0.548194       -14.9171
  84   2.0000      -0.547777       -14.9058
  85   2.0000      -0.547289       -14.8925
  86   2.0000      -0.547001       -14.8847
  87   2.0000      -0.544822       -14.8253
  88   2.0000      -0.542109       -14.7515
  89   2.0000      -0.541391       -14.7320
  90   2.0000      -0.540935       -14.7196
  91   2.0000      -0.538685       -14.6584
  92   2.0000      -0.538575       -14.6554
  93   2.0000      -0.537194       -14.6178
  94   2.0000      -0.537160       -14.6169
  95   2.0000      -0.532956       -14.5025
  96   2.0000      -0.526745       -14.3335
  97   2.0000      -0.526441       -14.3252
  98   2.0000      -0.525947       -14.3117
  99   2.0000      -0.516945       -14.0668
 100   2.0000      -0.516279       -14.0487
 101   2.0000      -0.509264       -13.8578
 102   2.0000      -0.508488       -13.8367
 103   2.0000      -0.506244       -13.7756
 104   2.0000      -0.504077       -13.7166
 105   2.0000      -0.503589       -13.7034
 106   2.0000      -0.499982       -13.6052
 107   2.0000      -0.499887       -13.6026
 108   2.0000      -0.498171       -13.5559
 109   2.0000      -0.496679       -13.5153
 110   2.0000      -0.489546       -13.3212
 111   2.0000      -0.488998       -13.3063
 112   2.0000      -0.486008       -13.2250
 113   2.0000      -0.485450       -13.2098
 114   2.0000      -0.480952       -13.0874
 115   2.0000      -0.478474       -13.0199
 116   2.0000      -0.476546       -12.9675
 117   2.0000      -0.475537       -12.9400
 118   2.0000      -0.475462       -12.9380
 119   2.0000      -0.467614       -12.7244
 120   2.0000      -0.467479       -12.7208
 121   2.0000      -0.464927       -12.6513
 122   2.0000      -0.464261       -12.6332
 123   2.0000      -0.455941       -12.4068
 124   2.0000      -0.455158       -12.3855
 125   2.0000      -0.454715       -12.3734
 126   2.0000      -0.452629       -12.3167
 127   2.0000      -0.451139       -12.2761
 128   2.0000      -0.449718       -12.2374
 129   2.0000      -0.449027       -12.2186
 130   2.0000      -0.443639       -12.0720
 131   2.0000      -0.443109       -12.0576
 132   2.0000      -0.442999       -12.0546
 133   2.0000      -0.439294       -11.9538
 134   2.0000      -0.439122       -11.9491
 135   2.0000      -0.437223       -11.8975
 136   2.0000      -0.431266       -11.7354
 137   2.0000      -0.430836       -11.7236
 138   2.0000      -0.429927       -11.6989
 139   2.0000      -0.429045       -11.6749
 140   2.0000      -0.428835       -11.6692
 141   2.0000      -0.427163       -11.6237
 142   2.0000      -0.425859       -11.5882
 143   2.0000      -0.425440       -11.5768
 144   2.0000      -0.424810       -11.5597
 145   2.0000      -0.424512       -11.5516
 146   2.0000      -0.415782       -11.3140
 147   2.0000      -0.413591       -11.2544
 148   2.0000      -0.413397       -11.2491
 149   2.0000      -0.410378       -11.1670
 150   2.0000      -0.404384       -11.0038
 151   2.0000      -0.400213       -10.8904
 152   2.0000      -0.399952       -10.8833
 153   2.0000      -0.384372       -10.4593
 154   2.0000      -0.377580       -10.2745
 155   2.0000      -0.373707       -10.1691
 156   2.0000      -0.373037       -10.1509
 157   2.0000      -0.260253        -7.0818
 158   2.0000      -0.259644        -7.0653
 159   2.0000      -0.243340        -6.6216
 160   2.0000      -0.238995        -6.5034
 161   2.0000      -0.237684        -6.4677
 162   1.2000      -0.292073        -7.9477
 163   1.2000      -0.289719        -7.8837
 164   1.2000      -0.287485        -7.8229
 165   1.2000      -0.286614        -7.7992
 166   1.2000      -0.288344        -7.8462
 167   0.0000      -0.041294        -1.1237
 168   0.0000      -0.010629        -0.2892
 169   0.0000      -0.006157        -0.1675
 170   0.0000      -0.005734        -0.1560
 171   0.0000      -0.001564        -0.0426

MULLIKEN ATOMIC CHARGES AND SPIN DENSITIES
------------------------------------------
   0 Au:    0.063629    0.006017
   1 Au:    0.258881    0.005376
   2 Au:    0.039106    0.006231
   3 Au:   -0.788255    0.005682
   4 Au:    0.175889    0.003023
   5 Au:    0.270963    0.003293
   6 Au:    0.265794    0.003337
   7 Au:    0.075980    0.006565
   8 Au:    0.177233    0.003019
   9 Au:    0.264335    0.003339
  10 Au:    0.064980    0.006009
  11 Au:    0.254864    0.005521
  12 Au:    0.042023    0.006109
  13 Au:    0.075624    0.006572
  14 Au:    0.255488    0.005737
  15 Au:    0.169277    0.003059
  16 Fe:   -1.665812    2.921113
Sum of atomic charges       :    0.0000000

LOEWDIN ATOMIC CHARGES AND SPIN DENSITIES
-----------------------------------------
   0 Au:   -0.011932    0.007439
   1 Au:    0.046920    0.006884
   2 Au:   -0.017379    0.007605
   3 Au:   -0.124337    0.007843
   4 Au:    0.027051    0.003940
   5 Au:    0.025637    0.004019
   6 Au:    0.020042    0.004139
   7 Au:   -0.007807    0.007980
   8 Au:    0.027474    0.003927
   9 Au:    0.020457    0.004126
  10 Au:   -0.011863    0.007438
  11 Au:    0.045348    0.007045
  12 Au:   -0.017310    0.007482
  13 Au:   -0.007790    0.007990
  14 Au:    0.047342    0.007269
  15 Au:    0.023646    0.004052
  16 Fe:   -0.085499    2.900820

  Mayer bond orders larger than 0.100000
B(  0-Au,  1-Au) :   0.1869 B(  0-Au,  2-Au) :   0.1836 B(  0-Au,  4-Au) :   0.1651
B(  0-Au,  6-Au) :   0.1925 B(  0-Au,  7-Au) :   0.2145 B(  0-Au, 16-Fe) :   0.3716
B(  1-Au,  2-Au) :   0.1931 B(  1-Au, 11-Au) :   0.2112 B(  1-Au, 14-Au) :   0.2133
B(  1-Au, 16-Fe) :   0.3718 B(  2-Au,  4-Au) :   0.1714 B(  2-Au,  5-Au) :   0.1926
B(  2-Au, 12-Au) :   0.2180 B(  2-Au, 16-Fe) :   0.3795 B(  3-Au,  4-Au) :   0.3562
B(  3-Au,  5-Au) :   0.3340 B(  3-Au,  6-Au) :   0.3340 B(  3-Au,  8-Au) :   0.3579
B(  3-Au,  9-Au) :   0.3317 B(  3-Au, 15-Au) :   0.3586 B(  3-Au, 16-Fe) :   0.2456
B(  4-Au,  5-Au) :   0.2281 B(  4-Au,  6-Au) :   0.2331 B(  4-Au, 16-Fe) :   0.1301
B(  5-Au,  8-Au) :   0.2264 B(  5-Au, 12-Au) :   0.1932 B(  5-Au, 16-Fe) :   0.1156
B(  6-Au,  7-Au) :   0.1880 B(  6-Au, 15-Au) :   0.2285 B(  6-Au, 16-Fe) :   0.1278
B(  7-Au, 13-Au) :   0.1674 B(  7-Au, 14-Au) :   0.1813 B(  7-Au, 15-Au) :   0.1669
B(  7-Au, 16-Fe) :   0.3881 B(  8-Au,  9-Au) :   0.2334 B(  8-Au, 10-Au) :   0.1637
B(  8-Au, 12-Au) :   0.1717 B(  8-Au, 16-Fe) :   0.1286 B(  9-Au, 10-Au) :   0.1939
B(  9-Au, 13-Au) :   0.1883 B(  9-Au, 15-Au) :   0.2290 B(  9-Au, 16-Fe) :   0.1275
B( 10-Au, 11-Au) :   0.1855 B( 10-Au, 12-Au) :   0.1848 B( 10-Au, 13-Au) :   0.2143
B( 10-Au, 16-Fe) :   0.3721 B( 11-Au, 12-Au) :   0.1925 B( 11-Au, 14-Au) :   0.2140
B( 11-Au, 16-Fe) :   0.3768 B( 12-Au, 16-Fe) :   0.3760 B( 13-Au, 14-Au) :   0.1818
B( 13-Au, 15-Au) :   0.1666 B( 13-Au, 16-Fe) :   0.3884 B( 14-Au, 16-Fe) :   0.3815
B( 15-Au, 16-Fe) :   0.1536

FINAL SINGLE POINT ENERGY     -3427.467026162205

DIPOLE MOMENT
-------------
                                X             Y             Z
Electronic contribution:      8.50234      -3.95848     -22.66587
Nuclear contribution   :     -8.60675       4.00853      22.94369
                        -----------------------------------------
Total Dipole Moment    :     -0.10441       0.05005       0.27782
                        -----------------------------------------
Magnitude (a.u.)       :      0.30098
Magnitude (Debye)      :      0.76504

Rotational constants in cm-1:     0.000855     0.000838     0.000832
Rotational constants in MHz :    25.631559    25.116494    24.930831

                             ****ORCA TERMINATED NORMALLY****
TOTAL RUN TIME: 0 days 18 hours 36 minutes 13 seconds 291 msec
