                         Program Version 5.0.3 -  RELEASE  -
|  1> %pal nprocs 16 end
|  2>
|  3> !PBE def2-TZVP OPT UNO
|  4> !SLOWCONV KDIIS
|  5>
|  6> %geom maxiter 300 end
|  7>
|  8> *xyzfile 0 3 3.xyz                           ****END OF INPUT****
 Total Charge           Charge          ....    0
 Multiplicity           Mult            ....    3
 Number of Electrons    NEL             ....  254
FINAL SINGLE POINT ENERGY     -2893.390419401277
FINAL SINGLE POINT ENERGY     -2893.390382032759
FINAL SINGLE POINT ENERGY     -2893.391239071033
FINAL SINGLE POINT ENERGY     -2893.391398255857
FINAL SINGLE POINT ENERGY     -2893.391542003504
FINAL SINGLE POINT ENERGY     -2893.391611945234
FINAL SINGLE POINT ENERGY     -2893.391649262388
FINAL SINGLE POINT ENERGY     -2893.391681724653
FINAL SINGLE POINT ENERGY     -2893.391697357216
FINAL SINGLE POINT ENERGY     -2893.391705785808
FINAL SINGLE POINT ENERGY     -2893.391708303551
                    ***********************HURRAY********************

CARTESIAN COORDINATES (ANGSTROEM)
---------------------------------
  Au     7.870552    7.660447    6.616725
  Au     6.530426    5.274785    6.810537
  Au     9.224945    5.225703    7.795816
  Au    11.727857    8.770919    8.831076
  Au     9.400320    9.779146    7.395573
  Au    10.741287    7.212910    6.763118
  Au    10.780754    7.541372   11.146405
  Au     9.616068   10.028993   10.162712
  Au     7.875538    8.129260   11.177177
  Au     9.028726    5.510302   10.657801
  Au     7.250332    3.957279    9.260531
  Au     6.750565    6.778674    9.121643
  Fe     9.277243    7.632082    8.957268

 Multiplicity           Mult            ....    3
 Number of Electrons    NEL             ....  254
 Basis Dimension        Dim             ....  525

ORBITAL ENERGIES
----------------
                 SPIN UP ORBITALS
  NO   OCC          E(Eh)            E(eV)
   0   1.0000    -254.752222     -6932.1604
   1   1.0000     -29.590084      -805.1871
   2   1.0000     -25.536013      -694.8703
   3   1.0000     -25.523489      -694.5295
   4   1.0000     -25.517718      -694.3724
   5   1.0000      -4.030674      -109.6802
   6   1.0000      -4.030656      -109.6797
   7   1.0000      -4.026707      -109.5723
   8   1.0000      -4.026694      -109.5719
   9   1.0000      -4.023354      -109.4810
  10   1.0000      -4.023340      -109.4806
  11   1.0000      -4.021572      -109.4325
  12   1.0000      -4.021423      -109.4285
  13   1.0000      -4.021336      -109.4261
  14   1.0000      -4.021286      -109.4248
  15   1.0000      -4.015632      -109.2709
  16   1.0000      -4.015554      -109.2688
  17   1.0000      -3.365257       -91.5733
  18   1.0000      -2.248205       -61.1768
  19   1.0000      -2.248111       -61.1742
  20   1.0000      -2.244362       -61.0722
  21   1.0000      -2.243965       -61.0614
  22   1.0000      -2.243603       -61.0515
  23   1.0000      -2.243544       -61.0499
  24   1.0000      -2.240876       -60.9773
  25   1.0000      -2.240431       -60.9652
  26   1.0000      -2.240065       -60.9553
  27   1.0000      -2.239316       -60.9349
  28   1.0000      -2.239267       -60.9336
  29   1.0000      -2.239162       -60.9307
  30   1.0000      -2.238851       -60.9222
  31   1.0000      -2.237788       -60.8933
  32   1.0000      -2.237567       -60.8873
  33   1.0000      -2.237074       -60.8739
  34   1.0000      -2.236419       -60.8561
  35   1.0000      -2.236120       -60.8479
  36   1.0000      -2.235556       -60.8326
  37   1.0000      -2.235086       -60.8198
  38   1.0000      -2.235007       -60.8176
  39   1.0000      -2.234706       -60.8095
  40   1.0000      -2.233987       -60.7899
  41   1.0000      -2.233218       -60.7689
  42   1.0000      -2.232859       -60.7592
  43   1.0000      -2.232674       -60.7541
  44   1.0000      -2.232056       -60.7373
  45   1.0000      -2.230939       -60.7069
  46   1.0000      -2.230520       -60.6955
  47   1.0000      -2.230404       -60.6924
  48   1.0000      -2.229966       -60.6805
  49   1.0000      -2.229661       -60.6721
  50   1.0000      -2.229395       -60.6649
  51   1.0000      -2.227376       -60.6100
  52   1.0000      -2.226209       -60.5782
  53   1.0000      -2.226159       -60.5769
  54   1.0000      -2.200171       -59.8697
  55   1.0000      -2.172727       -59.1229
  56   1.0000      -2.163609       -58.8748
  57   1.0000      -0.428265       -11.6537
  58   1.0000      -0.391530       -10.6541
  59   1.0000      -0.379079       -10.3153
  60   1.0000      -0.375191       -10.2095
  61   1.0000      -0.373281       -10.1575
  62   1.0000      -0.370449       -10.0804
  63   1.0000      -0.363338        -9.8869
  64   1.0000      -0.359903        -9.7935
  65   1.0000      -0.351984        -9.5780
  66   1.0000      -0.351042        -9.5523
  67   1.0000      -0.347032        -9.4432
  68   1.0000      -0.344533        -9.3752
  69   1.0000      -0.341506        -9.2928
  70   1.0000      -0.340391        -9.2625
  71   1.0000      -0.336495        -9.1565
  72   1.0000      -0.333731        -9.0813
  73   1.0000      -0.332771        -9.0551
  74   1.0000      -0.329920        -8.9776
  75   1.0000      -0.325777        -8.8648
  76   1.0000      -0.324728        -8.8363
  77   1.0000      -0.322933        -8.7875
  78   1.0000      -0.321524        -8.7491
  79   1.0000      -0.320355        -8.7173
  80   1.0000      -0.319207        -8.6861
  81   1.0000      -0.315755        -8.5921
  82   1.0000      -0.315028        -8.5724
  83   1.0000      -0.312655        -8.5078
  84   1.0000      -0.306568        -8.3421
  85   1.0000      -0.301849        -8.2137
  86   1.0000      -0.299852        -8.1594
  87   1.0000      -0.294231        -8.0064
  88   1.0000      -0.291000        -7.9185
  89   1.0000      -0.290271        -7.8987
  90   1.0000      -0.286433        -7.7942
  91   1.0000      -0.284623        -7.7450
  92   1.0000      -0.283418        -7.7122
  93   1.0000      -0.279984        -7.6188
  94   1.0000      -0.279945        -7.6177
  95   1.0000      -0.275082        -7.4854
  96   1.0000      -0.273797        -7.4504
  97   1.0000      -0.273686        -7.4474
  98   1.0000      -0.272084        -7.4038
  99   1.0000      -0.269965        -7.3461
 100   1.0000      -0.269874        -7.3436
 101   1.0000      -0.266952        -7.2641
 102   1.0000      -0.266852        -7.2614
 103   1.0000      -0.266080        -7.2404
 104   1.0000      -0.265094        -7.2136
 105   1.0000      -0.264880        -7.2078
 106   1.0000      -0.260853        -7.0982
 107   1.0000      -0.257624        -7.0103
 108   1.0000      -0.256555        -6.9812
 109   1.0000      -0.256071        -6.9680
 110   1.0000      -0.254901        -6.9362
 111   1.0000      -0.254749        -6.9321
 112   1.0000      -0.252505        -6.8710
 113   1.0000      -0.249879        -6.7995
 114   1.0000      -0.249553        -6.7907
 115   1.0000      -0.248895        -6.7728
 116   1.0000      -0.244790        -6.6611
 117   1.0000      -0.243470        -6.6251
 118   1.0000      -0.242404        -6.5961
 119   1.0000      -0.241925        -6.5831
 120   1.0000      -0.239593        -6.5197
 121   1.0000      -0.238960        -6.5024
 122   1.0000      -0.238434        -6.4881
 123   1.0000      -0.231606        -6.3023
 124   1.0000      -0.231019        -6.2864
 125   1.0000      -0.222264        -6.0481
 126   1.0000      -0.208831        -5.6826
 127   1.0000      -0.200240        -5.4488
 128   0.0000      -0.174460        -4.7473
 129   0.0000      -0.173239        -4.7141
 130   0.0000      -0.151114        -4.1120
 131   0.0000      -0.126874        -3.4524
 132   0.0000      -0.119034        -3.2391

                 SPIN DOWN ORBITALS
  NO   OCC          E(Eh)            E(eV)
   0   1.0000    -254.751573     -6932.1427
   1   1.0000     -29.534890      -803.6852
   2   1.0000     -25.489102      -693.5937
   3   1.0000     -25.483459      -693.4402
   4   1.0000     -25.479613      -693.3355
   5   1.0000      -4.030373      -109.6720
   6   1.0000      -4.030356      -109.6716
   7   1.0000      -4.026890      -109.5773
   8   1.0000      -4.026881      -109.5770
   9   1.0000      -4.023865      -109.4949
  10   1.0000      -4.023843      -109.4943
  11   1.0000      -4.021782      -109.4382
  12   1.0000      -4.021642      -109.4344
  13   1.0000      -4.021373      -109.4271
  14   1.0000      -4.021321      -109.4257
  15   1.0000      -4.016148      -109.2850
  16   1.0000      -4.016070      -109.2828
  17   1.0000      -3.240609       -88.1815
  18   1.0000      -2.247757       -61.1646
  19   1.0000      -2.247678       -61.1624
  20   1.0000      -2.244222       -61.0684
  21   1.0000      -2.244101       -61.0651
  22   1.0000      -2.243505       -61.0489
  23   1.0000      -2.243218       -61.0411
  24   1.0000      -2.240508       -60.9673
  25   1.0000      -2.240219       -60.9595
  26   1.0000      -2.239802       -60.9481
  27   1.0000      -2.239217       -60.9322
  28   1.0000      -2.239135       -60.9300
  29   1.0000      -2.239044       -60.9275
  30   1.0000      -2.238712       -60.9185
  31   1.0000      -2.238193       -60.9043
  32   1.0000      -2.238151       -60.9032
  33   1.0000      -2.236716       -60.8641
  34   1.0000      -2.235961       -60.8436
  35   1.0000      -2.235893       -60.8417
  36   1.0000      -2.235710       -60.8368
  37   1.0000      -2.235661       -60.8354
  38   1.0000      -2.235417       -60.8288
  39   1.0000      -2.234788       -60.8117
  40   1.0000      -2.234511       -60.8041
  41   1.0000      -2.233842       -60.7859
  42   1.0000      -2.233528       -60.7774
  43   1.0000      -2.233245       -60.7697
  44   1.0000      -2.232549       -60.7507
  45   1.0000      -2.231400       -60.7195
  46   1.0000      -2.231215       -60.7144
  47   1.0000      -2.231063       -60.7103
  48   1.0000      -2.230551       -60.6964
  49   1.0000      -2.230234       -60.6878
  50   1.0000      -2.229702       -60.6733
  51   1.0000      -2.227742       -60.6199
  52   1.0000      -2.226894       -60.5969
  53   1.0000      -2.226853       -60.5957
  54   1.0000      -2.062311       -56.1183
  55   1.0000      -2.055460       -55.9319
  56   1.0000      -2.053097       -55.8676
  57   1.0000      -0.424580       -11.5534
  58   1.0000      -0.391255       -10.6466
  59   1.0000      -0.378907       -10.3106
  60   1.0000      -0.372245       -10.1293
  61   1.0000      -0.368574       -10.0294
  62   1.0000      -0.362947        -9.8763
  63   1.0000      -0.361090        -9.8258
  64   1.0000      -0.356964        -9.7135
  65   1.0000      -0.350230        -9.5302
  66   1.0000      -0.347597        -9.4586
  67   1.0000      -0.346605        -9.4316
  68   1.0000      -0.344241        -9.3673
  69   1.0000      -0.341145        -9.2830
  70   1.0000      -0.337195        -9.1756
  71   1.0000      -0.336223        -9.1491
  72   1.0000      -0.332835        -9.0569
  73   1.0000      -0.331778        -9.0281
  74   1.0000      -0.326659        -8.8889
  75   1.0000      -0.325190        -8.8489
  76   1.0000      -0.324712        -8.8359
  77   1.0000      -0.322529        -8.7765
  78   1.0000      -0.319624        -8.6974
  79   1.0000      -0.317873        -8.6498
  80   1.0000      -0.316299        -8.6069
  81   1.0000      -0.315578        -8.5873
  82   1.0000      -0.313289        -8.5250
  83   1.0000      -0.310453        -8.4479
  84   1.0000      -0.308194        -8.3864
  85   1.0000      -0.297087        -8.0842
  86   1.0000      -0.292675        -7.9641
  87   1.0000      -0.291854        -7.9418
  88   1.0000      -0.290508        -7.9051
  89   1.0000      -0.289599        -7.8804
  90   1.0000      -0.287173        -7.8144
  91   1.0000      -0.283048        -7.7021
  92   1.0000      -0.281816        -7.6686
  93   1.0000      -0.279442        -7.6040
  94   1.0000      -0.277489        -7.5509
  95   1.0000      -0.274999        -7.4831
  96   1.0000      -0.274213        -7.4617
  97   1.0000      -0.273100        -7.4314
  98   1.0000      -0.272529        -7.4159
  99   1.0000      -0.270228        -7.3533
 100   1.0000      -0.269415        -7.3312
 101   1.0000      -0.267789        -7.2869
 102   1.0000      -0.266858        -7.2616
 103   1.0000      -0.266117        -7.2414
 104   1.0000      -0.264989        -7.2107
 105   1.0000      -0.261165        -7.1067
 106   1.0000      -0.260767        -7.0958
 107   1.0000      -0.258590        -7.0366
 108   1.0000      -0.257509        -7.0072
 109   1.0000      -0.256331        -6.9751
 110   1.0000      -0.254117        -6.9149
 111   1.0000      -0.251390        -6.8407
 112   1.0000      -0.250511        -6.8168
 113   1.0000      -0.250400        -6.8137
 114   1.0000      -0.248804        -6.7703
 115   1.0000      -0.245133        -6.6704
 116   1.0000      -0.244116        -6.6427
 117   1.0000      -0.242460        -6.5977
 118   1.0000      -0.240810        -6.5528
 119   1.0000      -0.233224        -6.3463
 120   1.0000      -0.226035        -6.1507
 121   1.0000      -0.216091        -5.8801
 122   1.0000      -0.207723        -5.6524
 123   1.0000      -0.196221        -5.3394
 124   1.0000      -0.194303        -5.2873
 125   1.0000      -0.176692        -4.8080
 126   0.0000      -0.163733        -4.4554
 127   0.0000      -0.158494        -4.3129
 128   0.0000      -0.152283        -4.1438
 129   0.0000      -0.144057        -3.9200
 130   0.0000      -0.138249        -3.7619

MULLIKEN ATOMIC CHARGES AND SPIN POPULATIONS
--------------------------------------------
   0 Au:    0.033830   -0.074093
   1 Au:    0.296877    0.009733
   2 Au:    0.006193   -0.090034
   3 Au:    0.263798   -0.100051
   4 Au:    0.274269   -0.038982
   5 Au:    0.322568   -0.117463
   6 Au:    0.274270   -0.038529
   7 Au:    0.263914   -0.100518
   8 Au:    0.322681   -0.117680
   9 Au:    0.034266   -0.074025
  10 Au:    0.296762    0.009702
  11 Au:    0.005598   -0.089620
  12 Fe:   -2.395025    2.821561
Sum of atomic charges         :    0.0000000

LOEWDIN ATOMIC CHARGES AND SPIN POPULATIONS
-------------------------------------------
   0 Au:    0.026998   -0.072139
   1 Au:    0.054795   -0.015955
   2 Au:   -0.009511   -0.056170
   3 Au:    0.052143   -0.087882
   4 Au:    0.077702   -0.070923
   5 Au:    0.110927   -0.131859
   6 Au:    0.077888   -0.070621
   7 Au:    0.052299   -0.088107
   8 Au:    0.110810   -0.132095
   9 Au:    0.027016   -0.072039
  10 Au:    0.054759   -0.016007
  11 Au:   -0.009641   -0.055986
  12 Fe:   -0.626185    2.869782

  Mayer bond orders larger than 0.100000
B(  0-Au,  1-Au) :   0.3793 B(  0-Au,  2-Au) :   0.1375 B(  0-Au,  4-Au) :   0.2747
B(  0-Au,  5-Au) :   0.1325 B(  0-Au, 11-Au) :   0.1924 B(  0-Au, 12-Fe) :   0.5504
B(  1-Au,  2-Au) :   0.2450 B(  1-Au, 10-Au) :   0.2080 B(  1-Au, 11-Au) :   0.3378
B(  1-Au, 12-Fe) :   0.1267 B(  2-Au,  5-Au) :   0.3291 B(  2-Au,  9-Au) :   0.1921
B(  2-Au, 10-Au) :   0.3375 B(  2-Au, 12-Fe) :   0.5289 B(  3-Au,  4-Au) :   0.1416
B(  3-Au,  5-Au) :   0.2141 B(  3-Au,  6-Au) :   0.2290 B(  3-Au,  7-Au) :   0.2171
B(  3-Au, 12-Fe) :   0.5006 B(  4-Au,  6-Au) :   0.1177 B(  4-Au,  7-Au) :   0.2290
B(  4-Au, 12-Fe) :   0.5158 B(  5-Au, 12-Fe) :   0.5332 B(  6-Au,  7-Au) :   0.1404
B(  6-Au,  9-Au) :   0.2748 B(  6-Au, 12-Fe) :   0.5163 B(  7-Au,  8-Au) :   0.2148
B(  7-Au, 12-Fe) :   0.5011 B(  8-Au,  9-Au) :   0.1326 B(  8-Au, 11-Au) :   0.3291
B(  8-Au, 12-Fe) :   0.5325 B(  9-Au, 10-Au) :   0.3791 B(  9-Au, 11-Au) :   0.1372
B(  9-Au, 12-Fe) :   0.5506 B( 10-Au, 11-Au) :   0.2453 B( 10-Au, 12-Fe) :   0.1269
B( 11-Au, 12-Fe) :   0.5290

FINAL SINGLE POINT ENERGY     -2893.391709091345

DIPOLE MOMENT
-------------
                                X             Y             Z
Electronic contribution:    -14.32594     -18.07528      -5.52860
Nuclear contribution   :     14.36351      18.12331       5.54335
                        -----------------------------------------
Total Dipole Moment    :      0.03758       0.04803       0.01474
                        -----------------------------------------
Magnitude (a.u.)       :      0.06274
Magnitude (Debye)      :      0.15947

Rotational constants in cm-1:     0.001744     0.001196     0.001001
Rotational constants in MHz :    52.269040    35.858322    30.016440

                             ****ORCA TERMINATED NORMALLY****
TOTAL RUN TIME: 0 days 0 hours 23 minutes 9 seconds 13 msec
