                         Program Version 5.0.3 -  RELEASE  -
|  1> !RI-B2PLYP def2-TZVP def2-TZVP/C
|  2> !RIJCOSX VERYSLOWCONV
|  3>
|  4> %scf
|  5>   AutoTRAHIter 200
|  6>   maxiter 400
|  7> end
|  8>
|  9>
| 10> %pal nprocs 6 end
| 11>
| 12> *xyzfile 0 6 pbe.xyz
| 13>
| 14> $new_job
| 15>
| 16> !RI-B2PLYP def2-TZVP def2-TZVP/C
| 17> !RIJCOSX VERYSLOWCONV
| 18>
| 19> %scf
| 20>   AutoTRAHIter 200
| 21>   maxiter 400
| 22> end
| 23>
| 24>
| 25> %pal nprocs 6 end
| 26>
| 27> *xyzfile 0 4 pbe.xyz
| 28>
| 29>
| 30>
| 31>
| 32>
| 33>                          ****END OF INPUT****
 Total Charge           Charge          ....    0
 Multiplicity           Mult            ....    6
 Number of Electrons    NEL             ....  311
MP2 TOTAL ENERGY:    -3297.360746469 Eh
FINAL SINGLE POINT ENERGY     -3297.360746469265

CARTESIAN COORDINATES (ANGSTROEM)
---------------------------------
  Au     8.470719    9.337150   10.021746
  Au     7.653314    6.676654   10.167117
  Au    10.111173    7.458138    8.841459
  Au     9.413980    7.264270    6.104093
  Au     6.161304    4.976992    8.595005
  Au     7.680035    7.301520    3.983302
  Au     7.394008    9.498219    5.662224
  Au     8.854591    5.205872    7.960977
  Au     6.945091    5.465032    5.958641
  Au     5.261959    7.589121    5.319577
  Au     7.125374   10.832838    8.139296
  Au     4.483014    6.993255    7.918521
  Au     4.907313    9.637689    7.124549
  Au     5.770137    8.722160    9.679620
  Au     9.554262    9.743151    7.385696
  Fe     7.184104    7.605484    7.653949

 Multiplicity           Mult            ....    4
 Number of Electrons    NEL             ....  311
 Basis Dimension        Dim             ....  645

ORBITAL ENERGIES
----------------
                 SPIN UP ORBITALS
  NO   OCC          E(Eh)            E(eV)
   0   1.0000    -258.353446     -7030.1547
   1   1.0000     -30.909760      -841.0973
   2   1.0000     -26.628907      -724.6094
   3   1.0000     -26.598861      -723.7918
   4   1.0000     -26.596956      -723.7400
   5   1.0000      -4.413429      -120.0955
   6   1.0000      -4.409144      -119.9789
   7   1.0000      -4.408405      -119.9588
   8   1.0000      -4.406114      -119.8965
   9   1.0000      -4.402197      -119.7899
  10   1.0000      -4.400236      -119.7365
  11   1.0000      -4.399437      -119.7148
  12   1.0000      -4.399291      -119.7108
  13   1.0000      -4.397946      -119.6742
  14   1.0000      -4.396134      -119.6249
  15   1.0000      -4.395994      -119.6211
  16   1.0000      -4.395423      -119.6055
  17   1.0000      -4.395125      -119.5974
  18   1.0000      -4.394556      -119.5820
  19   1.0000      -4.393969      -119.5660
  20   1.0000      -3.923574      -106.7659
  21   1.0000      -2.675446       -72.8026
  22   1.0000      -2.613341       -71.1126
  23   1.0000      -2.609384       -71.0050
  24   1.0000      -2.532992       -68.9262
  25   1.0000      -2.531851       -68.8952
  26   1.0000      -2.529384       -68.8280
  27   1.0000      -2.529236       -68.8240
  28   1.0000      -2.528053       -68.7918
  29   1.0000      -2.527510       -68.7770
  30   1.0000      -2.526097       -68.7386
  31   1.0000      -2.525677       -68.7272
  32   1.0000      -2.525151       -68.7129
  33   1.0000      -2.524183       -68.6865
  34   1.0000      -2.522891       -68.6513
  35   1.0000      -2.522566       -68.6425
  36   1.0000      -2.521324       -68.6087
  37   1.0000      -2.519708       -68.5647
  38   1.0000      -2.519573       -68.5611
  39   1.0000      -2.519071       -68.5474
  40   1.0000      -2.518300       -68.5264
  41   1.0000      -2.518050       -68.5196
  42   1.0000      -2.517536       -68.5056
  43   1.0000      -2.517101       -68.4938
  44   1.0000      -2.516619       -68.4807
  45   1.0000      -2.516282       -68.4715
  46   1.0000      -2.515888       -68.4608
  47   1.0000      -2.515544       -68.4514
  48   1.0000      -2.515040       -68.4377
  49   1.0000      -2.514817       -68.4316
  50   1.0000      -2.514689       -68.4282
  51   1.0000      -2.514515       -68.4234
  52   1.0000      -2.514420       -68.4209
  53   1.0000      -2.513736       -68.4022
  54   1.0000      -2.513153       -68.3864
  55   1.0000      -2.512679       -68.3735
  56   1.0000      -2.512136       -68.3587
  57   1.0000      -2.511948       -68.3536
  58   1.0000      -2.511700       -68.3468
  59   1.0000      -2.511082       -68.3300
  60   1.0000      -2.510875       -68.3244
  61   1.0000      -2.510696       -68.3195
  62   1.0000      -2.510364       -68.3105
  63   1.0000      -2.510056       -68.3021
  64   1.0000      -2.509994       -68.3004
  65   1.0000      -2.509797       -68.2950
  66   1.0000      -2.509438       -68.2853
  67   1.0000      -2.508725       -68.2659
  68   1.0000      -2.508567       -68.2616
  69   1.0000      -0.571754       -15.5582
  70   1.0000      -0.563942       -15.3456
  71   1.0000      -0.563226       -15.3261
  72   1.0000      -0.540554       -14.7092
  73   1.0000      -0.516914       -14.0659
  74   1.0000      -0.513296       -13.9675
  75   1.0000      -0.474439       -12.9101
  76   1.0000      -0.470913       -12.8142
  77   1.0000      -0.470500       -12.8030
  78   1.0000      -0.467444       -12.7198
  79   1.0000      -0.466119       -12.6838
  80   1.0000      -0.463421       -12.6103
  81   1.0000      -0.462060       -12.5733
  82   1.0000      -0.460313       -12.5258
  83   1.0000      -0.459408       -12.5011
  84   1.0000      -0.458403       -12.4738
  85   1.0000      -0.457279       -12.4432
  86   1.0000      -0.456187       -12.4135
  87   1.0000      -0.453354       -12.3364
  88   1.0000      -0.452356       -12.3092
  89   1.0000      -0.451087       -12.2747
  90   1.0000      -0.450719       -12.2647
  91   1.0000      -0.449531       -12.2324
  92   1.0000      -0.448551       -12.2057
  93   1.0000      -0.446435       -12.1481
  94   1.0000      -0.444399       -12.0927
  95   1.0000      -0.443430       -12.0663
  96   1.0000      -0.441617       -12.0170
  97   1.0000      -0.440619       -11.9898
  98   1.0000      -0.438723       -11.9383
  99   1.0000      -0.437268       -11.8987
 100   1.0000      -0.431254       -11.7350
 101   1.0000      -0.427945       -11.6450
 102   1.0000      -0.427522       -11.6335
 103   1.0000      -0.422688       -11.5019
 104   1.0000      -0.422055       -11.4847
 105   1.0000      -0.417833       -11.3698
 106   1.0000      -0.416532       -11.3344
 107   1.0000      -0.413820       -11.2606
 108   1.0000      -0.410129       -11.1602
 109   1.0000      -0.405854       -11.0439
 110   1.0000      -0.401756       -10.9323
 111   1.0000      -0.397425       -10.8145
 112   1.0000      -0.394739       -10.7414
 113   1.0000      -0.389150       -10.5893
 114   1.0000      -0.386243       -10.5102
 115   1.0000      -0.384445       -10.4613
 116   1.0000      -0.383349       -10.4315
 117   1.0000      -0.381477       -10.3805
 118   1.0000      -0.380937       -10.3658
 119   1.0000      -0.376673       -10.2498
 120   1.0000      -0.374712       -10.1964
 121   1.0000      -0.373866       -10.1734
 122   1.0000      -0.372919       -10.1476
 123   1.0000      -0.371735       -10.1154
 124   1.0000      -0.370746       -10.0885
 125   1.0000      -0.369892       -10.0653
 126   1.0000      -0.366417        -9.9707
 127   1.0000      -0.365962        -9.9583
 128   1.0000      -0.365237        -9.9386
 129   1.0000      -0.362953        -9.8765
 130   1.0000      -0.361535        -9.8379
 131   1.0000      -0.358323        -9.7505
 132   1.0000      -0.357918        -9.7394
 133   1.0000      -0.356270        -9.6946
 134   1.0000      -0.355288        -9.6679
 135   1.0000      -0.353211        -9.6113
 136   1.0000      -0.351515        -9.5652
 137   1.0000      -0.349898        -9.5212
 138   1.0000      -0.348217        -9.4755
 139   1.0000      -0.346032        -9.4160
 140   1.0000      -0.345514        -9.4019
 141   1.0000      -0.343212        -9.3393
 142   1.0000      -0.342092        -9.3088
 143   1.0000      -0.341780        -9.3003
 144   1.0000      -0.338861        -9.2209
 145   1.0000      -0.337185        -9.1753
 146   1.0000      -0.329266        -8.9598
 147   1.0000      -0.327716        -8.9176
 148   1.0000      -0.322505        -8.7758
 149   1.0000      -0.320933        -8.7330
 150   1.0000      -0.318299        -8.6614
 151   1.0000      -0.315397        -8.5824
 152   1.0000      -0.313258        -8.5242
 153   1.0000      -0.243528        -6.6267
 154   1.0000      -0.232331        -6.3220
 155   1.0000      -0.220843        -6.0095
 156   1.0000      -0.214263        -5.8304
 157   0.0000      -0.138939        -3.7807
 158   0.0000      -0.096935        -2.6377
 159   0.0000      -0.064966        -1.7678
 160   0.0000      -0.060345        -1.6421
 161   0.0000      -0.056919        -1.5489

                 SPIN DOWN ORBITALS
  NO   OCC          E(Eh)            E(eV)
   0   1.0000    -258.351524     -7030.1024
   1   1.0000     -30.816808      -838.5680
   2   1.0000     -26.528995      -721.8906
   3   1.0000     -26.520841      -721.6688
   4   1.0000     -26.520298      -721.6540
   5   1.0000      -4.413569      -120.0993
   6   1.0000      -4.409692      -119.9938
   7   1.0000      -4.407570      -119.9361
   8   1.0000      -4.406240      -119.8999
   9   1.0000      -4.401612      -119.7739
  10   1.0000      -4.400739      -119.7502
  11   1.0000      -4.400722      -119.7497
  12   1.0000      -4.400540      -119.7448
  13   1.0000      -4.397494      -119.6619
  14   1.0000      -4.396718      -119.6408
  15   1.0000      -4.396403      -119.6322
  16   1.0000      -4.395618      -119.6109
  17   1.0000      -4.395469      -119.6068
  18   1.0000      -4.394870      -119.5905
  19   1.0000      -4.394159      -119.5711
  20   1.0000      -3.678377      -100.0937
  21   1.0000      -2.532344       -68.9086
  22   1.0000      -2.531107       -68.8749
  23   1.0000      -2.529678       -68.8360
  24   1.0000      -2.528989       -68.8173
  25   1.0000      -2.527485       -68.7764
  26   1.0000      -2.525935       -68.7342
  27   1.0000      -2.525345       -68.7181
  28   1.0000      -2.525238       -68.7152
  29   1.0000      -2.524854       -68.7048
  30   1.0000      -2.524231       -68.6878
  31   1.0000      -2.522593       -68.6432
  32   1.0000      -2.522244       -68.6338
  33   1.0000      -2.520292       -68.5806
  34   1.0000      -2.520096       -68.5753
  35   1.0000      -2.519903       -68.5701
  36   1.0000      -2.519337       -68.5546
  37   1.0000      -2.518950       -68.5441
  38   1.0000      -2.518423       -68.5298
  39   1.0000      -2.518055       -68.5198
  40   1.0000      -2.517853       -68.5143
  41   1.0000      -2.517234       -68.4974
  42   1.0000      -2.517047       -68.4923
  43   1.0000      -2.516812       -68.4859
  44   1.0000      -2.516275       -68.4713
  45   1.0000      -2.515856       -68.4599
  46   1.0000      -2.515707       -68.4559
  47   1.0000      -2.515532       -68.4511
  48   1.0000      -2.514973       -68.4359
  49   1.0000      -2.514452       -68.4217
  50   1.0000      -2.513984       -68.4090
  51   1.0000      -2.513306       -68.3905
  52   1.0000      -2.512765       -68.3758
  53   1.0000      -2.512715       -68.3745
  54   1.0000      -2.512491       -68.3684
  55   1.0000      -2.512007       -68.3552
  56   1.0000      -2.511361       -68.3376
  57   1.0000      -2.511218       -68.3337
  58   1.0000      -2.511180       -68.3327
  59   1.0000      -2.510614       -68.3173
  60   1.0000      -2.510404       -68.3116
  61   1.0000      -2.510150       -68.3047
  62   1.0000      -2.510013       -68.3009
  63   1.0000      -2.509904       -68.2980
  64   1.0000      -2.509051       -68.2748
  65   1.0000      -2.508713       -68.2656
  66   1.0000      -2.358092       -64.1669
  67   1.0000      -2.357466       -64.1499
  68   1.0000      -2.342995       -63.7561
  69   1.0000      -0.515595       -14.0300
  70   1.0000      -0.482986       -13.1427
  71   1.0000      -0.476728       -12.9724
  72   1.0000      -0.472993       -12.8708
  73   1.0000      -0.470738       -12.8094
  74   1.0000      -0.469223       -12.7682
  75   1.0000      -0.467731       -12.7276
  76   1.0000      -0.465911       -12.6781
  77   1.0000      -0.464475       -12.6390
  78   1.0000      -0.463627       -12.6159
  79   1.0000      -0.460960       -12.5434
  80   1.0000      -0.460018       -12.5177
  81   1.0000      -0.459541       -12.5048
  82   1.0000      -0.458591       -12.4789
  83   1.0000      -0.457657       -12.4535
  84   1.0000      -0.457331       -12.4446
  85   1.0000      -0.455171       -12.3858
  86   1.0000      -0.454630       -12.3711
  87   1.0000      -0.452909       -12.3243
  88   1.0000      -0.452358       -12.3093
  89   1.0000      -0.450653       -12.2629
  90   1.0000      -0.447184       -12.1685
  91   1.0000      -0.445799       -12.1308
  92   1.0000      -0.444130       -12.0854
  93   1.0000      -0.442432       -12.0392
  94   1.0000      -0.438612       -11.9352
  95   1.0000      -0.432343       -11.7647
  96   1.0000      -0.431652       -11.7458
  97   1.0000      -0.429786       -11.6951
  98   1.0000      -0.425764       -11.5856
  99   1.0000      -0.424373       -11.5478
 100   1.0000      -0.421167       -11.4605
 101   1.0000      -0.419276       -11.4091
 102   1.0000      -0.416648       -11.3376
 103   1.0000      -0.412780       -11.2323
 104   1.0000      -0.409459       -11.1419
 105   1.0000      -0.403812       -10.9883
 106   1.0000      -0.400641       -10.9020
 107   1.0000      -0.397694       -10.8218
 108   1.0000      -0.394264       -10.7285
 109   1.0000      -0.393074       -10.6961
 110   1.0000      -0.391093       -10.6422
 111   1.0000      -0.389438       -10.5972
 112   1.0000      -0.386171       -10.5082
 113   1.0000      -0.384072       -10.4511
 114   1.0000      -0.380068       -10.3422
 115   1.0000      -0.378024       -10.2866
 116   1.0000      -0.377414       -10.2700
 117   1.0000      -0.375048       -10.2056
 118   1.0000      -0.373465       -10.1625
 119   1.0000      -0.372446       -10.1348
 120   1.0000      -0.370279       -10.0758
 121   1.0000      -0.367765       -10.0074
 122   1.0000      -0.366567        -9.9748
 123   1.0000      -0.365322        -9.9409
 124   1.0000      -0.364198        -9.9103
 125   1.0000      -0.361883        -9.8473
 126   1.0000      -0.360465        -9.8088
 127   1.0000      -0.359698        -9.7879
 128   1.0000      -0.358058        -9.7433
 129   1.0000      -0.356969        -9.7136
 130   1.0000      -0.355274        -9.6675
 131   1.0000      -0.353195        -9.6109
 132   1.0000      -0.350873        -9.5477
 133   1.0000      -0.350208        -9.5297
 134   1.0000      -0.349260        -9.5038
 135   1.0000      -0.347024        -9.4430
 136   1.0000      -0.345931        -9.4133
 137   1.0000      -0.344508        -9.3745
 138   1.0000      -0.343514        -9.3475
 139   1.0000      -0.342488        -9.3196
 140   1.0000      -0.339591        -9.2407
 141   1.0000      -0.337987        -9.1971
 142   1.0000      -0.329997        -8.9797
 143   1.0000      -0.329397        -8.9634
 144   1.0000      -0.323593        -8.8054
 145   1.0000      -0.323064        -8.7910
 146   1.0000      -0.321556        -8.7500
 147   1.0000      -0.319254        -8.6873
 148   1.0000      -0.316252        -8.6056
 149   1.0000      -0.245941        -6.6924
 150   1.0000      -0.237225        -6.4552
 151   1.0000      -0.229888        -6.2556
 152   1.0000      -0.228056        -6.2057
 153   1.0000      -0.223614        -6.0849
 154   0.0000      -0.095144        -2.5890
 155   0.0000      -0.066465        -1.8086
 156   0.0000      -0.060612        -1.6493
 157   0.0000      -0.060047        -1.6340
 158   0.0000      -0.056875        -1.5477

MULLIKEN ATOMIC CHARGES AND SPIN POPULATIONS
--------------------------------------------
   0 Au:    0.147902   -0.052711
   1 Au:    0.173053   -0.179664
   2 Au:    0.192976    0.037948
   3 Au:   -0.151900    0.050651
   4 Au:    0.275567   -0.066905
   5 Au:    0.386228   -0.029863
   6 Au:   -0.050909   -0.218836
   7 Au:    0.150431   -0.018329
   8 Au:    0.102447   -0.169026
   9 Au:    0.047018    0.037968
  10 Au:    0.190049   -0.052593
  11 Au:    0.182570    0.045092
  12 Au:    0.159869    0.019741
  13 Au:    0.072934    0.013875
  14 Au:    0.119234    0.033666
  15 Fe:   -1.997468    3.548987
Sum of atomic charges         :   -0.0000000

LOEWDIN ATOMIC CHARGES AND SPIN POPULATIONS
-------------------------------------------
   0 Au:    0.002491   -0.036914
   1 Au:    0.025821   -0.090245
   2 Au:   -0.001094    0.011687
   3 Au:   -0.024986   -0.007183
   4 Au:    0.067398   -0.094058
   5 Au:    0.122057   -0.070743
   6 Au:   -0.018962   -0.086779
   7 Au:    0.027018   -0.054576
   8 Au:    0.001947   -0.085602
   9 Au:   -0.017007   -0.014989
  10 Au:    0.021551   -0.054344
  11 Au:    0.012002    0.009612
  12 Au:    0.010230   -0.006164
  13 Au:    0.021114   -0.025230
  14 Au:    0.007606   -0.008715
  15 Fe:   -0.257187    3.614244

  Mayer bond orders larger than 0.100000
B(  0-Au,  1-Au) :   0.2405 B(  0-Au,  2-Au) :   0.2678 B(  0-Au, 10-Au) :   0.2273
B(  0-Au, 13-Au) :   0.1829 B(  0-Au, 14-Au) :   0.1868 B(  0-Au, 15-Fe) :   0.2294
B(  1-Au,  2-Au) :   0.1635 B(  1-Au,  4-Au) :   0.2015 B(  1-Au,  7-Au) :   0.1644
B(  1-Au, 13-Au) :   0.1648 B(  1-Au, 15-Fe) :   0.3825 B(  2-Au,  3-Au) :   0.1839
B(  2-Au,  7-Au) :   0.2478 B(  2-Au, 14-Au) :   0.2104 B(  2-Au, 15-Fe) :   0.2571
B(  3-Au,  5-Au) :   0.3065 B(  3-Au,  6-Au) :   0.1495 B(  3-Au,  7-Au) :   0.1507
B(  3-Au,  8-Au) :   0.1022 B(  3-Au, 14-Au) :   0.2039 B(  3-Au, 15-Fe) :   0.5134
B(  4-Au,  7-Au) :   0.1926 B(  4-Au,  8-Au) :   0.2516 B(  4-Au, 11-Au) :   0.2519
B(  4-Au, 15-Fe) :   0.3179 B(  5-Au,  6-Au) :   0.2675 B(  5-Au,  8-Au) :   0.2332
B(  5-Au,  9-Au) :   0.2192 B(  6-Au,  9-Au) :   0.2068 B(  6-Au, 10-Au) :   0.2861
B(  6-Au, 12-Au) :   0.2059 B(  6-Au, 14-Au) :   0.2161 B(  6-Au, 15-Fe) :   0.3738
B(  7-Au,  8-Au) :   0.2142 B(  7-Au, 15-Fe) :   0.3461 B(  8-Au,  9-Au) :   0.2326
B(  8-Au, 15-Fe) :   0.3611 B(  9-Au, 11-Au) :   0.1748 B(  9-Au, 12-Au) :   0.2602
B(  9-Au, 15-Fe) :   0.2845 B( 10-Au, 12-Au) :   0.2657 B( 10-Au, 13-Au) :   0.1146
B( 10-Au, 14-Au) :   0.2162 B( 10-Au, 15-Fe) :   0.2214 B( 11-Au, 12-Au) :   0.1637
B( 11-Au, 13-Au) :   0.1903 B( 11-Au, 15-Fe) :   0.4418 B( 12-Au, 13-Au) :   0.1545
B( 12-Au, 15-Fe) :   0.3031 B( 13-Au, 15-Fe) :   0.4981 B( 14-Au, 15-Fe) :   0.2945

MP2 TOTAL ENERGY:    -3297.358277181 Eh
FINAL SINGLE POINT ENERGY     -3297.358277181348

DIPOLE MOMENT
-------------
                                X             Y             Z
Electronic contribution:      5.15985       6.47122      -5.21113
Nuclear contribution   :     -5.16025      -6.67691       4.96324
                        -----------------------------------------
Total Dipole Moment    :     -0.00039      -0.20569      -0.24790
                        -----------------------------------------
Magnitude (a.u.)       :      0.32212
Magnitude (Debye)      :      0.81877

Rotational constants in cm-1:     0.001003     0.000944     0.000904
Rotational constants in MHz :    30.082356    28.308572    27.086401

                             ****ORCA TERMINATED NORMALLY****
TOTAL RUN TIME: 0 days 2 hours 0 minutes 51 seconds 924 msec
