                         Program Version 5.0.3 -  RELEASE  -
|  1> !PBE def2-TZVP VERYSLOWCONV
|  2>
|  3> %scf
|  4>   AutoTRAHIter 200
|  5>   maxiter 400
|  6> end
|  7>
|  8>
|  9> %pal nprocs 6 end
| 10>
| 11> *xyzfile 0 6 pbe.xyz
| 12>
| 13> $new_job
| 14>
| 15> !PBE def2-TZVP VERYSLOWCONV
| 16>
| 17> %scf
| 18>   AutoTRAHIter 200
| 19>   maxiter 400
| 20> end
| 21>
| 22>
| 23> %pal nprocs 6 end
| 24>
| 25> *xyzfile 0 4 pbe.xyz
| 26>
| 27>
| 28>
| 29>
| 30>
| 31>                          ****END OF INPUT****
 Total Charge           Charge          ....    0
 Multiplicity           Mult            ....    6
 Number of Electrons    NEL             ....  311
FINAL SINGLE POINT ENERGY     -3300.921561607188

CARTESIAN COORDINATES (ANGSTROEM)
---------------------------------
  Au     8.470719    9.337150   10.021746
  Au     7.653314    6.676654   10.167117
  Au    10.111173    7.458138    8.841459
  Au     9.413980    7.264270    6.104093
  Au     6.161304    4.976992    8.595005
  Au     7.680035    7.301520    3.983302
  Au     7.394008    9.498219    5.662224
  Au     8.854591    5.205872    7.960977
  Au     6.945091    5.465032    5.958641
  Au     5.261959    7.589121    5.319577
  Au     7.125374   10.832838    8.139296
  Au     4.483014    6.993255    7.918521
  Au     4.907313    9.637689    7.124549
  Au     5.770137    8.722160    9.679620
  Au     9.554262    9.743151    7.385696
  Fe     7.184104    7.605484    7.653949

 Multiplicity           Mult            ....    4
 Number of Electrons    NEL             ....  311
 Basis Dimension        Dim             ....  645

ORBITAL ENERGIES
----------------
                 SPIN UP ORBITALS
  NO   OCC          E(Eh)            E(eV)
   0   1.0000    -254.759248     -6932.3516
   1   1.0000     -29.592616      -805.2560
   2   1.0000     -25.542639      -695.0505
   3   1.0000     -25.521799      -694.4835
   4   1.0000     -25.520161      -694.4389
   5   1.0000      -4.041106      -109.9641
   6   1.0000      -4.038379      -109.8899
   7   1.0000      -4.034303      -109.7790
   8   1.0000      -4.033954      -109.7695
   9   1.0000      -4.032828      -109.7388
  10   1.0000      -4.030411      -109.6731
  11   1.0000      -4.030404      -109.6729
  12   1.0000      -4.028734      -109.6274
  13   1.0000      -4.028379      -109.6178
  14   1.0000      -4.028215      -109.6133
  15   1.0000      -4.027412      -109.5915
  16   1.0000      -4.027016      -109.5807
  17   1.0000      -4.026880      -109.5770
  18   1.0000      -4.025296      -109.5339
  19   1.0000      -4.024728      -109.5184
  20   1.0000      -3.372942       -91.7824
  21   1.0000      -2.255840       -61.3845
  22   1.0000      -2.254526       -61.3488
  23   1.0000      -2.253368       -61.3173
  24   1.0000      -2.252359       -61.2898
  25   1.0000      -2.251390       -61.2634
  26   1.0000      -2.250575       -61.2413
  27   1.0000      -2.249135       -61.2021
  28   1.0000      -2.249034       -61.1993
  29   1.0000      -2.248335       -61.1803
  30   1.0000      -2.247557       -61.1591
  31   1.0000      -2.247403       -61.1549
  32   1.0000      -2.246787       -61.1382
  33   1.0000      -2.246436       -61.1286
  34   1.0000      -2.245972       -61.1160
  35   1.0000      -2.245251       -61.0964
  36   1.0000      -2.244754       -61.0829
  37   1.0000      -2.244589       -61.0784
  38   1.0000      -2.244134       -61.0660
  39   1.0000      -2.243594       -61.0513
  40   1.0000      -2.243505       -61.0489
  41   1.0000      -2.243106       -61.0380
  42   1.0000      -2.242316       -61.0165
  43   1.0000      -2.241979       -61.0074
  44   1.0000      -2.241617       -60.9975
  45   1.0000      -2.241326       -60.9896
  46   1.0000      -2.241144       -60.9846
  47   1.0000      -2.240960       -60.9796
  48   1.0000      -2.240780       -60.9747
  49   1.0000      -2.240597       -60.9697
  50   1.0000      -2.240208       -60.9591
  51   1.0000      -2.240080       -60.9557
  52   1.0000      -2.239782       -60.9476
  53   1.0000      -2.239520       -60.9404
  54   1.0000      -2.239338       -60.9355
  55   1.0000      -2.239110       -60.9293
  56   1.0000      -2.238917       -60.9240
  57   1.0000      -2.238776       -60.9202
  58   1.0000      -2.238541       -60.9138
  59   1.0000      -2.238302       -60.9073
  60   1.0000      -2.238060       -60.9007
  61   1.0000      -2.237921       -60.8969
  62   1.0000      -2.237366       -60.8818
  63   1.0000      -2.236649       -60.8623
  64   1.0000      -2.235799       -60.8392
  65   1.0000      -2.234283       -60.7979
  66   1.0000      -2.216007       -60.3006
  67   1.0000      -2.174039       -59.1586
  68   1.0000      -2.170372       -59.0588
  69   1.0000      -0.438319       -11.9273
  70   1.0000      -0.393616       -10.7108
  71   1.0000      -0.391616       -10.6564
  72   1.0000      -0.389663       -10.6033
  73   1.0000      -0.378641       -10.3033
  74   1.0000      -0.375370       -10.2143
  75   1.0000      -0.374878       -10.2009
  76   1.0000      -0.371024       -10.0961
  77   1.0000      -0.369082       -10.0432
  78   1.0000      -0.367926       -10.0118
  79   1.0000      -0.362393        -9.8612
  80   1.0000      -0.361104        -9.8262
  81   1.0000      -0.358207        -9.7473
  82   1.0000      -0.357399        -9.7253
  83   1.0000      -0.356689        -9.7060
  84   1.0000      -0.355542        -9.6748
  85   1.0000      -0.353259        -9.6127
  86   1.0000      -0.352934        -9.6038
  87   1.0000      -0.351794        -9.5728
  88   1.0000      -0.348920        -9.4946
  89   1.0000      -0.347403        -9.4533
  90   1.0000      -0.344689        -9.3795
  91   1.0000      -0.343679        -9.3520
  92   1.0000      -0.342024        -9.3069
  93   1.0000      -0.340874        -9.2757
  94   1.0000      -0.336927        -9.1683
  95   1.0000      -0.334858        -9.1120
  96   1.0000      -0.332820        -9.0565
  97   1.0000      -0.330972        -9.0062
  98   1.0000      -0.328623        -8.9423
  99   1.0000      -0.327321        -8.9069
 100   1.0000      -0.323280        -8.7969
 101   1.0000      -0.321609        -8.7514
 102   1.0000      -0.319442        -8.6925
 103   1.0000      -0.318854        -8.6765
 104   1.0000      -0.314623        -8.5613
 105   1.0000      -0.311539        -8.4774
 106   1.0000      -0.308403        -8.3921
 107   1.0000      -0.305286        -8.3073
 108   1.0000      -0.302794        -8.2394
 109   1.0000      -0.301941        -8.2162
 110   1.0000      -0.295164        -8.0318
 111   1.0000      -0.292377        -7.9560
 112   1.0000      -0.291241        -7.9251
 113   1.0000      -0.290668        -7.9095
 114   1.0000      -0.286350        -7.7920
 115   1.0000      -0.283318        -7.7095
 116   1.0000      -0.281434        -7.6582
 117   1.0000      -0.280822        -7.6416
 118   1.0000      -0.279477        -7.6050
 119   1.0000      -0.277532        -7.5520
 120   1.0000      -0.276118        -7.5135
 121   1.0000      -0.274466        -7.4686
 122   1.0000      -0.273800        -7.4505
 123   1.0000      -0.272618        -7.4183
 124   1.0000      -0.271398        -7.3851
 125   1.0000      -0.270637        -7.3644
 126   1.0000      -0.268762        -7.3134
 127   1.0000      -0.268348        -7.3021
 128   1.0000      -0.266324        -7.2471
 129   1.0000      -0.264878        -7.2077
 130   1.0000      -0.264338        -7.1930
 131   1.0000      -0.263216        -7.1625
 132   1.0000      -0.262194        -7.1347
 133   1.0000      -0.261394        -7.1129
 134   1.0000      -0.260649        -7.0926
 135   1.0000      -0.259588        -7.0637
 136   1.0000      -0.258794        -7.0422
 137   1.0000      -0.256617        -6.9829
 138   1.0000      -0.255261        -6.9460
 139   1.0000      -0.254151        -6.9158
 140   1.0000      -0.253555        -6.8996
 141   1.0000      -0.251744        -6.8503
 142   1.0000      -0.251075        -6.8321
 143   1.0000      -0.250545        -6.8177
 144   1.0000      -0.249649        -6.7933
 145   1.0000      -0.248309        -6.7568
 146   1.0000      -0.248007        -6.7486
 147   1.0000      -0.244466        -6.6523
 148   1.0000      -0.242656        -6.6030
 149   1.0000      -0.241432        -6.5697
 150   1.0000      -0.240645        -6.5483
 151   1.0000      -0.238249        -6.4831
 152   1.0000      -0.233765        -6.3611
 153   1.0000      -0.215161        -5.8548
 154   1.0000      -0.212782        -5.7901
 155   1.0000      -0.205513        -5.5923
 156   1.0000      -0.199448        -5.4273
 157   0.0000      -0.197231        -5.3669
 158   0.0000      -0.155298        -4.2259
 159   0.0000      -0.129428        -3.5219
 160   0.0000      -0.127090        -3.4583
 161   0.0000      -0.125124        -3.4048

                 SPIN DOWN ORBITALS
  NO   OCC          E(Eh)            E(eV)
   0   1.0000    -254.758595     -6932.3338
   1   1.0000     -29.534881      -803.6850
   2   1.0000     -25.492222      -693.6786
   3   1.0000     -25.481392      -693.3839
   4   1.0000     -25.480272      -693.3535
   5   1.0000      -4.040764      -109.9548
   6   1.0000      -4.037816      -109.8746
   7   1.0000      -4.034136      -109.7744
   8   1.0000      -4.033823      -109.7659
   9   1.0000      -4.032427      -109.7279
  10   1.0000      -4.030682      -109.6804
  11   1.0000      -4.030058      -109.6634
  12   1.0000      -4.029161      -109.6390
  13   1.0000      -4.028614      -109.6242
  14   1.0000      -4.028468      -109.6202
  15   1.0000      -4.028027      -109.6082
  16   1.0000      -4.027457      -109.5927
  17   1.0000      -4.027091      -109.5827
  18   1.0000      -4.025307      -109.5342
  19   1.0000      -4.024736      -109.5186
  20   1.0000      -3.241025       -88.1928
  21   1.0000      -2.255497       -61.3752
  22   1.0000      -2.253823       -61.3297
  23   1.0000      -2.252716       -61.2995
  24   1.0000      -2.252191       -61.2852
  25   1.0000      -2.250624       -61.2426
  26   1.0000      -2.250490       -61.2389
  27   1.0000      -2.248973       -61.1977
  28   1.0000      -2.248828       -61.1937
  29   1.0000      -2.247992       -61.1710
  30   1.0000      -2.247006       -61.1442
  31   1.0000      -2.246843       -61.1397
  32   1.0000      -2.246489       -61.1301
  33   1.0000      -2.246383       -61.1272
  34   1.0000      -2.245942       -61.1152
  35   1.0000      -2.245210       -61.0953
  36   1.0000      -2.244926       -61.0875
  37   1.0000      -2.244543       -61.0771
  38   1.0000      -2.244185       -61.0674
  39   1.0000      -2.243561       -61.0504
  40   1.0000      -2.243235       -61.0415
  41   1.0000      -2.242989       -61.0348
  42   1.0000      -2.242645       -61.0255
  43   1.0000      -2.242330       -61.0169
  44   1.0000      -2.241947       -61.0065
  45   1.0000      -2.241670       -60.9989
  46   1.0000      -2.241506       -60.9945
  47   1.0000      -2.241448       -60.9929
  48   1.0000      -2.241255       -60.9876
  49   1.0000      -2.240997       -60.9806
  50   1.0000      -2.240853       -60.9767
  51   1.0000      -2.240607       -60.9700
  52   1.0000      -2.240483       -60.9666
  53   1.0000      -2.239856       -60.9496
  54   1.0000      -2.239544       -60.9411
  55   1.0000      -2.239333       -60.9354
  56   1.0000      -2.239023       -60.9269
  57   1.0000      -2.238863       -60.9226
  58   1.0000      -2.238783       -60.9204
  59   1.0000      -2.238654       -60.9169
  60   1.0000      -2.238209       -60.9048
  61   1.0000      -2.237982       -60.8986
  62   1.0000      -2.237458       -60.8843
  63   1.0000      -2.236749       -60.8650
  64   1.0000      -2.235655       -60.8353
  65   1.0000      -2.234172       -60.7949
  66   1.0000      -2.066365       -56.2286
  67   1.0000      -2.054646       -55.9098
  68   1.0000      -2.052018       -55.8383
  69   1.0000      -0.434807       -11.8317
  70   1.0000      -0.393658       -10.7120
  71   1.0000      -0.391714       -10.6591
  72   1.0000      -0.388839       -10.5808
  73   1.0000      -0.373680       -10.1684
  74   1.0000      -0.372757       -10.1432
  75   1.0000      -0.371772       -10.1164
  76   1.0000      -0.367857       -10.0099
  77   1.0000      -0.366049        -9.9607
  78   1.0000      -0.363675        -9.8961
  79   1.0000      -0.360908        -9.8208
  80   1.0000      -0.360187        -9.8012
  81   1.0000      -0.357397        -9.7253
  82   1.0000      -0.356762        -9.7080
  83   1.0000      -0.355825        -9.6825
  84   1.0000      -0.354571        -9.6484
  85   1.0000      -0.352386        -9.5889
  86   1.0000      -0.352007        -9.5786
  87   1.0000      -0.350293        -9.5320
  88   1.0000      -0.348884        -9.4936
  89   1.0000      -0.347179        -9.4472
  90   1.0000      -0.344709        -9.3800
  91   1.0000      -0.343485        -9.3467
  92   1.0000      -0.341725        -9.2988
  93   1.0000      -0.340870        -9.2755
  94   1.0000      -0.336952        -9.1689
  95   1.0000      -0.334494        -9.1021
  96   1.0000      -0.331041        -9.0081
  97   1.0000      -0.328341        -8.9346
  98   1.0000      -0.327192        -8.9034
  99   1.0000      -0.324326        -8.8253
 100   1.0000      -0.321237        -8.7413
 101   1.0000      -0.320181        -8.7126
 102   1.0000      -0.317412        -8.6372
 103   1.0000      -0.314172        -8.5491
 104   1.0000      -0.311795        -8.4844
 105   1.0000      -0.306477        -8.3397
 106   1.0000      -0.304097        -8.2749
 107   1.0000      -0.300877        -8.1873
 108   1.0000      -0.298846        -8.1320
 109   1.0000      -0.297612        -8.0984
 110   1.0000      -0.293321        -7.9817
 111   1.0000      -0.291436        -7.9304
 112   1.0000      -0.289772        -7.8851
 113   1.0000      -0.287542        -7.8244
 114   1.0000      -0.284198        -7.7334
 115   1.0000      -0.281677        -7.6648
 116   1.0000      -0.280477        -7.6322
 117   1.0000      -0.279132        -7.5956
 118   1.0000      -0.278239        -7.5713
 119   1.0000      -0.276368        -7.5204
 120   1.0000      -0.276043        -7.5115
 121   1.0000      -0.273421        -7.4402
 122   1.0000      -0.272654        -7.4193
 123   1.0000      -0.271621        -7.3912
 124   1.0000      -0.270161        -7.3515
 125   1.0000      -0.268064        -7.2944
 126   1.0000      -0.267071        -7.2674
 127   1.0000      -0.266271        -7.2456
 128   1.0000      -0.264650        -7.2015
 129   1.0000      -0.263918        -7.1816
 130   1.0000      -0.261836        -7.1249
 131   1.0000      -0.261043        -7.1034
 132   1.0000      -0.260547        -7.0899
 133   1.0000      -0.258769        -7.0415
 134   1.0000      -0.257050        -6.9947
 135   1.0000      -0.255740        -6.9590
 136   1.0000      -0.254746        -6.9320
 137   1.0000      -0.253501        -6.8981
 138   1.0000      -0.251821        -6.8524
 139   1.0000      -0.250523        -6.8171
 140   1.0000      -0.250001        -6.8029
 141   1.0000      -0.248491        -6.7618
 142   1.0000      -0.247657        -6.7391
 143   1.0000      -0.244525        -6.6539
 144   1.0000      -0.242981        -6.6119
 145   1.0000      -0.241622        -6.5749
 146   1.0000      -0.238890        -6.5005
 147   1.0000      -0.234249        -6.3742
 148   1.0000      -0.224879        -6.1193
 149   1.0000      -0.220333        -5.9956
 150   1.0000      -0.213518        -5.8101
 151   1.0000      -0.210271        -5.7218
 152   1.0000      -0.207863        -5.6562
 153   1.0000      -0.176035        -4.7902
 154   0.0000      -0.166748        -4.5374
 155   0.0000      -0.161903        -4.4056
 156   0.0000      -0.160052        -4.3552
 157   0.0000      -0.151167        -4.1135
 158   0.0000      -0.141626        -3.8538

MULLIKEN ATOMIC CHARGES AND SPIN POPULATIONS
--------------------------------------------
   0 Au:    0.151280    0.011623
   1 Au:    0.183653   -0.112438
   2 Au:    0.211377    0.032580
   3 Au:   -0.064375    0.027884
   4 Au:    0.318140   -0.006375
   5 Au:    0.398088   -0.063407
   6 Au:   -0.059047   -0.120496
   7 Au:    0.177974    0.000132
   8 Au:    0.083872   -0.041166
   9 Au:    0.097657    0.018383
  10 Au:    0.204371    0.007129
  11 Au:    0.227684    0.075450
  12 Au:    0.174002    0.009101
  13 Au:    0.150421   -0.005684
  14 Au:    0.163939    0.066108
  15 Fe:   -2.419037    3.101177
Sum of atomic charges         :   -0.0000000

LOEWDIN ATOMIC CHARGES AND SPIN POPULATIONS
-------------------------------------------
   0 Au:    0.005789    0.001602
   1 Au:    0.046402   -0.051916
   2 Au:    0.022094    0.015277
   3 Au:    0.005888    0.019526
   4 Au:    0.075265   -0.028887
   5 Au:    0.105228   -0.074863
   6 Au:    0.003517   -0.034325
   7 Au:    0.045590   -0.036226
   8 Au:    0.015688   -0.017352
   9 Au:    0.006750   -0.012904
  10 Au:    0.028025   -0.013648
  11 Au:    0.041283    0.045408
  12 Au:    0.034165   -0.016475
  13 Au:    0.049705   -0.003690
  14 Au:    0.019219    0.037394
  15 Fe:   -0.504607    3.171079

  Mayer bond orders larger than 0.100000
B(  0-Au,  1-Au) :   0.2406 B(  0-Au,  2-Au) :   0.3057 B(  0-Au, 10-Au) :   0.2889
B(  0-Au, 13-Au) :   0.2111 B(  0-Au, 14-Au) :   0.1980 B(  0-Au, 15-Fe) :   0.2404
B(  1-Au,  2-Au) :   0.1690 B(  1-Au,  4-Au) :   0.2466 B(  1-Au,  7-Au) :   0.1677
B(  1-Au, 13-Au) :   0.2326 B(  1-Au, 15-Fe) :   0.4251 B(  2-Au,  3-Au) :   0.2113
B(  2-Au,  7-Au) :   0.2913 B(  2-Au, 14-Au) :   0.2443 B(  2-Au, 15-Fe) :   0.2628
B(  3-Au,  5-Au) :   0.3396 B(  3-Au,  6-Au) :   0.2035 B(  3-Au,  7-Au) :   0.1815
B(  3-Au,  8-Au) :   0.1184 B(  3-Au, 14-Au) :   0.2377 B(  3-Au, 15-Fe) :   0.5034
B(  4-Au,  7-Au) :   0.2087 B(  4-Au,  8-Au) :   0.2523 B(  4-Au, 11-Au) :   0.3011
B(  4-Au, 15-Fe) :   0.3338 B(  5-Au,  6-Au) :   0.3188 B(  5-Au,  8-Au) :   0.2507
B(  5-Au,  9-Au) :   0.2475 B(  6-Au,  9-Au) :   0.2003 B(  6-Au, 10-Au) :   0.2685
B(  6-Au, 12-Au) :   0.2105 B(  6-Au, 14-Au) :   0.2593 B(  6-Au, 15-Fe) :   0.4325
B(  7-Au,  8-Au) :   0.2571 B(  7-Au, 15-Fe) :   0.3307 B(  8-Au,  9-Au) :   0.2865
B(  8-Au, 15-Fe) :   0.4119 B(  9-Au, 11-Au) :   0.2151 B(  9-Au, 12-Au) :   0.2862
B(  9-Au, 15-Fe) :   0.2941 B( 10-Au, 12-Au) :   0.3133 B( 10-Au, 13-Au) :   0.1329
B( 10-Au, 14-Au) :   0.2387 B( 10-Au, 15-Fe) :   0.2283 B( 11-Au, 12-Au) :   0.1932
B( 11-Au, 13-Au) :   0.2040 B( 11-Au, 15-Fe) :   0.4548 B( 12-Au, 13-Au) :   0.1808
B( 12-Au, 15-Fe) :   0.2899 B( 13-Au, 15-Fe) :   0.4842 B( 14-Au, 15-Fe) :   0.3052

FINAL SINGLE POINT ENERGY     -3300.902529487514

DIPOLE MOMENT
-------------
                                X             Y             Z
Electronic contribution:      5.12415       6.52399      -5.15225
Nuclear contribution   :     -5.16025      -6.67691       4.96324
                        -----------------------------------------
Total Dipole Moment    :     -0.03610      -0.15292      -0.18902
                        -----------------------------------------
Magnitude (a.u.)       :      0.24579
Magnitude (Debye)      :      0.62476

Rotational constants in cm-1:     0.001003     0.000944     0.000904
Rotational constants in MHz :    30.082356    28.308572    27.086401

                             ****ORCA TERMINATED NORMALLY****
TOTAL RUN TIME: 0 days 0 hours 15 minutes 17 seconds 188 msec
