                         Program Version 5.0.3 -  RELEASE  -
|  1> !R2SCAN def2-TZVP VERYSLOWCONV
|  2>
|  3> %scf
|  4>   AutoTRAHIter 200
|  5>   maxiter 400
|  6> end
|  7>
|  8> %pal nprocs 6 end
|  9>
| 10> *xyzfile 0 6 pbe.xyz
| 11>
| 12> $new_job
| 13>
| 14> !R2SCAN def2-TZVP VERYSLOWCONV
| 15> %scf
| 16>   AutoTRAHIter 200
| 17>   maxiter 400
| 18> end
| 19>
| 20>
| 21> %pal nprocs 6 end
| 22>
| 23> *xyzfile 0 4 pbe.xyz
| 24>
| 25>
| 26>
| 27>
| 28>
| 29>                          ****END OF INPUT****
 Total Charge           Charge          ....    0
 Multiplicity           Mult            ....    6
 Number of Electrons    NEL             ....  311
FINAL SINGLE POINT ENERGY     -3301.440746474658

CARTESIAN COORDINATES (ANGSTROEM)
---------------------------------
  Au     8.470719    9.337150   10.021746
  Au     7.653314    6.676654   10.167117
  Au    10.111173    7.458138    8.841459
  Au     9.413980    7.264270    6.104093
  Au     6.161304    4.976992    8.595005
  Au     7.680035    7.301520    3.983302
  Au     7.394008    9.498219    5.662224
  Au     8.854591    5.205872    7.960977
  Au     6.945091    5.465032    5.958641
  Au     5.261959    7.589121    5.319577
  Au     7.125374   10.832838    8.139296
  Au     4.483014    6.993255    7.918521
  Au     4.907313    9.637689    7.124549
  Au     5.770137    8.722160    9.679620
  Au     9.554262    9.743151    7.385696
  Fe     7.184104    7.605484    7.653949

 Multiplicity           Mult            ....    4
 Number of Electrons    NEL             ....  311
 Basis Dimension        Dim             ....  645

ORBITAL ENERGIES
----------------
                 SPIN UP ORBITALS
  NO   OCC          E(Eh)            E(eV)
   0   1.0000    -255.645220     -6956.4601
   1   1.0000     -29.939463      -814.6942
   2   1.0000     -25.783968      -701.6174
   3   1.0000     -25.766113      -701.1316
   4   1.0000     -25.759515      -700.9520
   5   1.0000      -4.133066      -112.4664
   6   1.0000      -4.129859      -112.3792
   7   1.0000      -4.126498      -112.2877
   8   1.0000      -4.126358      -112.2839
   9   1.0000      -4.123527      -112.2069
  10   1.0000      -4.121577      -112.1538
  11   1.0000      -4.120862      -112.1344
  12   1.0000      -4.120321      -112.1196
  13   1.0000      -4.120109      -112.1139
  14   1.0000      -4.119330      -112.0927
  15   1.0000      -4.117812      -112.0514
  16   1.0000      -4.117458      -112.0417
  17   1.0000      -4.117119      -112.0325
  18   1.0000      -4.115426      -111.9864
  19   1.0000      -4.115347      -111.9843
  20   1.0000      -3.521811       -95.8334
  21   1.0000      -2.321036       -63.1586
  22   1.0000      -2.319670       -63.1214
  23   1.0000      -2.317982       -63.0755
  24   1.0000      -2.316990       -63.0485
  25   1.0000      -2.316437       -63.0335
  26   1.0000      -2.315837       -63.0171
  27   1.0000      -2.315305       -63.0026
  28   1.0000      -2.314348       -62.9766
  29   1.0000      -2.313528       -62.9543
  30   1.0000      -2.313036       -62.9409
  31   1.0000      -2.312356       -62.9224
  32   1.0000      -2.311136       -62.8892
  33   1.0000      -2.310336       -62.8674
  34   1.0000      -2.310198       -62.8637
  35   1.0000      -2.309568       -62.8465
  36   1.0000      -2.309385       -62.8416
  37   1.0000      -2.309236       -62.8375
  38   1.0000      -2.307936       -62.8021
  39   1.0000      -2.307635       -62.7939
  40   1.0000      -2.307245       -62.7833
  41   1.0000      -2.306929       -62.7747
  42   1.0000      -2.306569       -62.7649
  43   1.0000      -2.306262       -62.7566
  44   1.0000      -2.305756       -62.7428
  45   1.0000      -2.305660       -62.7402
  46   1.0000      -2.305336       -62.7314
  47   1.0000      -2.305246       -62.7289
  48   1.0000      -2.305074       -62.7243
  49   1.0000      -2.304861       -62.7185
  50   1.0000      -2.304524       -62.7093
  51   1.0000      -2.304298       -62.7031
  52   1.0000      -2.303876       -62.6917
  53   1.0000      -2.303794       -62.6894
  54   1.0000      -2.303265       -62.6750
  55   1.0000      -2.302958       -62.6667
  56   1.0000      -2.302056       -62.6421
  57   1.0000      -2.301924       -62.6385
  58   1.0000      -2.301680       -62.6319
  59   1.0000      -2.301605       -62.6299
  60   1.0000      -2.301293       -62.6214
  61   1.0000      -2.300886       -62.6103
  62   1.0000      -2.300822       -62.6085
  63   1.0000      -2.300501       -62.5998
  64   1.0000      -2.299906       -62.5836
  65   1.0000      -2.298721       -62.5514
  66   1.0000      -2.297743       -62.5248
  67   1.0000      -2.279385       -62.0252
  68   1.0000      -2.265708       -61.6530
  69   1.0000      -0.443897       -12.0790
  70   1.0000      -0.399994       -10.8844
  71   1.0000      -0.398180       -10.8350
  72   1.0000      -0.395778       -10.7697
  73   1.0000      -0.390307       -10.6208
  74   1.0000      -0.388997       -10.5852
  75   1.0000      -0.385942       -10.5020
  76   1.0000      -0.382957       -10.4208
  77   1.0000      -0.379237       -10.3196
  78   1.0000      -0.376804       -10.2534
  79   1.0000      -0.372787       -10.1441
  80   1.0000      -0.370090       -10.0706
  81   1.0000      -0.367830       -10.0092
  82   1.0000      -0.367235        -9.9930
  83   1.0000      -0.366533        -9.9739
  84   1.0000      -0.365172        -9.9368
  85   1.0000      -0.363420        -9.8892
  86   1.0000      -0.362826        -9.8730
  87   1.0000      -0.361474        -9.8362
  88   1.0000      -0.358412        -9.7529
  89   1.0000      -0.357117        -9.7177
  90   1.0000      -0.354401        -9.6437
  91   1.0000      -0.353002        -9.6057
  92   1.0000      -0.351608        -9.5677
  93   1.0000      -0.350664        -9.5421
  94   1.0000      -0.346641        -9.4326
  95   1.0000      -0.345006        -9.3881
  96   1.0000      -0.343899        -9.3580
  97   1.0000      -0.342508        -9.3201
  98   1.0000      -0.338944        -9.2231
  99   1.0000      -0.338657        -9.2153
 100   1.0000      -0.334243        -9.0952
 101   1.0000      -0.331913        -9.0318
 102   1.0000      -0.329965        -8.9788
 103   1.0000      -0.328061        -8.9270
 104   1.0000      -0.326833        -8.8936
 105   1.0000      -0.321830        -8.7574
 106   1.0000      -0.316875        -8.6226
 107   1.0000      -0.315184        -8.5766
 108   1.0000      -0.312821        -8.5123
 109   1.0000      -0.311331        -8.4717
 110   1.0000      -0.308518        -8.3952
 111   1.0000      -0.304599        -8.2886
 112   1.0000      -0.303789        -8.2665
 113   1.0000      -0.300208        -8.1691
 114   1.0000      -0.296941        -8.0802
 115   1.0000      -0.295153        -8.0315
 116   1.0000      -0.292057        -7.9473
 117   1.0000      -0.290081        -7.8935
 118   1.0000      -0.288484        -7.8501
 119   1.0000      -0.286785        -7.8038
 120   1.0000      -0.286394        -7.7932
 121   1.0000      -0.285060        -7.7569
 122   1.0000      -0.283469        -7.7136
 123   1.0000      -0.282219        -7.6796
 124   1.0000      -0.281419        -7.6578
 125   1.0000      -0.280771        -7.6402
 126   1.0000      -0.279240        -7.5985
 127   1.0000      -0.277346        -7.5470
 128   1.0000      -0.276022        -7.5109
 129   1.0000      -0.274971        -7.4824
 130   1.0000      -0.274114        -7.4590
 131   1.0000      -0.273183        -7.4337
 132   1.0000      -0.271691        -7.3931
 133   1.0000      -0.271680        -7.3928
 134   1.0000      -0.269244        -7.3265
 135   1.0000      -0.268759        -7.3133
 136   1.0000      -0.268190        -7.2978
 137   1.0000      -0.266262        -7.2454
 138   1.0000      -0.263610        -7.1732
 139   1.0000      -0.262971        -7.1558
 140   1.0000      -0.261988        -7.1291
 141   1.0000      -0.260948        -7.1008
 142   1.0000      -0.259491        -7.0611
 143   1.0000      -0.257523        -7.0075
 144   1.0000      -0.257262        -7.0005
 145   1.0000      -0.255169        -6.9435
 146   1.0000      -0.254898        -6.9361
 147   1.0000      -0.253902        -6.9090
 148   1.0000      -0.251370        -6.8401
 149   1.0000      -0.248996        -6.7755
 150   1.0000      -0.248068        -6.7503
 151   1.0000      -0.245221        -6.6728
 152   1.0000      -0.240220        -6.5367
 153   1.0000      -0.221198        -6.0191
 154   1.0000      -0.214958        -5.8493
 155   1.0000      -0.206203        -5.6111
 156   1.0000      -0.201005        -5.4696
 157   0.0000      -0.196690        -5.3522
 158   0.0000      -0.152669        -4.1543
 159   0.0000      -0.125402        -3.4124
 160   0.0000      -0.123808        -3.3690
 161   0.0000      -0.120761        -3.2861

                 SPIN DOWN ORBITALS
  NO   OCC          E(Eh)            E(eV)
   0   1.0000    -255.644265     -6956.4341
   1   1.0000     -29.861749      -812.5795
   2   1.0000     -25.716688      -699.7867
   3   1.0000     -25.708992      -699.5772
   4   1.0000     -25.706121      -699.4991
   5   1.0000      -4.132963      -112.4636
   6   1.0000      -4.129017      -112.3563
   7   1.0000      -4.126732      -112.2941
   8   1.0000      -4.126221      -112.2802
   9   1.0000      -4.122922      -112.1904
  10   1.0000      -4.121834      -112.1608
  11   1.0000      -4.121509      -112.1520
  12   1.0000      -4.121396      -112.1489
  13   1.0000      -4.120214      -112.1167
  14   1.0000      -4.118836      -112.0792
  15   1.0000      -4.118118      -112.0597
  16   1.0000      -4.117575      -112.0449
  17   1.0000      -4.117252      -112.0361
  18   1.0000      -4.115758      -111.9955
  19   1.0000      -4.115642      -111.9923
  20   1.0000      -3.346313       -91.0578
  21   1.0000      -2.320674       -63.1488
  22   1.0000      -2.318876       -63.0998
  23   1.0000      -2.316899       -63.0460
  24   1.0000      -2.316427       -63.0332
  25   1.0000      -2.316124       -63.0249
  26   1.0000      -2.314639       -62.9845
  27   1.0000      -2.314111       -62.9702
  28   1.0000      -2.313074       -62.9419
  29   1.0000      -2.312729       -62.9326
  30   1.0000      -2.312232       -62.9190
  31   1.0000      -2.310785       -62.8796
  32   1.0000      -2.310508       -62.8721
  33   1.0000      -2.309740       -62.8512
  34   1.0000      -2.309660       -62.8490
  35   1.0000      -2.309614       -62.8478
  36   1.0000      -2.309085       -62.8334
  37   1.0000      -2.308311       -62.8123
  38   1.0000      -2.307952       -62.8026
  39   1.0000      -2.307679       -62.7951
  40   1.0000      -2.307342       -62.7860
  41   1.0000      -2.307180       -62.7816
  42   1.0000      -2.306751       -62.7699
  43   1.0000      -2.306542       -62.7642
  44   1.0000      -2.306159       -62.7538
  45   1.0000      -2.305795       -62.7439
  46   1.0000      -2.305634       -62.7395
  47   1.0000      -2.305299       -62.7304
  48   1.0000      -2.305213       -62.7280
  49   1.0000      -2.304866       -62.7186
  50   1.0000      -2.304425       -62.7066
  51   1.0000      -2.304023       -62.6957
  52   1.0000      -2.303870       -62.6915
  53   1.0000      -2.303341       -62.6771
  54   1.0000      -2.302982       -62.6673
  55   1.0000      -2.302298       -62.6487
  56   1.0000      -2.302085       -62.6429
  57   1.0000      -2.301920       -62.6384
  58   1.0000      -2.301674       -62.6317
  59   1.0000      -2.301302       -62.6216
  60   1.0000      -2.301271       -62.6208
  61   1.0000      -2.301064       -62.6151
  62   1.0000      -2.300691       -62.6050
  63   1.0000      -2.300091       -62.5887
  64   1.0000      -2.298828       -62.5543
  65   1.0000      -2.297985       -62.5313
  66   1.0000      -2.123697       -57.7887
  67   1.0000      -2.113510       -57.5115
  68   1.0000      -2.107221       -57.3404
  69   1.0000      -0.441155       -12.0044
  70   1.0000      -0.400130       -10.8881
  71   1.0000      -0.398551       -10.8451
  72   1.0000      -0.394970       -10.7477
  73   1.0000      -0.382222       -10.4008
  74   1.0000      -0.381436       -10.3794
  75   1.0000      -0.380671       -10.3586
  76   1.0000      -0.377178       -10.2635
  77   1.0000      -0.374525       -10.1913
  78   1.0000      -0.372302       -10.1308
  79   1.0000      -0.369862       -10.0645
  80   1.0000      -0.369591       -10.0571
  81   1.0000      -0.366801        -9.9812
  82   1.0000      -0.366271        -9.9667
  83   1.0000      -0.365418        -9.9435
  84   1.0000      -0.364690        -9.9237
  85   1.0000      -0.362080        -9.8527
  86   1.0000      -0.361478        -9.8363
  87   1.0000      -0.360222        -9.8021
  88   1.0000      -0.358688        -9.7604
  89   1.0000      -0.356731        -9.7071
  90   1.0000      -0.354342        -9.6421
  91   1.0000      -0.352714        -9.5978
  92   1.0000      -0.351596        -9.5674
  93   1.0000      -0.350369        -9.5340
  94   1.0000      -0.346681        -9.4337
  95   1.0000      -0.343889        -9.3577
  96   1.0000      -0.340814        -9.2740
  97   1.0000      -0.338337        -9.2066
  98   1.0000      -0.336571        -9.1586
  99   1.0000      -0.333753        -9.0819
 100   1.0000      -0.330760        -9.0004
 101   1.0000      -0.329750        -8.9730
 102   1.0000      -0.326956        -8.8969
 103   1.0000      -0.323328        -8.7982
 104   1.0000      -0.321079        -8.7370
 105   1.0000      -0.315599        -8.5879
 106   1.0000      -0.313511        -8.5311
 107   1.0000      -0.310463        -8.4481
 108   1.0000      -0.307583        -8.3698
 109   1.0000      -0.306236        -8.3331
 110   1.0000      -0.302819        -8.2401
 111   1.0000      -0.300548        -8.1783
 112   1.0000      -0.298678        -8.1274
 113   1.0000      -0.296689        -8.0733
 114   1.0000      -0.293738        -7.9930
 115   1.0000      -0.290331        -7.9003
 116   1.0000      -0.289241        -7.8706
 117   1.0000      -0.287945        -7.8354
 118   1.0000      -0.287059        -7.8113
 119   1.0000      -0.285345        -7.7646
 120   1.0000      -0.284509        -7.7419
 121   1.0000      -0.282077        -7.6757
 122   1.0000      -0.281105        -7.6492
 123   1.0000      -0.280504        -7.6329
 124   1.0000      -0.278469        -7.5775
 125   1.0000      -0.276434        -7.5222
 126   1.0000      -0.275191        -7.4883
 127   1.0000      -0.274696        -7.4748
 128   1.0000      -0.273101        -7.4315
 129   1.0000      -0.271896        -7.3987
 130   1.0000      -0.270146        -7.3511
 131   1.0000      -0.269181        -7.3248
 132   1.0000      -0.268966        -7.3189
 133   1.0000      -0.266562        -7.2535
 134   1.0000      -0.264547        -7.1987
 135   1.0000      -0.263242        -7.1632
 136   1.0000      -0.262929        -7.1547
 137   1.0000      -0.261330        -7.1112
 138   1.0000      -0.259648        -7.0654
 139   1.0000      -0.257748        -7.0137
 140   1.0000      -0.257289        -7.0012
 141   1.0000      -0.255475        -6.9518
 142   1.0000      -0.254194        -6.9170
 143   1.0000      -0.251531        -6.8445
 144   1.0000      -0.250125        -6.8063
 145   1.0000      -0.248509        -6.7623
 146   1.0000      -0.245921        -6.6919
 147   1.0000      -0.240832        -6.5534
 148   1.0000      -0.227402        -6.1879
 149   1.0000      -0.221243        -6.0203
 150   1.0000      -0.218070        -5.9340
 151   1.0000      -0.212629        -5.7859
 152   1.0000      -0.210097        -5.7170
 153   1.0000      -0.183540        -4.9944
 154   0.0000      -0.159797        -4.3483
 155   0.0000      -0.156493        -4.2584
 156   0.0000      -0.151161        -4.1133
 157   0.0000      -0.142598        -3.8803
 158   0.0000      -0.126795        -3.4503

MULLIKEN ATOMIC CHARGES AND SPIN POPULATIONS
--------------------------------------------
   0 Au:    0.157646   -0.076749
   1 Au:    0.174959   -0.124188
   2 Au:    0.195290    0.036581
   3 Au:   -0.096792    0.111946
   4 Au:    0.281799   -0.026372
   5 Au:    0.388590   -0.022742
   6 Au:   -0.044576   -0.186004
   7 Au:    0.158616    0.014857
   8 Au:    0.106386   -0.174120
   9 Au:    0.067208    0.051117
  10 Au:    0.193453   -0.012748
  11 Au:    0.193860    0.068766
  12 Au:    0.160531    0.023603
  13 Au:    0.108021    0.071691
  14 Au:    0.132888    0.027742
  15 Fe:   -2.177879    3.216618
Sum of atomic charges         :   -0.0000000

LOEWDIN ATOMIC CHARGES AND SPIN POPULATIONS
-------------------------------------------
   0 Au:    0.005432   -0.050951
   1 Au:    0.044928   -0.051747
   2 Au:    0.013269    0.015080
   3 Au:   -0.004733    0.048168
   4 Au:    0.075303   -0.056813
   5 Au:    0.112007   -0.057085
   6 Au:    0.000307   -0.059405
   7 Au:    0.035439   -0.024070
   8 Au:    0.012354   -0.080025
   9 Au:    0.003120   -0.001843
  10 Au:    0.026164   -0.033170
  11 Au:    0.026736    0.040253
  12 Au:    0.018477    0.006636
  13 Au:    0.039724    0.023666
  14 Au:    0.016537   -0.005315
  15 Fe:   -0.425062    3.286621

  Mayer bond orders larger than 0.100000
B(  0-Au,  1-Au) :   0.2600 B(  0-Au,  2-Au) :   0.2843 B(  0-Au, 10-Au) :   0.2633
B(  0-Au, 13-Au) :   0.1966 B(  0-Au, 14-Au) :   0.1883 B(  0-Au, 15-Fe) :   0.1999
B(  1-Au,  2-Au) :   0.1673 B(  1-Au,  4-Au) :   0.2254 B(  1-Au,  7-Au) :   0.1574
B(  1-Au, 13-Au) :   0.1926 B(  1-Au, 15-Fe) :   0.4306 B(  2-Au,  3-Au) :   0.1950
B(  2-Au,  7-Au) :   0.2790 B(  2-Au, 14-Au) :   0.2299 B(  2-Au, 15-Fe) :   0.2487
B(  3-Au,  5-Au) :   0.3331 B(  3-Au,  6-Au) :   0.1456 B(  3-Au,  7-Au) :   0.1667
B(  3-Au, 14-Au) :   0.2155 B(  3-Au, 15-Fe) :   0.5209 B(  4-Au,  7-Au) :   0.1955
B(  4-Au,  8-Au) :   0.2625 B(  4-Au, 11-Au) :   0.2919 B(  4-Au, 15-Fe) :   0.3262
B(  5-Au,  6-Au) :   0.3011 B(  5-Au,  8-Au) :   0.2648 B(  5-Au,  9-Au) :   0.2335
B(  6-Au,  9-Au) :   0.2022 B(  6-Au, 10-Au) :   0.2799 B(  6-Au, 12-Au) :   0.2001
B(  6-Au, 14-Au) :   0.2474 B(  6-Au, 15-Fe) :   0.4158 B(  7-Au,  8-Au) :   0.2420
B(  7-Au, 15-Fe) :   0.3407 B(  8-Au,  9-Au) :   0.2503 B(  8-Au, 15-Fe) :   0.3551
B(  9-Au, 11-Au) :   0.1933 B(  9-Au, 12-Au) :   0.2711 B(  9-Au, 15-Fe) :   0.3003
B( 10-Au, 12-Au) :   0.2995 B( 10-Au, 13-Au) :   0.1245 B( 10-Au, 14-Au) :   0.2302
B( 10-Au, 15-Fe) :   0.2217 B( 11-Au, 12-Au) :   0.1760 B( 11-Au, 13-Au) :   0.1976
B( 11-Au, 15-Fe) :   0.4371 B( 12-Au, 13-Au) :   0.1755 B( 12-Au, 15-Fe) :   0.2879
B( 13-Au, 15-Fe) :   0.5076 B( 14-Au, 15-Fe) :   0.2810

FINAL SINGLE POINT ENERGY     -3301.423785077981

DIPOLE MOMENT
-------------
                                X             Y             Z
Electronic contribution:      5.14250       6.48460      -5.20815
Nuclear contribution   :     -5.16025      -6.67691       4.96324
                        -----------------------------------------
Total Dipole Moment    :     -0.01775      -0.19231      -0.24491
                        -----------------------------------------
Magnitude (a.u.)       :      0.31189
Magnitude (Debye)      :      0.79277

Rotational constants in cm-1:     0.001003     0.000944     0.000904
Rotational constants in MHz :    30.082356    28.308572    27.086401

                             ****ORCA TERMINATED NORMALLY****
TOTAL RUN TIME: 0 days 0 hours 27 minutes 2 seconds 714 msec
