                         Program Version 5.0.3 -  RELEASE  -
|  1> !RI-B2PLYP def2-TZVP def2-TZVP/C
|  2> !RIJCOSX VERYSLOWCONV
|  3>
|  4> %scf
|  5>   AutoTRAHIter 200
|  6>   maxiter 400
|  7> end
|  8>
|  9>
| 10> %pal nprocs 6 end
| 11>
| 12> *xyzfile 0 5 pbe.xyz
| 13>
| 14> $new_job
| 15>
| 16> !RI-B2PLYP def2-TZVP def2-TZVP/C
| 17> !RIJCOSX VERYSLOWCONV
| 18>
| 19> %scf
| 20>   AutoTRAHIter 200
| 21>   maxiter 400
| 22> end
| 23>
| 24>
| 25> %pal nprocs 6 end
| 26>
| 27> *xyzfile 0 3 pbe.xyz
| 28>
| 29>
| 30>
| 31>
| 32>
| 33>                          ****END OF INPUT****
 Total Charge           Charge          ....    0
 Multiplicity           Mult            ....    5
 Number of Electrons    NEL             ....  254
MP2 TOTAL ENERGY:    -2890.540075904 Eh
FINAL SINGLE POINT ENERGY     -2890.540075903857

CARTESIAN COORDINATES (ANGSTROEM)
---------------------------------
  Au     6.513322    8.842332    3.910751
  Au     8.236344    6.749745    4.132713
  Au     7.563026    4.798717    5.794669
  Au     6.230482    3.520495    7.820631
  Au     4.808190    5.594234    6.808095
  Au     4.528511   10.509245    4.726152
  Au     4.296739    8.006768    5.768552
  Au     5.362129    7.848761    8.444327
  Au     7.367239    5.900811    8.595750
  Au     8.175991    8.448817    8.218433
  Au     8.676341    9.240011    5.596556
  Au     6.302923   10.035504    6.803983
  Fe     6.827670    7.307423    6.247159

 Multiplicity           Mult            ....    3
 Number of Electrons    NEL             ....  254
 Basis Dimension        Dim             ....  525

ORBITAL ENERGIES
----------------
                 SPIN UP ORBITALS
  NO   OCC          E(Eh)            E(eV)
   0   1.0000    -258.333381     -7029.6087
   1   1.0000     -30.893572      -840.6568
   2   1.0000     -26.611678      -724.1406
   3   1.0000     -26.582216      -723.3389
   4   1.0000     -26.581266      -723.3130
   5   1.0000      -4.403155      -119.8159
   6   1.0000      -4.401570      -119.7728
   7   1.0000      -4.400307      -119.7384
   8   1.0000      -4.399982      -119.7296
   9   1.0000      -4.399463      -119.7155
  10   1.0000      -4.398072      -119.6776
  11   1.0000      -4.394255      -119.5737
  12   1.0000      -4.392976      -119.5389
  13   1.0000      -4.392606      -119.5289
  14   1.0000      -4.392549      -119.5273
  15   1.0000      -4.390686      -119.4766
  16   1.0000      -4.385604      -119.3384
  17   1.0000      -3.906247      -106.2944
  18   1.0000      -2.656462       -72.2860
  19   1.0000      -2.595242       -70.6201
  20   1.0000      -2.592667       -70.5501
  21   1.0000      -2.525676       -68.7271
  22   1.0000      -2.523645       -68.6719
  23   1.0000      -2.521956       -68.6259
  24   1.0000      -2.521782       -68.6212
  25   1.0000      -2.521229       -68.6061
  26   1.0000      -2.520930       -68.5980
  27   1.0000      -2.519739       -68.5656
  28   1.0000      -2.519202       -68.5510
  29   1.0000      -2.518680       -68.5368
  30   1.0000      -2.518092       -68.5208
  31   1.0000      -2.517563       -68.5064
  32   1.0000      -2.517177       -68.4959
  33   1.0000      -2.516475       -68.4768
  34   1.0000      -2.515324       -68.4455
  35   1.0000      -2.514558       -68.4246
  36   1.0000      -2.513976       -68.4088
  37   1.0000      -2.513620       -68.3991
  38   1.0000      -2.512834       -68.3777
  39   1.0000      -2.512723       -68.3747
  40   1.0000      -2.512550       -68.3700
  41   1.0000      -2.512165       -68.3595
  42   1.0000      -2.511742       -68.3480
  43   1.0000      -2.511404       -68.3388
  44   1.0000      -2.509929       -68.2986
  45   1.0000      -2.509188       -68.2785
  46   1.0000      -2.508865       -68.2697
  47   1.0000      -2.508627       -68.2632
  48   1.0000      -2.507838       -68.2418
  49   1.0000      -2.507406       -68.2300
  50   1.0000      -2.505909       -68.1893
  51   1.0000      -2.505578       -68.1803
  52   1.0000      -2.505062       -68.1662
  53   1.0000      -2.504969       -68.1637
  54   1.0000      -2.503206       -68.1157
  55   1.0000      -2.500914       -68.0533
  56   1.0000      -2.499767       -68.0221
  57   1.0000      -0.558338       -15.1931
  58   1.0000      -0.552366       -15.0306
  59   1.0000      -0.549710       -14.9584
  60   1.0000      -0.528581       -14.3834
  61   1.0000      -0.512277       -13.9398
  62   1.0000      -0.494811       -13.4645
  63   1.0000      -0.473888       -12.8951
  64   1.0000      -0.464919       -12.6511
  65   1.0000      -0.460890       -12.5414
  66   1.0000      -0.459312       -12.4985
  67   1.0000      -0.455632       -12.3984
  68   1.0000      -0.453721       -12.3464
  69   1.0000      -0.452501       -12.3132
  70   1.0000      -0.449197       -12.2233
  71   1.0000      -0.446592       -12.1524
  72   1.0000      -0.444414       -12.0931
  73   1.0000      -0.441586       -12.0162
  74   1.0000      -0.439132       -11.9494
  75   1.0000      -0.438175       -11.9234
  76   1.0000      -0.435178       -11.8418
  77   1.0000      -0.433000       -11.7825
  78   1.0000      -0.428801       -11.6683
  79   1.0000      -0.427395       -11.6300
  80   1.0000      -0.424043       -11.5388
  81   1.0000      -0.423128       -11.5139
  82   1.0000      -0.420818       -11.4511
  83   1.0000      -0.414783       -11.2868
  84   1.0000      -0.409950       -11.1553
  85   1.0000      -0.405603       -11.0370
  86   1.0000      -0.403180       -10.9711
  87   1.0000      -0.397822       -10.8253
  88   1.0000      -0.396932       -10.8011
  89   1.0000      -0.392256       -10.6738
  90   1.0000      -0.390938       -10.6380
  91   1.0000      -0.389097       -10.5879
  92   1.0000      -0.388368       -10.5680
  93   1.0000      -0.383683       -10.4405
  94   1.0000      -0.380241       -10.3469
  95   1.0000      -0.379581       -10.3289
  96   1.0000      -0.376506       -10.2452
  97   1.0000      -0.374067       -10.1789
  98   1.0000      -0.372532       -10.1371
  99   1.0000      -0.369142       -10.0449
 100   1.0000      -0.368365       -10.0237
 101   1.0000      -0.367956       -10.0126
 102   1.0000      -0.366240        -9.9659
 103   1.0000      -0.365301        -9.9403
 104   1.0000      -0.364110        -9.9079
 105   1.0000      -0.363301        -9.8859
 106   1.0000      -0.361890        -9.8475
 107   1.0000      -0.360878        -9.8200
 108   1.0000      -0.358948        -9.7675
 109   1.0000      -0.356336        -9.6964
 110   1.0000      -0.354893        -9.6571
 111   1.0000      -0.353395        -9.6164
 112   1.0000      -0.351839        -9.5740
 113   1.0000      -0.349459        -9.5093
 114   1.0000      -0.348540        -9.4842
 115   1.0000      -0.345490        -9.4013
 116   1.0000      -0.344121        -9.3640
 117   1.0000      -0.343505        -9.3473
 118   1.0000      -0.341497        -9.2926
 119   1.0000      -0.340159        -9.2562
 120   1.0000      -0.326345        -8.8803
 121   1.0000      -0.323679        -8.8078
 122   1.0000      -0.320790        -8.7291
 123   1.0000      -0.315376        -8.5818
 124   1.0000      -0.295887        -8.0515
 125   1.0000      -0.284009        -7.7283
 126   1.0000      -0.245456        -6.6792
 127   1.0000      -0.207361        -5.6426
 128   0.0000      -0.120209        -3.2711
 129   0.0000      -0.094198        -2.5632
 130   0.0000      -0.079477        -2.1627
 131   0.0000      -0.069791        -1.8991
 132   0.0000      -0.066334        -1.8050

                 SPIN DOWN ORBITALS
  NO   OCC          E(Eh)            E(eV)
   0   1.0000    -258.331374     -7029.5541
   1   1.0000     -30.801413      -838.1491
   2   1.0000     -26.513075      -721.4574
   3   1.0000     -26.504973      -721.2370
   4   1.0000     -26.504642      -721.2280
   5   1.0000      -4.403384      -119.8222
   6   1.0000      -4.402036      -119.7855
   7   1.0000      -4.400780      -119.7513
   8   1.0000      -4.400644      -119.7476
   9   1.0000      -4.399292      -119.7108
  10   1.0000      -4.399272      -119.7103
  11   1.0000      -4.394781      -119.5881
  12   1.0000      -4.393144      -119.5435
  13   1.0000      -4.392907      -119.5371
  14   1.0000      -4.392669      -119.5306
  15   1.0000      -4.391456      -119.4976
  16   1.0000      -4.386591      -119.3652
  17   1.0000      -3.663262       -99.6824
  18   1.0000      -2.524723       -68.7012
  19   1.0000      -2.523326       -68.6632
  20   1.0000      -2.521814       -68.6220
  21   1.0000      -2.521167       -68.6044
  22   1.0000      -2.520962       -68.5989
  23   1.0000      -2.519827       -68.5680
  24   1.0000      -2.519438       -68.5574
  25   1.0000      -2.518743       -68.5385
  26   1.0000      -2.518337       -68.5274
  27   1.0000      -2.517768       -68.5120
  28   1.0000      -2.517495       -68.5045
  29   1.0000      -2.517263       -68.4982
  30   1.0000      -2.516642       -68.4813
  31   1.0000      -2.516019       -68.4643
  32   1.0000      -2.515295       -68.4446
  33   1.0000      -2.514829       -68.4320
  34   1.0000      -2.514056       -68.4109
  35   1.0000      -2.512968       -68.3813
  36   1.0000      -2.512307       -68.3633
  37   1.0000      -2.511796       -68.3495
  38   1.0000      -2.511743       -68.3480
  39   1.0000      -2.511194       -68.3331
  40   1.0000      -2.511008       -68.3280
  41   1.0000      -2.510045       -68.3018
  42   1.0000      -2.510002       -68.3006
  43   1.0000      -2.509299       -68.2815
  44   1.0000      -2.509010       -68.2736
  45   1.0000      -2.508268       -68.2535
  46   1.0000      -2.507352       -68.2285
  47   1.0000      -2.507029       -68.2197
  48   1.0000      -2.506219       -68.1977
  49   1.0000      -2.506034       -68.1927
  50   1.0000      -2.504855       -68.1606
  51   1.0000      -2.504213       -68.1431
  52   1.0000      -2.501514       -68.0696
  53   1.0000      -2.501099       -68.0584
  54   1.0000      -2.342195       -63.7344
  55   1.0000      -2.341096       -63.7045
  56   1.0000      -2.328820       -63.3704
  57   1.0000      -0.509097       -13.8532
  58   1.0000      -0.477221       -12.9858
  59   1.0000      -0.473627       -12.8880
  60   1.0000      -0.471373       -12.8267
  61   1.0000      -0.469351       -12.7717
  62   1.0000      -0.466476       -12.6935
  63   1.0000      -0.459965       -12.5163
  64   1.0000      -0.459265       -12.4972
  65   1.0000      -0.455681       -12.3997
  66   1.0000      -0.450874       -12.2689
  67   1.0000      -0.450110       -12.2481
  68   1.0000      -0.449505       -12.2316
  69   1.0000      -0.445157       -12.1133
  70   1.0000      -0.443299       -12.0628
  71   1.0000      -0.441056       -12.0017
  72   1.0000      -0.435802       -11.8588
  73   1.0000      -0.433480       -11.7956
  74   1.0000      -0.432789       -11.7768
  75   1.0000      -0.428496       -11.6600
  76   1.0000      -0.427219       -11.6252
  77   1.0000      -0.424849       -11.5607
  78   1.0000      -0.423543       -11.5252
  79   1.0000      -0.416938       -11.3455
  80   1.0000      -0.414152       -11.2696
  81   1.0000      -0.410345       -11.1661
  82   1.0000      -0.409888       -11.1536
  83   1.0000      -0.403156       -10.9704
  84   1.0000      -0.401463       -10.9244
  85   1.0000      -0.397510       -10.8168
  86   1.0000      -0.393407       -10.7051
  87   1.0000      -0.391838       -10.6625
  88   1.0000      -0.389756       -10.6058
  89   1.0000      -0.386295       -10.5116
  90   1.0000      -0.385063       -10.4781
  91   1.0000      -0.380567       -10.3558
  92   1.0000      -0.378344       -10.2953
  93   1.0000      -0.377047       -10.2600
  94   1.0000      -0.375735       -10.2243
  95   1.0000      -0.372951       -10.1485
  96   1.0000      -0.370514       -10.0822
  97   1.0000      -0.369890       -10.0652
  98   1.0000      -0.368548       -10.0287
  99   1.0000      -0.365919        -9.9572
 100   1.0000      -0.365728        -9.9520
 101   1.0000      -0.364311        -9.9134
 102   1.0000      -0.363151        -9.8818
 103   1.0000      -0.361906        -9.8480
 104   1.0000      -0.359488        -9.7822
 105   1.0000      -0.357495        -9.7279
 106   1.0000      -0.356166        -9.6918
 107   1.0000      -0.354867        -9.6564
 108   1.0000      -0.353020        -9.6062
 109   1.0000      -0.351434        -9.5630
 110   1.0000      -0.349308        -9.5051
 111   1.0000      -0.346946        -9.4409
 112   1.0000      -0.345086        -9.3903
 113   1.0000      -0.344832        -9.3834
 114   1.0000      -0.341952        -9.3050
 115   1.0000      -0.332650        -9.0519
 116   1.0000      -0.329465        -8.9652
 117   1.0000      -0.327656        -8.9160
 118   1.0000      -0.323021        -8.7899
 119   1.0000      -0.317007        -8.6262
 120   1.0000      -0.307087        -8.3563
 121   1.0000      -0.301611        -8.2072
 122   1.0000      -0.253667        -6.9026
 123   1.0000      -0.223777        -6.0893
 124   1.0000      -0.219551        -5.9743
 125   1.0000      -0.191328        -5.2063
 126   0.0000      -0.085975        -2.3395
 127   0.0000      -0.078451        -2.1348
 128   0.0000      -0.070477        -1.9178
 129   0.0000      -0.050162        -1.3650
 130   0.0000      -0.041244        -1.1223

MULLIKEN ATOMIC CHARGES AND SPIN POPULATIONS
--------------------------------------------
   0 Au:    0.068745   -0.263837
   1 Au:    0.216877   -0.029756
   2 Au:    0.035888   -0.179540
   3 Au:    0.316292   -0.077484
   4 Au:    0.020357    0.027439
   5 Au:    0.368917    0.025394
   6 Au:   -0.024528   -0.145548
   7 Au:    0.213205   -0.299673
   8 Au:    0.025472   -0.187309
   9 Au:    0.290579   -0.176867
  10 Au:    0.180890    0.014655
  11 Au:   -0.018054   -0.268240
  12 Fe:   -1.694641    3.560766
Sum of atomic charges         :   -0.0000000

LOEWDIN ATOMIC CHARGES AND SPIN POPULATIONS
-------------------------------------------
   0 Au:   -0.022526   -0.153385
   1 Au:    0.086069   -0.113930
   2 Au:   -0.012845   -0.111020
   3 Au:    0.096871   -0.074762
   4 Au:   -0.032484   -0.055748
   5 Au:    0.128221   -0.044247
   6 Au:   -0.016041   -0.126953
   7 Au:    0.043234   -0.223755
   8 Au:   -0.031478   -0.154964
   9 Au:    0.059140   -0.202964
  10 Au:    0.050281   -0.074087
  11 Au:   -0.062573   -0.165935
  12 Fe:   -0.285868    3.501749

  Mayer bond orders larger than 0.100000
B(  0-Au,  1-Au) :   0.2720 B(  0-Au,  5-Au) :   0.3484 B(  0-Au,  6-Au) :   0.1784
B(  0-Au, 10-Au) :   0.2018 B(  0-Au, 11-Au) :   0.1496 B(  0-Au, 12-Fe) :   0.3128
B(  1-Au,  2-Au) :   0.3289 B(  1-Au, 12-Fe) :   0.5724 B(  2-Au,  3-Au) :   0.2935
B(  2-Au,  4-Au) :   0.1064 B(  2-Au,  8-Au) :   0.1639 B(  2-Au, 12-Fe) :   0.4775
B(  3-Au,  4-Au) :   0.3827 B(  3-Au,  8-Au) :   0.3104 B(  4-Au,  6-Au) :   0.4788
B(  4-Au,  8-Au) :   0.1427 B(  4-Au, 12-Fe) :   0.4111 B(  5-Au,  6-Au) :   0.3908
B(  5-Au, 11-Au) :   0.2629 B(  6-Au, 11-Au) :   0.1522 B(  6-Au, 12-Fe) :   0.4518
B(  7-Au,  8-Au) :   0.1459 B(  7-Au, 11-Au) :   0.2081 B(  7-Au, 12-Fe) :   0.5277
B(  8-Au,  9-Au) :   0.3499 B(  8-Au, 12-Fe) :   0.3649 B(  9-Au, 10-Au) :   0.2028
B(  9-Au, 11-Au) :   0.1588 B(  9-Au, 12-Fe) :   0.4305 B( 10-Au, 11-Au) :   0.2345
B( 10-Au, 12-Fe) :   0.4379 B( 11-Au, 12-Fe) :   0.3416

MP2 TOTAL ENERGY:    -2890.523299096 Eh
FINAL SINGLE POINT ENERGY     -2890.523299095549

DIPOLE MOMENT
-------------
                                X             Y             Z
Electronic contribution:    -12.26389       6.01541       5.12773
Nuclear contribution   :     12.27459      -5.72813      -5.24719
                        -----------------------------------------
Total Dipole Moment    :      0.01070       0.28728      -0.11946
                        -----------------------------------------
Magnitude (a.u.)       :      0.31131
Magnitude (Debye)      :      0.79130

Rotational constants in cm-1:     0.001747     0.001060     0.001012
Rotational constants in MHz :    52.374164    31.789072    30.329337

                             ****ORCA TERMINATED NORMALLY****
TOTAL RUN TIME: 0 days 0 hours 59 minutes 22 seconds 367 msec
