                         Program Version 5.0.3 -  RELEASE  -
|  1> !PBE def2-TZVP VERYSLOWCONV
|  2>
|  3> %scf
|  4>   AutoTRAHIter 200
|  5>   maxiter 400
|  6> end
|  7>
|  8>
|  9> %pal nprocs 6 end
| 10>
| 11> *xyzfile 0 5 pbe.xyz
| 12>
| 13> $new_job
| 14>
| 15> !PBE def2-TZVP VERYSLOWCONV
| 16>
| 17> %scf
| 18>   AutoTRAHIter 200
| 19>   maxiter 400
| 20> end
| 21>
| 22>
| 23> %pal nprocs 6 end
| 24>
| 25> *xyzfile 0 3 pbe.xyz
| 26>
| 27>
| 28>
| 29>
| 30>
| 31>                          ****END OF INPUT****
 Total Charge           Charge          ....    0
 Multiplicity           Mult            ....    5
 Number of Electrons    NEL             ....  254
FINAL SINGLE POINT ENERGY     -2893.402564243762

CARTESIAN COORDINATES (ANGSTROEM)
---------------------------------
  Au     6.513322    8.842332    3.910751
  Au     8.236344    6.749745    4.132713
  Au     7.563026    4.798717    5.794669
  Au     6.230482    3.520495    7.820631
  Au     4.808190    5.594234    6.808095
  Au     4.528511   10.509245    4.726152
  Au     4.296739    8.006768    5.768552
  Au     5.362129    7.848761    8.444327
  Au     7.367239    5.900811    8.595750
  Au     8.175991    8.448817    8.218433
  Au     8.676341    9.240011    5.596556
  Au     6.302923   10.035504    6.803983
  Fe     6.827670    7.307423    6.247159

 Multiplicity           Mult            ....    3
 Number of Electrons    NEL             ....  254
 Basis Dimension        Dim             ....  525

ORBITAL ENERGIES
----------------
                 SPIN UP ORBITALS
  NO   OCC          E(Eh)            E(eV)
   0   1.0000    -254.745600     -6931.9802
   1   1.0000     -29.582044      -804.9683
   2   1.0000     -25.529624      -694.6964
   3   1.0000     -25.514331      -694.2802
   4   1.0000     -25.509255      -694.1421
   5   1.0000      -4.028415      -109.6188
   6   1.0000      -4.028255      -109.6144
   7   1.0000      -4.026136      -109.5567
   8   1.0000      -4.024702      -109.5177
   9   1.0000      -4.024271      -109.5060
  10   1.0000      -4.024018      -109.4991
  11   1.0000      -4.023211      -109.4771
  12   1.0000      -4.023112      -109.4744
  13   1.0000      -4.020833      -109.4124
  14   1.0000      -4.020620      -109.4066
  15   1.0000      -4.018774      -109.3564
  16   1.0000      -4.018059      -109.3369
  17   1.0000      -3.358460       -91.3883
  18   1.0000      -2.248048       -61.1725
  19   1.0000      -2.246614       -61.1335
  20   1.0000      -2.242852       -61.0311
  21   1.0000      -2.242398       -61.0187
  22   1.0000      -2.242043       -61.0091
  23   1.0000      -2.241522       -60.9949
  24   1.0000      -2.240887       -60.9776
  25   1.0000      -2.240555       -60.9686
  26   1.0000      -2.240067       -60.9553
  27   1.0000      -2.239028       -60.9271
  28   1.0000      -2.238755       -60.9196
  29   1.0000      -2.238698       -60.9181
  30   1.0000      -2.238164       -60.9035
  31   1.0000      -2.237754       -60.8924
  32   1.0000      -2.237444       -60.8839
  33   1.0000      -2.237124       -60.8752
  34   1.0000      -2.236537       -60.8593
  35   1.0000      -2.236212       -60.8504
  36   1.0000      -2.236107       -60.8476
  37   1.0000      -2.235761       -60.8381
  38   1.0000      -2.235313       -60.8260
  39   1.0000      -2.235302       -60.8256
  40   1.0000      -2.235069       -60.8193
  41   1.0000      -2.234288       -60.7981
  42   1.0000      -2.233621       -60.7799
  43   1.0000      -2.233175       -60.7678
  44   1.0000      -2.232538       -60.7505
  45   1.0000      -2.232167       -60.7403
  46   1.0000      -2.231508       -60.7224
  47   1.0000      -2.231308       -60.7170
  48   1.0000      -2.231239       -60.7151
  49   1.0000      -2.230502       -60.6950
  50   1.0000      -2.229681       -60.6727
  51   1.0000      -2.229349       -60.6637
  52   1.0000      -2.228448       -60.6391
  53   1.0000      -2.224384       -60.5286
  54   1.0000      -2.196726       -59.7760
  55   1.0000      -2.165271       -58.9200
  56   1.0000      -2.154539       -58.6280
  57   1.0000      -0.425321       -11.5736
  58   1.0000      -0.385613       -10.4931
  59   1.0000      -0.383242       -10.4285
  60   1.0000      -0.378070       -10.2878
  61   1.0000      -0.374289       -10.1849
  62   1.0000      -0.368672       -10.0321
  63   1.0000      -0.363113        -9.8808
  64   1.0000      -0.360371        -9.8062
  65   1.0000      -0.350786        -9.5454
  66   1.0000      -0.347299        -9.4505
  67   1.0000      -0.345612        -9.4046
  68   1.0000      -0.342940        -9.3319
  69   1.0000      -0.341847        -9.3021
  70   1.0000      -0.336915        -9.1679
  71   1.0000      -0.333774        -9.0825
  72   1.0000      -0.332094        -9.0367
  73   1.0000      -0.330232        -8.9861
  74   1.0000      -0.328477        -8.9383
  75   1.0000      -0.327425        -8.9097
  76   1.0000      -0.326616        -8.8877
  77   1.0000      -0.325638        -8.8610
  78   1.0000      -0.321705        -8.7540
  79   1.0000      -0.316121        -8.6021
  80   1.0000      -0.315611        -8.5882
  81   1.0000      -0.314437        -8.5563
  82   1.0000      -0.310486        -8.4488
  83   1.0000      -0.306902        -8.3512
  84   1.0000      -0.300930        -8.1887
  85   1.0000      -0.300166        -8.1679
  86   1.0000      -0.296763        -8.0753
  87   1.0000      -0.292403        -7.9567
  88   1.0000      -0.290381        -7.9017
  89   1.0000      -0.288209        -7.8426
  90   1.0000      -0.287169        -7.8143
  91   1.0000      -0.285193        -7.7605
  92   1.0000      -0.282412        -7.6848
  93   1.0000      -0.280902        -7.6437
  94   1.0000      -0.277826        -7.5600
  95   1.0000      -0.277044        -7.5388
  96   1.0000      -0.275853        -7.5063
  97   1.0000      -0.274533        -7.4704
  98   1.0000      -0.270656        -7.3649
  99   1.0000      -0.269028        -7.3206
 100   1.0000      -0.268731        -7.3125
 101   1.0000      -0.267476        -7.2784
 102   1.0000      -0.266460        -7.2507
 103   1.0000      -0.265754        -7.2315
 104   1.0000      -0.263704        -7.1758
 105   1.0000      -0.262381        -7.1397
 106   1.0000      -0.260789        -7.0964
 107   1.0000      -0.258353        -7.0301
 108   1.0000      -0.257400        -7.0042
 109   1.0000      -0.255831        -6.9615
 110   1.0000      -0.255408        -6.9500
 111   1.0000      -0.254538        -6.9263
 112   1.0000      -0.253460        -6.8970
 113   1.0000      -0.251893        -6.8544
 114   1.0000      -0.250291        -6.8108
 115   1.0000      -0.249204        -6.7812
 116   1.0000      -0.246419        -6.7054
 117   1.0000      -0.244621        -6.6565
 118   1.0000      -0.243952        -6.6383
 119   1.0000      -0.242984        -6.6119
 120   1.0000      -0.240505        -6.5445
 121   1.0000      -0.236445        -6.4340
 122   1.0000      -0.234710        -6.3868
 123   1.0000      -0.232258        -6.3201
 124   1.0000      -0.231195        -6.2911
 125   1.0000      -0.221896        -6.0381
 126   1.0000      -0.216839        -5.9005
 127   1.0000      -0.191944        -5.2231
 128   0.0000      -0.181746        -4.9456
 129   0.0000      -0.161976        -4.4076
 130   0.0000      -0.142532        -3.8785
 131   0.0000      -0.133782        -3.6404
 132   0.0000      -0.132732        -3.6118

                 SPIN DOWN ORBITALS
  NO   OCC          E(Eh)            E(eV)
   0   1.0000    -254.744941     -6931.9623
   1   1.0000     -29.526670      -803.4615
   2   1.0000     -25.482194      -693.4057
   3   1.0000     -25.474013      -693.1831
   4   1.0000     -25.471557      -693.1163
   5   1.0000      -4.028456      -109.6199
   6   1.0000      -4.028009      -109.6077
   7   1.0000      -4.026525      -109.5673
   8   1.0000      -4.025128      -109.5293
   9   1.0000      -4.024509      -109.5125
  10   1.0000      -4.023849      -109.4945
  11   1.0000      -4.023289      -109.4793
  12   1.0000      -4.022767      -109.4651
  13   1.0000      -4.021591      -109.4330
  14   1.0000      -4.020644      -109.4073
  15   1.0000      -4.018753      -109.3558
  16   1.0000      -4.018352      -109.3449
  17   1.0000      -3.232972       -87.9737
  18   1.0000      -2.247771       -61.1649
  19   1.0000      -2.246241       -61.1233
  20   1.0000      -2.243172       -61.0398
  21   1.0000      -2.242603       -61.0243
  22   1.0000      -2.241558       -60.9959
  23   1.0000      -2.240958       -60.9796
  24   1.0000      -2.240568       -60.9690
  25   1.0000      -2.240189       -60.9586
  26   1.0000      -2.239840       -60.9491
  27   1.0000      -2.239040       -60.9274
  28   1.0000      -2.238881       -60.9231
  29   1.0000      -2.238708       -60.9184
  30   1.0000      -2.238102       -60.9018
  31   1.0000      -2.238011       -60.8994
  32   1.0000      -2.237510       -60.8857
  33   1.0000      -2.237171       -60.8765
  34   1.0000      -2.237029       -60.8727
  35   1.0000      -2.236762       -60.8654
  36   1.0000      -2.236207       -60.8503
  37   1.0000      -2.235843       -60.8404
  38   1.0000      -2.235477       -60.8304
  39   1.0000      -2.235167       -60.8220
  40   1.0000      -2.234984       -60.8170
  41   1.0000      -2.234586       -60.8062
  42   1.0000      -2.233612       -60.7797
  43   1.0000      -2.233322       -60.7718
  44   1.0000      -2.233048       -60.7643
  45   1.0000      -2.232478       -60.7488
  46   1.0000      -2.231979       -60.7352
  47   1.0000      -2.231937       -60.7341
  48   1.0000      -2.231587       -60.7246
  49   1.0000      -2.230545       -60.6962
  50   1.0000      -2.229822       -60.6765
  51   1.0000      -2.229597       -60.6704
  52   1.0000      -2.229256       -60.6611
  53   1.0000      -2.224514       -60.5321
  54   1.0000      -2.057487       -55.9871
  55   1.0000      -2.047120       -55.7050
  56   1.0000      -2.043703       -55.6120
  57   1.0000      -0.422339       -11.4924
  58   1.0000      -0.385511       -10.4903
  59   1.0000      -0.382742       -10.4149
  60   1.0000      -0.376613       -10.2482
  61   1.0000      -0.371546       -10.1103
  62   1.0000      -0.364906        -9.9296
  63   1.0000      -0.359221        -9.7749
  64   1.0000      -0.356402        -9.6982
  65   1.0000      -0.350785        -9.5453
  66   1.0000      -0.346936        -9.4406
  67   1.0000      -0.344756        -9.3813
  68   1.0000      -0.343012        -9.3338
  69   1.0000      -0.340488        -9.2651
  70   1.0000      -0.337772        -9.1912
  71   1.0000      -0.334986        -9.1154
  72   1.0000      -0.330866        -9.0033
  73   1.0000      -0.329542        -8.9673
  74   1.0000      -0.328901        -8.9499
  75   1.0000      -0.325813        -8.8658
  76   1.0000      -0.323253        -8.7962
  77   1.0000      -0.321555        -8.7499
  78   1.0000      -0.317971        -8.6524
  79   1.0000      -0.315902        -8.5961
  80   1.0000      -0.311379        -8.4731
  81   1.0000      -0.308607        -8.3976
  82   1.0000      -0.306924        -8.3518
  83   1.0000      -0.305068        -8.3013
  84   1.0000      -0.301521        -8.2048
  85   1.0000      -0.298080        -8.1112
  86   1.0000      -0.293181        -7.9779
  87   1.0000      -0.292936        -7.9712
  88   1.0000      -0.289057        -7.8656
  89   1.0000      -0.287320        -7.8184
  90   1.0000      -0.286807        -7.8044
  91   1.0000      -0.283844        -7.7238
  92   1.0000      -0.282072        -7.6756
  93   1.0000      -0.279253        -7.5989
  94   1.0000      -0.276774        -7.5314
  95   1.0000      -0.275887        -7.5073
  96   1.0000      -0.275179        -7.4880
  97   1.0000      -0.272556        -7.4166
  98   1.0000      -0.269967        -7.3462
  99   1.0000      -0.269348        -7.3293
 100   1.0000      -0.268632        -7.3099
 101   1.0000      -0.268051        -7.2940
 102   1.0000      -0.266848        -7.2613
 103   1.0000      -0.266203        -7.2438
 104   1.0000      -0.264624        -7.2008
 105   1.0000      -0.262656        -7.1472
 106   1.0000      -0.260371        -7.0851
 107   1.0000      -0.258367        -7.0305
 108   1.0000      -0.257859        -7.0167
 109   1.0000      -0.255906        -6.9636
 110   1.0000      -0.254960        -6.9378
 111   1.0000      -0.254131        -6.9153
 112   1.0000      -0.253014        -6.8849
 113   1.0000      -0.251524        -6.8443
 114   1.0000      -0.249906        -6.8003
 115   1.0000      -0.246947        -6.7198
 116   1.0000      -0.243530        -6.6268
 117   1.0000      -0.241682        -6.5765
 118   1.0000      -0.239476        -6.5165
 119   1.0000      -0.236091        -6.4244
 120   1.0000      -0.233951        -6.3661
 121   1.0000      -0.224239        -6.1018
 122   1.0000      -0.203105        -5.5268
 123   1.0000      -0.199283        -5.4228
 124   1.0000      -0.181202        -4.9308
 125   1.0000      -0.169293        -4.6067
 126   0.0000      -0.159495        -4.3401
 127   0.0000      -0.158237        -4.3058
 128   0.0000      -0.147964        -4.0263
 129   0.0000      -0.135035        -3.6745
 130   0.0000      -0.132321        -3.6006

MULLIKEN ATOMIC CHARGES AND SPIN POPULATIONS
--------------------------------------------
   0 Au:    0.072697   -0.157037
   1 Au:    0.259478   -0.010030
   2 Au:    0.095816   -0.091652
   3 Au:    0.384635    0.015281
   4 Au:    0.041671    0.033824
   5 Au:    0.405094    0.028784
   6 Au:    0.035264   -0.068919
   7 Au:    0.244645   -0.193202
   8 Au:    0.055663   -0.118802
   9 Au:    0.335553   -0.105063
  10 Au:    0.212189   -0.017641
  11 Au:   -0.015699   -0.189677
  12 Fe:   -2.127006    2.874133
Sum of atomic charges         :   -0.0000000

LOEWDIN ATOMIC CHARGES AND SPIN POPULATIONS
-------------------------------------------
   0 Au:   -0.000207   -0.094736
   1 Au:    0.115146   -0.068215
   2 Au:    0.024502   -0.057981
   3 Au:    0.090353   -0.022206
   4 Au:    0.009213   -0.010270
   5 Au:    0.115966   -0.033848
   6 Au:    0.021171   -0.072998
   7 Au:    0.077546   -0.150251
   8 Au:    0.001920   -0.092718
   9 Au:    0.091921   -0.137819
  10 Au:    0.073829   -0.056193
  11 Au:   -0.035964   -0.113079
  12 Fe:   -0.585396    2.910313

  Mayer bond orders larger than 0.100000
B(  0-Au,  1-Au) :   0.2997 B(  0-Au,  5-Au) :   0.3824 B(  0-Au,  6-Au) :   0.1838
B(  0-Au, 10-Au) :   0.2184 B(  0-Au, 11-Au) :   0.1623 B(  0-Au, 12-Fe) :   0.4494
B(  1-Au,  2-Au) :   0.3545 B(  1-Au, 10-Au) :   0.1044 B(  1-Au, 12-Fe) :   0.5567
B(  2-Au,  3-Au) :   0.3149 B(  2-Au,  4-Au) :   0.1193 B(  2-Au,  8-Au) :   0.1920
B(  2-Au, 12-Fe) :   0.5338 B(  3-Au,  4-Au) :   0.4048 B(  3-Au,  8-Au) :   0.3367
B(  4-Au,  6-Au) :   0.4848 B(  4-Au,  7-Au) :   0.1357 B(  4-Au,  8-Au) :   0.1467
B(  4-Au, 12-Fe) :   0.5015 B(  5-Au,  6-Au) :   0.3954 B(  5-Au, 11-Au) :   0.3134
B(  6-Au,  7-Au) :   0.1285 B(  6-Au, 11-Au) :   0.1630 B(  6-Au, 12-Fe) :   0.4999
B(  7-Au,  8-Au) :   0.1728 B(  7-Au,  9-Au) :   0.1081 B(  7-Au, 11-Au) :   0.2221
B(  7-Au, 12-Fe) :   0.6068 B(  8-Au,  9-Au) :   0.3546 B(  8-Au, 12-Fe) :   0.4782
B(  9-Au, 10-Au) :   0.1966 B(  9-Au, 11-Au) :   0.2061 B(  9-Au, 12-Fe) :   0.4586
B( 10-Au, 11-Au) :   0.2634 B( 10-Au, 12-Fe) :   0.5377 B( 11-Au, 12-Fe) :   0.4199

FINAL SINGLE POINT ENERGY     -2893.387748620527

DIPOLE MOMENT
-------------
                                X             Y             Z
Electronic contribution:    -12.36998       5.94715       5.31084
Nuclear contribution   :     12.27459      -5.72813      -5.24719
                        -----------------------------------------
Total Dipole Moment    :     -0.09539       0.21902       0.06365
                        -----------------------------------------
Magnitude (a.u.)       :      0.24723
Magnitude (Debye)      :      0.62840

Rotational constants in cm-1:     0.001747     0.001060     0.001012
Rotational constants in MHz :    52.374164    31.789072    30.329337

                             ****ORCA TERMINATED NORMALLY****
TOTAL RUN TIME: 0 days 0 hours 22 minutes 37 seconds 178 msec
