                         Program Version 5.0.3 -  RELEASE  -
|  1> !R2SCAN def2-TZVP VERYSLOWCONV
|  2> !KDIIS
|  3> %scf
|  4>   AutoTRAHIter 200
|  5>   maxiter 400
|  6> end
|  7>
|  8> %pal nprocs 6 end
|  9>
| 10> *xyzfile 0 5 pbe.xyz
| 11>
| 12> $new_job
| 13>
| 14> !R2SCAN def2-TZVP VERYSLOWCONV
| 15> !KDIIS
| 16> %scf
| 17>   AutoTRAHIter 200
| 18>   maxiter 400
| 19> end
| 20>
| 21>
| 22> %pal nprocs 6 end
| 23>
| 24> *xyzfile 0 3 pbe.xyz
| 25>
| 26>
| 27>
| 28>
| 29>
| 30>                          ****END OF INPUT****
 Total Charge           Charge          ....    0
 Multiplicity           Mult            ....    5
 Number of Electrons    NEL             ....  254
FINAL SINGLE POINT ENERGY     -2893.849103696811

CARTESIAN COORDINATES (ANGSTROEM)
---------------------------------
  Au     6.513322    8.842332    3.910751
  Au     8.236344    6.749745    4.132713
  Au     7.563026    4.798717    5.794669
  Au     6.230482    3.520495    7.820631
  Au     4.808190    5.594234    6.808095
  Au     4.528511   10.509245    4.726152
  Au     4.296739    8.006768    5.768552
  Au     5.362129    7.848761    8.444327
  Au     7.367239    5.900811    8.595750
  Au     8.175991    8.448817    8.218433
  Au     8.676341    9.240011    5.596556
  Au     6.302923   10.035504    6.803983
  Fe     6.827670    7.307423    6.247159

 Multiplicity           Mult            ....    3
 Number of Electrons    NEL             ....  254
 Basis Dimension        Dim             ....  525

ORBITAL ENERGIES
----------------
                 SPIN UP ORBITALS
  NO   OCC          E(Eh)            E(eV)
   0   1.0000    -255.625435     -6955.9217
   1   1.0000     -29.921919      -814.2168
   2   1.0000     -25.764080      -701.0763
   3   1.0000     -25.748879      -700.6626
   4   1.0000     -25.744639      -700.5472
   5   1.0000      -4.120766      -112.1317
   6   1.0000      -4.119562      -112.0990
   7   1.0000      -4.119198      -112.0891
   8   1.0000      -4.118974      -112.0830
   9   1.0000      -4.118533      -112.0710
  10   1.0000      -4.117503      -112.0429
  11   1.0000      -4.113423      -111.9319
  12   1.0000      -4.111660      -111.8840
  13   1.0000      -4.111605      -111.8825
  14   1.0000      -4.110888      -111.8629
  15   1.0000      -4.110399      -111.8496
  16   1.0000      -4.106055      -111.7314
  17   1.0000      -3.501530       -95.2815
  18   1.0000      -2.311060       -62.8871
  19   1.0000      -2.310636       -62.8756
  20   1.0000      -2.309687       -62.8498
  21   1.0000      -2.309115       -62.8342
  22   1.0000      -2.308675       -62.8222
  23   1.0000      -2.307108       -62.7796
  24   1.0000      -2.306500       -62.7631
  25   1.0000      -2.305921       -62.7473
  26   1.0000      -2.305731       -62.7421
  27   1.0000      -2.304563       -62.7104
  28   1.0000      -2.304163       -62.6995
  29   1.0000      -2.303739       -62.6879
  30   1.0000      -2.303222       -62.6738
  31   1.0000      -2.302576       -62.6563
  32   1.0000      -2.301871       -62.6371
  33   1.0000      -2.301843       -62.6363
  34   1.0000      -2.301501       -62.6270
  35   1.0000      -2.300828       -62.6087
  36   1.0000      -2.300297       -62.5943
  37   1.0000      -2.300047       -62.5875
  38   1.0000      -2.299386       -62.5695
  39   1.0000      -2.299355       -62.5686
  40   1.0000      -2.299060       -62.5606
  41   1.0000      -2.298496       -62.5453
  42   1.0000      -2.297590       -62.5206
  43   1.0000      -2.297304       -62.5128
  44   1.0000      -2.295468       -62.4629
  45   1.0000      -2.295359       -62.4599
  46   1.0000      -2.294722       -62.4426
  47   1.0000      -2.294584       -62.4388
  48   1.0000      -2.294572       -62.4385
  49   1.0000      -2.292999       -62.3957
  50   1.0000      -2.292217       -62.3744
  51   1.0000      -2.290642       -62.3315
  52   1.0000      -2.290183       -62.3190
  53   1.0000      -2.290066       -62.3159
  54   1.0000      -2.288642       -62.2771
  55   1.0000      -2.258658       -61.4612
  56   1.0000      -2.250742       -61.2458
  57   1.0000      -0.432241       -11.7619
  58   1.0000      -0.393566       -10.7095
  59   1.0000      -0.391195       -10.6450
  60   1.0000      -0.387253       -10.5377
  61   1.0000      -0.383822       -10.4443
  62   1.0000      -0.377873       -10.2825
  63   1.0000      -0.375430       -10.2160
  64   1.0000      -0.371114       -10.0985
  65   1.0000      -0.361186        -9.8284
  66   1.0000      -0.360771        -9.8171
  67   1.0000      -0.355381        -9.6704
  68   1.0000      -0.353859        -9.6290
  69   1.0000      -0.352691        -9.5972
  70   1.0000      -0.346827        -9.4377
  71   1.0000      -0.344648        -9.3784
  72   1.0000      -0.343816        -9.3557
  73   1.0000      -0.340638        -9.2692
  74   1.0000      -0.339889        -9.2488
  75   1.0000      -0.338027        -9.1982
  76   1.0000      -0.337119        -9.1735
  77   1.0000      -0.334930        -9.1139
  78   1.0000      -0.331836        -9.0297
  79   1.0000      -0.329082        -8.9548
  80   1.0000      -0.326272        -8.8783
  81   1.0000      -0.324798        -8.8382
  82   1.0000      -0.322454        -8.7744
  83   1.0000      -0.317823        -8.6484
  84   1.0000      -0.311000        -8.4627
  85   1.0000      -0.308712        -8.4005
  86   1.0000      -0.305993        -8.3265
  87   1.0000      -0.301312        -8.1991
  88   1.0000      -0.299198        -8.1416
  89   1.0000      -0.298980        -8.1357
  90   1.0000      -0.295191        -8.0326
  91   1.0000      -0.294537        -8.0148
  92   1.0000      -0.291461        -7.9311
  93   1.0000      -0.290423        -7.9028
  94   1.0000      -0.288693        -7.8557
  95   1.0000      -0.288078        -7.8390
  96   1.0000      -0.284824        -7.7505
  97   1.0000      -0.283821        -7.7232
  98   1.0000      -0.280802        -7.6410
  99   1.0000      -0.278675        -7.5831
 100   1.0000      -0.278492        -7.5781
 101   1.0000      -0.276195        -7.5157
 102   1.0000      -0.274864        -7.4794
 103   1.0000      -0.273879        -7.4526
 104   1.0000      -0.273130        -7.4322
 105   1.0000      -0.271771        -7.3953
 106   1.0000      -0.270952        -7.3730
 107   1.0000      -0.268405        -7.3037
 108   1.0000      -0.267767        -7.2863
 109   1.0000      -0.265381        -7.2214
 110   1.0000      -0.264277        -7.1914
 111   1.0000      -0.263695        -7.1755
 112   1.0000      -0.262456        -7.1418
 113   1.0000      -0.260987        -7.1018
 114   1.0000      -0.260602        -7.0913
 115   1.0000      -0.257888        -7.0175
 116   1.0000      -0.257599        -7.0096
 117   1.0000      -0.255650        -6.9566
 118   1.0000      -0.254729        -6.9315
 119   1.0000      -0.252764        -6.8781
 120   1.0000      -0.246876        -6.7178
 121   1.0000      -0.244453        -6.6519
 122   1.0000      -0.242849        -6.6083
 123   1.0000      -0.240637        -6.5481
 124   1.0000      -0.239842        -6.5264
 125   1.0000      -0.234313        -6.3760
 126   1.0000      -0.219010        -5.9596
 127   1.0000      -0.191793        -5.2190
 128   0.0000      -0.180830        -4.9206
 129   0.0000      -0.160866        -4.3774
 130   0.0000      -0.139628        -3.7995
 131   0.0000      -0.129410        -3.5214
 132   0.0000      -0.125769        -3.4223

                 SPIN DOWN ORBITALS
  NO   OCC          E(Eh)            E(eV)
   0   1.0000    -255.624471     -6955.8955
   1   1.0000     -29.846561      -812.1662
   2   1.0000     -25.700300      -699.3407
   3   1.0000     -25.693714      -699.1615
   4   1.0000     -25.691140      -699.0915
   5   1.0000      -4.120934      -112.1363
   6   1.0000      -4.120042      -112.1120
   7   1.0000      -4.119222      -112.0897
   8   1.0000      -4.119177      -112.0885
   9   1.0000      -4.118340      -112.0657
  10   1.0000      -4.118128      -112.0600
  11   1.0000      -4.113812      -111.9425
  12   1.0000      -4.112470      -111.9060
  13   1.0000      -4.111980      -111.8927
  14   1.0000      -4.110872      -111.8625
  15   1.0000      -4.110729      -111.8586
  16   1.0000      -4.107054      -111.7586
  17   1.0000      -3.332794       -90.6899
  18   1.0000      -2.311177       -62.8903
  19   1.0000      -2.310341       -62.8676
  20   1.0000      -2.309466       -62.8438
  21   1.0000      -2.309401       -62.8420
  22   1.0000      -2.307410       -62.7878
  23   1.0000      -2.306769       -62.7704
  24   1.0000      -2.306649       -62.7671
  25   1.0000      -2.305706       -62.7414
  26   1.0000      -2.305097       -62.7249
  27   1.0000      -2.304753       -62.7155
  28   1.0000      -2.304228       -62.7012
  29   1.0000      -2.304109       -62.6980
  30   1.0000      -2.303680       -62.6863
  31   1.0000      -2.303199       -62.6732
  32   1.0000      -2.302596       -62.6568
  33   1.0000      -2.302120       -62.6439
  34   1.0000      -2.301937       -62.6389
  35   1.0000      -2.301457       -62.6258
  36   1.0000      -2.300853       -62.6094
  37   1.0000      -2.300064       -62.5879
  38   1.0000      -2.299707       -62.5782
  39   1.0000      -2.299009       -62.5592
  40   1.0000      -2.298808       -62.5538
  41   1.0000      -2.298698       -62.5508
  42   1.0000      -2.297829       -62.5271
  43   1.0000      -2.297064       -62.5063
  44   1.0000      -2.296666       -62.4955
  45   1.0000      -2.296017       -62.4778
  46   1.0000      -2.295345       -62.4595
  47   1.0000      -2.295027       -62.4509
  48   1.0000      -2.294810       -62.4450
  49   1.0000      -2.293950       -62.4216
  50   1.0000      -2.292864       -62.3920
  51   1.0000      -2.290814       -62.3362
  52   1.0000      -2.290340       -62.3233
  53   1.0000      -2.289898       -62.3113
  54   1.0000      -2.110171       -57.4207
  55   1.0000      -2.098191       -57.0947
  56   1.0000      -2.094876       -57.0045
  57   1.0000      -0.429925       -11.6988
  58   1.0000      -0.391606       -10.6561
  59   1.0000      -0.390820       -10.6347
  60   1.0000      -0.384855       -10.4724
  61   1.0000      -0.380768       -10.3612
  62   1.0000      -0.374868       -10.2007
  63   1.0000      -0.369729       -10.0608
  64   1.0000      -0.365587        -9.9481
  65   1.0000      -0.361665        -9.8414
  66   1.0000      -0.357468        -9.7272
  67   1.0000      -0.354642        -9.6503
  68   1.0000      -0.353607        -9.6221
  69   1.0000      -0.351006        -9.5514
  70   1.0000      -0.347938        -9.4679
  71   1.0000      -0.345484        -9.4011
  72   1.0000      -0.341497        -9.2926
  73   1.0000      -0.340677        -9.2703
  74   1.0000      -0.338307        -9.2058
  75   1.0000      -0.336072        -9.1450
  76   1.0000      -0.333019        -9.0619
  77   1.0000      -0.331476        -9.0199
  78   1.0000      -0.330219        -8.9857
  79   1.0000      -0.325137        -8.8474
  80   1.0000      -0.322371        -8.7722
  81   1.0000      -0.318760        -8.6739
  82   1.0000      -0.316754        -8.6193
  83   1.0000      -0.314970        -8.5708
  84   1.0000      -0.311433        -8.4745
  85   1.0000      -0.306864        -8.3502
  86   1.0000      -0.303436        -8.2569
  87   1.0000      -0.301936        -8.2161
  88   1.0000      -0.299148        -8.1402
  89   1.0000      -0.296540        -8.0693
  90   1.0000      -0.295700        -8.0464
  91   1.0000      -0.292795        -7.9674
  92   1.0000      -0.290549        -7.9062
  93   1.0000      -0.288729        -7.8567
  94   1.0000      -0.286822        -7.8048
  95   1.0000      -0.285521        -7.7694
  96   1.0000      -0.283436        -7.7127
  97   1.0000      -0.281380        -7.6567
  98   1.0000      -0.279501        -7.6056
  99   1.0000      -0.279061        -7.5936
 100   1.0000      -0.277698        -7.5566
 101   1.0000      -0.277451        -7.5498
 102   1.0000      -0.275614        -7.4998
 103   1.0000      -0.274825        -7.4784
 104   1.0000      -0.273713        -7.4481
 105   1.0000      -0.271206        -7.3799
 106   1.0000      -0.269430        -7.3316
 107   1.0000      -0.267449        -7.2777
 108   1.0000      -0.265854        -7.2343
 109   1.0000      -0.264885        -7.2079
 110   1.0000      -0.263439        -7.1685
 111   1.0000      -0.262689        -7.1481
 112   1.0000      -0.260782        -7.0962
 113   1.0000      -0.259127        -7.0512
 114   1.0000      -0.258460        -7.0330
 115   1.0000      -0.254617        -6.9285
 116   1.0000      -0.251231        -6.8363
 117   1.0000      -0.249254        -6.7826
 118   1.0000      -0.246879        -6.7179
 119   1.0000      -0.244025        -6.6403
 120   1.0000      -0.240680        -6.5492
 121   1.0000      -0.227771        -6.1980
 122   1.0000      -0.206569        -5.6210
 123   1.0000      -0.201486        -5.4827
 124   1.0000      -0.188127        -5.1192
 125   1.0000      -0.166268        -4.5244
 126   0.0000      -0.152030        -4.1370
 127   0.0000      -0.148608        -4.0438
 128   0.0000      -0.140687        -3.8283
 129   0.0000      -0.130072        -3.5394
 130   0.0000      -0.126965        -3.4549

MULLIKEN ATOMIC CHARGES AND SPIN POPULATIONS
--------------------------------------------
   0 Au:    0.079369   -0.192278
   1 Au:    0.240038    0.026739
   2 Au:    0.065645   -0.108880
   3 Au:    0.305392   -0.130583
   4 Au:    0.046433    0.038186
   5 Au:    0.346500   -0.025121
   6 Au:    0.024403   -0.086730
   7 Au:    0.244062   -0.185324
   8 Au:    0.056305   -0.143058
   9 Au:    0.303289   -0.111869
  10 Au:    0.196165    0.022182
  11 Au:   -0.005686   -0.202234
  12 Fe:   -1.901914    3.098969
Sum of atomic charges         :    0.0000000

LOEWDIN ATOMIC CHARGES AND SPIN POPULATIONS
-------------------------------------------
   0 Au:   -0.003518   -0.113326
   1 Au:    0.112707   -0.042473
   2 Au:    0.017513   -0.062257
   3 Au:    0.065960   -0.108251
   4 Au:   -0.006410   -0.044939
   5 Au:    0.104726   -0.063160
   6 Au:    0.016097   -0.087991
   7 Au:    0.078996   -0.147630
   8 Au:   -0.007240   -0.122443
   9 Au:    0.091307   -0.134781
  10 Au:    0.066747   -0.048556
  11 Au:   -0.038016   -0.119372
  12 Fe:   -0.498870    3.095178

  Mayer bond orders larger than 0.100000
B(  0-Au,  1-Au) :   0.2954 B(  0-Au,  5-Au) :   0.3664 B(  0-Au,  6-Au) :   0.1474
B(  0-Au, 10-Au) :   0.2290 B(  0-Au, 11-Au) :   0.1426 B(  0-Au, 12-Fe) :   0.3701
B(  1-Au,  2-Au) :   0.3538 B(  1-Au, 12-Fe) :   0.5905 B(  2-Au,  3-Au) :   0.2969
B(  2-Au,  8-Au) :   0.1709 B(  2-Au, 12-Fe) :   0.5304 B(  3-Au,  4-Au) :   0.4020
B(  3-Au,  8-Au) :   0.3202 B(  4-Au,  6-Au) :   0.4920 B(  4-Au,  7-Au) :   0.1256
B(  4-Au,  8-Au) :   0.1257 B(  4-Au, 12-Fe) :   0.4246 B(  5-Au,  6-Au) :   0.3926
B(  5-Au, 11-Au) :   0.2961 B(  6-Au,  7-Au) :   0.1184 B(  6-Au, 11-Au) :   0.1429
B(  6-Au, 12-Fe) :   0.4880 B(  7-Au,  8-Au) :   0.1701 B(  7-Au,  9-Au) :   0.1029
B(  7-Au, 11-Au) :   0.1941 B(  7-Au, 12-Fe) :   0.5896 B(  8-Au,  9-Au) :   0.3666
B(  8-Au, 12-Fe) :   0.3941 B(  9-Au, 10-Au) :   0.1999 B(  9-Au, 11-Au) :   0.2033
B(  9-Au, 12-Fe) :   0.4582 B( 10-Au, 11-Au) :   0.2595 B( 10-Au, 12-Fe) :   0.4452
B( 11-Au, 12-Fe) :   0.3854

FINAL SINGLE POINT ENERGY     -2893.829519946298

DIPOLE MOMENT
-------------
                                X             Y             Z
Electronic contribution:    -12.23946       6.10068       5.21362
Nuclear contribution   :     12.27459      -5.72813      -5.24719
                        -----------------------------------------
Total Dipole Moment    :      0.03513       0.37255      -0.03357
                        -----------------------------------------
Magnitude (a.u.)       :      0.37571
Magnitude (Debye)      :      0.95497

Rotational constants in cm-1:     0.001747     0.001060     0.001012
Rotational constants in MHz :    52.374164    31.789072    30.329337

                             ****ORCA TERMINATED NORMALLY****
TOTAL RUN TIME: 0 days 0 hours 21 minutes 33 seconds 996 msec
