                         Program Version 5.0.3 -  RELEASE  -
|  1> !RI-B2PLYP def2-TZVP def2-TZVP/C
|  2> !RIJCOSX VERYSLOWCONV
|  3>
|  4> %scf
|  5>   AutoTRAHIter 200
|  6>   maxiter 400
|  7> end
|  8>
|  9>
| 10> %pal nprocs 6 end
| 11>
| 12> *xyzfile 0 6 pbe.xyz
| 13>
| 14> $new_job
| 15>
| 16> !RI-B2PLYP def2-TZVP def2-TZVP/C
| 17> !RIJCOSX VERYSLOWCONV
| 18>
| 19> %scf
| 20>   AutoTRAHIter 200
| 21>   maxiter 400
| 22> end
| 23>
| 24>
| 25> %pal nprocs 6 end
| 26>
| 27> *xyzfile 0 4 pbe.xyz
| 28>
| 29>
| 30>
| 31>
| 32>
| 33>                          ****END OF INPUT****
 Total Charge           Charge          ....    0
 Multiplicity           Mult            ....    6
 Number of Electrons    NEL             ....  291
MP2 TOTAL ENERGY:    -3049.074999820 Eh
FINAL SINGLE POINT ENERGY     -3049.074999820401

CARTESIAN COORDINATES (ANGSTROEM)
---------------------------------
  Au     9.999113    9.213203    9.693395
  Au     9.112231    9.340542    5.895819
  Au     7.937514    5.951040   10.223289
  Au     5.285767    9.422539    8.797638
  Au     5.380812    6.974239   10.214465
  Au     7.411910    8.823627   10.439638
  Au     7.944600   10.425135    8.207311
  Au    10.489542    6.523246    9.467348
  Au     8.911483    4.914423    7.798995
  Au     6.111525    4.882478    8.455595
  Au     4.712821    7.068535    7.345973
  Au     6.455320    8.953650    6.348186
  Au     9.608310    6.648537    5.709457
  Au     6.976726    6.080958    6.126237
  Mn     8.429976    7.674876    8.002825

 Multiplicity           Mult            ....    4
 Number of Electrons    NEL             ....  291
 Basis Dimension        Dim             ....  605

ORBITAL ENERGIES
----------------
                 SPIN UP ORBITALS
  NO   OCC          E(Eh)            E(eV)
   0   1.0000    -237.636997     -6466.4314
   1   1.0000     -28.137257      -765.6537
   2   1.0000     -24.055796      -654.5915
   3   1.0000     -24.054772      -654.5636
   4   1.0000     -24.054679      -654.5611
   5   1.0000      -4.408281      -119.9554
   6   1.0000      -4.408277      -119.9553
   7   1.0000      -4.403711      -119.8311
   8   1.0000      -4.403456      -119.8241
   9   1.0000      -4.403161      -119.8161
  10   1.0000      -4.403056      -119.8132
  11   1.0000      -4.395740      -119.6142
  12   1.0000      -4.395673      -119.6123
  13   1.0000      -4.395472      -119.6069
  14   1.0000      -4.395458      -119.6065
  15   1.0000      -4.390872      -119.4817
  16   1.0000      -4.390671      -119.4762
  17   1.0000      -4.389429      -119.4424
  18   1.0000      -4.388898      -119.4280
  19   1.0000      -3.616142       -98.4002
  20   1.0000      -2.528477       -68.8034
  21   1.0000      -2.528417       -68.8017
  22   1.0000      -2.526737       -68.7560
  23   1.0000      -2.526605       -68.7524
  24   1.0000      -2.525452       -68.7210
  25   1.0000      -2.525261       -68.7158
  26   1.0000      -2.522709       -68.6464
  27   1.0000      -2.522335       -68.6362
  28   1.0000      -2.522190       -68.6323
  29   1.0000      -2.521931       -68.6252
  30   1.0000      -2.521359       -68.6097
  31   1.0000      -2.521208       -68.6056
  32   1.0000      -2.520339       -68.5819
  33   1.0000      -2.520237       -68.5791
  34   1.0000      -2.519494       -68.5589
  35   1.0000      -2.519359       -68.5553
  36   1.0000      -2.517538       -68.5057
  37   1.0000      -2.517494       -68.5045
  38   1.0000      -2.515795       -68.4583
  39   1.0000      -2.515741       -68.4568
  40   1.0000      -2.514486       -68.4226
  41   1.0000      -2.514416       -68.4207
  42   1.0000      -2.514033       -68.4103
  43   1.0000      -2.513956       -68.4082
  44   1.0000      -2.510697       -68.3195
  45   1.0000      -2.510304       -68.3088
  46   1.0000      -2.510091       -68.3030
  47   1.0000      -2.509678       -68.2918
  48   1.0000      -2.509637       -68.2907
  49   1.0000      -2.509506       -68.2871
  50   1.0000      -2.509111       -68.2764
  51   1.0000      -2.508827       -68.2686
  52   1.0000      -2.508744       -68.2664
  53   1.0000      -2.508043       -68.2473
  54   1.0000      -2.507809       -68.2410
  55   1.0000      -2.507004       -68.2190
  56   1.0000      -2.506147       -68.1957
  57   1.0000      -2.505714       -68.1840
  58   1.0000      -2.505559       -68.1797
  59   1.0000      -2.505004       -68.1646
  60   1.0000      -2.504866       -68.1609
  61   1.0000      -2.504623       -68.1542
  62   1.0000      -2.418841       -65.8200
  63   1.0000      -2.417795       -65.7916
  64   1.0000      -2.417223       -65.7760
  65   1.0000      -0.526383       -14.3236
  66   1.0000      -0.522250       -14.2111
  67   1.0000      -0.515715       -14.0333
  68   1.0000      -0.515477       -14.0268
  69   1.0000      -0.514922       -14.0117
  70   1.0000      -0.490717       -13.3531
  71   1.0000      -0.469959       -12.7882
  72   1.0000      -0.467349       -12.7172
  73   1.0000      -0.465660       -12.6713
  74   1.0000      -0.459512       -12.5040
  75   1.0000      -0.458988       -12.4897
  76   1.0000      -0.457589       -12.4516
  77   1.0000      -0.457440       -12.4476
  78   1.0000      -0.455980       -12.4078
  79   1.0000      -0.453950       -12.3526
  80   1.0000      -0.453350       -12.3363
  81   1.0000      -0.450377       -12.2554
  82   1.0000      -0.450098       -12.2478
  83   1.0000      -0.448858       -12.2140
  84   1.0000      -0.448646       -12.2083
  85   1.0000      -0.446261       -12.1434
  86   1.0000      -0.442152       -12.0316
  87   1.0000      -0.441738       -12.0203
  88   1.0000      -0.438836       -11.9413
  89   1.0000      -0.436666       -11.8823
  90   1.0000      -0.434061       -11.8114
  91   1.0000      -0.430813       -11.7230
  92   1.0000      -0.425316       -11.5735
  93   1.0000      -0.425070       -11.5668
  94   1.0000      -0.423642       -11.5279
  95   1.0000      -0.422659       -11.5011
  96   1.0000      -0.420273       -11.4362
  97   1.0000      -0.419500       -11.4152
  98   1.0000      -0.418808       -11.3964
  99   1.0000      -0.409341       -11.1387
 100   1.0000      -0.408012       -11.1026
 101   1.0000      -0.406230       -11.0541
 102   1.0000      -0.400730       -10.9044
 103   1.0000      -0.400701       -10.9036
 104   1.0000      -0.399735       -10.8773
 105   1.0000      -0.395379       -10.7588
 106   1.0000      -0.393604       -10.7105
 107   1.0000      -0.386949       -10.5294
 108   1.0000      -0.383370       -10.4320
 109   1.0000      -0.380523       -10.3546
 110   1.0000      -0.378834       -10.3086
 111   1.0000      -0.378379       -10.2962
 112   1.0000      -0.377008       -10.2589
 113   1.0000      -0.375047       -10.2055
 114   1.0000      -0.373984       -10.1766
 115   1.0000      -0.371285       -10.1032
 116   1.0000      -0.369873       -10.0648
 117   1.0000      -0.369031       -10.0418
 118   1.0000      -0.364345        -9.9143
 119   1.0000      -0.363193        -9.8830
 120   1.0000      -0.362532        -9.8650
 121   1.0000      -0.360809        -9.8181
 122   1.0000      -0.360642        -9.8136
 123   1.0000      -0.357872        -9.7382
 124   1.0000      -0.357781        -9.7357
 125   1.0000      -0.352314        -9.5870
 126   1.0000      -0.351953        -9.5771
 127   1.0000      -0.351510        -9.5651
 128   1.0000      -0.350619        -9.5408
 129   1.0000      -0.348311        -9.4780
 130   1.0000      -0.347797        -9.4640
 131   1.0000      -0.345075        -9.3900
 132   1.0000      -0.341918        -9.3041
 133   1.0000      -0.340483        -9.2650
 134   1.0000      -0.339520        -9.2388
 135   1.0000      -0.337631        -9.1874
 136   1.0000      -0.331092        -9.0095
 137   1.0000      -0.330173        -8.9845
 138   1.0000      -0.328617        -8.9421
 139   1.0000      -0.327092        -8.9006
 140   1.0000      -0.312819        -8.5122
 141   1.0000      -0.312687        -8.5086
 142   1.0000      -0.310253        -8.4424
 143   1.0000      -0.308829        -8.4037
 144   1.0000      -0.233101        -6.3430
 145   1.0000      -0.226759        -6.1704
 146   1.0000      -0.224872        -6.1191
 147   0.0000      -0.139716        -3.8019
 148   0.0000      -0.111260        -3.0275
 149   0.0000      -0.078597        -2.1387
 150   0.0000      -0.064402        -1.7525
 151   0.0000      -0.056245        -1.5305

                 SPIN DOWN ORBITALS
  NO   OCC          E(Eh)            E(eV)
   0   1.0000    -237.635036     -6466.3781
   1   1.0000     -28.035473      -762.8840
   2   1.0000     -23.961996      -652.0391
   3   1.0000     -23.961592      -652.0281
   4   1.0000     -23.961344      -652.0213
   5   1.0000      -4.408636      -119.9651
   6   1.0000      -4.408609      -119.9643
   7   1.0000      -4.404433      -119.8507
   8   1.0000      -4.404181      -119.8439
   9   1.0000      -4.403879      -119.8356
  10   1.0000      -4.403782      -119.8330
  11   1.0000      -4.395997      -119.6212
  12   1.0000      -4.395906      -119.6187
  13   1.0000      -4.395702      -119.6131
  14   1.0000      -4.395681      -119.6125
  15   1.0000      -4.391793      -119.5068
  16   1.0000      -4.391593      -119.5013
  17   1.0000      -4.390359      -119.4677
  18   1.0000      -4.389820      -119.4531
  19   1.0000      -3.329908       -90.6114
  20   1.0000      -2.527615       -68.7799
  21   1.0000      -2.527579       -68.7789
  22   1.0000      -2.526688       -68.7547
  23   1.0000      -2.526467       -68.7487
  24   1.0000      -2.525382       -68.7191
  25   1.0000      -2.525148       -68.7128
  26   1.0000      -2.523599       -68.6706
  27   1.0000      -2.523187       -68.6594
  28   1.0000      -2.522953       -68.6530
  29   1.0000      -2.522720       -68.6467
  30   1.0000      -2.520986       -68.5995
  31   1.0000      -2.520845       -68.5957
  32   1.0000      -2.520543       -68.5875
  33   1.0000      -2.520421       -68.5841
  34   1.0000      -2.520185       -68.5777
  35   1.0000      -2.520111       -68.5757
  36   1.0000      -2.518045       -68.5195
  37   1.0000      -2.518004       -68.5184
  38   1.0000      -2.515319       -68.4453
  39   1.0000      -2.515247       -68.4434
  40   1.0000      -2.514572       -68.4250
  41   1.0000      -2.514470       -68.4222
  42   1.0000      -2.514464       -68.4220
  43   1.0000      -2.514412       -68.4206
  44   1.0000      -2.511372       -68.3379
  45   1.0000      -2.510462       -68.3132
  46   1.0000      -2.510157       -68.3049
  47   1.0000      -2.509930       -68.2987
  48   1.0000      -2.509856       -68.2966
  49   1.0000      -2.509819       -68.2957
  50   1.0000      -2.509695       -68.2923
  51   1.0000      -2.509335       -68.2825
  52   1.0000      -2.509233       -68.2797
  53   1.0000      -2.508944       -68.2718
  54   1.0000      -2.508890       -68.2704
  55   1.0000      -2.507468       -68.2317
  56   1.0000      -2.507315       -68.2275
  57   1.0000      -2.506772       -68.2127
  58   1.0000      -2.506069       -68.1936
  59   1.0000      -2.505950       -68.1904
  60   1.0000      -2.505608       -68.1811
  61   1.0000      -2.505450       -68.1768
  62   1.0000      -2.090758       -56.8924
  63   1.0000      -2.090479       -56.8848
  64   1.0000      -2.089476       -56.8575
  65   1.0000      -0.500750       -13.6261
  66   1.0000      -0.472810       -12.8658
  67   1.0000      -0.470735       -12.8094
  68   1.0000      -0.469979       -12.7888
  69   1.0000      -0.469723       -12.7818
  70   1.0000      -0.467760       -12.7284
  71   1.0000      -0.465234       -12.6597
  72   1.0000      -0.462516       -12.5857
  73   1.0000      -0.460579       -12.5330
  74   1.0000      -0.459075       -12.4921
  75   1.0000      -0.458098       -12.4655
  76   1.0000      -0.456774       -12.4294
  77   1.0000      -0.456704       -12.4276
  78   1.0000      -0.455768       -12.4021
  79   1.0000      -0.452489       -12.3128
  80   1.0000      -0.451061       -12.2740
  81   1.0000      -0.449642       -12.2354
  82   1.0000      -0.444210       -12.0876
  83   1.0000      -0.442665       -12.0455
  84   1.0000      -0.439049       -11.9471
  85   1.0000      -0.438311       -11.9270
  86   1.0000      -0.436271       -11.8715
  87   1.0000      -0.432344       -11.7647
  88   1.0000      -0.432031       -11.7562
  89   1.0000      -0.427875       -11.6431
  90   1.0000      -0.427652       -11.6370
  91   1.0000      -0.424331       -11.5466
  92   1.0000      -0.423888       -11.5346
  93   1.0000      -0.421688       -11.4747
  94   1.0000      -0.412119       -11.2143
  95   1.0000      -0.410199       -11.1621
  96   1.0000      -0.408701       -11.1213
  97   1.0000      -0.405574       -11.0362
  98   1.0000      -0.403665       -10.9843
  99   1.0000      -0.402705       -10.9582
 100   1.0000      -0.399589       -10.8734
 101   1.0000      -0.396953       -10.8016
 102   1.0000      -0.394748       -10.7416
 103   1.0000      -0.391609       -10.6562
 104   1.0000      -0.386079       -10.5057
 105   1.0000      -0.384231       -10.4554
 106   1.0000      -0.382895       -10.4191
 107   1.0000      -0.381195       -10.3728
 108   1.0000      -0.378023       -10.2865
 109   1.0000      -0.376422       -10.2430
 110   1.0000      -0.375556       -10.2194
 111   1.0000      -0.372844       -10.1456
 112   1.0000      -0.370038       -10.0692
 113   1.0000      -0.366243        -9.9660
 114   1.0000      -0.365830        -9.9547
 115   1.0000      -0.365353        -9.9418
 116   1.0000      -0.364771        -9.9259
 117   1.0000      -0.362907        -9.8752
 118   1.0000      -0.359333        -9.7780
 119   1.0000      -0.358797        -9.7634
 120   1.0000      -0.354684        -9.6514
 121   1.0000      -0.353719        -9.6252
 122   1.0000      -0.352639        -9.5958
 123   1.0000      -0.352433        -9.5902
 124   1.0000      -0.351718        -9.5707
 125   1.0000      -0.349751        -9.5172
 126   1.0000      -0.346314        -9.4237
 127   1.0000      -0.344930        -9.3860
 128   1.0000      -0.344208        -9.3664
 129   1.0000      -0.343363        -9.3434
 130   1.0000      -0.340051        -9.2532
 131   1.0000      -0.334986        -9.1154
 132   1.0000      -0.331865        -9.0305
 133   1.0000      -0.330141        -8.9836
 134   1.0000      -0.329107        -8.9555
 135   1.0000      -0.321632        -8.7521
 136   1.0000      -0.321029        -8.7356
 137   1.0000      -0.319280        -8.6881
 138   1.0000      -0.316023        -8.5994
 139   1.0000      -0.247448        -6.7334
 140   1.0000      -0.236381        -6.4322
 141   1.0000      -0.233570        -6.3558
 142   1.0000      -0.231889        -6.3100
 143   1.0000      -0.198922        -5.4129
 144   0.0000      -0.076023        -2.0687
 145   0.0000      -0.074388        -2.0242
 146   0.0000      -0.065638        -1.7861
 147   0.0000      -0.064612        -1.7582
 148   0.0000      -0.058272        -1.5856

MULLIKEN ATOMIC CHARGES AND SPIN POPULATIONS
--------------------------------------------
   0 Au:    0.231700   -0.093844
   1 Au:    0.231048   -0.091344
   2 Au:   -0.055028   -0.053694
   3 Au:    0.035642   -0.081059
   4 Au:    0.191862   -0.131859
   5 Au:   -0.050594   -0.052265
   6 Au:    0.234831   -0.254029
   7 Au:    0.235071   -0.092476
   8 Au:    0.233035   -0.252589
   9 Au:    0.031224   -0.092195
  10 Au:    0.187752   -0.135737
  11 Au:   -0.049461   -0.053793
  12 Au:    0.234038   -0.090929
  13 Au:   -0.048513   -0.053539
  14 Mn:   -1.642607    4.529353
Sum of atomic charges         :    0.0000000

LOEWDIN ATOMIC CHARGES AND SPIN POPULATIONS
-------------------------------------------
   0 Au:    0.072831   -0.129275
   1 Au:    0.072888   -0.128081
   2 Au:   -0.028671   -0.082701
   3 Au:    0.004660   -0.100493
   4 Au:   -0.002590   -0.118580
   5 Au:   -0.029369   -0.081708
   6 Au:    0.004095   -0.130808
   7 Au:    0.073667   -0.129397
   8 Au:    0.004035   -0.130397
   9 Au:    0.003661   -0.107474
  10 Au:   -0.004423   -0.119819
  11 Au:   -0.028623   -0.082252
  12 Au:    0.072815   -0.127802
  13 Au:   -0.027651   -0.082641
  14 Mn:   -0.187325    4.551428

  Mayer bond orders larger than 0.100000
B(  0-Au,  5-Au) :   0.3079 B(  0-Au,  6-Au) :   0.2057 B(  0-Au,  7-Au) :   0.2057
B(  0-Au, 14-Mn) :   0.4044 B(  1-Au,  6-Au) :   0.2061 B(  1-Au, 11-Au) :   0.3056
B(  1-Au, 12-Au) :   0.2054 B(  1-Au, 14-Mn) :   0.4053 B(  2-Au,  4-Au) :   0.3005
B(  2-Au,  5-Au) :   0.1611 B(  2-Au,  7-Au) :   0.3085 B(  2-Au,  8-Au) :   0.1719
B(  2-Au,  9-Au) :   0.2629 B(  2-Au, 14-Mn) :   0.4098 B(  3-Au,  4-Au) :   0.2393
B(  3-Au,  5-Au) :   0.2660 B(  3-Au,  6-Au) :   0.1991 B(  3-Au, 10-Au) :   0.2428
B(  3-Au, 11-Au) :   0.2652 B(  3-Au, 14-Mn) :   0.1531 B(  4-Au,  5-Au) :   0.2954
B(  4-Au,  9-Au) :   0.2393 B(  4-Au, 10-Au) :   0.1747 B(  5-Au,  6-Au) :   0.1778
B(  5-Au, 14-Mn) :   0.3998 B(  6-Au, 11-Au) :   0.1761 B(  6-Au, 14-Mn) :   0.3564
B(  7-Au,  8-Au) :   0.2079 B(  7-Au, 14-Mn) :   0.4005 B(  8-Au,  9-Au) :   0.2097
B(  8-Au, 12-Au) :   0.2085 B(  8-Au, 13-Au) :   0.1724 B(  8-Au, 14-Mn) :   0.3505
B(  9-Au, 10-Au) :   0.2428 B(  9-Au, 13-Au) :   0.2624 B(  9-Au, 14-Mn) :   0.1591
B( 10-Au, 11-Au) :   0.2955 B( 10-Au, 13-Au) :   0.2978 B( 11-Au, 13-Au) :   0.1608
B( 11-Au, 14-Mn) :   0.4015 B( 12-Au, 13-Au) :   0.3056 B( 12-Au, 14-Mn) :   0.4024
B( 13-Au, 14-Mn) :   0.4076

MP2 TOTAL ENERGY:    -3049.053752821 Eh
FINAL SINGLE POINT ENERGY     -3049.053752820851

DIPOLE MOMENT
-------------
                                X             Y             Z
Electronic contribution:    -29.91839      -5.70908       6.87629
Nuclear contribution   :     30.45745       5.80395      -6.99722
                        -----------------------------------------
Total Dipole Moment    :      0.53905       0.09487      -0.12093
                        -----------------------------------------
Magnitude (a.u.)       :      0.56054
Magnitude (Debye)      :      1.42478

Rotational constants in cm-1:     0.001075     0.001035     0.000971
Rotational constants in MHz :    32.223867    31.017240    29.114727

                             ****ORCA TERMINATED NORMALLY****
TOTAL RUN TIME: 0 days 0 hours 55 minutes 43 seconds 501 msec
