                         Program Version 5.0.3 -  RELEASE  -
|  1> !PBE def2-TZVP VERYSLOWCONV
|  2> !KDIIS
|  3>
|  4> %scf
|  5>   AutoTRAHIter 200
|  6>   maxiter 400
|  7> end
|  8>
|  9>
| 10> %pal nprocs 6 end
| 11>
| 12> *xyzfile 0 6 pbe.xyz
| 13>
| 14> $new_job
| 15>
| 16> !PBE def2-TZVP VERYSLOWCONV
| 17> !KDIIS
| 18>
| 19> %scf
| 20>   AutoTRAHIter 200
| 21>   maxiter 400
| 22> end
| 23>
| 24>
| 25> %pal nprocs 6 end
| 26>
| 27> *xyzfile 0 4 pbe.xyz
| 28>
| 29>
| 30>
| 31>
| 32>
| 33>                          ****END OF INPUT****
 Total Charge           Charge          ....    0
 Multiplicity           Mult            ....    6
 Number of Electrons    NEL             ....  291
FINAL SINGLE POINT ENERGY     -3052.339539110452

CARTESIAN COORDINATES (ANGSTROEM)
---------------------------------
  Au     9.999113    9.213203    9.693395
  Au     9.112231    9.340542    5.895819
  Au     7.937514    5.951040   10.223289
  Au     5.285767    9.422539    8.797638
  Au     5.380812    6.974239   10.214465
  Au     7.411910    8.823627   10.439638
  Au     7.944600   10.425135    8.207311
  Au    10.489542    6.523246    9.467348
  Au     8.911483    4.914423    7.798995
  Au     6.111525    4.882478    8.455595
  Au     4.712821    7.068535    7.345973
  Au     6.455320    8.953650    6.348186
  Au     9.608310    6.648537    5.709457
  Au     6.976726    6.080958    6.126237
  Mn     8.429976    7.674876    8.002825

 Multiplicity           Mult            ....    4
 Number of Electrons    NEL             ....  291
 Basis Dimension        Dim             ....  605

ORBITAL ENERGIES
----------------
                 SPIN UP ORBITALS
  NO   OCC          E(Eh)            E(eV)
   0   1.0000    -234.212447     -6373.2447
   1   1.0000     -26.905656      -732.1401
   2   1.0000     -23.055180      -627.3633
   3   1.0000     -23.053967      -627.3303
   4   1.0000     -23.052885      -627.3009
   5   1.0000      -4.037494      -109.8658
   6   1.0000      -4.037478      -109.8654
   7   1.0000      -4.034279      -109.7783
   8   1.0000      -4.034039      -109.7718
   9   1.0000      -4.033766      -109.7643
  10   1.0000      -4.033743      -109.7637
  11   1.0000      -4.024524      -109.5129
  12   1.0000      -4.024447      -109.5108
  13   1.0000      -4.024267      -109.5059
  14   1.0000      -4.024235      -109.5050
  15   1.0000      -4.022056      -109.4457
  16   1.0000      -4.021857      -109.4403
  17   1.0000      -4.021386      -109.4275
  18   1.0000      -4.021018      -109.4175
  19   1.0000      -3.116751       -84.8111
  20   1.0000      -2.252136       -61.2837
  21   1.0000      -2.252093       -61.2826
  22   1.0000      -2.251376       -61.2630
  23   1.0000      -2.251225       -61.2589
  24   1.0000      -2.250143       -61.2295
  25   1.0000      -2.249863       -61.2219
  26   1.0000      -2.249447       -61.2106
  27   1.0000      -2.249101       -61.2012
  28   1.0000      -2.249048       -61.1997
  29   1.0000      -2.248803       -61.1931
  30   1.0000      -2.246147       -61.1208
  31   1.0000      -2.245962       -61.1157
  32   1.0000      -2.245891       -61.1138
  33   1.0000      -2.245743       -61.1098
  34   1.0000      -2.245553       -61.1046
  35   1.0000      -2.245459       -61.1021
  36   1.0000      -2.244071       -61.0643
  37   1.0000      -2.244001       -61.0624
  38   1.0000      -2.240030       -60.9543
  39   1.0000      -2.239961       -60.9524
  40   1.0000      -2.239642       -60.9438
  41   1.0000      -2.239596       -60.9425
  42   1.0000      -2.239419       -60.9377
  43   1.0000      -2.239362       -60.9361
  44   1.0000      -2.237871       -60.8956
  45   1.0000      -2.237069       -60.8737
  46   1.0000      -2.236678       -60.8631
  47   1.0000      -2.235888       -60.8416
  48   1.0000      -2.235790       -60.8389
  49   1.0000      -2.235734       -60.8374
  50   1.0000      -2.235553       -60.8325
  51   1.0000      -2.234828       -60.8128
  52   1.0000      -2.234384       -60.8007
  53   1.0000      -2.234152       -60.7944
  54   1.0000      -2.233823       -60.7854
  55   1.0000      -2.233742       -60.7832
  56   1.0000      -2.233273       -60.7704
  57   1.0000      -2.233219       -60.7690
  58   1.0000      -2.232674       -60.7542
  59   1.0000      -2.231898       -60.7330
  60   1.0000      -2.231043       -60.7098
  61   1.0000      -2.230670       -60.6996
  62   1.0000      -2.021762       -55.0149
  63   1.0000      -2.019155       -54.9440
  64   1.0000      -2.016824       -54.8806
  65   1.0000      -0.428541       -11.6612
  66   1.0000      -0.390098       -10.6151
  67   1.0000      -0.384417       -10.4605
  68   1.0000      -0.383163       -10.4264
  69   1.0000      -0.380145       -10.3443
  70   1.0000      -0.368322       -10.0226
  71   1.0000      -0.367366        -9.9965
  72   1.0000      -0.365742        -9.9523
  73   1.0000      -0.362091        -9.8530
  74   1.0000      -0.359012        -9.7692
  75   1.0000      -0.357062        -9.7161
  76   1.0000      -0.356447        -9.6994
  77   1.0000      -0.355718        -9.6796
  78   1.0000      -0.355547        -9.6749
  79   1.0000      -0.352289        -9.5863
  80   1.0000      -0.348643        -9.4871
  81   1.0000      -0.346274        -9.4226
  82   1.0000      -0.346201        -9.4206
  83   1.0000      -0.344424        -9.3722
  84   1.0000      -0.340937        -9.2774
  85   1.0000      -0.338848        -9.2205
  86   1.0000      -0.338372        -9.2076
  87   1.0000      -0.334705        -9.1078
  88   1.0000      -0.333643        -9.0789
  89   1.0000      -0.332878        -9.0581
  90   1.0000      -0.325167        -8.8483
  91   1.0000      -0.323879        -8.8132
  92   1.0000      -0.323301        -8.7975
  93   1.0000      -0.320003        -8.7077
  94   1.0000      -0.317439        -8.6380
  95   1.0000      -0.311782        -8.4840
  96   1.0000      -0.311238        -8.4692
  97   1.0000      -0.309438        -8.4202
  98   1.0000      -0.309341        -8.4176
  99   1.0000      -0.308209        -8.3868
 100   1.0000      -0.305413        -8.3107
 101   1.0000      -0.303819        -8.2673
 102   1.0000      -0.297024        -8.0824
 103   1.0000      -0.296303        -8.0628
 104   1.0000      -0.295795        -8.0490
 105   1.0000      -0.295246        -8.0340
 106   1.0000      -0.287736        -7.8297
 107   1.0000      -0.287564        -7.8250
 108   1.0000      -0.284390        -7.7387
 109   1.0000      -0.281397        -7.6572
 110   1.0000      -0.280469        -7.6319
 111   1.0000      -0.277845        -7.5606
 112   1.0000      -0.274032        -7.4568
 113   1.0000      -0.273882        -7.4527
 114   1.0000      -0.273370        -7.4388
 115   1.0000      -0.272767        -7.4224
 116   1.0000      -0.271237        -7.3807
 117   1.0000      -0.270715        -7.3665
 118   1.0000      -0.268226        -7.2988
 119   1.0000      -0.264050        -7.1852
 120   1.0000      -0.263640        -7.1740
 121   1.0000      -0.262266        -7.1366
 122   1.0000      -0.260617        -7.0918
 123   1.0000      -0.259755        -7.0683
 124   1.0000      -0.259006        -7.0479
 125   1.0000      -0.258970        -7.0469
 126   1.0000      -0.256925        -6.9913
 127   1.0000      -0.256451        -6.9784
 128   1.0000      -0.254972        -6.9381
 129   1.0000      -0.254382        -6.9221
 130   1.0000      -0.253395        -6.8952
 131   1.0000      -0.251938        -6.8556
 132   1.0000      -0.250994        -6.8299
 133   1.0000      -0.250010        -6.8031
 134   1.0000      -0.250002        -6.8029
 135   1.0000      -0.247880        -6.7452
 136   1.0000      -0.246987        -6.7209
 137   1.0000      -0.246618        -6.7108
 138   1.0000      -0.244041        -6.6407
 139   1.0000      -0.242711        -6.6045
 140   1.0000      -0.240808        -6.5527
 141   1.0000      -0.240618        -6.5475
 142   1.0000      -0.240476        -6.5437
 143   1.0000      -0.230931        -6.2839
 144   1.0000      -0.210821        -5.7367
 145   1.0000      -0.208112        -5.6630
 146   1.0000      -0.202826        -5.5192
 147   0.0000      -0.200386        -5.4528
 148   0.0000      -0.176325        -4.7980
 149   0.0000      -0.138942        -3.7808
 150   0.0000      -0.129389        -3.5209
 151   0.0000      -0.128602        -3.4994

                 SPIN DOWN ORBITALS
  NO   OCC          E(Eh)            E(eV)
   0   1.0000    -234.211757     -6373.2259
   1   1.0000     -26.838132      -730.3027
   2   1.0000     -23.003356      -625.9531
   3   1.0000     -23.002889      -625.9404
   4   1.0000     -23.002011      -625.9166
   5   1.0000      -4.037464      -109.8650
   6   1.0000      -4.037421      -109.8638
   7   1.0000      -4.034582      -109.7866
   8   1.0000      -4.034350      -109.7802
   9   1.0000      -4.034086      -109.7731
  10   1.0000      -4.034078      -109.7728
  11   1.0000      -4.024506      -109.5124
  12   1.0000      -4.024408      -109.5097
  13   1.0000      -4.024219      -109.5046
  14   1.0000      -4.024184      -109.5036
  15   1.0000      -4.022775      -109.4653
  16   1.0000      -4.022584      -109.4601
  17   1.0000      -4.022169      -109.4488
  18   1.0000      -4.021818      -109.4392
  19   1.0000      -2.950747       -80.2939
  20   1.0000      -2.251872       -61.2765
  21   1.0000      -2.251801       -61.2746
  22   1.0000      -2.251610       -61.2694
  23   1.0000      -2.251407       -61.2639
  24   1.0000      -2.250420       -61.2370
  25   1.0000      -2.250099       -61.2283
  26   1.0000      -2.249764       -61.2192
  27   1.0000      -2.249471       -61.2112
  28   1.0000      -2.249415       -61.2097
  29   1.0000      -2.249200       -61.2038
  30   1.0000      -2.246522       -61.1310
  31   1.0000      -2.246367       -61.1268
  32   1.0000      -2.246093       -61.1193
  33   1.0000      -2.245946       -61.1153
  34   1.0000      -2.245684       -61.1082
  35   1.0000      -2.245630       -61.1067
  36   1.0000      -2.244236       -61.0688
  37   1.0000      -2.244176       -61.0671
  38   1.0000      -2.240079       -60.9557
  39   1.0000      -2.239987       -60.9532
  40   1.0000      -2.239670       -60.9445
  41   1.0000      -2.239609       -60.9429
  42   1.0000      -2.239267       -60.9336
  43   1.0000      -2.239202       -60.9318
  44   1.0000      -2.238651       -60.9168
  45   1.0000      -2.237902       -60.8964
  46   1.0000      -2.237509       -60.8857
  47   1.0000      -2.237074       -60.8739
  48   1.0000      -2.236856       -60.8680
  49   1.0000      -2.235563       -60.8328
  50   1.0000      -2.235498       -60.8310
  51   1.0000      -2.235438       -60.8294
  52   1.0000      -2.235272       -60.8249
  53   1.0000      -2.234599       -60.8065
  54   1.0000      -2.233804       -60.7849
  55   1.0000      -2.233717       -60.7825
  56   1.0000      -2.233390       -60.7736
  57   1.0000      -2.233330       -60.7720
  58   1.0000      -2.233274       -60.7705
  59   1.0000      -2.232610       -60.7524
  60   1.0000      -2.231752       -60.7291
  61   1.0000      -2.231340       -60.7179
  62   1.0000      -1.858134       -50.5624
  63   1.0000      -1.855561       -50.4924
  64   1.0000      -1.854968       -50.4762
  65   1.0000      -0.423617       -11.5272
  66   1.0000      -0.390408       -10.6236
  67   1.0000      -0.385551       -10.4914
  68   1.0000      -0.380179       -10.3452
  69   1.0000      -0.374312       -10.1855
  70   1.0000      -0.367444        -9.9987
  71   1.0000      -0.364692        -9.9238
  72   1.0000      -0.364181        -9.9099
  73   1.0000      -0.361898        -9.8477
  74   1.0000      -0.360239        -9.8026
  75   1.0000      -0.357116        -9.7176
  76   1.0000      -0.356678        -9.7057
  77   1.0000      -0.356385        -9.6977
  78   1.0000      -0.352304        -9.5867
  79   1.0000      -0.351933        -9.5766
  80   1.0000      -0.349550        -9.5117
  81   1.0000      -0.347613        -9.4590
  82   1.0000      -0.345646        -9.4055
  83   1.0000      -0.343191        -9.3387
  84   1.0000      -0.338466        -9.2101
  85   1.0000      -0.337434        -9.1821
  86   1.0000      -0.336822        -9.1654
  87   1.0000      -0.335271        -9.1232
  88   1.0000      -0.331928        -9.0322
  89   1.0000      -0.327092        -8.9006
  90   1.0000      -0.325124        -8.8471
  91   1.0000      -0.323009        -8.7895
  92   1.0000      -0.322727        -8.7818
  93   1.0000      -0.321083        -8.7371
  94   1.0000      -0.313132        -8.5207
  95   1.0000      -0.311661        -8.4807
  96   1.0000      -0.310722        -8.4552
  97   1.0000      -0.307817        -8.3761
  98   1.0000      -0.306606        -8.3432
  99   1.0000      -0.305069        -8.3014
 100   1.0000      -0.304059        -8.2739
 101   1.0000      -0.300848        -8.1865
 102   1.0000      -0.295967        -8.0537
 103   1.0000      -0.294415        -8.0114
 104   1.0000      -0.292282        -7.9534
 105   1.0000      -0.289124        -7.8675
 106   1.0000      -0.286530        -7.7969
 107   1.0000      -0.285373        -7.7654
 108   1.0000      -0.283064        -7.7026
 109   1.0000      -0.280603        -7.6356
 110   1.0000      -0.278933        -7.5901
 111   1.0000      -0.276177        -7.5151
 112   1.0000      -0.273698        -7.4477
 113   1.0000      -0.273457        -7.4411
 114   1.0000      -0.272445        -7.4136
 115   1.0000      -0.271505        -7.3880
 116   1.0000      -0.270775        -7.3682
 117   1.0000      -0.270439        -7.3590
 118   1.0000      -0.264676        -7.2022
 119   1.0000      -0.264460        -7.1963
 120   1.0000      -0.263840        -7.1794
 121   1.0000      -0.261751        -7.1226
 122   1.0000      -0.260193        -7.0802
 123   1.0000      -0.259323        -7.0565
 124   1.0000      -0.259307        -7.0561
 125   1.0000      -0.257615        -7.0101
 126   1.0000      -0.256058        -6.9677
 127   1.0000      -0.254524        -6.9259
 128   1.0000      -0.253086        -6.8868
 129   1.0000      -0.252388        -6.8678
 130   1.0000      -0.250411        -6.8140
 131   1.0000      -0.249814        -6.7978
 132   1.0000      -0.248961        -6.7746
 133   1.0000      -0.248146        -6.7524
 134   1.0000      -0.244808        -6.6616
 135   1.0000      -0.244580        -6.6554
 136   1.0000      -0.243625        -6.6294
 137   1.0000      -0.242137        -6.5889
 138   1.0000      -0.232713        -6.3325
 139   1.0000      -0.219648        -5.9769
 140   1.0000      -0.215609        -5.8670
 141   1.0000      -0.213447        -5.8082
 142   1.0000      -0.212759        -5.7895
 143   1.0000      -0.184212        -5.0127
 144   0.0000      -0.145518        -3.9597
 145   0.0000      -0.141844        -3.8598
 146   0.0000      -0.141278        -3.8444
 147   0.0000      -0.139279        -3.7900
 148   0.0000      -0.134546        -3.6612

MULLIKEN ATOMIC CHARGES AND SPIN POPULATIONS
--------------------------------------------
   0 Au:    0.274500   -0.041622
   1 Au:    0.274340   -0.039053
   2 Au:   -0.018991   -0.052737
   3 Au:    0.059481   -0.074436
   4 Au:    0.192873   -0.117020
   5 Au:   -0.016411   -0.052531
   6 Au:    0.250981   -0.192180
   7 Au:    0.277536   -0.040997
   8 Au:    0.250562   -0.192747
   9 Au:    0.053390   -0.079283
  10 Au:    0.188714   -0.119911
  11 Au:   -0.015046   -0.052974
  12 Au:    0.277090   -0.039630
  13 Au:   -0.013333   -0.052344
  14 Mn:   -2.035687    4.147465
Sum of atomic charges         :   -0.0000000

LOEWDIN ATOMIC CHARGES AND SPIN POPULATIONS
-------------------------------------------
   0 Au:    0.087809   -0.086348
   1 Au:    0.087861   -0.085092
   2 Au:   -0.004867   -0.062533
   3 Au:    0.008524   -0.091598
   4 Au:    0.002960   -0.106749
   5 Au:   -0.006468   -0.062979
   6 Au:    0.022912   -0.100599
   7 Au:    0.088654   -0.087775
   8 Au:    0.022027   -0.101003
   9 Au:    0.007498   -0.094971
  10 Au:    0.001443   -0.107500
  11 Au:   -0.005696   -0.063048
  12 Au:    0.087868   -0.085887
  13 Au:   -0.004084   -0.062590
  14 Mn:   -0.396442    4.198671

  Mayer bond orders larger than 0.100000
B(  0-Au,  5-Au) :   0.3335 B(  0-Au,  6-Au) :   0.2333 B(  0-Au,  7-Au) :   0.2497
B(  0-Au, 14-Mn) :   0.4229 B(  1-Au,  6-Au) :   0.2336 B(  1-Au, 11-Au) :   0.3315
B(  1-Au, 12-Au) :   0.2497 B(  1-Au, 14-Mn) :   0.4239 B(  2-Au,  4-Au) :   0.3268
B(  2-Au,  5-Au) :   0.1658 B(  2-Au,  7-Au) :   0.3344 B(  2-Au,  8-Au) :   0.1951
B(  2-Au,  9-Au) :   0.2936 B(  2-Au, 14-Mn) :   0.4306 B(  3-Au,  4-Au) :   0.2686
B(  3-Au,  5-Au) :   0.2977 B(  3-Au,  6-Au) :   0.2331 B(  3-Au, 10-Au) :   0.2722
B(  3-Au, 11-Au) :   0.2961 B(  3-Au, 14-Mn) :   0.1789 B(  4-Au,  5-Au) :   0.3216
B(  4-Au,  9-Au) :   0.2680 B(  4-Au, 10-Au) :   0.1979 B(  5-Au,  6-Au) :   0.2016
B(  5-Au, 14-Mn) :   0.4189 B(  6-Au, 11-Au) :   0.2002 B(  6-Au, 14-Mn) :   0.3890
B(  7-Au,  8-Au) :   0.2358 B(  7-Au, 14-Mn) :   0.4197 B(  8-Au,  9-Au) :   0.2461
B(  8-Au, 12-Au) :   0.2364 B(  8-Au, 13-Au) :   0.1961 B(  8-Au, 14-Mn) :   0.3818
B(  9-Au, 10-Au) :   0.2717 B(  9-Au, 13-Au) :   0.2929 B(  9-Au, 14-Mn) :   0.1854
B( 10-Au, 11-Au) :   0.3218 B( 10-Au, 13-Au) :   0.3239 B( 11-Au, 13-Au) :   0.1661
B( 11-Au, 14-Mn) :   0.4212 B( 12-Au, 13-Au) :   0.3314 B( 12-Au, 14-Mn) :   0.4214
B( 13-Au, 14-Mn) :   0.4284

FINAL SINGLE POINT ENERGY     -3052.352030443911

DIPOLE MOMENT
-------------
                                X             Y             Z
Electronic contribution:    -30.03338      -5.72794       6.90228
Nuclear contribution   :     30.45745       5.80395      -6.99722
                        -----------------------------------------
Total Dipole Moment    :      0.42406       0.07601      -0.09494
                        -----------------------------------------
Magnitude (a.u.)       :      0.44116
Magnitude (Debye)      :      1.12133

Rotational constants in cm-1:     0.001075     0.001035     0.000971
Rotational constants in MHz :    32.223867    31.017240    29.114727

                             ****ORCA TERMINATED NORMALLY****
TOTAL RUN TIME: 0 days 0 hours 8 minutes 24 seconds 956 msec
