                         Program Version 5.0.3 -  RELEASE  -
|  1> !R2SCAN def2-TZVP VERYSLOWCONV
|  2> !KDIIS
|  3> %scf
|  4>   AutoTRAHIter 200
|  5>   maxiter 400
|  6> end
|  7>
|  8> %pal nprocs 6 end
|  9>
| 10> *xyzfile 0 6 pbe.xyz
| 11>
| 12> $new_job
| 13>
| 14> !R2SCAN def2-TZVP VERYSLOWCONV
| 15> !KDIIS
| 16> %scf
| 17>   AutoTRAHIter 200
| 18>   maxiter 400
| 19> end
| 20>
| 21>
| 22> %pal nprocs 6 end
| 23>
| 24> *xyzfile 0 4 pbe.xyz
| 25>
| 26>
| 27>
| 28>
| 29>
| 30>                          ****END OF INPUT****
 Total Charge           Charge          ....    0
 Multiplicity           Mult            ....    6
 Number of Electrons    NEL             ....  291
FINAL SINGLE POINT ENERGY     -3052.840306410819

CARTESIAN COORDINATES (ANGSTROEM)
---------------------------------
  Au     9.999113    9.213203    9.693395
  Au     9.112231    9.340542    5.895819
  Au     7.937514    5.951040   10.223289
  Au     5.285767    9.422539    8.797638
  Au     5.380812    6.974239   10.214465
  Au     7.411910    8.823627   10.439638
  Au     7.944600   10.425135    8.207311
  Au    10.489542    6.523246    9.467348
  Au     8.911483    4.914423    7.798995
  Au     6.111525    4.882478    8.455595
  Au     4.712821    7.068535    7.345973
  Au     6.455320    8.953650    6.348186
  Au     9.608310    6.648537    5.709457
  Au     6.976726    6.080958    6.126237
  Mn     8.429976    7.674876    8.002825

 Multiplicity           Mult            ....    4
 Number of Electrons    NEL             ....  291
 Basis Dimension        Dim             ....  605

ORBITAL ENERGIES
----------------
                 SPIN UP ORBITALS
  NO   OCC          E(Eh)            E(eV)
   0   1.0000    -235.055531     -6396.1862
   1   1.0000     -27.232671      -741.0386
   2   1.0000     -23.280397      -633.4918
   3   1.0000     -23.278887      -633.4507
   4   1.0000     -23.278342      -633.4359
   5   1.0000      -4.128181      -112.3335
   6   1.0000      -4.128175      -112.3333
   7   1.0000      -4.125239      -112.2535
   8   1.0000      -4.124984      -112.2465
   9   1.0000      -4.124716      -112.2392
  10   1.0000      -4.124687      -112.2384
  11   1.0000      -4.115873      -111.9986
  12   1.0000      -4.115798      -111.9966
  13   1.0000      -4.115598      -111.9911
  14   1.0000      -4.115575      -111.9905
  15   1.0000      -4.112142      -111.8971
  16   1.0000      -4.111941      -111.8916
  17   1.0000      -4.111306      -111.8743
  18   1.0000      -4.110955      -111.8648
  19   1.0000      -3.256461       -88.6128
  20   1.0000      -2.315872       -63.0181
  21   1.0000      -2.315832       -63.0170
  22   1.0000      -2.315089       -62.9968
  23   1.0000      -2.314934       -62.9926
  24   1.0000      -2.313763       -62.9607
  25   1.0000      -2.313508       -62.9538
  26   1.0000      -2.312937       -62.9382
  27   1.0000      -2.312552       -62.9277
  28   1.0000      -2.312487       -62.9260
  29   1.0000      -2.312216       -62.9186
  30   1.0000      -2.310179       -62.8632
  31   1.0000      -2.309994       -62.8581
  32   1.0000      -2.309619       -62.8479
  33   1.0000      -2.309477       -62.8441
  34   1.0000      -2.309375       -62.8413
  35   1.0000      -2.309274       -62.8385
  36   1.0000      -2.307816       -62.7989
  37   1.0000      -2.307739       -62.7968
  38   1.0000      -2.304094       -62.6976
  39   1.0000      -2.304034       -62.6960
  40   1.0000      -2.303604       -62.6843
  41   1.0000      -2.303562       -62.6831
  42   1.0000      -2.303475       -62.6807
  43   1.0000      -2.303420       -62.6792
  44   1.0000      -2.300693       -62.6050
  45   1.0000      -2.299903       -62.5835
  46   1.0000      -2.299683       -62.5776
  47   1.0000      -2.299616       -62.5757
  48   1.0000      -2.299447       -62.5711
  49   1.0000      -2.298648       -62.5494
  50   1.0000      -2.298253       -62.5386
  51   1.0000      -2.297966       -62.5308
  52   1.0000      -2.297895       -62.5289
  53   1.0000      -2.297444       -62.5166
  54   1.0000      -2.297369       -62.5146
  55   1.0000      -2.297325       -62.5134
  56   1.0000      -2.296938       -62.5029
  57   1.0000      -2.296754       -62.4979
  58   1.0000      -2.295714       -62.4696
  59   1.0000      -2.294828       -62.4455
  60   1.0000      -2.294083       -62.4252
  61   1.0000      -2.293809       -62.4177
  62   1.0000      -2.115407       -57.5632
  63   1.0000      -2.112369       -57.4805
  64   1.0000      -2.110995       -57.4431
  65   1.0000      -0.434048       -11.8110
  66   1.0000      -0.395496       -10.7620
  67   1.0000      -0.391678       -10.6581
  68   1.0000      -0.390523       -10.6267
  69   1.0000      -0.390132       -10.6160
  70   1.0000      -0.379463       -10.3257
  71   1.0000      -0.376506       -10.2453
  72   1.0000      -0.375700       -10.2233
  73   1.0000      -0.371528       -10.1098
  74   1.0000      -0.367355        -9.9962
  75   1.0000      -0.366123        -9.9627
  76   1.0000      -0.365675        -9.9505
  77   1.0000      -0.365435        -9.9440
  78   1.0000      -0.364522        -9.9192
  79   1.0000      -0.362336        -9.8597
  80   1.0000      -0.358194        -9.7469
  81   1.0000      -0.356662        -9.7053
  82   1.0000      -0.355329        -9.6690
  83   1.0000      -0.354327        -9.6417
  84   1.0000      -0.352948        -9.6042
  85   1.0000      -0.348176        -9.4744
  86   1.0000      -0.347536        -9.4569
  87   1.0000      -0.344033        -9.3616
  88   1.0000      -0.343182        -9.3385
  89   1.0000      -0.342761        -9.3270
  90   1.0000      -0.335671        -9.1341
  91   1.0000      -0.333734        -9.0814
  92   1.0000      -0.332731        -9.0541
  93   1.0000      -0.329188        -8.9577
  94   1.0000      -0.328958        -8.9514
  95   1.0000      -0.322313        -8.7706
  96   1.0000      -0.321340        -8.7441
  97   1.0000      -0.320310        -8.7161
  98   1.0000      -0.317833        -8.6487
  99   1.0000      -0.317032        -8.6269
 100   1.0000      -0.313991        -8.5441
 101   1.0000      -0.313243        -8.5238
 102   1.0000      -0.309745        -8.4286
 103   1.0000      -0.306738        -8.3468
 104   1.0000      -0.305533        -8.3140
 105   1.0000      -0.304447        -8.2844
 106   1.0000      -0.300032        -8.1643
 107   1.0000      -0.296013        -8.0549
 108   1.0000      -0.294300        -8.0083
 109   1.0000      -0.290611        -7.9079
 110   1.0000      -0.289448        -7.8763
 111   1.0000      -0.287709        -7.8290
 112   1.0000      -0.286665        -7.8006
 113   1.0000      -0.283559        -7.7160
 114   1.0000      -0.282530        -7.6880
 115   1.0000      -0.282443        -7.6857
 116   1.0000      -0.281466        -7.6591
 117   1.0000      -0.279388        -7.6025
 118   1.0000      -0.276801        -7.5321
 119   1.0000      -0.272408        -7.4126
 120   1.0000      -0.272192        -7.4067
 121   1.0000      -0.269514        -7.3339
 122   1.0000      -0.269304        -7.3281
 123   1.0000      -0.269052        -7.3213
 124   1.0000      -0.268373        -7.3028
 125   1.0000      -0.267208        -7.2711
 126   1.0000      -0.266440        -7.2502
 127   1.0000      -0.266156        -7.2425
 128   1.0000      -0.265781        -7.2323
 129   1.0000      -0.265235        -7.2174
 130   1.0000      -0.263503        -7.1703
 131   1.0000      -0.260094        -7.0775
 132   1.0000      -0.259999        -7.0749
 133   1.0000      -0.259134        -7.0514
 134   1.0000      -0.256815        -6.9883
 135   1.0000      -0.255743        -6.9591
 136   1.0000      -0.253564        -6.8998
 137   1.0000      -0.252597        -6.8735
 138   1.0000      -0.251787        -6.8515
 139   1.0000      -0.249316        -6.7842
 140   1.0000      -0.248458        -6.7609
 141   1.0000      -0.247955        -6.7472
 142   1.0000      -0.247482        -6.7343
 143   1.0000      -0.237076        -6.4512
 144   1.0000      -0.213565        -5.8114
 145   1.0000      -0.209572        -5.7027
 146   1.0000      -0.205707        -5.5976
 147   0.0000      -0.198883        -5.4119
 148   0.0000      -0.173173        -4.7123
 149   0.0000      -0.134121        -3.6496
 150   0.0000      -0.125240        -3.4080
 151   0.0000      -0.123881        -3.3710

                 SPIN DOWN ORBITALS
  NO   OCC          E(Eh)            E(eV)
   0   1.0000    -235.054568     -6396.1600
   1   1.0000     -27.142909      -738.5961
   2   1.0000     -23.210681      -631.5947
   3   1.0000     -23.210654      -631.5940
   4   1.0000     -23.209860      -631.5724
   5   1.0000      -4.128338      -112.3378
   6   1.0000      -4.128300      -112.3368
   7   1.0000      -4.125780      -112.2682
   8   1.0000      -4.125530      -112.2614
   9   1.0000      -4.125274      -112.2544
  10   1.0000      -4.125258      -112.2540
  11   1.0000      -4.116011      -112.0023
  12   1.0000      -4.115914      -111.9997
  13   1.0000      -4.115705      -111.9940
  14   1.0000      -4.115677      -111.9933
  15   1.0000      -4.113012      -111.9207
  16   1.0000      -4.112816      -111.9154
  17   1.0000      -4.112208      -111.8989
  18   1.0000      -4.111868      -111.8896
  19   1.0000      -3.041939       -82.7754
  20   1.0000      -2.315706       -63.0136
  21   1.0000      -2.315617       -63.0112
  22   1.0000      -2.315474       -63.0072
  23   1.0000      -2.315248       -63.0011
  24   1.0000      -2.314082       -62.9694
  25   1.0000      -2.313746       -62.9602
  26   1.0000      -2.313482       -62.9530
  27   1.0000      -2.313214       -62.9458
  28   1.0000      -2.313153       -62.9441
  29   1.0000      -2.312946       -62.9385
  30   1.0000      -2.310315       -62.8669
  31   1.0000      -2.310145       -62.8623
  32   1.0000      -2.310072       -62.8603
  33   1.0000      -2.309907       -62.8558
  34   1.0000      -2.309689       -62.8498
  35   1.0000      -2.309625       -62.8481
  36   1.0000      -2.308065       -62.8057
  37   1.0000      -2.307994       -62.8037
  38   1.0000      -2.304223       -62.7011
  39   1.0000      -2.304129       -62.6985
  40   1.0000      -2.303797       -62.6895
  41   1.0000      -2.303740       -62.6879
  42   1.0000      -2.303414       -62.6791
  43   1.0000      -2.303350       -62.6774
  44   1.0000      -2.301568       -62.6288
  45   1.0000      -2.300750       -62.6066
  46   1.0000      -2.300507       -62.6000
  47   1.0000      -2.299957       -62.5850
  48   1.0000      -2.299566       -62.5744
  49   1.0000      -2.299415       -62.5703
  50   1.0000      -2.299352       -62.5685
  51   1.0000      -2.298229       -62.5380
  52   1.0000      -2.298088       -62.5341
  53   1.0000      -2.298000       -62.5317
  54   1.0000      -2.297894       -62.5289
  55   1.0000      -2.297530       -62.5190
  56   1.0000      -2.297482       -62.5177
  57   1.0000      -2.297377       -62.5148
  58   1.0000      -2.296561       -62.4926
  59   1.0000      -2.295693       -62.4690
  60   1.0000      -2.294920       -62.4480
  61   1.0000      -2.294539       -62.4376
  62   1.0000      -1.900879       -51.7255
  63   1.0000      -1.899345       -51.6838
  64   1.0000      -1.898684       -51.6658
  65   1.0000      -0.429801       -11.6955
  66   1.0000      -0.396738       -10.7958
  67   1.0000      -0.392655       -10.6847
  68   1.0000      -0.387041       -10.5319
  69   1.0000      -0.382717       -10.4143
  70   1.0000      -0.377120       -10.2619
  71   1.0000      -0.373474       -10.1628
  72   1.0000      -0.372925       -10.1478
  73   1.0000      -0.370806       -10.0901
  74   1.0000      -0.369061       -10.0427
  75   1.0000      -0.366521        -9.9735
  76   1.0000      -0.366101        -9.9621
  77   1.0000      -0.365738        -9.9522
  78   1.0000      -0.361962        -9.8495
  79   1.0000      -0.360937        -9.8216
  80   1.0000      -0.359199        -9.7743
  81   1.0000      -0.356938        -9.7128
  82   1.0000      -0.354181        -9.6378
  83   1.0000      -0.352148        -9.5824
  84   1.0000      -0.348292        -9.4775
  85   1.0000      -0.346291        -9.4231
  86   1.0000      -0.346210        -9.4209
  87   1.0000      -0.344631        -9.3779
  88   1.0000      -0.341009        -9.2793
  89   1.0000      -0.336768        -9.1639
  90   1.0000      -0.334757        -9.1092
  91   1.0000      -0.332758        -9.0548
  92   1.0000      -0.332464        -9.0468
  93   1.0000      -0.330446        -8.9919
  94   1.0000      -0.322121        -8.7654
  95   1.0000      -0.320748        -8.7280
  96   1.0000      -0.319598        -8.6967
  97   1.0000      -0.316432        -8.6106
  98   1.0000      -0.315306        -8.5799
  99   1.0000      -0.313861        -8.5406
 100   1.0000      -0.312781        -8.5112
 101   1.0000      -0.309661        -8.4263
 102   1.0000      -0.305379        -8.3098
 103   1.0000      -0.303419        -8.2565
 104   1.0000      -0.300525        -8.1777
 105   1.0000      -0.297629        -8.0989
 106   1.0000      -0.295259        -8.0344
 107   1.0000      -0.293812        -7.9950
 108   1.0000      -0.291713        -7.9379
 109   1.0000      -0.289526        -7.8784
 110   1.0000      -0.288080        -7.8391
 111   1.0000      -0.284745        -7.7483
 112   1.0000      -0.282337        -7.6828
 113   1.0000      -0.281846        -7.6694
 114   1.0000      -0.280456        -7.6316
 115   1.0000      -0.279850        -7.6151
 116   1.0000      -0.279067        -7.5938
 117   1.0000      -0.278797        -7.5865
 118   1.0000      -0.272967        -7.4278
 119   1.0000      -0.272529        -7.4159
 120   1.0000      -0.271620        -7.3911
 121   1.0000      -0.269547        -7.3347
 122   1.0000      -0.268344        -7.3020
 123   1.0000      -0.267590        -7.2815
 124   1.0000      -0.267431        -7.2772
 125   1.0000      -0.265665        -7.2291
 126   1.0000      -0.263639        -7.1740
 127   1.0000      -0.262059        -7.1310
 128   1.0000      -0.261193        -7.1074
 129   1.0000      -0.260148        -7.0790
 130   1.0000      -0.257266        -7.0006
 131   1.0000      -0.257044        -6.9945
 132   1.0000      -0.255789        -6.9604
 133   1.0000      -0.255518        -6.9530
 134   1.0000      -0.251875        -6.8539
 135   1.0000      -0.251478        -6.8431
 136   1.0000      -0.250387        -6.8134
 137   1.0000      -0.249100        -6.7784
 138   1.0000      -0.239408        -6.5146
 139   1.0000      -0.222605        -6.0574
 140   1.0000      -0.217304        -5.9131
 141   1.0000      -0.215306        -5.8588
 142   1.0000      -0.214132        -5.8268
 143   1.0000      -0.184513        -5.0209
 144   0.0000      -0.139081        -3.7846
 145   0.0000      -0.133213        -3.6249
 146   0.0000      -0.129385        -3.5207
 147   0.0000      -0.128569        -3.4985
 148   0.0000      -0.127293        -3.4638

MULLIKEN ATOMIC CHARGES AND SPIN POPULATIONS
--------------------------------------------
   0 Au:    0.240848   -0.056320
   1 Au:    0.240851   -0.053979
   2 Au:   -0.025520   -0.058741
   3 Au:    0.045073   -0.079583
   4 Au:    0.184339   -0.121809
   5 Au:   -0.022109   -0.058499
   6 Au:    0.239843   -0.217595
   7 Au:    0.243761   -0.055130
   8 Au:    0.240261   -0.219290
   9 Au:    0.039216   -0.084309
  10 Au:    0.180690   -0.124759
  11 Au:   -0.020955   -0.059104
  12 Au:    0.242963   -0.053417
  13 Au:   -0.020175   -0.058624
  14 Mn:   -1.809087    4.301160
Sum of atomic charges         :   -0.0000000

LOEWDIN ATOMIC CHARGES AND SPIN POPULATIONS
-------------------------------------------
   0 Au:    0.080086   -0.099023
   1 Au:    0.080144   -0.097794
   2 Au:   -0.009785   -0.072407
   3 Au:    0.004358   -0.097294
   4 Au:    0.000795   -0.112484
   5 Au:   -0.011170   -0.072803
   6 Au:    0.018463   -0.111933
   7 Au:    0.080932   -0.100197
   8 Au:    0.017726   -0.112624
   9 Au:    0.003231   -0.100916
  10 Au:   -0.000710   -0.113311
  11 Au:   -0.010424   -0.072902
  12 Au:    0.080172   -0.098395
  13 Au:   -0.009010   -0.072490
  14 Mn:   -0.324808    4.334572

  Mayer bond orders larger than 0.100000
B(  0-Au,  5-Au) :   0.3250 B(  0-Au,  6-Au) :   0.2281 B(  0-Au,  7-Au) :   0.2340
B(  0-Au, 14-Mn) :   0.4183 B(  1-Au,  6-Au) :   0.2288 B(  1-Au, 11-Au) :   0.3227
B(  1-Au, 12-Au) :   0.2340 B(  1-Au, 14-Mn) :   0.4193 B(  2-Au,  4-Au) :   0.3163
B(  2-Au,  5-Au) :   0.1552 B(  2-Au,  7-Au) :   0.3256 B(  2-Au,  8-Au) :   0.1792
B(  2-Au,  9-Au) :   0.2752 B(  2-Au, 14-Mn) :   0.4210 B(  3-Au,  4-Au) :   0.2560
B(  3-Au,  5-Au) :   0.2791 B(  3-Au,  6-Au) :   0.2148 B(  3-Au, 10-Au) :   0.2596
B(  3-Au, 11-Au) :   0.2778 B(  3-Au, 14-Mn) :   0.1643 B(  4-Au,  5-Au) :   0.3112
B(  4-Au,  9-Au) :   0.2551 B(  4-Au, 10-Au) :   0.1779 B(  5-Au,  6-Au) :   0.1854
B(  5-Au, 14-Mn) :   0.4090 B(  6-Au, 11-Au) :   0.1843 B(  6-Au, 14-Mn) :   0.3749
B(  7-Au,  8-Au) :   0.2303 B(  7-Au, 14-Mn) :   0.4148 B(  8-Au,  9-Au) :   0.2281
B(  8-Au, 12-Au) :   0.2308 B(  8-Au, 13-Au) :   0.1798 B(  8-Au, 14-Mn) :   0.3674
B(  9-Au, 10-Au) :   0.2588 B(  9-Au, 13-Au) :   0.2746 B(  9-Au, 14-Mn) :   0.1702
B( 10-Au, 11-Au) :   0.3112 B( 10-Au, 13-Au) :   0.3135 B( 11-Au, 13-Au) :   0.1555
B( 11-Au, 14-Mn) :   0.4112 B( 12-Au, 13-Au) :   0.3227 B( 12-Au, 14-Mn) :   0.4167
B( 13-Au, 14-Mn) :   0.4188

FINAL SINGLE POINT ENERGY     -3052.853448073617

DIPOLE MOMENT
-------------
                                X             Y             Z
Electronic contribution:    -29.99905      -5.72138       6.89442
Nuclear contribution   :     30.45745       5.80395      -6.99722
                        -----------------------------------------
Total Dipole Moment    :      0.45840       0.08257      -0.10280
                        -----------------------------------------
Magnitude (a.u.)       :      0.47698
Magnitude (Debye)      :      1.21240

Rotational constants in cm-1:     0.001075     0.001035     0.000971
Rotational constants in MHz :    32.223867    31.017240    29.114727

                             ****ORCA TERMINATED NORMALLY****
TOTAL RUN TIME: 0 days 0 hours 15 minutes 11 seconds 394 msec
