                         Program Version 5.0.3 -  RELEASE  -
|  1> !RI-B2PLYP def2-TZVP def2-TZVP/C
|  2> !RIJCOSX VERYSLOWCONV
|  3>
|  4> %scf
|  5>   AutoTRAHIter 200
|  6>   maxiter 400
|  7> end
|  8>
|  9>
| 10> %pal nprocs 6 end
| 11>
| 12> *xyzfile 0 5 pbe.xyz
| 13>
| 14> $new_job
| 15>
| 16> !RI-B2PLYP def2-TZVP def2-TZVP/C
| 17> !RIJCOSX VERYSLOWCONV
| 18>
| 19> %scf
| 20>   AutoTRAHIter 200
| 21>   maxiter 400
| 22> end
| 23>
| 24>
| 25> %pal nprocs 6 end
| 26>
| 27> *xyzfile 0 3 pbe.xyz
| 28>
| 29>
| 30>
| 31>
| 32>
| 33>                          ****END OF INPUT****
 Total Charge           Charge          ....    0
 Multiplicity           Mult            ....    5
 Number of Electrons    NEL             ....  330
MP2 TOTAL ENERGY:    -3432.977400454 Eh
FINAL SINGLE POINT ENERGY     -3432.977400453717

CARTESIAN COORDINATES (ANGSTROEM)
---------------------------------
  Au     9.023081    6.213688    7.079266
  Au     8.362296    8.366166    8.976971
  Au     6.918633    5.974785    8.980674
  Au     6.542715    5.034884    6.330456
  Au     9.293757    9.041493    6.470640
  Au    10.539101    7.042015    4.930472
  Au     9.154281    9.173433    3.646438
  Au     7.795006    6.831498    4.429112
  Au     4.367545    6.481367    7.522559
  Au     4.471562    9.185399    6.579876
  Au     5.542244    8.483135    9.136457
  Au     5.032704    6.902330    4.838924
  Au     7.024320   10.347571    7.524517
  Au     8.200830   11.287058    5.162118
  Au     5.410520   11.605255    5.604612
  Au     6.399490    9.256639    4.393886
  Fe     6.736717    7.676563    6.854290

 Multiplicity           Mult            ....    3
 Number of Electrons    NEL             ....  330
 Basis Dimension        Dim             ....  685

ORBITAL ENERGIES
----------------
                 SPIN UP ORBITALS
  NO   OCC          E(Eh)            E(eV)
   0   1.0000    -258.340885     -7029.8129
   1   1.0000     -30.900689      -840.8505
   2   1.0000     -26.618025      -724.3133
   3   1.0000     -26.590296      -723.5587
   4   1.0000     -26.588549      -723.5112
   5   1.0000      -4.408273      -119.9552
   6   1.0000      -4.407683      -119.9391
   7   1.0000      -4.405428      -119.8778
   8   1.0000      -4.405308      -119.8745
   9   1.0000      -4.404900      -119.8634
  10   1.0000      -4.404709      -119.8582
  11   1.0000      -4.404380      -119.8493
  12   1.0000      -4.403676      -119.8301
  13   1.0000      -4.403445      -119.8238
  14   1.0000      -4.403261      -119.8188
  15   1.0000      -4.399862      -119.7263
  16   1.0000      -4.399414      -119.7141
  17   1.0000      -4.394489      -119.5801
  18   1.0000      -4.393813      -119.5617
  19   1.0000      -4.387621      -119.3932
  20   1.0000      -4.386865      -119.3727
  21   1.0000      -3.913241      -106.4847
  22   1.0000      -2.662129       -72.4402
  23   1.0000      -2.604026       -70.8592
  24   1.0000      -2.600097       -70.7522
  25   1.0000      -2.528728       -68.8102
  26   1.0000      -2.528385       -68.8009
  27   1.0000      -2.526953       -68.7619
  28   1.0000      -2.526468       -68.7487
  29   1.0000      -2.525665       -68.7268
  30   1.0000      -2.525625       -68.7258
  31   1.0000      -2.525226       -68.7149
  32   1.0000      -2.525030       -68.7096
  33   1.0000      -2.524456       -68.6939
  34   1.0000      -2.524219       -68.6875
  35   1.0000      -2.524051       -68.6829
  36   1.0000      -2.523939       -68.6799
  37   1.0000      -2.523055       -68.6558
  38   1.0000      -2.522838       -68.6499
  39   1.0000      -2.522348       -68.6366
  40   1.0000      -2.522110       -68.6301
  41   1.0000      -2.521708       -68.6192
  42   1.0000      -2.521370       -68.6100
  43   1.0000      -2.521064       -68.6016
  44   1.0000      -2.520856       -68.5960
  45   1.0000      -2.520731       -68.5926
  46   1.0000      -2.520431       -68.5844
  47   1.0000      -2.520287       -68.5805
  48   1.0000      -2.519727       -68.5653
  49   1.0000      -2.519699       -68.5645
  50   1.0000      -2.519423       -68.5570
  51   1.0000      -2.519190       -68.5507
  52   1.0000      -2.518545       -68.5331
  53   1.0000      -2.518226       -68.5244
  54   1.0000      -2.517889       -68.5153
  55   1.0000      -2.517693       -68.5099
  56   1.0000      -2.517560       -68.5063
  57   1.0000      -2.515480       -68.4497
  58   1.0000      -2.514765       -68.4302
  59   1.0000      -2.514707       -68.4287
  60   1.0000      -2.514496       -68.4229
  61   1.0000      -2.513856       -68.4055
  62   1.0000      -2.511913       -68.3526
  63   1.0000      -2.511527       -68.3421
  64   1.0000      -2.510987       -68.3274
  65   1.0000      -2.510351       -68.3101
  66   1.0000      -2.509672       -68.2917
  67   1.0000      -2.505331       -68.1735
  68   1.0000      -2.504636       -68.1546
  69   1.0000      -2.504528       -68.1517
  70   1.0000      -2.503844       -68.1331
  71   1.0000      -2.502729       -68.1027
  72   1.0000      -2.502033       -68.0838
  73   1.0000      -0.565061       -15.3761
  74   1.0000      -0.560202       -15.2439
  75   1.0000      -0.557517       -15.1708
  76   1.0000      -0.538031       -14.6406
  77   1.0000      -0.525916       -14.3109
  78   1.0000      -0.511186       -13.9101
  79   1.0000      -0.482348       -13.1254
  80   1.0000      -0.479138       -13.0380
  81   1.0000      -0.476265       -12.9598
  82   1.0000      -0.472192       -12.8490
  83   1.0000      -0.470746       -12.8096
  84   1.0000      -0.469866       -12.7857
  85   1.0000      -0.466471       -12.6933
  86   1.0000      -0.464430       -12.6378
  87   1.0000      -0.461796       -12.5661
  88   1.0000      -0.460629       -12.5344
  89   1.0000      -0.459146       -12.4940
  90   1.0000      -0.457795       -12.4572
  91   1.0000      -0.455477       -12.3941
  92   1.0000      -0.454553       -12.3690
  93   1.0000      -0.453183       -12.3317
  94   1.0000      -0.451285       -12.2801
  95   1.0000      -0.448361       -12.2005
  96   1.0000      -0.447400       -12.1744
  97   1.0000      -0.446829       -12.1588
  98   1.0000      -0.444148       -12.0859
  99   1.0000      -0.442878       -12.0513
 100   1.0000      -0.441455       -12.0126
 101   1.0000      -0.440150       -11.9771
 102   1.0000      -0.438684       -11.9372
 103   1.0000      -0.433415       -11.7938
 104   1.0000      -0.431164       -11.7326
 105   1.0000      -0.429991       -11.7006
 106   1.0000      -0.427818       -11.6415
 107   1.0000      -0.424226       -11.5438
 108   1.0000      -0.419890       -11.4258
 109   1.0000      -0.416063       -11.3217
 110   1.0000      -0.414180       -11.2704
 111   1.0000      -0.411904       -11.2085
 112   1.0000      -0.409295       -11.1375
 113   1.0000      -0.406783       -11.0691
 114   1.0000      -0.405624       -11.0376
 115   1.0000      -0.405023       -11.0212
 116   1.0000      -0.402770       -10.9599
 117   1.0000      -0.399222       -10.8634
 118   1.0000      -0.391637       -10.6570
 119   1.0000      -0.385840       -10.4992
 120   1.0000      -0.384396       -10.4599
 121   1.0000      -0.382840       -10.4176
 122   1.0000      -0.381053       -10.3690
 123   1.0000      -0.380023       -10.3409
 124   1.0000      -0.379947       -10.3389
 125   1.0000      -0.377293       -10.2667
 126   1.0000      -0.376086       -10.2338
 127   1.0000      -0.373737       -10.1699
 128   1.0000      -0.373493       -10.1633
 129   1.0000      -0.372726       -10.1424
 130   1.0000      -0.371258       -10.1024
 131   1.0000      -0.371150       -10.0995
 132   1.0000      -0.369943       -10.0667
 133   1.0000      -0.368867       -10.0374
 134   1.0000      -0.367875       -10.0104
 135   1.0000      -0.366660        -9.9773
 136   1.0000      -0.366422        -9.9708
 137   1.0000      -0.366017        -9.9598
 138   1.0000      -0.364854        -9.9282
 139   1.0000      -0.362751        -9.8709
 140   1.0000      -0.361968        -9.8496
 141   1.0000      -0.361030        -9.8241
 142   1.0000      -0.358002        -9.7417
 143   1.0000      -0.357485        -9.7277
 144   1.0000      -0.355933        -9.6854
 145   1.0000      -0.354671        -9.6511
 146   1.0000      -0.352992        -9.6054
 147   1.0000      -0.350361        -9.5338
 148   1.0000      -0.348369        -9.4796
 149   1.0000      -0.346500        -9.4287
 150   1.0000      -0.344748        -9.3811
 151   1.0000      -0.344170        -9.3654
 152   1.0000      -0.341879        -9.3030
 153   1.0000      -0.338998        -9.2246
 154   1.0000      -0.335455        -9.1282
 155   1.0000      -0.334963        -9.1148
 156   1.0000      -0.329126        -8.9560
 157   1.0000      -0.325030        -8.8445
 158   1.0000      -0.324719        -8.8361
 159   1.0000      -0.323024        -8.7899
 160   1.0000      -0.320376        -8.7179
 161   1.0000      -0.310505        -8.4493
 162   1.0000      -0.250149        -6.8069
 163   1.0000      -0.243259        -6.6194
 164   1.0000      -0.236251        -6.4287
 165   1.0000      -0.216893        -5.9020
 166   0.0000      -0.126281        -3.4363
 167   0.0000      -0.096202        -2.6178
 168   0.0000      -0.083393        -2.2692
 169   0.0000      -0.078901        -2.1470
 170   0.0000      -0.064237        -1.7480

                 SPIN DOWN ORBITALS
  NO   OCC          E(Eh)            E(eV)
   0   1.0000    -258.339068     -7029.7634
   1   1.0000     -30.808207      -838.3339
   2   1.0000     -26.519328      -721.6276
   3   1.0000     -26.512247      -721.4349
   4   1.0000     -26.511741      -721.4211
   5   1.0000      -4.409613      -119.9917
   6   1.0000      -4.409030      -119.9758
   7   1.0000      -4.405999      -119.8933
   8   1.0000      -4.405722      -119.8858
   9   1.0000      -4.405414      -119.8774
  10   1.0000      -4.405269      -119.8735
  11   1.0000      -4.404536      -119.8535
  12   1.0000      -4.403921      -119.8368
  13   1.0000      -4.403601      -119.8281
  14   1.0000      -4.403386      -119.8222
  15   1.0000      -4.400299      -119.7382
  16   1.0000      -4.399903      -119.7275
  17   1.0000      -4.394364      -119.5767
  18   1.0000      -4.393713      -119.5590
  19   1.0000      -4.389357      -119.4405
  20   1.0000      -4.388620      -119.4204
  21   1.0000      -3.669903       -99.8631
  22   1.0000      -2.530305       -68.8531
  23   1.0000      -2.529899       -68.8421
  24   1.0000      -2.527682       -68.7817
  25   1.0000      -2.527252       -68.7700
  26   1.0000      -2.525913       -68.7336
  27   1.0000      -2.525504       -68.7225
  28   1.0000      -2.525424       -68.7203
  29   1.0000      -2.525332       -68.7178
  30   1.0000      -2.524946       -68.7073
  31   1.0000      -2.524832       -68.7042
  32   1.0000      -2.523848       -68.6774
  33   1.0000      -2.523706       -68.6735
  34   1.0000      -2.523508       -68.6682
  35   1.0000      -2.523088       -68.6567
  36   1.0000      -2.522505       -68.6408
  37   1.0000      -2.522110       -68.6301
  38   1.0000      -2.522008       -68.6273
  39   1.0000      -2.521741       -68.6201
  40   1.0000      -2.521269       -68.6072
  41   1.0000      -2.521076       -68.6020
  42   1.0000      -2.520675       -68.5910
  43   1.0000      -2.520494       -68.5861
  44   1.0000      -2.520259       -68.5797
  45   1.0000      -2.519909       -68.5702
  46   1.0000      -2.519751       -68.5659
  47   1.0000      -2.519507       -68.5593
  48   1.0000      -2.519389       -68.5561
  49   1.0000      -2.518732       -68.5382
  50   1.0000      -2.518038       -68.5193
  51   1.0000      -2.517849       -68.5142
  52   1.0000      -2.517424       -68.5026
  53   1.0000      -2.517260       -68.4981
  54   1.0000      -2.516253       -68.4707
  55   1.0000      -2.515560       -68.4519
  56   1.0000      -2.515209       -68.4423
  57   1.0000      -2.514748       -68.4298
  58   1.0000      -2.514633       -68.4266
  59   1.0000      -2.512029       -68.3558
  60   1.0000      -2.511664       -68.3458
  61   1.0000      -2.510976       -68.3271
  62   1.0000      -2.510295       -68.3086
  63   1.0000      -2.509533       -68.2879
  64   1.0000      -2.507715       -68.2384
  65   1.0000      -2.507004       -68.2191
  66   1.0000      -2.505179       -68.1694
  67   1.0000      -2.504685       -68.1559
  68   1.0000      -2.504493       -68.1507
  69   1.0000      -2.504000       -68.1373
  70   1.0000      -2.348571       -63.9079
  71   1.0000      -2.347485       -63.8783
  72   1.0000      -2.335990       -63.5655
  73   1.0000      -0.527872       -14.3641
  74   1.0000      -0.485767       -13.2184
  75   1.0000      -0.482944       -13.1416
  76   1.0000      -0.481124       -13.0920
  77   1.0000      -0.478533       -13.0216
  78   1.0000      -0.477743       -13.0001
  79   1.0000      -0.474137       -12.9019
  80   1.0000      -0.473822       -12.8934
  81   1.0000      -0.470957       -12.8154
  82   1.0000      -0.469822       -12.7845
  83   1.0000      -0.466886       -12.7046
  84   1.0000      -0.465768       -12.6742
  85   1.0000      -0.464720       -12.6457
  86   1.0000      -0.460961       -12.5434
  87   1.0000      -0.460545       -12.5321
  88   1.0000      -0.458409       -12.4739
  89   1.0000      -0.458240       -12.4693
  90   1.0000      -0.455648       -12.3988
  91   1.0000      -0.454231       -12.3602
  92   1.0000      -0.453200       -12.3322
  93   1.0000      -0.450690       -12.2639
  94   1.0000      -0.449041       -12.2190
  95   1.0000      -0.447927       -12.1887
  96   1.0000      -0.444964       -12.1081
  97   1.0000      -0.443054       -12.0561
  98   1.0000      -0.441128       -12.0037
  99   1.0000      -0.435607       -11.8535
 100   1.0000      -0.434018       -11.8102
 101   1.0000      -0.429439       -11.6856
 102   1.0000      -0.428037       -11.6475
 103   1.0000      -0.422919       -11.5082
 104   1.0000      -0.419983       -11.4283
 105   1.0000      -0.419680       -11.4201
 106   1.0000      -0.414737       -11.2856
 107   1.0000      -0.412259       -11.2181
 108   1.0000      -0.411549       -11.1988
 109   1.0000      -0.408843       -11.1252
 110   1.0000      -0.407555       -11.0901
 111   1.0000      -0.405562       -11.0359
 112   1.0000      -0.402783       -10.9603
 113   1.0000      -0.398924       -10.8553
 114   1.0000      -0.392658       -10.6848
 115   1.0000      -0.391034       -10.6406
 116   1.0000      -0.388249       -10.5648
 117   1.0000      -0.386387       -10.5141
 118   1.0000      -0.385211       -10.4821
 119   1.0000      -0.383312       -10.4304
 120   1.0000      -0.382510       -10.4086
 121   1.0000      -0.380405       -10.3513
 122   1.0000      -0.378575       -10.3016
 123   1.0000      -0.377905       -10.2833
 124   1.0000      -0.374007       -10.1773
 125   1.0000      -0.373582       -10.1657
 126   1.0000      -0.372572       -10.1382
 127   1.0000      -0.371925       -10.1206
 128   1.0000      -0.370788       -10.0897
 129   1.0000      -0.369988       -10.0679
 130   1.0000      -0.369795       -10.0626
 131   1.0000      -0.368323       -10.0226
 132   1.0000      -0.367605       -10.0030
 133   1.0000      -0.365814        -9.9543
 134   1.0000      -0.364345        -9.9143
 135   1.0000      -0.363914        -9.9026
 136   1.0000      -0.363482        -9.8909
 137   1.0000      -0.362079        -9.8527
 138   1.0000      -0.360349        -9.8056
 139   1.0000      -0.358209        -9.7474
 140   1.0000      -0.357374        -9.7246
 141   1.0000      -0.354731        -9.6527
 142   1.0000      -0.353564        -9.6210
 143   1.0000      -0.350404        -9.5350
 144   1.0000      -0.348321        -9.4783
 145   1.0000      -0.347409        -9.4535
 146   1.0000      -0.346933        -9.4405
 147   1.0000      -0.344806        -9.3826
 148   1.0000      -0.341907        -9.3038
 149   1.0000      -0.337699        -9.1893
 150   1.0000      -0.336475        -9.1560
 151   1.0000      -0.333077        -9.0635
 152   1.0000      -0.331762        -9.0277
 153   1.0000      -0.328547        -8.9402
 154   1.0000      -0.326842        -8.8938
 155   1.0000      -0.325011        -8.8440
 156   1.0000      -0.323766        -8.8101
 157   1.0000      -0.322283        -8.7698
 158   1.0000      -0.257785        -7.0147
 159   1.0000      -0.248758        -6.7691
 160   1.0000      -0.248068        -6.7503
 161   1.0000      -0.230926        -6.2838
 162   1.0000      -0.219996        -5.9864
 163   1.0000      -0.176880        -4.8131
 164   0.0000      -0.087451        -2.3797
 165   0.0000      -0.084080        -2.2879
 166   0.0000      -0.072900        -1.9837
 167   0.0000      -0.062465        -1.6998
 168   0.0000      -0.061065        -1.6617

MULLIKEN ATOMIC CHARGES AND SPIN POPULATIONS
--------------------------------------------
   0 Au:    0.041028   -0.008715
   1 Au:    0.338736   -0.225422
   2 Au:    0.297663   -0.012995
   3 Au:    0.352140   -0.101232
   4 Au:   -0.424795    0.005381
   5 Au:    0.325270   -0.254326
   6 Au:    0.337514    0.036120
   7 Au:   -0.132618   -0.142301
   8 Au:    0.299363   -0.017618
   9 Au:    0.049538   -0.012812
  10 Au:    0.349893   -0.097161
  11 Au:    0.335884   -0.217683
  12 Au:   -0.140662   -0.140490
  13 Au:    0.333218    0.040214
  14 Au:    0.322811   -0.263318
  15 Au:   -0.412994    0.010021
  16 Fe:   -2.271988    3.402337
Sum of atomic charges         :   -0.0000000

LOEWDIN ATOMIC CHARGES AND SPIN POPULATIONS
-------------------------------------------
   0 Au:    0.003880   -0.082731
   1 Au:    0.055310   -0.174730
   2 Au:    0.048989   -0.055635
   3 Au:    0.075098   -0.106605
   4 Au:   -0.091569   -0.045353
   5 Au:    0.087886   -0.169813
   6 Au:    0.054883   -0.000335
   7 Au:   -0.053505   -0.124097
   8 Au:    0.049578   -0.058378
   9 Au:    0.005677   -0.085058
  10 Au:    0.073492   -0.105246
  11 Au:    0.053364   -0.170644
  12 Au:   -0.054135   -0.124472
  13 Au:    0.047572    0.000246
  14 Au:    0.088266   -0.174411
  15 Au:   -0.089840   -0.043544
  16 Fe:   -0.354948    3.520804

  Mayer bond orders larger than 0.100000
B(  0-Au,  2-Au) :   0.2048 B(  0-Au,  3-Au) :   0.1445 B(  0-Au,  4-Au) :   0.1895
B(  0-Au,  5-Au) :   0.2911 B(  0-Au,  7-Au) :   0.1768 B(  0-Au, 16-Fe) :   0.4168
B(  1-Au,  2-Au) :   0.2023 B(  1-Au,  4-Au) :   0.2308 B(  1-Au, 10-Au) :   0.1411
B(  1-Au, 12-Au) :   0.1999 B(  1-Au, 16-Fe) :   0.3958 B(  2-Au,  3-Au) :   0.1270
B(  2-Au, 10-Au) :   0.1763 B(  2-Au, 16-Fe) :   0.3609 B(  3-Au,  7-Au) :   0.1604
B(  3-Au,  8-Au) :   0.1769 B(  3-Au, 11-Au) :   0.1411 B(  3-Au, 16-Fe) :   0.3896
B(  4-Au,  5-Au) :   0.2493 B(  4-Au,  6-Au) :   0.2232 B(  4-Au,  7-Au) :   0.1569
B(  4-Au, 12-Au) :   0.2459 B(  4-Au, 13-Au) :   0.2760 B(  4-Au, 15-Au) :   0.1201
B(  4-Au, 16-Fe) :   0.3804 B(  5-Au,  6-Au) :   0.1616 B(  5-Au,  7-Au) :   0.2820
B(  6-Au,  7-Au) :   0.2478 B(  6-Au, 13-Au) :   0.2053 B(  6-Au, 15-Au) :   0.2611
B(  7-Au, 11-Au) :   0.2040 B(  7-Au, 15-Au) :   0.2581 B(  7-Au, 16-Fe) :   0.3719
B(  8-Au,  9-Au) :   0.2001 B(  8-Au, 10-Au) :   0.1297 B(  8-Au, 11-Au) :   0.2021
B(  8-Au, 16-Fe) :   0.3561 B(  9-Au, 10-Au) :   0.1448 B(  9-Au, 12-Au) :   0.1815
B(  9-Au, 14-Au) :   0.2817 B(  9-Au, 15-Au) :   0.1855 B(  9-Au, 16-Fe) :   0.4157
B( 10-Au, 12-Au) :   0.1715 B( 10-Au, 16-Fe) :   0.3819 B( 11-Au, 15-Au) :   0.2276
B( 11-Au, 16-Fe) :   0.4013 B( 12-Au, 13-Au) :   0.2516 B( 12-Au, 14-Au) :   0.2810
B( 12-Au, 15-Au) :   0.1554 B( 12-Au, 16-Fe) :   0.3794 B( 13-Au, 14-Au) :   0.1619
B( 13-Au, 15-Au) :   0.2203 B( 14-Au, 15-Au) :   0.2487 B( 15-Au, 16-Fe) :   0.3765

MP2 TOTAL ENERGY:    -3432.951969662 Eh
FINAL SINGLE POINT ENERGY     -3432.951969662425

DIPOLE MOMENT
-------------
                                X             Y             Z
Electronic contribution:     14.99149      20.00660     -19.20801
Nuclear contribution   :    -15.04785     -20.09782      19.28437
                        -----------------------------------------
Total Dipole Moment    :     -0.05635      -0.09122       0.07636
                        -----------------------------------------
Magnitude (a.u.)       :      0.13164
Magnitude (Debye)      :      0.33460

Rotational constants in cm-1:     0.000949     0.000863     0.000707
Rotational constants in MHz :    28.456729    25.863368    21.207971

                             ****ORCA TERMINATED NORMALLY****
TOTAL RUN TIME: 0 days 0 hours 38 minutes 35 seconds 33 msec
