                         Program Version 5.0.3 -  RELEASE  -
|  1> !PBE def2-TZVP VERYSLOWCONV
|  2>
|  3> %scf
|  4>   AutoTRAHIter 200
|  5>   maxiter 400
|  6> end
|  7>
|  8>
|  9> %pal nprocs 6 end
| 10>
| 11> *xyzfile 0 5 pbe.xyz
| 12>
| 13> $new_job
| 14>
| 15> !PBE def2-TZVP VERYSLOWCONV
| 16>
| 17> %scf
| 18>   AutoTRAHIter 200
| 19>   maxiter 400
| 20> end
| 21>
| 22>
| 23> %pal nprocs 6 end
| 24>
| 25> *xyzfile 0 3 pbe.xyz
| 26>
| 27>
| 28>
| 29>
| 30>
| 31>                          ****END OF INPUT****
 Total Charge           Charge          ....    0
 Multiplicity           Mult            ....    5
 Number of Electrons    NEL             ....  330
FINAL SINGLE POINT ENERGY     -3436.758272978989

CARTESIAN COORDINATES (ANGSTROEM)
---------------------------------
  Au     9.023081    6.213688    7.079266
  Au     8.362296    8.366166    8.976971
  Au     6.918633    5.974785    8.980674
  Au     6.542715    5.034884    6.330456
  Au     9.293757    9.041493    6.470640
  Au    10.539101    7.042015    4.930472
  Au     9.154281    9.173433    3.646438
  Au     7.795006    6.831498    4.429112
  Au     4.367545    6.481367    7.522559
  Au     4.471562    9.185399    6.579876
  Au     5.542244    8.483135    9.136457
  Au     5.032704    6.902330    4.838924
  Au     7.024320   10.347571    7.524517
  Au     8.200830   11.287058    5.162118
  Au     5.410520   11.605255    5.604612
  Au     6.399490    9.256639    4.393886
  Fe     6.736717    7.676563    6.854290

 Multiplicity           Mult            ....    3
 Number of Electrons    NEL             ....  330
 Basis Dimension        Dim             ....  685

ORBITAL ENERGIES
----------------
                 SPIN UP ORBITALS
  NO   OCC          E(Eh)            E(eV)
   0   1.0000    -254.740119     -6931.8311
   1   1.0000     -29.573499      -804.7358
   2   1.0000     -25.512036      -694.2178
   3   1.0000     -25.510813      -694.1845
   4   1.0000     -25.505535      -694.0409
   5   1.0000      -4.037930      -109.8777
   6   1.0000      -4.035960      -109.8240
   7   1.0000      -4.033701      -109.7626
   8   1.0000      -4.032913      -109.7411
   9   1.0000      -4.032824      -109.7387
  10   1.0000      -4.032638      -109.7337
  11   1.0000      -4.032370      -109.7264
  12   1.0000      -4.030869      -109.6855
  13   1.0000      -4.030295      -109.6699
  14   1.0000      -4.030139      -109.6657
  15   1.0000      -4.027427      -109.5919
  16   1.0000      -4.026156      -109.5573
  17   1.0000      -4.022013      -109.4445
  18   1.0000      -4.020325      -109.3986
  19   1.0000      -4.019062      -109.3642
  20   1.0000      -4.018652      -109.3531
  21   1.0000      -3.351128       -91.1888
  22   1.0000      -2.253901       -61.3318
  23   1.0000      -2.252541       -61.2947
  24   1.0000      -2.251241       -61.2594
  25   1.0000      -2.249862       -61.2219
  26   1.0000      -2.249027       -61.1991
  27   1.0000      -2.248848       -61.1943
  28   1.0000      -2.248548       -61.1861
  29   1.0000      -2.248467       -61.1839
  30   1.0000      -2.247558       -61.1592
  31   1.0000      -2.247490       -61.1573
  32   1.0000      -2.246957       -61.1428
  33   1.0000      -2.246786       -61.1382
  34   1.0000      -2.246591       -61.1328
  35   1.0000      -2.245983       -61.1163
  36   1.0000      -2.245855       -61.1128
  37   1.0000      -2.245473       -61.1024
  38   1.0000      -2.245218       -61.0955
  39   1.0000      -2.245058       -61.0911
  40   1.0000      -2.244906       -61.0870
  41   1.0000      -2.244483       -61.0755
  42   1.0000      -2.244319       -61.0710
  43   1.0000      -2.243501       -61.0488
  44   1.0000      -2.243072       -61.0371
  45   1.0000      -2.242847       -61.0310
  46   1.0000      -2.242634       -61.0252
  47   1.0000      -2.242457       -61.0203
  48   1.0000      -2.241700       -60.9998
  49   1.0000      -2.241346       -60.9901
  50   1.0000      -2.241020       -60.9812
  51   1.0000      -2.240867       -60.9771
  52   1.0000      -2.240816       -60.9757
  53   1.0000      -2.239534       -60.9408
  54   1.0000      -2.239334       -60.9354
  55   1.0000      -2.239171       -60.9310
  56   1.0000      -2.238450       -60.9113
  57   1.0000      -2.237603       -60.8883
  58   1.0000      -2.237405       -60.8829
  59   1.0000      -2.234866       -60.8138
  60   1.0000      -2.234686       -60.8089
  61   1.0000      -2.234207       -60.7959
  62   1.0000      -2.233628       -60.7801
  63   1.0000      -2.233253       -60.7699
  64   1.0000      -2.232048       -60.7371
  65   1.0000      -2.231433       -60.7204
  66   1.0000      -2.231157       -60.7129
  67   1.0000      -2.230784       -60.7027
  68   1.0000      -2.230089       -60.6838
  69   1.0000      -2.229848       -60.6773
  70   1.0000      -2.171506       -59.0897
  71   1.0000      -2.167650       -58.9848
  72   1.0000      -2.157353       -58.7046
  73   1.0000      -0.443407       -12.0657
  74   1.0000      -0.400990       -10.9115
  75   1.0000      -0.395853       -10.7717
  76   1.0000      -0.394778       -10.7424
  77   1.0000      -0.381169       -10.3721
  78   1.0000      -0.380445       -10.3524
  79   1.0000      -0.376784       -10.2528
  80   1.0000      -0.375241       -10.2108
  81   1.0000      -0.371056       -10.0969
  82   1.0000      -0.369352       -10.0506
  83   1.0000      -0.367904       -10.0112
  84   1.0000      -0.363364        -9.8876
  85   1.0000      -0.362448        -9.8627
  86   1.0000      -0.356368        -9.6973
  87   1.0000      -0.355574        -9.6757
  88   1.0000      -0.354867        -9.6564
  89   1.0000      -0.350581        -9.5398
  90   1.0000      -0.349816        -9.5190
  91   1.0000      -0.347402        -9.4533
  92   1.0000      -0.346606        -9.4316
  93   1.0000      -0.345169        -9.3925
  94   1.0000      -0.343992        -9.3605
  95   1.0000      -0.342362        -9.3161
  96   1.0000      -0.339034        -9.2256
  97   1.0000      -0.338427        -9.2091
  98   1.0000      -0.337114        -9.1733
  99   1.0000      -0.335906        -9.1405
 100   1.0000      -0.331236        -9.0134
 101   1.0000      -0.327009        -8.8984
 102   1.0000      -0.325570        -8.8592
 103   1.0000      -0.323913        -8.8141
 104   1.0000      -0.319530        -8.6949
 105   1.0000      -0.318678        -8.6717
 106   1.0000      -0.313870        -8.5408
 107   1.0000      -0.312265        -8.4972
 108   1.0000      -0.312064        -8.4917
 109   1.0000      -0.309651        -8.4260
 110   1.0000      -0.307325        -8.3627
 111   1.0000      -0.305929        -8.3248
 112   1.0000      -0.304778        -8.2934
 113   1.0000      -0.299506        -8.1500
 114   1.0000      -0.298587        -8.1250
 115   1.0000      -0.296703        -8.0737
 116   1.0000      -0.293849        -7.9960
 117   1.0000      -0.291503        -7.9322
 118   1.0000      -0.290651        -7.9090
 119   1.0000      -0.289056        -7.8656
 120   1.0000      -0.286253        -7.7893
 121   1.0000      -0.284801        -7.7498
 122   1.0000      -0.281354        -7.6560
 123   1.0000      -0.281120        -7.6497
 124   1.0000      -0.280425        -7.6307
 125   1.0000      -0.278251        -7.5716
 126   1.0000      -0.277958        -7.5636
 127   1.0000      -0.276961        -7.5365
 128   1.0000      -0.276348        -7.5198
 129   1.0000      -0.274595        -7.4721
 130   1.0000      -0.273966        -7.4550
 131   1.0000      -0.272083        -7.4038
 132   1.0000      -0.271867        -7.3979
 133   1.0000      -0.269513        -7.3338
 134   1.0000      -0.267890        -7.2896
 135   1.0000      -0.267081        -7.2676
 136   1.0000      -0.266896        -7.2626
 137   1.0000      -0.265330        -7.2200
 138   1.0000      -0.265053        -7.2125
 139   1.0000      -0.263625        -7.1736
 140   1.0000      -0.263285        -7.1643
 141   1.0000      -0.260144        -7.0789
 142   1.0000      -0.259372        -7.0579
 143   1.0000      -0.257997        -7.0205
 144   1.0000      -0.254489        -6.9250
 145   1.0000      -0.254301        -6.9199
 146   1.0000      -0.253540        -6.8992
 147   1.0000      -0.251815        -6.8522
 148   1.0000      -0.251313        -6.8386
 149   1.0000      -0.250605        -6.8193
 150   1.0000      -0.248894        -6.7727
 151   1.0000      -0.248387        -6.7589
 152   1.0000      -0.246459        -6.7065
 153   1.0000      -0.245825        -6.6892
 154   1.0000      -0.244504        -6.6533
 155   1.0000      -0.243865        -6.6359
 156   1.0000      -0.242449        -6.5974
 157   1.0000      -0.239095        -6.5061
 158   1.0000      -0.237628        -6.4662
 159   1.0000      -0.236781        -6.4431
 160   1.0000      -0.235575        -6.4103
 161   1.0000      -0.230940        -6.2842
 162   1.0000      -0.220451        -5.9988
 163   1.0000      -0.212872        -5.7925
 164   1.0000      -0.209645        -5.7047
 165   1.0000      -0.199138        -5.4188
 166   0.0000      -0.186197        -5.0667
 167   0.0000      -0.158644        -4.3169
 168   0.0000      -0.144581        -3.9343
 169   0.0000      -0.139583        -3.7982
 170   0.0000      -0.130562        -3.5528

                 SPIN DOWN ORBITALS
  NO   OCC          E(Eh)            E(eV)
   0   1.0000    -254.739530     -6931.8150
   1   1.0000     -29.519416      -803.2641
   2   1.0000     -25.470346      -693.0833
   3   1.0000     -25.469732      -693.0666
   4   1.0000     -25.465849      -692.9610
   5   1.0000      -4.038176      -109.8844
   6   1.0000      -4.036433      -109.8369
   7   1.0000      -4.033623      -109.7605
   8   1.0000      -4.033339      -109.7527
   9   1.0000      -4.032867      -109.7399
  10   1.0000      -4.032825      -109.7387
  11   1.0000      -4.032731      -109.7362
  12   1.0000      -4.031147      -109.6931
  13   1.0000      -4.030201      -109.6674
  14   1.0000      -4.030052      -109.6633
  15   1.0000      -4.027513      -109.5942
  16   1.0000      -4.026449      -109.5652
  17   1.0000      -4.022074      -109.4462
  18   1.0000      -4.021276      -109.4245
  19   1.0000      -4.020075      -109.3918
  20   1.0000      -4.018898      -109.3598
  21   1.0000      -3.228206       -87.8440
  22   1.0000      -2.254522       -61.3486
  23   1.0000      -2.253230       -61.3135
  24   1.0000      -2.251545       -61.2677
  25   1.0000      -2.250462       -61.2382
  26   1.0000      -2.249549       -61.2134
  27   1.0000      -2.248982       -61.1979
  28   1.0000      -2.248736       -61.1912
  29   1.0000      -2.248344       -61.1806
  30   1.0000      -2.247700       -61.1630
  31   1.0000      -2.247422       -61.1555
  32   1.0000      -2.247223       -61.1500
  33   1.0000      -2.246812       -61.1389
  34   1.0000      -2.246719       -61.1363
  35   1.0000      -2.246282       -61.1244
  36   1.0000      -2.246036       -61.1178
  37   1.0000      -2.245588       -61.1056
  38   1.0000      -2.245271       -61.0969
  39   1.0000      -2.245121       -61.0929
  40   1.0000      -2.244757       -61.0829
  41   1.0000      -2.244171       -61.0670
  42   1.0000      -2.244109       -61.0653
  43   1.0000      -2.243595       -61.0513
  44   1.0000      -2.243206       -61.0407
  45   1.0000      -2.243114       -61.0382
  46   1.0000      -2.242801       -61.0297
  47   1.0000      -2.242635       -61.0252
  48   1.0000      -2.241825       -61.0032
  49   1.0000      -2.241577       -60.9964
  50   1.0000      -2.241270       -60.9881
  51   1.0000      -2.241085       -60.9830
  52   1.0000      -2.240789       -60.9750
  53   1.0000      -2.239779       -60.9475
  54   1.0000      -2.239614       -60.9430
  55   1.0000      -2.239168       -60.9309
  56   1.0000      -2.238860       -60.9225
  57   1.0000      -2.237777       -60.8930
  58   1.0000      -2.237591       -60.8879
  59   1.0000      -2.236147       -60.8486
  60   1.0000      -2.235048       -60.8187
  61   1.0000      -2.234544       -60.8050
  62   1.0000      -2.234368       -60.8002
  63   1.0000      -2.233789       -60.7845
  64   1.0000      -2.232567       -60.7512
  65   1.0000      -2.232237       -60.7423
  66   1.0000      -2.231941       -60.7342
  67   1.0000      -2.231165       -60.7131
  68   1.0000      -2.231060       -60.7102
  69   1.0000      -2.230306       -60.6897
  70   1.0000      -2.048829       -55.7515
  71   1.0000      -2.046728       -55.6943
  72   1.0000      -2.039574       -55.4996
  73   1.0000      -0.440674       -11.9913
  74   1.0000      -0.400534       -10.8991
  75   1.0000      -0.396627       -10.7928
  76   1.0000      -0.395361       -10.7583
  77   1.0000      -0.377924       -10.2838
  78   1.0000      -0.377487       -10.2719
  79   1.0000      -0.374612       -10.1937
  80   1.0000      -0.371161       -10.0998
  81   1.0000      -0.369842       -10.0639
  82   1.0000      -0.368287       -10.0216
  83   1.0000      -0.367385        -9.9971
  84   1.0000      -0.362192        -9.8557
  85   1.0000      -0.361955        -9.8493
  86   1.0000      -0.356188        -9.6924
  87   1.0000      -0.355627        -9.6771
  88   1.0000      -0.354595        -9.6490
  89   1.0000      -0.350272        -9.5314
  90   1.0000      -0.350070        -9.5259
  91   1.0000      -0.347421        -9.4538
  92   1.0000      -0.346555        -9.4302
  93   1.0000      -0.345373        -9.3981
  94   1.0000      -0.343959        -9.3596
  95   1.0000      -0.342519        -9.3204
  96   1.0000      -0.339544        -9.2395
  97   1.0000      -0.338367        -9.2074
  98   1.0000      -0.337419        -9.1816
  99   1.0000      -0.335755        -9.1364
 100   1.0000      -0.331396        -9.0177
 101   1.0000      -0.327063        -8.8998
 102   1.0000      -0.325852        -8.8669
 103   1.0000      -0.323701        -8.8083
 104   1.0000      -0.319419        -8.6918
 105   1.0000      -0.317534        -8.6405
 106   1.0000      -0.313780        -8.5384
 107   1.0000      -0.312784        -8.5113
 108   1.0000      -0.311476        -8.4757
 109   1.0000      -0.308358        -8.3908
 110   1.0000      -0.306843        -8.3496
 111   1.0000      -0.305570        -8.3150
 112   1.0000      -0.304354        -8.2819
 113   1.0000      -0.295995        -8.0544
 114   1.0000      -0.293988        -7.9998
 115   1.0000      -0.292875        -7.9695
 116   1.0000      -0.292521        -7.9599
 117   1.0000      -0.288205        -7.8425
 118   1.0000      -0.287895        -7.8340
 119   1.0000      -0.287647        -7.8273
 120   1.0000      -0.284270        -7.7354
 121   1.0000      -0.283688        -7.7195
 122   1.0000      -0.281925        -7.6716
 123   1.0000      -0.281527        -7.6607
 124   1.0000      -0.281076        -7.6485
 125   1.0000      -0.277410        -7.5487
 126   1.0000      -0.277349        -7.5471
 127   1.0000      -0.277008        -7.5378
 128   1.0000      -0.276832        -7.5330
 129   1.0000      -0.274828        -7.4784
 130   1.0000      -0.274503        -7.4696
 131   1.0000      -0.272193        -7.4067
 132   1.0000      -0.272115        -7.4046
 133   1.0000      -0.270062        -7.3488
 134   1.0000      -0.268353        -7.3023
 135   1.0000      -0.267621        -7.2823
 136   1.0000      -0.267274        -7.2729
 137   1.0000      -0.265125        -7.2144
 138   1.0000      -0.265065        -7.2128
 139   1.0000      -0.264170        -7.1884
 140   1.0000      -0.263616        -7.1733
 141   1.0000      -0.260658        -7.0929
 142   1.0000      -0.259872        -7.0715
 143   1.0000      -0.257628        -7.0104
 144   1.0000      -0.255288        -6.9467
 145   1.0000      -0.254607        -6.9282
 146   1.0000      -0.254081        -6.9139
 147   1.0000      -0.251991        -6.8570
 148   1.0000      -0.251612        -6.8467
 149   1.0000      -0.250986        -6.8297
 150   1.0000      -0.249024        -6.7763
 151   1.0000      -0.248513        -6.7624
 152   1.0000      -0.244743        -6.6598
 153   1.0000      -0.243770        -6.6333
 154   1.0000      -0.239615        -6.5203
 155   1.0000      -0.238319        -6.4850
 156   1.0000      -0.236879        -6.4458
 157   1.0000      -0.227753        -6.1975
 158   1.0000      -0.221072        -6.0157
 159   1.0000      -0.219049        -5.9606
 160   1.0000      -0.208714        -5.6794
 161   1.0000      -0.200811        -5.4643
 162   1.0000      -0.173991        -4.7345
 163   1.0000      -0.171814        -4.6753
 164   0.0000      -0.156906        -4.2696
 165   0.0000      -0.150084        -4.0840
 166   0.0000      -0.146765        -3.9937
 167   0.0000      -0.144909        -3.9432
 168   0.0000      -0.138696        -3.7741

MULLIKEN ATOMIC CHARGES AND SPIN POPULATIONS
--------------------------------------------
   0 Au:    0.075613   -0.014392
   1 Au:    0.410232   -0.047010
   2 Au:    0.342242   -0.001555
   3 Au:    0.375608   -0.059820
   4 Au:   -0.418969   -0.009478
   5 Au:    0.394918   -0.136930
   6 Au:    0.309995   -0.067081
   7 Au:   -0.149782   -0.099537
   8 Au:    0.343533   -0.008917
   9 Au:    0.076812   -0.024028
  10 Au:    0.376514   -0.066035
  11 Au:    0.408871   -0.039072
  12 Au:   -0.154287   -0.088103
  13 Au:    0.350532    0.023149
  14 Au:    0.376741   -0.174586
  15 Au:   -0.408330    0.004086
  16 Fe:   -2.710245    2.809310
Sum of atomic charges         :   -0.0000000

LOEWDIN ATOMIC CHARGES AND SPIN POPULATIONS
-------------------------------------------
   0 Au:    0.022019   -0.051175
   1 Au:    0.105955   -0.063438
   2 Au:    0.070866   -0.026577
   3 Au:    0.097253   -0.052841
   4 Au:   -0.065208   -0.038982
   5 Au:    0.097993   -0.118058
   6 Au:    0.025684   -0.048231
   7 Au:   -0.019097   -0.073360
   8 Au:    0.070997   -0.034273
   9 Au:    0.019158   -0.063319
  10 Au:    0.095386   -0.057407
  11 Au:    0.105022   -0.056100
  12 Au:   -0.017047   -0.063480
  13 Au:    0.032252   -0.010978
  14 Au:    0.094583   -0.131302
  15 Au:   -0.062218   -0.032488
  16 Fe:   -0.673598    2.922008

  Mayer bond orders larger than 0.100000
B(  0-Au,  1-Au) :   0.1063 B(  0-Au,  2-Au) :   0.2347 B(  0-Au,  3-Au) :   0.1683
B(  0-Au,  4-Au) :   0.2012 B(  0-Au,  5-Au) :   0.3511 B(  0-Au,  7-Au) :   0.1939
B(  0-Au, 16-Fe) :   0.3995 B(  1-Au,  2-Au) :   0.2105 B(  1-Au,  4-Au) :   0.2732
B(  1-Au, 10-Au) :   0.1543 B(  1-Au, 12-Au) :   0.2279 B(  1-Au, 16-Fe) :   0.4268
B(  2-Au,  3-Au) :   0.1615 B(  2-Au,  8-Au) :   0.1224 B(  2-Au, 10-Au) :   0.1964
B(  2-Au, 16-Fe) :   0.4045 B(  3-Au,  7-Au) :   0.1690 B(  3-Au,  8-Au) :   0.1944
B(  3-Au, 11-Au) :   0.1555 B(  3-Au, 16-Fe) :   0.4410 B(  4-Au,  5-Au) :   0.2738
B(  4-Au,  6-Au) :   0.2370 B(  4-Au,  7-Au) :   0.1554 B(  4-Au, 12-Au) :   0.2639
B(  4-Au, 13-Au) :   0.2980 B(  4-Au, 15-Au) :   0.1228 B(  4-Au, 16-Fe) :   0.3864
B(  5-Au,  6-Au) :   0.1937 B(  5-Au,  7-Au) :   0.2881 B(  6-Au,  7-Au) :   0.2545
B(  6-Au, 13-Au) :   0.2809 B(  6-Au, 15-Au) :   0.2733 B(  7-Au, 11-Au) :   0.2309
B(  7-Au, 15-Au) :   0.2775 B(  7-Au, 16-Fe) :   0.4252 B(  8-Au,  9-Au) :   0.2219
B(  8-Au, 10-Au) :   0.1657 B(  8-Au, 11-Au) :   0.2048 B(  8-Au, 16-Fe) :   0.4081
B(  9-Au, 10-Au) :   0.1673 B(  9-Au, 11-Au) :   0.1143 B(  9-Au, 12-Au) :   0.1957
B(  9-Au, 14-Au) :   0.3323 B(  9-Au, 15-Au) :   0.1916 B(  9-Au, 16-Fe) :   0.4082
B( 10-Au, 12-Au) :   0.1895 B( 10-Au, 16-Fe) :   0.4222 B( 11-Au, 15-Au) :   0.2691
B( 11-Au, 16-Fe) :   0.4278 B( 12-Au, 13-Au) :   0.2742 B( 12-Au, 14-Au) :   0.2921
B( 12-Au, 15-Au) :   0.1559 B( 12-Au, 16-Fe) :   0.4249 B( 13-Au, 14-Au) :   0.1899
B( 13-Au, 15-Au) :   0.2318 B( 14-Au, 15-Au) :   0.2801 B( 15-Au, 16-Fe) :   0.3849

FINAL SINGLE POINT ENERGY     -3436.745051696735

DIPOLE MOMENT
-------------
                                X             Y             Z
Electronic contribution:     14.94542      19.94678     -19.14308
Nuclear contribution   :    -15.04785     -20.09782      19.28437
                        -----------------------------------------
Total Dipole Moment    :     -0.10243      -0.15103       0.14130
                        -----------------------------------------
Magnitude (a.u.)       :      0.23080
Magnitude (Debye)      :      0.58664

Rotational constants in cm-1:     0.000949     0.000863     0.000707
Rotational constants in MHz :    28.456729    25.863368    21.207971

                             ****ORCA TERMINATED NORMALLY****
TOTAL RUN TIME: 0 days 0 hours 19 minutes 53 seconds 625 msec
