                         Program Version 5.0.3 -  RELEASE  -
|  1> !R2SCAN def2-TZVP VERYSLOWCONV
|  2>
|  3> %scf
|  4>   AutoTRAHIter 200
|  5>   maxiter 400
|  6> end
|  7>
|  8> %pal nprocs 6 end
|  9>
| 10> *xyzfile 0 5 pbe.xyz
| 11>
| 12> $new_job
| 13>
| 14> !R2SCAN def2-TZVP VERYSLOWCONV
| 15> %scf
| 16>   AutoTRAHIter 200
| 17>   maxiter 400
| 18> end
| 19>
| 20>
| 21> %pal nprocs 6 end
| 22>
| 23> *xyzfile 0 3 pbe.xyz
| 24>
| 25>
| 26>
| 27>
| 28>
| 29>                          ****END OF INPUT****
 Total Charge           Charge          ....    0
 Multiplicity           Mult            ....    5
 Number of Electrons    NEL             ....  330
FINAL SINGLE POINT ENERGY     -3437.299671605228

CARTESIAN COORDINATES (ANGSTROEM)
---------------------------------
  Au     9.023081    6.213688    7.079266
  Au     8.362296    8.366166    8.976971
  Au     6.918633    5.974785    8.980674
  Au     6.542715    5.034884    6.330456
  Au     9.293757    9.041493    6.470640
  Au    10.539101    7.042015    4.930472
  Au     9.154281    9.173433    3.646438
  Au     7.795006    6.831498    4.429112
  Au     4.367545    6.481367    7.522559
  Au     4.471562    9.185399    6.579876
  Au     5.542244    8.483135    9.136457
  Au     5.032704    6.902330    4.838924
  Au     7.024320   10.347571    7.524517
  Au     8.200830   11.287058    5.162118
  Au     5.410520   11.605255    5.604612
  Au     6.399490    9.256639    4.393886
  Fe     6.736717    7.676563    6.854290

 Multiplicity           Mult            ....    3
 Number of Electrons    NEL             ....  330
 Basis Dimension        Dim             ....  685

ORBITAL ENERGIES
----------------
                 SPIN UP ORBITALS
  NO   OCC          E(Eh)            E(eV)
   0   1.0000    -255.619942     -6955.7723
   1   1.0000     -29.913483      -813.9873
   2   1.0000     -25.749357      -700.6756
   3   1.0000     -25.743828      -700.5252
   4   1.0000     -25.739956      -700.4198
   5   1.0000      -4.126784      -112.2955
   6   1.0000      -4.125995      -112.2740
   7   1.0000      -4.124775      -112.2408
   8   1.0000      -4.124635      -112.2370
   9   1.0000      -4.124423      -112.2313
  10   1.0000      -4.123662      -112.2105
  11   1.0000      -4.122972      -112.1918
  12   1.0000      -4.122252      -112.1722
  13   1.0000      -4.120909      -112.1356
  14   1.0000      -4.120037      -112.1119
  15   1.0000      -4.118245      -112.0631
  16   1.0000      -4.118006      -112.0566
  17   1.0000      -4.112234      -111.8996
  18   1.0000      -4.111503      -111.8797
  19   1.0000      -4.109347      -111.8210
  20   1.0000      -4.109077      -111.8137
  21   1.0000      -3.492969       -95.0485
  22   1.0000      -2.315962       -63.0205
  23   1.0000      -2.315532       -63.0088
  24   1.0000      -2.313857       -62.9633
  25   1.0000      -2.313735       -62.9599
  26   1.0000      -2.312799       -62.9345
  27   1.0000      -2.312599       -62.9290
  28   1.0000      -2.311822       -62.9079
  29   1.0000      -2.311575       -62.9011
  30   1.0000      -2.311250       -62.8923
  31   1.0000      -2.310900       -62.8828
  32   1.0000      -2.310449       -62.8705
  33   1.0000      -2.310184       -62.8633
  34   1.0000      -2.310115       -62.8614
  35   1.0000      -2.309919       -62.8561
  36   1.0000      -2.309422       -62.8426
  37   1.0000      -2.309227       -62.8372
  38   1.0000      -2.309017       -62.8316
  39   1.0000      -2.308754       -62.8244
  40   1.0000      -2.308151       -62.8080
  41   1.0000      -2.307909       -62.8014
  42   1.0000      -2.307380       -62.7870
  43   1.0000      -2.307340       -62.7859
  44   1.0000      -2.306870       -62.7731
  45   1.0000      -2.306452       -62.7617
  46   1.0000      -2.306272       -62.7568
  47   1.0000      -2.306088       -62.7518
  48   1.0000      -2.305768       -62.7431
  49   1.0000      -2.305366       -62.7322
  50   1.0000      -2.304928       -62.7203
  51   1.0000      -2.304787       -62.7164
  52   1.0000      -2.304358       -62.7048
  53   1.0000      -2.304170       -62.6996
  54   1.0000      -2.302982       -62.6673
  55   1.0000      -2.302709       -62.6599
  56   1.0000      -2.302470       -62.6534
  57   1.0000      -2.301852       -62.6366
  58   1.0000      -2.301081       -62.6156
  59   1.0000      -2.298513       -62.5457
  60   1.0000      -2.297779       -62.5257
  61   1.0000      -2.296883       -62.5014
  62   1.0000      -2.296494       -62.4908
  63   1.0000      -2.296255       -62.4843
  64   1.0000      -2.295894       -62.4745
  65   1.0000      -2.295752       -62.4706
  66   1.0000      -2.294350       -62.4324
  67   1.0000      -2.294264       -62.4301
  68   1.0000      -2.293040       -62.3968
  69   1.0000      -2.292694       -62.3874
  70   1.0000      -2.269708       -61.7619
  71   1.0000      -2.257448       -61.4283
  72   1.0000      -2.248854       -61.1944
  73   1.0000      -0.448598       -12.2070
  74   1.0000      -0.406514       -11.0618
  75   1.0000      -0.401825       -10.9342
  76   1.0000      -0.399515       -10.8714
  77   1.0000      -0.391011       -10.6399
  78   1.0000      -0.390516       -10.6265
  79   1.0000      -0.386431       -10.5153
  80   1.0000      -0.383585       -10.4379
  81   1.0000      -0.381129       -10.3710
  82   1.0000      -0.378525       -10.3002
  83   1.0000      -0.376522       -10.2457
  84   1.0000      -0.373031       -10.1507
  85   1.0000      -0.371416       -10.1067
  86   1.0000      -0.366040        -9.9605
  87   1.0000      -0.365075        -9.9342
  88   1.0000      -0.363890        -9.9020
  89   1.0000      -0.359526        -9.7832
  90   1.0000      -0.358958        -9.7677
  91   1.0000      -0.357093        -9.7170
  92   1.0000      -0.356595        -9.7034
  93   1.0000      -0.354877        -9.6567
  94   1.0000      -0.352804        -9.6003
  95   1.0000      -0.351858        -9.5745
  96   1.0000      -0.348235        -9.4760
  97   1.0000      -0.346853        -9.4384
  98   1.0000      -0.346066        -9.4169
  99   1.0000      -0.345115        -9.3911
 100   1.0000      -0.340201        -9.2573
 101   1.0000      -0.336399        -9.1539
 102   1.0000      -0.334431        -9.1003
 103   1.0000      -0.332782        -9.0554
 104   1.0000      -0.329543        -8.9673
 105   1.0000      -0.326908        -8.8956
 106   1.0000      -0.323907        -8.8140
 107   1.0000      -0.321826        -8.7573
 108   1.0000      -0.320781        -8.7289
 109   1.0000      -0.317644        -8.6435
 110   1.0000      -0.316953        -8.6247
 111   1.0000      -0.315207        -8.5772
 112   1.0000      -0.313612        -8.5338
 113   1.0000      -0.310180        -8.4404
 114   1.0000      -0.308850        -8.4042
 115   1.0000      -0.306544        -8.3415
 116   1.0000      -0.304364        -8.2822
 117   1.0000      -0.301452        -8.2029
 118   1.0000      -0.299689        -8.1550
 119   1.0000      -0.297784        -8.1031
 120   1.0000      -0.294560        -8.0154
 121   1.0000      -0.292825        -7.9682
 122   1.0000      -0.289815        -7.8863
 123   1.0000      -0.289358        -7.8738
 124   1.0000      -0.288090        -7.8393
 125   1.0000      -0.286567        -7.7979
 126   1.0000      -0.286417        -7.7938
 127   1.0000      -0.285399        -7.7661
 128   1.0000      -0.284247        -7.7348
 129   1.0000      -0.283295        -7.7088
 130   1.0000      -0.281595        -7.6626
 131   1.0000      -0.280567        -7.6346
 132   1.0000      -0.280003        -7.6193
 133   1.0000      -0.277844        -7.5605
 134   1.0000      -0.276395        -7.5211
 135   1.0000      -0.275494        -7.4966
 136   1.0000      -0.275285        -7.4909
 137   1.0000      -0.273542        -7.4434
 138   1.0000      -0.273151        -7.4328
 139   1.0000      -0.272240        -7.4080
 140   1.0000      -0.271528        -7.3887
 141   1.0000      -0.268625        -7.3096
 142   1.0000      -0.267965        -7.2917
 143   1.0000      -0.266678        -7.2567
 144   1.0000      -0.263443        -7.1687
 145   1.0000      -0.262734        -7.1494
 146   1.0000      -0.261970        -7.1286
 147   1.0000      -0.261470        -7.1150
 148   1.0000      -0.259459        -7.0602
 149   1.0000      -0.258761        -7.0413
 150   1.0000      -0.258359        -7.0303
 151   1.0000      -0.257767        -7.0142
 152   1.0000      -0.255596        -6.9551
 153   1.0000      -0.254941        -6.9373
 154   1.0000      -0.254436        -6.9236
 155   1.0000      -0.254337        -6.9209
 156   1.0000      -0.250922        -6.8279
 157   1.0000      -0.247780        -6.7424
 158   1.0000      -0.245396        -6.6776
 159   1.0000      -0.244733        -6.6595
 160   1.0000      -0.242895        -6.6095
 161   1.0000      -0.241073        -6.5599
 162   1.0000      -0.221583        -6.0296
 163   1.0000      -0.218207        -5.9377
 164   1.0000      -0.212529        -5.7832
 165   1.0000      -0.201068        -5.4714
 166   0.0000      -0.184395        -5.0177
 167   0.0000      -0.154674        -4.2089
 168   0.0000      -0.141643        -3.8543
 169   0.0000      -0.136818        -3.7230
 170   0.0000      -0.125678        -3.4199

                 SPIN DOWN ORBITALS
  NO   OCC          E(Eh)            E(eV)
   0   1.0000    -255.619062     -6955.7483
   1   1.0000     -29.839663      -811.9785
   2   1.0000     -25.689939      -699.0588
   3   1.0000     -25.687886      -699.0029
   4   1.0000     -25.686467      -698.9643
   5   1.0000      -4.127542      -112.3161
   6   1.0000      -4.126959      -112.3003
   7   1.0000      -4.125050      -112.2483
   8   1.0000      -4.124794      -112.2414
   9   1.0000      -4.124556      -112.2349
  10   1.0000      -4.124237      -112.2262
  11   1.0000      -4.123145      -112.1965
  12   1.0000      -4.122631      -112.1825
  13   1.0000      -4.121043      -112.1393
  14   1.0000      -4.120194      -112.1162
  15   1.0000      -4.118433      -112.0683
  16   1.0000      -4.118331      -112.0655
  17   1.0000      -4.112216      -111.8991
  18   1.0000      -4.111663      -111.8840
  19   1.0000      -4.110677      -111.8572
  20   1.0000      -4.110528      -111.8531
  21   1.0000      -3.328152       -90.5636
  22   1.0000      -2.317017       -63.0492
  23   1.0000      -2.316612       -63.0382
  24   1.0000      -2.314608       -62.9837
  25   1.0000      -2.314470       -62.9799
  26   1.0000      -2.313233       -62.9463
  27   1.0000      -2.313061       -62.9416
  28   1.0000      -2.311714       -62.9049
  29   1.0000      -2.311526       -62.8998
  30   1.0000      -2.311412       -62.8967
  31   1.0000      -2.311401       -62.8964
  32   1.0000      -2.310896       -62.8827
  33   1.0000      -2.310850       -62.8814
  34   1.0000      -2.310344       -62.8677
  35   1.0000      -2.309992       -62.8581
  36   1.0000      -2.309790       -62.8526
  37   1.0000      -2.309651       -62.8488
  38   1.0000      -2.309202       -62.8366
  39   1.0000      -2.309026       -62.8318
  40   1.0000      -2.308063       -62.8056
  41   1.0000      -2.307802       -62.7985
  42   1.0000      -2.307606       -62.7931
  43   1.0000      -2.307242       -62.7832
  44   1.0000      -2.307147       -62.7807
  45   1.0000      -2.306691       -62.7683
  46   1.0000      -2.306459       -62.7619
  47   1.0000      -2.306217       -62.7553
  48   1.0000      -2.305887       -62.7464
  49   1.0000      -2.305599       -62.7385
  50   1.0000      -2.305251       -62.7291
  51   1.0000      -2.304947       -62.7208
  52   1.0000      -2.304391       -62.7057
  53   1.0000      -2.304274       -62.7025
  54   1.0000      -2.303276       -62.6753
  55   1.0000      -2.303138       -62.6716
  56   1.0000      -2.302885       -62.6647
  57   1.0000      -2.302090       -62.6431
  58   1.0000      -2.301192       -62.6186
  59   1.0000      -2.298880       -62.5557
  60   1.0000      -2.298237       -62.5382
  61   1.0000      -2.297748       -62.5249
  62   1.0000      -2.297660       -62.5225
  63   1.0000      -2.296904       -62.5019
  64   1.0000      -2.296607       -62.4938
  65   1.0000      -2.296086       -62.4797
  66   1.0000      -2.295030       -62.4509
  67   1.0000      -2.294983       -62.4497
  68   1.0000      -2.294562       -62.4382
  69   1.0000      -2.294366       -62.4329
  70   1.0000      -2.102343       -57.2077
  71   1.0000      -2.095807       -57.0298
  72   1.0000      -2.092309       -56.9346
  73   1.0000      -0.446689       -12.1550
  74   1.0000      -0.406476       -11.0608
  75   1.0000      -0.402992       -10.9660
  76   1.0000      -0.401144       -10.9157
  77   1.0000      -0.386219       -10.5095
  78   1.0000      -0.385870       -10.5001
  79   1.0000      -0.383024       -10.4226
  80   1.0000      -0.379484       -10.3263
  81   1.0000      -0.378236       -10.2923
  82   1.0000      -0.377215       -10.2645
  83   1.0000      -0.375542       -10.2190
  84   1.0000      -0.371678       -10.1139
  85   1.0000      -0.370878       -10.0921
  86   1.0000      -0.365312        -9.9407
  87   1.0000      -0.365012        -9.9325
  88   1.0000      -0.363707        -9.8970
  89   1.0000      -0.359747        -9.7892
  90   1.0000      -0.359407        -9.7800
  91   1.0000      -0.357204        -9.7200
  92   1.0000      -0.355989        -9.6870
  93   1.0000      -0.354661        -9.6508
  94   1.0000      -0.353232        -9.6119
  95   1.0000      -0.352476        -9.5913
  96   1.0000      -0.348924        -9.4947
  97   1.0000      -0.347584        -9.4582
  98   1.0000      -0.346627        -9.4322
  99   1.0000      -0.345284        -9.3957
 100   1.0000      -0.340749        -9.2722
 101   1.0000      -0.336239        -9.1495
 102   1.0000      -0.335027        -9.1166
 103   1.0000      -0.332621        -9.0511
 104   1.0000      -0.328373        -8.9355
 105   1.0000      -0.326538        -8.8856
 106   1.0000      -0.322744        -8.7823
 107   1.0000      -0.321277        -8.7424
 108   1.0000      -0.320551        -8.7226
 109   1.0000      -0.317108        -8.6289
 110   1.0000      -0.315925        -8.5967
 111   1.0000      -0.314609        -8.5609
 112   1.0000      -0.313071        -8.5191
 113   1.0000      -0.304216        -8.2781
 114   1.0000      -0.302111        -8.2208
 115   1.0000      -0.301374        -8.2008
 116   1.0000      -0.300839        -8.1862
 117   1.0000      -0.296617        -8.0714
 118   1.0000      -0.296140        -8.0584
 119   1.0000      -0.295842        -8.0503
 120   1.0000      -0.292991        -7.9727
 121   1.0000      -0.291715        -7.9380
 122   1.0000      -0.290679        -7.9098
 123   1.0000      -0.289427        -7.8757
 124   1.0000      -0.289189        -7.8692
 125   1.0000      -0.285642        -7.7727
 126   1.0000      -0.285338        -7.7645
 127   1.0000      -0.285123        -7.7586
 128   1.0000      -0.284587        -7.7440
 129   1.0000      -0.283531        -7.7153
 130   1.0000      -0.282477        -7.6866
 131   1.0000      -0.280611        -7.6358
 132   1.0000      -0.280150        -7.6233
 133   1.0000      -0.278587        -7.5807
 134   1.0000      -0.276515        -7.5244
 135   1.0000      -0.276000        -7.5103
 136   1.0000      -0.275679        -7.5016
 137   1.0000      -0.273534        -7.4432
 138   1.0000      -0.273119        -7.4319
 139   1.0000      -0.272621        -7.4184
 140   1.0000      -0.272141        -7.4053
 141   1.0000      -0.269007        -7.3200
 142   1.0000      -0.267855        -7.2887
 143   1.0000      -0.265542        -7.2258
 144   1.0000      -0.262946        -7.1551
 145   1.0000      -0.262541        -7.1441
 146   1.0000      -0.262311        -7.1378
 147   1.0000      -0.259724        -7.0675
 148   1.0000      -0.259070        -7.0497
 149   1.0000      -0.258467        -7.0333
 150   1.0000      -0.256681        -6.9847
 151   1.0000      -0.255610        -6.9555
 152   1.0000      -0.252198        -6.8627
 153   1.0000      -0.250980        -6.8295
 154   1.0000      -0.246773        -6.7150
 155   1.0000      -0.245402        -6.6777
 156   1.0000      -0.243715        -6.6318
 157   1.0000      -0.231796        -6.3075
 158   1.0000      -0.223218        -6.0741
 159   1.0000      -0.221644        -6.0312
 160   1.0000      -0.210204        -5.7199
 161   1.0000      -0.200646        -5.4599
 162   1.0000      -0.175976        -4.7885
 163   1.0000      -0.172318        -4.6890
 164   0.0000      -0.151608        -4.1255
 165   0.0000      -0.144205        -3.9240
 166   0.0000      -0.140040        -3.8107
 167   0.0000      -0.134367        -3.6563
 168   0.0000      -0.130957        -3.5635

MULLIKEN ATOMIC CHARGES AND SPIN POPULATIONS
--------------------------------------------
   0 Au:    0.052248   -0.018069
   1 Au:    0.390376   -0.047353
   2 Au:    0.304591   -0.004503
   3 Au:    0.348432   -0.089241
   4 Au:   -0.388798    0.002299
   5 Au:    0.335447   -0.227156
   6 Au:    0.329942    0.033128
   7 Au:   -0.125286   -0.105478
   8 Au:    0.303598   -0.006507
   9 Au:    0.058247   -0.022506
  10 Au:    0.346038   -0.075538
  11 Au:    0.385427   -0.047665
  12 Au:   -0.136203   -0.116656
  13 Au:    0.293116   -0.030918
  14 Au:    0.351794   -0.191476
  15 Au:   -0.377210   -0.005828
  16 Fe:   -2.471758    2.953467
Sum of atomic charges         :   -0.0000000

LOEWDIN ATOMIC CHARGES AND SPIN POPULATIONS
-------------------------------------------
   0 Au:    0.015142   -0.065551
   1 Au:    0.102630   -0.065711
   2 Au:    0.064621   -0.032589
   3 Au:    0.090384   -0.073043
   4 Au:   -0.064487   -0.034265
   5 Au:    0.082897   -0.162387
   6 Au:    0.041268   -0.003235
   7 Au:   -0.023718   -0.086671
   8 Au:    0.064963   -0.030935
   9 Au:    0.019624   -0.060401
  10 Au:    0.089247   -0.065519
  11 Au:    0.098546   -0.067707
  12 Au:   -0.027401   -0.095377
  13 Au:    0.027720   -0.028070
  14 Au:    0.088943   -0.149393
  15 Au:   -0.064488   -0.038324
  16 Fe:   -0.605892    3.059178

  Mayer bond orders larger than 0.100000
B(  0-Au,  2-Au) :   0.2258 B(  0-Au,  3-Au) :   0.1557 B(  0-Au,  4-Au) :   0.1856
B(  0-Au,  5-Au) :   0.3255 B(  0-Au,  7-Au) :   0.1752 B(  0-Au, 16-Fe) :   0.4046
B(  1-Au,  2-Au) :   0.2001 B(  1-Au,  4-Au) :   0.2667 B(  1-Au, 10-Au) :   0.1446
B(  1-Au, 12-Au) :   0.2204 B(  1-Au, 16-Fe) :   0.4333 B(  2-Au,  3-Au) :   0.1495
B(  2-Au,  8-Au) :   0.1037 B(  2-Au, 10-Au) :   0.1889 B(  2-Au, 16-Fe) :   0.3929
B(  3-Au,  7-Au) :   0.1750 B(  3-Au,  8-Au) :   0.1908 B(  3-Au, 11-Au) :   0.1446
B(  3-Au, 16-Fe) :   0.4088 B(  4-Au,  5-Au) :   0.2672 B(  4-Au,  6-Au) :   0.2284
B(  4-Au,  7-Au) :   0.1186 B(  4-Au, 12-Au) :   0.2559 B(  4-Au, 13-Au) :   0.2832
B(  4-Au, 16-Fe) :   0.3805 B(  5-Au,  6-Au) :   0.1986 B(  5-Au,  7-Au) :   0.2785
B(  6-Au,  7-Au) :   0.2663 B(  6-Au, 13-Au) :   0.2340 B(  6-Au, 15-Au) :   0.2752
B(  7-Au, 11-Au) :   0.2221 B(  7-Au, 15-Au) :   0.2710 B(  7-Au, 16-Fe) :   0.4060
B(  8-Au,  9-Au) :   0.2236 B(  8-Au, 10-Au) :   0.1550 B(  8-Au, 11-Au) :   0.2000
B(  8-Au, 16-Fe) :   0.3881 B(  9-Au, 10-Au) :   0.1527 B(  9-Au, 12-Au) :   0.1819
B(  9-Au, 14-Au) :   0.3249 B(  9-Au, 15-Au) :   0.1858 B(  9-Au, 16-Fe) :   0.3988
B( 10-Au, 12-Au) :   0.1803 B( 10-Au, 16-Fe) :   0.4150 B( 11-Au, 15-Au) :   0.2618
B( 11-Au, 16-Fe) :   0.4362 B( 12-Au, 13-Au) :   0.2620 B( 12-Au, 14-Au) :   0.2752
B( 12-Au, 15-Au) :   0.1158 B( 12-Au, 16-Fe) :   0.4091 B( 13-Au, 14-Au) :   0.2055
B( 13-Au, 15-Au) :   0.2306 B( 14-Au, 15-Au) :   0.2617 B( 15-Au, 16-Fe) :   0.3717

FINAL SINGLE POINT ENERGY     -3437.282756000180

DIPOLE MOMENT
-------------
                                X             Y             Z
Electronic contribution:     14.92874      19.96736     -19.14468
Nuclear contribution   :    -15.04785     -20.09782      19.28437
                        -----------------------------------------
Total Dipole Moment    :     -0.11911      -0.13046       0.13969
                        -----------------------------------------
Magnitude (a.u.)       :      0.22521
Magnitude (Debye)      :      0.57245

Rotational constants in cm-1:     0.000949     0.000863     0.000707
Rotational constants in MHz :    28.456729    25.863368    21.207971

                             ****ORCA TERMINATED NORMALLY****
TOTAL RUN TIME: 0 days 2 hours 9 minutes 33 seconds 894 msec
