                         Program Version 5.0.3 -  RELEASE  -
|  1> %pal nprocs 1 end
|  2>
|  3> !PBE def2-TZVP OPT UNO
|  4> !SLOWCONV
|  5>
|  6> *xyzfile 0 6 0.xyz                           ****END OF INPUT****
 Total Charge           Charge          ....    0
 Multiplicity           Mult            ....    6
 Number of Electrons    NEL             ....  311
FINAL SINGLE POINT ENERGY     -3300.921299947483
FINAL SINGLE POINT ENERGY     -3300.923583850832
FINAL SINGLE POINT ENERGY     -3300.923916421264
FINAL SINGLE POINT ENERGY     -3300.924305588374
FINAL SINGLE POINT ENERGY     -3300.924681620273
FINAL SINGLE POINT ENERGY     -3300.925174949362
FINAL SINGLE POINT ENERGY     -3300.925465303919
FINAL SINGLE POINT ENERGY     -3300.925683097598
FINAL SINGLE POINT ENERGY     -3300.925835154350
FINAL SINGLE POINT ENERGY     -3300.925899435825
FINAL SINGLE POINT ENERGY     -3300.925947878443
FINAL SINGLE POINT ENERGY     -3300.925975343284
FINAL SINGLE POINT ENERGY     -3300.925988873105
FINAL SINGLE POINT ENERGY     -3300.925997426132
FINAL SINGLE POINT ENERGY     -3300.926002679303
                    ***********************HURRAY********************

CARTESIAN COORDINATES (ANGSTROEM)
---------------------------------
  Au     9.125066    6.008230    7.399734
  Au    10.201068    7.798049    5.644754
  Au     6.688791    5.208689    6.144274
  Au     4.842274    7.411144    5.826958
  Au     7.489323    7.605705    5.066137
  Au     6.013990    9.807833    6.543337
  Au     8.598263   10.100837    5.571721
  Au     7.852435   11.306970    7.993241
  Au     6.850411    9.403122    9.672512
  Au     9.231614    8.849755    8.074231
  Au     4.408158    8.611720    8.424446
  Au     8.502554    7.067906   10.002215
  Au     5.710931    6.960312   10.320742
  Au     4.559032    5.752912    8.026429
  Au     7.103310    4.879541    8.925532
  Fe     6.810569    7.426969    7.772572

 Multiplicity           Mult            ....    6
 Number of Electrons    NEL             ....  311
 Basis Dimension        Dim             ....  645

ORBITAL ENERGIES
----------------
                 SPIN UP ORBITALS
  NO   OCC          E(Eh)            E(eV)
   0   1.0000    -254.783687     -6933.0166
   1   1.0000     -29.625328      -806.1462
   2   1.0000     -25.564635      -695.6491
   3   1.0000     -25.557643      -695.4588
   4   1.0000     -25.557573      -695.4569
   5   1.0000      -4.038638      -109.8969
   6   1.0000      -4.035066      -109.7997
   7   1.0000      -4.035026      -109.7986
   8   1.0000      -4.033470      -109.7563
   9   1.0000      -4.033446      -109.7556
  10   1.0000      -4.031595      -109.7053
  11   1.0000      -4.031009      -109.6893
  12   1.0000      -4.030892      -109.6861
  13   1.0000      -4.028530      -109.6219
  14   1.0000      -4.028245      -109.6141
  15   1.0000      -4.028198      -109.6128
  16   1.0000      -4.027043      -109.5814
  17   1.0000      -4.025427      -109.5374
  18   1.0000      -4.021956      -109.4430
  19   1.0000      -4.021951      -109.4428
  20   1.0000      -3.405730       -92.6746
  21   1.0000      -2.254209       -61.3401
  22   1.0000      -2.252512       -61.2940
  23   1.0000      -2.252055       -61.2815
  24   1.0000      -2.251421       -61.2643
  25   1.0000      -2.250398       -61.2365
  26   1.0000      -2.250320       -61.2343
  27   1.0000      -2.249287       -61.2062
  28   1.0000      -2.247483       -61.1571
  29   1.0000      -2.246681       -61.1353
  30   1.0000      -2.246645       -61.1343
  31   1.0000      -2.246381       -61.1271
  32   1.0000      -2.246209       -61.1225
  33   1.0000      -2.245710       -61.1089
  34   1.0000      -2.245447       -61.1017
  35   1.0000      -2.244973       -61.0888
  36   1.0000      -2.244935       -61.0878
  37   1.0000      -2.244616       -61.0791
  38   1.0000      -2.244433       -61.0741
  39   1.0000      -2.244251       -61.0692
  40   1.0000      -2.243819       -61.0574
  41   1.0000      -2.243303       -61.0434
  42   1.0000      -2.243254       -61.0421
  43   1.0000      -2.242846       -61.0310
  44   1.0000      -2.242552       -61.0230
  45   1.0000      -2.242137       -61.0116
  46   1.0000      -2.241890       -61.0049
  47   1.0000      -2.241857       -61.0040
  48   1.0000      -2.241218       -60.9866
  49   1.0000      -2.241164       -60.9852
  50   1.0000      -2.240627       -60.9706
  51   1.0000      -2.240499       -60.9671
  52   1.0000      -2.240453       -60.9658
  53   1.0000      -2.239241       -60.9328
  54   1.0000      -2.239058       -60.9279
  55   1.0000      -2.238700       -60.9181
  56   1.0000      -2.238472       -60.9119
  57   1.0000      -2.237839       -60.8947
  58   1.0000      -2.237528       -60.8862
  59   1.0000      -2.237112       -60.8749
  60   1.0000      -2.235849       -60.8405
  61   1.0000      -2.235798       -60.8392
  62   1.0000      -2.235347       -60.8269
  63   1.0000      -2.235125       -60.8208
  64   1.0000      -2.232978       -60.7624
  65   1.0000      -2.232944       -60.7615
  66   1.0000      -2.228127       -60.6304
  67   1.0000      -2.214175       -60.2508
  68   1.0000      -2.214153       -60.2502
  69   1.0000      -0.446590       -12.1523
  70   1.0000      -0.398641       -10.8476
  71   1.0000      -0.395404       -10.7595
  72   1.0000      -0.392509       -10.6807
  73   1.0000      -0.385954       -10.5023
  74   1.0000      -0.384716       -10.4686
  75   1.0000      -0.381186       -10.3726
  76   1.0000      -0.380837       -10.3631
  77   1.0000      -0.379270       -10.3205
  78   1.0000      -0.369347       -10.0504
  79   1.0000      -0.366649        -9.9770
  80   1.0000      -0.364177        -9.9098
  81   1.0000      -0.357982        -9.7412
  82   1.0000      -0.357730        -9.7343
  83   1.0000      -0.354779        -9.6540
  84   1.0000      -0.354145        -9.6368
  85   1.0000      -0.352244        -9.5851
  86   1.0000      -0.351317        -9.5598
  87   1.0000      -0.349136        -9.5005
  88   1.0000      -0.348098        -9.4722
  89   1.0000      -0.345888        -9.4121
  90   1.0000      -0.345579        -9.4037
  91   1.0000      -0.343620        -9.3504
  92   1.0000      -0.341319        -9.2878
  93   1.0000      -0.337944        -9.1959
  94   1.0000      -0.336414        -9.1543
  95   1.0000      -0.334104        -9.0914
  96   1.0000      -0.330867        -9.0033
  97   1.0000      -0.327239        -8.9046
  98   1.0000      -0.324380        -8.8268
  99   1.0000      -0.324277        -8.8240
 100   1.0000      -0.323748        -8.8096
 101   1.0000      -0.320759        -8.7283
 102   1.0000      -0.317035        -8.6270
 103   1.0000      -0.316501        -8.6124
 104   1.0000      -0.313281        -8.5248
 105   1.0000      -0.311322        -8.4715
 106   1.0000      -0.307446        -8.3660
 107   1.0000      -0.305196        -8.3048
 108   1.0000      -0.303146        -8.2490
 109   1.0000      -0.302717        -8.2373
 110   1.0000      -0.299149        -8.1403
 111   1.0000      -0.297948        -8.1076
 112   1.0000      -0.295110        -8.0304
 113   1.0000      -0.287152        -7.8138
 114   1.0000      -0.287023        -7.8103
 115   1.0000      -0.285356        -7.7649
 116   1.0000      -0.283044        -7.7020
 117   1.0000      -0.282128        -7.6771
 118   1.0000      -0.281198        -7.6518
 119   1.0000      -0.278247        -7.5715
 120   1.0000      -0.277135        -7.5412
 121   1.0000      -0.276344        -7.5197
 122   1.0000      -0.275464        -7.4957
 123   1.0000      -0.274500        -7.4695
 124   1.0000      -0.273034        -7.4296
 125   1.0000      -0.272415        -7.4128
 126   1.0000      -0.272189        -7.4066
 127   1.0000      -0.270774        -7.3681
 128   1.0000      -0.268489        -7.3060
 129   1.0000      -0.267990        -7.2924
 130   1.0000      -0.265777        -7.2322
 131   1.0000      -0.265210        -7.2167
 132   1.0000      -0.264842        -7.2067
 133   1.0000      -0.263676        -7.1750
 134   1.0000      -0.263372        -7.1667
 135   1.0000      -0.262328        -7.1383
 136   1.0000      -0.261971        -7.1286
 137   1.0000      -0.260260        -7.0820
 138   1.0000      -0.258469        -7.0333
 139   1.0000      -0.258127        -7.0240
 140   1.0000      -0.256452        -6.9784
 141   1.0000      -0.255596        -6.9551
 142   1.0000      -0.253690        -6.9032
 143   1.0000      -0.253416        -6.8958
 144   1.0000      -0.252233        -6.8636
 145   1.0000      -0.249831        -6.7982
 146   1.0000      -0.249683        -6.7942
 147   1.0000      -0.248076        -6.7505
 148   1.0000      -0.246022        -6.6946
 149   1.0000      -0.245911        -6.6916
 150   1.0000      -0.241405        -6.5690
 151   1.0000      -0.241152        -6.5621
 152   1.0000      -0.231956        -6.3118
 153   1.0000      -0.221923        -6.0388
 154   1.0000      -0.217632        -5.9221
 155   1.0000      -0.204087        -5.5535
 156   1.0000      -0.195901        -5.3307
 157   1.0000      -0.193412        -5.2630
 158   0.0000      -0.152832        -4.1588
 159   0.0000      -0.139956        -3.8084
 160   0.0000      -0.137323        -3.7368
 161   0.0000      -0.126453        -3.4410
 162   0.0000      -0.123994        -3.3741

                 SPIN DOWN ORBITALS
  NO   OCC          E(Eh)            E(eV)
   0   1.0000    -254.782943     -6932.9963
   1   1.0000     -29.561709      -804.4150
   2   1.0000     -25.514646      -694.2888
   3   1.0000     -25.510579      -694.1781
   4   1.0000     -25.510479      -694.1754
   5   1.0000      -4.037240      -109.8589
   6   1.0000      -4.033808      -109.7655
   7   1.0000      -4.033769      -109.7644
   8   1.0000      -4.032498      -109.7298
   9   1.0000      -4.032477      -109.7293
  10   1.0000      -4.030862      -109.6853
  11   1.0000      -4.030242      -109.6685
  12   1.0000      -4.030127      -109.6653
  13   1.0000      -4.027955      -109.6062
  14   1.0000      -4.027430      -109.5919
  15   1.0000      -4.027388      -109.5908
  16   1.0000      -4.026210      -109.5587
  17   1.0000      -4.025143      -109.5297
  18   1.0000      -4.021543      -109.4317
  19   1.0000      -4.021538      -109.4316
  20   1.0000      -3.262836       -88.7863
  21   1.0000      -2.252637       -61.2974
  22   1.0000      -2.251068       -61.2547
  23   1.0000      -2.250604       -61.2421
  24   1.0000      -2.250087       -61.2280
  25   1.0000      -2.249208       -61.2041
  26   1.0000      -2.249086       -61.2007
  27   1.0000      -2.247728       -61.1638
  28   1.0000      -2.246149       -61.1208
  29   1.0000      -2.245295       -61.0976
  30   1.0000      -2.245130       -61.0931
  31   1.0000      -2.244952       -61.0883
  32   1.0000      -2.244892       -61.0866
  33   1.0000      -2.244485       -61.0755
  34   1.0000      -2.244313       -61.0709
  35   1.0000      -2.244083       -61.0646
  36   1.0000      -2.243927       -61.0604
  37   1.0000      -2.243849       -61.0582
  38   1.0000      -2.243580       -61.0509
  39   1.0000      -2.243419       -61.0465
  40   1.0000      -2.243073       -61.0371
  41   1.0000      -2.242632       -61.0251
  42   1.0000      -2.242530       -61.0223
  43   1.0000      -2.242162       -61.0123
  44   1.0000      -2.241575       -60.9963
  45   1.0000      -2.241356       -60.9904
  46   1.0000      -2.241018       -60.9812
  47   1.0000      -2.240963       -60.9797
  48   1.0000      -2.240762       -60.9742
  49   1.0000      -2.240302       -60.9617
  50   1.0000      -2.239730       -60.9462
  51   1.0000      -2.239701       -60.9454
  52   1.0000      -2.239511       -60.9402
  53   1.0000      -2.238588       -60.9151
  54   1.0000      -2.238414       -60.9103
  55   1.0000      -2.238243       -60.9057
  56   1.0000      -2.237823       -60.8943
  57   1.0000      -2.237457       -60.8843
  58   1.0000      -2.236895       -60.8690
  59   1.0000      -2.236772       -60.8657
  60   1.0000      -2.235445       -60.8296
  61   1.0000      -2.235400       -60.8283
  62   1.0000      -2.234917       -60.8152
  63   1.0000      -2.234736       -60.8102
  64   1.0000      -2.232462       -60.7484
  65   1.0000      -2.232425       -60.7474
  66   1.0000      -2.082461       -56.6666
  67   1.0000      -2.077362       -56.5279
  68   1.0000      -2.077256       -56.5250
  69   1.0000      -0.441299       -12.0084
  70   1.0000      -0.396734       -10.7957
  71   1.0000      -0.393477       -10.7070
  72   1.0000      -0.390509       -10.6263
  73   1.0000      -0.377286       -10.2665
  74   1.0000      -0.373919       -10.1749
  75   1.0000      -0.370795       -10.0898
  76   1.0000      -0.369393       -10.0517
  77   1.0000      -0.369349       -10.0505
  78   1.0000      -0.364026        -9.9057
  79   1.0000      -0.362550        -9.8655
  80   1.0000      -0.359980        -9.7956
  81   1.0000      -0.354976        -9.6594
  82   1.0000      -0.353724        -9.6253
  83   1.0000      -0.353383        -9.6160
  84   1.0000      -0.351848        -9.5743
  85   1.0000      -0.349238        -9.5033
  86   1.0000      -0.349214        -9.5026
  87   1.0000      -0.346703        -9.4343
  88   1.0000      -0.346183        -9.4201
  89   1.0000      -0.343943        -9.3592
  90   1.0000      -0.343168        -9.3381
  91   1.0000      -0.342495        -9.3198
  92   1.0000      -0.340360        -9.2617
  93   1.0000      -0.336059        -9.1446
  94   1.0000      -0.334103        -9.0914
  95   1.0000      -0.331728        -9.0268
  96   1.0000      -0.327379        -8.9084
  97   1.0000      -0.324150        -8.8206
  98   1.0000      -0.322218        -8.7680
  99   1.0000      -0.319291        -8.6884
 100   1.0000      -0.316851        -8.6220
 101   1.0000      -0.312561        -8.5052
 102   1.0000      -0.310026        -8.4362
 103   1.0000      -0.308808        -8.4031
 104   1.0000      -0.306369        -8.3367
 105   1.0000      -0.304181        -8.2772
 106   1.0000      -0.299997        -8.1633
 107   1.0000      -0.296828        -8.0771
 108   1.0000      -0.292322        -7.9545
 109   1.0000      -0.290842        -7.9142
 110   1.0000      -0.288499        -7.8504
 111   1.0000      -0.287937        -7.8352
 112   1.0000      -0.284984        -7.7548
 113   1.0000      -0.284074        -7.7300
 114   1.0000      -0.283099        -7.7035
 115   1.0000      -0.283087        -7.7032
 116   1.0000      -0.280250        -7.6260
 117   1.0000      -0.278777        -7.5859
 118   1.0000      -0.277575        -7.5532
 119   1.0000      -0.276141        -7.5142
 120   1.0000      -0.274488        -7.4692
 121   1.0000      -0.273736        -7.4487
 122   1.0000      -0.272188        -7.4066
 123   1.0000      -0.272103        -7.4043
 124   1.0000      -0.271191        -7.3795
 125   1.0000      -0.269748        -7.3402
 126   1.0000      -0.268336        -7.3018
 127   1.0000      -0.266173        -7.2429
 128   1.0000      -0.264683        -7.2024
 129   1.0000      -0.263565        -7.1720
 130   1.0000      -0.263038        -7.1576
 131   1.0000      -0.262373        -7.1395
 132   1.0000      -0.259679        -7.0662
 133   1.0000      -0.258710        -7.0399
 134   1.0000      -0.258424        -7.0321
 135   1.0000      -0.255067        -6.9407
 136   1.0000      -0.254735        -6.9317
 137   1.0000      -0.253412        -6.8957
 138   1.0000      -0.251945        -6.8558
 139   1.0000      -0.250700        -6.8219
 140   1.0000      -0.248402        -6.7594
 141   1.0000      -0.247993        -6.7482
 142   1.0000      -0.246268        -6.7013
 143   1.0000      -0.244986        -6.6664
 144   1.0000      -0.244914        -6.6645
 145   1.0000      -0.241058        -6.5595
 146   1.0000      -0.240490        -6.5441
 147   1.0000      -0.231594        -6.3020
 148   1.0000      -0.223765        -6.0889
 149   1.0000      -0.220473        -5.9994
 150   1.0000      -0.211953        -5.7675
 151   1.0000      -0.208250        -5.6668
 152   1.0000      -0.205676        -5.5967
 153   0.0000      -0.179695        -4.8898
 154   0.0000      -0.177017        -4.8169
 155   0.0000      -0.175219        -4.7679
 156   0.0000      -0.166810        -4.5391
 157   0.0000      -0.165573        -4.5055

MULLIKEN ATOMIC CHARGES AND SPIN POPULATIONS
--------------------------------------------
   0 Au:    0.033444    0.152406
   1 Au:    0.385111    0.082138
   2 Au:    0.319516    0.111623
   3 Au:    0.353622    0.111262
   4 Au:   -0.141283    0.155372
   5 Au:   -0.142446    0.155629
   6 Au:    0.255658    0.074363
   7 Au:    0.385569    0.082251
   8 Au:    0.032235    0.152445
   9 Au:   -0.285893    0.174534
  10 Au:    0.319473    0.111321
  11 Au:    0.283815    0.091356
  12 Au:    0.325771    0.092028
  13 Au:    0.244150    0.136775
  14 Au:    0.325719    0.092068
  15 Fe:   -2.694461    3.224429
Sum of atomic charges         :   -0.0000000

LOEWDIN ATOMIC CHARGES AND SPIN POPULATIONS
-------------------------------------------
   0 Au:    0.005680    0.121123
   1 Au:    0.093720    0.093792
   2 Au:    0.069410    0.102021
   3 Au:    0.065185    0.104981
   4 Au:   -0.013950    0.123817
   5 Au:   -0.014094    0.123915
   6 Au:    0.015658    0.081191
   7 Au:    0.093976    0.093946
   8 Au:    0.005359    0.121131
   9 Au:   -0.043804    0.130955
  10 Au:    0.069214    0.101907
  11 Au:    0.071327    0.089931
  12 Au:    0.057058    0.081918
  13 Au:    0.048834    0.099322
  14 Au:    0.057152    0.081937
  15 Fe:   -0.580724    3.448112

  Mayer bond orders larger than 0.100000
B(  0-Au,  1-Au) :   0.3571 B(  0-Au,  2-Au) :   0.1527 B(  0-Au,  4-Au) :   0.1308
B(  0-Au,  9-Au) :   0.1586 B(  0-Au, 11-Au) :   0.1255 B(  0-Au, 14-Au) :   0.2702
B(  0-Au, 15-Fe) :   0.5154 B(  1-Au,  4-Au) :   0.2679 B(  1-Au,  6-Au) :   0.2204
B(  1-Au,  9-Au) :   0.2762 B(  2-Au,  3-Au) :   0.1155 B(  2-Au,  4-Au) :   0.2436
B(  2-Au, 13-Au) :   0.1586 B(  2-Au, 14-Au) :   0.1789 B(  2-Au, 15-Fe) :   0.4773
B(  3-Au,  4-Au) :   0.2382 B(  3-Au,  5-Au) :   0.2376 B(  3-Au, 10-Au) :   0.1147
B(  3-Au, 13-Au) :   0.2418 B(  3-Au, 15-Fe) :   0.4501 B(  4-Au,  5-Au) :   0.1245
B(  4-Au,  6-Au) :   0.3031 B(  4-Au, 15-Fe) :   0.5050 B(  5-Au,  6-Au) :   0.3034
B(  5-Au,  7-Au) :   0.2675 B(  5-Au,  8-Au) :   0.1311 B(  5-Au, 10-Au) :   0.2440
B(  5-Au, 15-Fe) :   0.5057 B(  6-Au,  7-Au) :   0.2206 B(  6-Au,  9-Au) :   0.2423
B(  7-Au,  8-Au) :   0.3569 B(  7-Au,  9-Au) :   0.2764 B(  8-Au,  9-Au) :   0.1591
B(  8-Au, 10-Au) :   0.1530 B(  8-Au, 11-Au) :   0.1252 B(  8-Au, 12-Au) :   0.2713
B(  8-Au, 15-Fe) :   0.5147 B(  9-Au, 11-Au) :   0.3200 B(  9-Au, 15-Fe) :   0.4368
B( 10-Au, 12-Au) :   0.1786 B( 10-Au, 13-Au) :   0.1602 B( 10-Au, 15-Fe) :   0.4761
B( 11-Au, 12-Au) :   0.1814 B( 11-Au, 14-Au) :   0.1813 B( 11-Au, 15-Fe) :   0.4853
B( 12-Au, 13-Au) :   0.1835 B( 12-Au, 14-Au) :   0.1803 B( 12-Au, 15-Fe) :   0.4108
B( 13-Au, 14-Au) :   0.1838 B( 13-Au, 15-Fe) :   0.4758 B( 14-Au, 15-Fe) :   0.4118

FINAL SINGLE POINT ENERGY     -3300.926005414383

DIPOLE MOMENT
-------------
                                X             Y             Z
Electronic contribution:     12.96426      13.80757      -7.53874
Nuclear contribution   :    -12.79076     -13.68149       7.52437
                        -----------------------------------------
Total Dipole Moment    :      0.17350       0.12608      -0.01438
                        -----------------------------------------
Magnitude (a.u.)       :      0.21496
Magnitude (Debye)      :      0.54638

Rotational constants in cm-1:     0.001103     0.000907     0.000844
Rotational constants in MHz :    33.069183    27.199640    25.314780

                             ****ORCA TERMINATED NORMALLY****
TOTAL RUN TIME: 0 days 3 hours 10 minutes 50 seconds 95 msec
