                         Program Version 5.0.3 -  RELEASE  -
|  1> !SC-NEVPT2 def2-TZVP def2-TZVP/C
|  2> !MOREAD RIJCOSX def2/J
|  3> %maxcore 4000
|  4> %moinp "casscf.gbw"
|  5> %pal nprocs 6 end
|  6>
|  7> %casscf
|  8>  mult 6,4
|  9>  bweight 1,1
| 10>  nroots 1,24
| 11>  nel 5
| 12>  norb 5
| 13>  ptsettings
| 14>   d4tpre 1e-14 # default = 1e-10
| 15>   d3tpre 1e-14
| 16>  end
| 17>  rel
| 18>    dosoc true
| 19>    gtensor true
| 20>  end
| 21> end
| 22>
| 23>
| 24> *xyzfile 0 6 pbe.xyz
| 25>
| 26>
| 27>                          ****END OF INPUT****

CARTESIAN COORDINATES (ANGSTROEM)
---------------------------------
  Au     5.889409    8.023460    9.318310
  Au     5.835269    8.282361    6.345343
  Au     4.510296   10.013361    8.086156
  Au     7.193365   10.406924    7.799612
  Au     7.792411    6.209643    9.841122
  Au     9.131703    5.325674    7.640959
  Au     9.309367    4.476808    5.151521
  Au    10.313044    7.407385    9.026774
  Au     9.785036    9.886023    8.116108
  Au     7.489921    6.424161    5.537437
  Mn     8.053897    7.870895    7.721502

 Total Charge           Charge          ....    0
 Multiplicity           Mult            ....    6
 Number of Electrons    NEL             ....  215
 Basis Dimension        Dim             ....  445

ORBITAL ENERGIES
----------------

  NO   OCC          E(Eh)            E(eV)
   0   2.0000    -240.544619     -6545.5518
   1   2.0000     -29.123553      -792.4922
   2   2.0000     -24.828319      -675.6129
   3   2.0000     -24.828261      -675.6113
   4   2.0000     -24.827682      -675.5956
   5   2.0000      -4.723792      -128.5409
   6   2.0000      -4.715210      -128.3074
   7   2.0000      -4.714664      -128.2925
   8   2.0000      -4.712778      -128.2412
   9   2.0000      -4.708406      -128.1222
  10   2.0000      -4.706831      -128.0794
  11   2.0000      -4.706563      -128.0721
  12   2.0000      -4.706394      -128.0675
  13   2.0000      -4.703276      -127.9827
  14   2.0000      -4.687808      -127.5617
  15   2.0000      -3.829020      -104.1929
  16   2.0000      -2.764587       -75.2282
  17   2.0000      -2.761847       -75.1537
  18   2.0000      -2.756836       -75.0173
  19   2.0000      -2.756759       -75.0152
  20   2.0000      -2.753793       -74.9345
  21   2.0000      -2.751648       -74.8761
  22   2.0000      -2.751452       -74.8708
  23   2.0000      -2.751129       -74.8620
  24   2.0000      -2.749747       -74.8244
  25   2.0000      -2.748444       -74.7890
  26   2.0000      -2.747942       -74.7753
  27   2.0000      -2.745870       -74.7189
  28   2.0000      -2.745629       -74.7124
  29   2.0000      -2.745083       -74.6975
  30   2.0000      -2.744301       -74.6762
  31   2.0000      -2.743996       -74.6679
  32   2.0000      -2.742796       -74.6353
  33   2.0000      -2.742342       -74.6229
  34   2.0000      -2.741312       -74.5949
  35   2.0000      -2.740491       -74.5725
  36   2.0000      -2.740134       -74.5628
  37   2.0000      -2.739094       -74.5345
  38   2.0000      -2.738384       -74.5152
  39   2.0000      -2.737469       -74.4903
  40   2.0000      -2.736981       -74.4770
  41   2.0000      -2.735543       -74.4379
  42   2.0000      -2.733760       -74.3894
  43   2.0000      -2.725211       -74.1568
  44   2.0000      -2.722347       -74.0788
  45   2.0000      -2.719462       -74.0003
  46   2.0000      -2.497543       -67.9616
  47   2.0000      -2.495874       -67.9162
  48   2.0000      -2.495315       -67.9010
  49   2.0000      -0.560625       -15.2554
  50   2.0000      -0.558223       -15.1900
  51   2.0000      -0.550761       -14.9870
  52   2.0000      -0.545153       -14.8344
  53   2.0000      -0.541262       -14.7285
  54   2.0000      -0.535150       -14.5622
  55   2.0000      -0.532206       -14.4821
  56   2.0000      -0.530743       -14.4423
  57   2.0000      -0.526975       -14.3397
  58   2.0000      -0.525169       -14.2906
  59   2.0000      -0.517280       -14.0759
  60   2.0000      -0.515373       -14.0240
  61   2.0000      -0.510520       -13.8920
  62   2.0000      -0.509894       -13.8749
  63   2.0000      -0.508007       -13.8236
  64   2.0000      -0.503799       -13.7091
  65   2.0000      -0.500401       -13.6166
  66   2.0000      -0.497207       -13.5297
  67   2.0000      -0.495553       -13.4847
  68   2.0000      -0.491937       -13.3863
  69   2.0000      -0.484418       -13.1817
  70   2.0000      -0.482300       -13.1240
  71   2.0000      -0.472984       -12.8705
  72   2.0000      -0.471789       -12.8380
  73   2.0000      -0.469790       -12.7836
  74   2.0000      -0.467535       -12.7223
  75   2.0000      -0.464693       -12.6449
  76   2.0000      -0.461682       -12.5630
  77   2.0000      -0.459550       -12.5050
  78   2.0000      -0.458402       -12.4738
  79   2.0000      -0.453829       -12.3493
  80   2.0000      -0.452896       -12.3239
  81   2.0000      -0.451881       -12.2963
  82   2.0000      -0.450207       -12.2508
  83   2.0000      -0.448855       -12.2140
  84   2.0000      -0.446556       -12.1514
  85   2.0000      -0.444204       -12.0874
  86   2.0000      -0.441932       -12.0256
  87   2.0000      -0.440375       -11.9832
  88   2.0000      -0.436171       -11.8688
  89   2.0000      -0.433912       -11.8073
  90   2.0000      -0.432648       -11.7729
  91   2.0000      -0.430663       -11.7189
  92   2.0000      -0.428316       -11.6551
  93   2.0000      -0.422714       -11.5026
  94   2.0000      -0.421289       -11.4639
  95   2.0000      -0.415904       -11.3173
  96   2.0000      -0.411638       -11.2012
  97   2.0000      -0.404782       -11.0147
  98   2.0000      -0.400572       -10.9001
  99   2.0000      -0.382918       -10.4197
 100   2.0000      -0.360803        -9.8180
 101   2.0000      -0.329724        -8.9722
 102   2.0000      -0.297527        -8.0961
 103   2.0000      -0.250023        -6.8035
 104   2.0000      -0.225043        -6.1237
 105   1.0000      -0.142953        -3.8900
 106   1.0000      -0.147471        -4.0129
 107   1.0000      -0.150341        -4.0910
 108   1.0000      -0.145992        -3.9726
 109   1.0000      -0.147540        -4.0148
 110   0.0000      -0.039410        -1.0724
 111   0.0000      -0.005124        -0.1394
 112   0.0000       0.002547         0.0693
 113   0.0000       0.008496         0.2312
 114   0.0000       0.027066         0.7365

MULLIKEN ATOMIC CHARGES AND SPIN DENSITIES
------------------------------------------
   0 Au:   -0.141189    0.011644
   1 Au:    0.080298    0.012280
   2 Au:    0.334102    0.004059
   3 Au:    0.053788    0.009940
   4 Au:    0.305621    0.008700
   5 Au:   -0.203563    0.009005
   6 Au:    0.376416    0.003104
   7 Au:    0.165300    0.012486
   8 Au:    0.193625    0.010079
   9 Au:   -0.180839    0.010081
  10 Mn:   -0.983560    3.908622
Sum of atomic charges       :    0.0000000

LOEWDIN ATOMIC CHARGES AND SPIN DENSITIES
-----------------------------------------
   0 Au:   -0.073199    0.015675
   1 Au:   -0.066911    0.016953
   2 Au:    0.130056    0.004834
   3 Au:   -0.041108    0.014875
   4 Au:    0.043210    0.013802
   5 Au:   -0.134947    0.012826
   6 Au:    0.113509    0.003874
   7 Au:    0.033514    0.016433
   8 Au:    0.099567    0.015505
   9 Au:   -0.072836    0.015968
  10 Mn:   -0.030855    3.869255

  Mayer bond orders larger than 0.100000
B(  0-Au,  1-Au) :   0.1123 B(  0-Au,  2-Au) :   0.3095 B(  0-Au,  3-Au) :   0.1952
B(  0-Au,  4-Au) :   0.5489 B(  0-Au, 10-Mn) :   0.4495 B(  1-Au,  2-Au) :   0.2576
B(  1-Au,  3-Au) :   0.1461 B(  1-Au,  9-Au) :   0.4714 B(  1-Au, 10-Mn) :   0.5063
B(  2-Au,  3-Au) :   0.3851 B(  3-Au,  8-Au) :   0.5096 B(  3-Au, 10-Mn) :   0.3867
B(  4-Au,  5-Au) :   0.1417 B(  4-Au, 10-Mn) :   0.3915 B(  5-Au,  6-Au) :   0.5468
B(  5-Au,  7-Au) :   0.3979 B(  5-Au,  9-Au) :   0.3741 B(  5-Au, 10-Mn) :   0.3185
B(  6-Au,  9-Au) :   0.4154 B(  7-Au, 10-Mn) :   0.5095 B(  8-Au, 10-Mn) :   0.4772
B(  9-Au, 10-Mn) :   0.5581

FINAL SINGLE POINT ENERGY     -2502.890109703904

DIPOLE MOMENT
-------------
                                X             Y             Z
Electronic contribution:    -11.60229      -7.67623      -1.02779
Nuclear contribution   :     11.91264       8.16045       1.27370
                        -----------------------------------------
Total Dipole Moment    :      0.31036       0.48422       0.24591
                        -----------------------------------------
Magnitude (a.u.)       :      0.62551
Magnitude (Debye)      :      1.58992

Rotational constants in cm-1:     0.002112     0.001264     0.001095
Rotational constants in MHz :    63.302329    37.879992    32.815708

                             ****ORCA TERMINATED NORMALLY****
TOTAL RUN TIME: 0 days 0 hours 31 minutes 51 seconds 164 msec
