                         Program Version 5.0.3 -  RELEASE  -
|  1> %pal nprocs 1 end
|  2>
|  3> !PBE def2-TZVP OPT UNO
|  4> !SLOWCONV
|  5>
|  6> *xyzfile 0 5 3.xyz                           ****END OF INPUT****
 Total Charge           Charge          ....    0
 Multiplicity           Mult            ....    5
 Number of Electrons    NEL             ....  330
FINAL SINGLE POINT ENERGY     -3436.752150371425
FINAL SINGLE POINT ENERGY     -3436.755216016539
FINAL SINGLE POINT ENERGY     -3436.755956856771
FINAL SINGLE POINT ENERGY     -3436.756601771475
FINAL SINGLE POINT ENERGY     -3436.757445172751
FINAL SINGLE POINT ENERGY     -3436.758173715454
FINAL SINGLE POINT ENERGY     -3436.758758576608
FINAL SINGLE POINT ENERGY     -3436.759207827972
FINAL SINGLE POINT ENERGY     -3436.759527694320
FINAL SINGLE POINT ENERGY     -3436.759743649828
FINAL SINGLE POINT ENERGY     -3436.760218369390
FINAL SINGLE POINT ENERGY     -3436.760231937037
FINAL SINGLE POINT ENERGY     -3436.760243647193
FINAL SINGLE POINT ENERGY     -3436.760254258703
FINAL SINGLE POINT ENERGY     -3436.760264029352
FINAL SINGLE POINT ENERGY     -3436.760272272667
FINAL SINGLE POINT ENERGY     -3436.760280199173
FINAL SINGLE POINT ENERGY     -3436.760285319524
FINAL SINGLE POINT ENERGY     -3436.760288710040
                    ***********************HURRAY********************

CARTESIAN COORDINATES (ANGSTROEM)
---------------------------------
  Au     8.993030    6.831322    6.745189
  Au     9.459792    9.259576    8.133542
  Au     7.208438    6.995974    4.620635
  Au     7.074161    4.892213    6.403860
  Au     4.645522    6.036365    5.299367
  Au     5.136752    8.771308    5.299034
  Au     7.780183    9.373820    5.972783
  Au     4.661553    4.770732    7.765149
  Au     5.679394   10.177735    7.604011
  Au     9.301246    6.843089    9.503215
  Au     7.422329   10.066397    9.843918
  Au     4.600815    6.247581   10.083967
  Au     4.837534    8.985926    9.943018
  Au     7.010921    7.435692   10.960718
  Au     7.087361    5.262911    9.111674
  Au     4.231733    7.587705    7.626238
  Fe     7.018469    7.897037    8.282390

 Multiplicity           Mult            ....    5
 Number of Electrons    NEL             ....  330
 Basis Dimension        Dim             ....  685

ORBITAL ENERGIES
----------------
                 SPIN UP ORBITALS
  NO   OCC          E(Eh)            E(eV)
   0   1.0000    -254.763946     -6932.4794
   1   1.0000     -29.599379      -805.4400
   2   1.0000     -25.543605      -695.0768
   3   1.0000     -25.537131      -694.9007
   4   1.0000     -25.523005      -694.5163
   5   1.0000      -4.039388      -109.9173
   6   1.0000      -4.038821      -109.9019
   7   1.0000      -4.037380      -109.8627
   8   1.0000      -4.035861      -109.8214
   9   1.0000      -4.035584      -109.8138
  10   1.0000      -4.035403      -109.8089
  11   1.0000      -4.032633      -109.7335
  12   1.0000      -4.031303      -109.6973
  13   1.0000      -4.030623      -109.6788
  14   1.0000      -4.028395      -109.6182
  15   1.0000      -4.027143      -109.5841
  16   1.0000      -4.026874      -109.5768
  17   1.0000      -4.025757      -109.5464
  18   1.0000      -4.023343      -109.4807
  19   1.0000      -4.022831      -109.4668
  20   1.0000      -4.019899      -109.3870
  21   1.0000      -3.381181       -92.0066
  22   1.0000      -2.255178       -61.3665
  23   1.0000      -2.254573       -61.3501
  24   1.0000      -2.253373       -61.3174
  25   1.0000      -2.251917       -61.2778
  26   1.0000      -2.251533       -61.2673
  27   1.0000      -2.251278       -61.2604
  28   1.0000      -2.251262       -61.2600
  29   1.0000      -2.250679       -61.2441
  30   1.0000      -2.250007       -61.2258
  31   1.0000      -2.249813       -61.2205
  32   1.0000      -2.249626       -61.2154
  33   1.0000      -2.249318       -61.2071
  34   1.0000      -2.249031       -61.1993
  35   1.0000      -2.248253       -61.1781
  36   1.0000      -2.247533       -61.1585
  37   1.0000      -2.247296       -61.1520
  38   1.0000      -2.246810       -61.1388
  39   1.0000      -2.246344       -61.1261
  40   1.0000      -2.245518       -61.1036
  41   1.0000      -2.245348       -61.0990
  42   1.0000      -2.245046       -61.0908
  43   1.0000      -2.244718       -61.0819
  44   1.0000      -2.244007       -61.0625
  45   1.0000      -2.243865       -61.0587
  46   1.0000      -2.243823       -61.0575
  47   1.0000      -2.243565       -61.0505
  48   1.0000      -2.242894       -61.0322
  49   1.0000      -2.242434       -61.0197
  50   1.0000      -2.242222       -61.0140
  51   1.0000      -2.241209       -60.9864
  52   1.0000      -2.241058       -60.9823
  53   1.0000      -2.240362       -60.9634
  54   1.0000      -2.240321       -60.9622
  55   1.0000      -2.240097       -60.9561
  56   1.0000      -2.239330       -60.9353
  57   1.0000      -2.239022       -60.9269
  58   1.0000      -2.238616       -60.9158
  59   1.0000      -2.237863       -60.8954
  60   1.0000      -2.237592       -60.8880
  61   1.0000      -2.237240       -60.8784
  62   1.0000      -2.236803       -60.8665
  63   1.0000      -2.236259       -60.8517
  64   1.0000      -2.235892       -60.8417
  65   1.0000      -2.234503       -60.8039
  66   1.0000      -2.233119       -60.7662
  67   1.0000      -2.232199       -60.7412
  68   1.0000      -2.231244       -60.7152
  69   1.0000      -2.229262       -60.6613
  70   1.0000      -2.213251       -60.2256
  71   1.0000      -2.200308       -59.8734
  72   1.0000      -2.171207       -59.0816
  73   1.0000      -0.437495       -11.9048
  74   1.0000      -0.396714       -10.7951
  75   1.0000      -0.393096       -10.6967
  76   1.0000      -0.392431       -10.6786
  77   1.0000      -0.382038       -10.3958
  78   1.0000      -0.378535       -10.3005
  79   1.0000      -0.376778       -10.2526
  80   1.0000      -0.371054       -10.0969
  81   1.0000      -0.370309       -10.0766
  82   1.0000      -0.365566        -9.9476
  83   1.0000      -0.365083        -9.9344
  84   1.0000      -0.364290        -9.9128
  85   1.0000      -0.361717        -9.8428
  86   1.0000      -0.361263        -9.8305
  87   1.0000      -0.359348        -9.7784
  88   1.0000      -0.357662        -9.7325
  89   1.0000      -0.355607        -9.6765
  90   1.0000      -0.355127        -9.6635
  91   1.0000      -0.353736        -9.6256
  92   1.0000      -0.351796        -9.5729
  93   1.0000      -0.350360        -9.5338
  94   1.0000      -0.347789        -9.4638
  95   1.0000      -0.344037        -9.3617
  96   1.0000      -0.343867        -9.3571
  97   1.0000      -0.343075        -9.3355
  98   1.0000      -0.342592        -9.3224
  99   1.0000      -0.339194        -9.2299
 100   1.0000      -0.335801        -9.1376
 101   1.0000      -0.332592        -9.0503
 102   1.0000      -0.331693        -9.0258
 103   1.0000      -0.328988        -8.9522
 104   1.0000      -0.327471        -8.9109
 105   1.0000      -0.325665        -8.8618
 106   1.0000      -0.322409        -8.7732
 107   1.0000      -0.320632        -8.7248
 108   1.0000      -0.318090        -8.6557
 109   1.0000      -0.315588        -8.5876
 110   1.0000      -0.314488        -8.5577
 111   1.0000      -0.312915        -8.5149
 112   1.0000      -0.311322        -8.4715
 113   1.0000      -0.309021        -8.4089
 114   1.0000      -0.304299        -8.2804
 115   1.0000      -0.303370        -8.2551
 116   1.0000      -0.301261        -8.1977
 117   1.0000      -0.300077        -8.1655
 118   1.0000      -0.296707        -8.0738
 119   1.0000      -0.294718        -8.0197
 120   1.0000      -0.291261        -7.9256
 121   1.0000      -0.289394        -7.8748
 122   1.0000      -0.287062        -7.8113
 123   1.0000      -0.285308        -7.7636
 124   1.0000      -0.285091        -7.7577
 125   1.0000      -0.281367        -7.6564
 126   1.0000      -0.280385        -7.6297
 127   1.0000      -0.279471        -7.6048
 128   1.0000      -0.276009        -7.5106
 129   1.0000      -0.274972        -7.4824
 130   1.0000      -0.272563        -7.4168
 131   1.0000      -0.271785        -7.3956
 132   1.0000      -0.270847        -7.3701
 133   1.0000      -0.269825        -7.3423
 134   1.0000      -0.268637        -7.3100
 135   1.0000      -0.266613        -7.2549
 136   1.0000      -0.266055        -7.2397
 137   1.0000      -0.265018        -7.2115
 138   1.0000      -0.263906        -7.1813
 139   1.0000      -0.262889        -7.1536
 140   1.0000      -0.262391        -7.1400
 141   1.0000      -0.261284        -7.1099
 142   1.0000      -0.260791        -7.0965
 143   1.0000      -0.260487        -7.0882
 144   1.0000      -0.258782        -7.0418
 145   1.0000      -0.257820        -7.0156
 146   1.0000      -0.255837        -6.9617
 147   1.0000      -0.254489        -6.9250
 148   1.0000      -0.254432        -6.9235
 149   1.0000      -0.253175        -6.8892
 150   1.0000      -0.251918        -6.8551
 151   1.0000      -0.251702        -6.8492
 152   1.0000      -0.250225        -6.8090
 153   1.0000      -0.249004        -6.7757
 154   1.0000      -0.248301        -6.7566
 155   1.0000      -0.247003        -6.7213
 156   1.0000      -0.245574        -6.6824
 157   1.0000      -0.244257        -6.6466
 158   1.0000      -0.243067        -6.6142
 159   1.0000      -0.242089        -6.5876
 160   1.0000      -0.240290        -6.5386
 161   1.0000      -0.231543        -6.3006
 162   1.0000      -0.221738        -6.0338
 163   1.0000      -0.218236        -5.9385
 164   1.0000      -0.216528        -5.8920
 165   1.0000      -0.209045        -5.6884
 166   1.0000      -0.204146        -5.5551
 167   0.0000      -0.153564        -4.1787
 168   0.0000      -0.146646        -3.9904
 169   0.0000      -0.139296        -3.7904
 170   0.0000      -0.133916        -3.6440
 171   0.0000      -0.133277        -3.6267

                 SPIN DOWN ORBITALS
  NO   OCC          E(Eh)            E(eV)
   0   1.0000    -254.763261     -6932.4608
   1   1.0000     -29.539251      -803.8039
   2   1.0000     -25.494321      -693.7358
   3   1.0000     -25.490584      -693.6341
   4   1.0000     -25.482677      -693.4189
   5   1.0000      -4.038456      -109.8920
   6   1.0000      -4.037822      -109.8747
   7   1.0000      -4.036589      -109.8412
   8   1.0000      -4.035401      -109.8088
   9   1.0000      -4.035242      -109.8045
  10   1.0000      -4.034558      -109.7859
  11   1.0000      -4.031950      -109.7149
  12   1.0000      -4.030751      -109.6823
  13   1.0000      -4.030032      -109.6627
  14   1.0000      -4.027853      -109.6035
  15   1.0000      -4.026975      -109.5796
  16   1.0000      -4.026805      -109.5749
  17   1.0000      -4.025610      -109.5424
  18   1.0000      -4.023217      -109.4773
  19   1.0000      -4.022722      -109.4638
  20   1.0000      -4.019815      -109.3847
  21   1.0000      -3.244106       -88.2766
  22   1.0000      -2.254118       -61.3377
  23   1.0000      -2.253484       -61.3204
  24   1.0000      -2.252665       -61.2981
  25   1.0000      -2.251512       -61.2668
  26   1.0000      -2.250349       -61.2351
  27   1.0000      -2.250286       -61.2334
  28   1.0000      -2.249947       -61.2242
  29   1.0000      -2.249686       -61.2171
  30   1.0000      -2.249443       -61.2105
  31   1.0000      -2.249258       -61.2054
  32   1.0000      -2.248707       -61.1904
  33   1.0000      -2.248554       -61.1863
  34   1.0000      -2.248215       -61.1770
  35   1.0000      -2.247545       -61.1588
  36   1.0000      -2.247056       -61.1455
  37   1.0000      -2.246623       -61.1337
  38   1.0000      -2.246307       -61.1251
  39   1.0000      -2.245732       -61.1095
  40   1.0000      -2.244941       -61.0880
  41   1.0000      -2.244589       -61.0784
  42   1.0000      -2.244404       -61.0733
  43   1.0000      -2.243894       -61.0595
  44   1.0000      -2.243595       -61.0513
  45   1.0000      -2.243441       -61.0471
  46   1.0000      -2.243145       -61.0391
  47   1.0000      -2.242881       -61.0319
  48   1.0000      -2.242301       -61.0161
  49   1.0000      -2.242035       -61.0089
  50   1.0000      -2.241887       -61.0048
  51   1.0000      -2.241009       -60.9810
  52   1.0000      -2.240497       -60.9670
  53   1.0000      -2.240178       -60.9583
  54   1.0000      -2.239922       -60.9514
  55   1.0000      -2.239719       -60.9459
  56   1.0000      -2.239127       -60.9297
  57   1.0000      -2.238556       -60.9142
  58   1.0000      -2.238437       -60.9110
  59   1.0000      -2.237745       -60.8921
  60   1.0000      -2.237455       -60.8842
  61   1.0000      -2.237085       -60.8742
  62   1.0000      -2.236661       -60.8627
  63   1.0000      -2.236136       -60.8484
  64   1.0000      -2.235767       -60.8383
  65   1.0000      -2.234396       -60.8010
  66   1.0000      -2.233003       -60.7631
  67   1.0000      -2.232114       -60.7389
  68   1.0000      -2.231165       -60.7131
  69   1.0000      -2.229205       -60.6597
  70   1.0000      -2.067380       -56.2563
  71   1.0000      -2.063421       -56.1485
  72   1.0000      -2.051314       -55.8191
  73   1.0000      -0.432976       -11.7819
  74   1.0000      -0.395349       -10.7580
  75   1.0000      -0.391765       -10.6605
  76   1.0000      -0.390508       -10.6263
  77   1.0000      -0.375667       -10.2224
  78   1.0000      -0.372509       -10.1365
  79   1.0000      -0.370665       -10.0863
  80   1.0000      -0.368148       -10.0178
  81   1.0000      -0.366814        -9.9815
  82   1.0000      -0.364568        -9.9204
  83   1.0000      -0.363124        -9.8811
  84   1.0000      -0.362237        -9.8570
  85   1.0000      -0.359868        -9.7925
  86   1.0000      -0.358889        -9.7659
  87   1.0000      -0.355417        -9.6714
  88   1.0000      -0.354837        -9.6556
  89   1.0000      -0.354251        -9.6396
  90   1.0000      -0.353686        -9.6243
  91   1.0000      -0.351375        -9.5614
  92   1.0000      -0.349848        -9.5198
  93   1.0000      -0.348382        -9.4799
  94   1.0000      -0.345785        -9.4093
  95   1.0000      -0.343401        -9.3444
  96   1.0000      -0.343027        -9.3342
  97   1.0000      -0.342268        -9.3136
  98   1.0000      -0.340980        -9.2785
  99   1.0000      -0.337523        -9.1845
 100   1.0000      -0.333783        -9.0827
 101   1.0000      -0.331512        -9.0209
 102   1.0000      -0.330832        -9.0024
 103   1.0000      -0.326499        -8.8845
 104   1.0000      -0.325175        -8.8485
 105   1.0000      -0.324539        -8.8312
 106   1.0000      -0.321508        -8.7487
 107   1.0000      -0.317199        -8.6314
 108   1.0000      -0.313603        -8.5336
 109   1.0000      -0.311392        -8.4734
 110   1.0000      -0.307162        -8.3583
 111   1.0000      -0.306873        -8.3504
 112   1.0000      -0.303944        -8.2707
 113   1.0000      -0.302451        -8.2301
 114   1.0000      -0.301512        -8.2046
 115   1.0000      -0.298789        -8.1305
 116   1.0000      -0.295458        -8.0398
 117   1.0000      -0.294654        -8.0180
 118   1.0000      -0.293979        -7.9996
 119   1.0000      -0.291442        -7.9305
 120   1.0000      -0.287399        -7.8205
 121   1.0000      -0.285558        -7.7704
 122   1.0000      -0.284540        -7.7427
 123   1.0000      -0.282817        -7.6958
 124   1.0000      -0.281586        -7.6623
 125   1.0000      -0.280177        -7.6240
 126   1.0000      -0.278830        -7.5874
 127   1.0000      -0.277040        -7.5386
 128   1.0000      -0.273895        -7.4531
 129   1.0000      -0.271593        -7.3904
 130   1.0000      -0.270152        -7.3512
 131   1.0000      -0.269896        -7.3442
 132   1.0000      -0.268280        -7.3003
 133   1.0000      -0.266998        -7.2654
 134   1.0000      -0.265891        -7.2353
 135   1.0000      -0.264687        -7.2025
 136   1.0000      -0.263552        -7.1716
 137   1.0000      -0.262792        -7.1509
 138   1.0000      -0.261599        -7.1185
 139   1.0000      -0.260066        -7.0767
 140   1.0000      -0.258910        -7.0453
 141   1.0000      -0.258082        -7.0228
 142   1.0000      -0.257113        -6.9964
 143   1.0000      -0.254427        -6.9233
 144   1.0000      -0.253893        -6.9088
 145   1.0000      -0.253534        -6.8990
 146   1.0000      -0.251716        -6.8495
 147   1.0000      -0.251035        -6.8310
 148   1.0000      -0.250206        -6.8085
 149   1.0000      -0.249237        -6.7821
 150   1.0000      -0.247998        -6.7484
 151   1.0000      -0.246204        -6.6995
 152   1.0000      -0.245124        -6.6702
 153   1.0000      -0.243984        -6.6391
 154   1.0000      -0.242265        -6.5924
 155   1.0000      -0.240292        -6.5387
 156   1.0000      -0.231244        -6.2925
 157   1.0000      -0.224633        -6.1126
 158   1.0000      -0.222828        -6.0635
 159   1.0000      -0.220691        -6.0053
 160   1.0000      -0.215016        -5.8509
 161   1.0000      -0.212123        -5.7721
 162   1.0000      -0.182945        -4.9782
 163   0.0000      -0.170853        -4.6491
 164   0.0000      -0.169422        -4.6102
 165   0.0000      -0.158724        -4.3191
 166   0.0000      -0.155617        -4.2345
 167   0.0000      -0.146881        -3.9968

MULLIKEN ATOMIC CHARGES AND SPIN POPULATIONS
--------------------------------------------
   0 Au:    0.005814    0.081614
   1 Au:    0.329549    0.050050
   2 Au:    0.161162    0.044403
   3 Au:    0.071512    0.043597
   4 Au:    0.195728   -0.032530
   5 Au:    0.237019    0.039510
   6 Au:    0.060312    0.067866
   7 Au:    0.190218    0.039318
   8 Au:    0.161949    0.069617
   9 Au:    0.324263    0.045096
  10 Au:    0.321200    0.043865
  11 Au:    0.198925    0.048052
  12 Au:    0.317790    0.044177
  13 Au:    0.232780    0.055476
  14 Au:   -0.119861    0.083136
  15 Au:   -0.523111    0.075892
  16 Fe:   -2.165249    3.200860
Sum of atomic charges         :   -0.0000000

LOEWDIN ATOMIC CHARGES AND SPIN POPULATIONS
-------------------------------------------
   0 Au:    0.008992    0.066430
   1 Au:    0.078364    0.039922
   2 Au:    0.004062    0.034979
   3 Au:   -0.009209    0.033876
   4 Au:    0.012123   -0.001147
   5 Au:    0.014605    0.036093
   6 Au:    0.013919    0.057907
   7 Au:    0.018030    0.036300
   8 Au:    0.043493    0.056795
   9 Au:    0.082477    0.036996
  10 Au:    0.082289    0.029396
  11 Au:    0.028735    0.046151
  12 Au:    0.042246    0.040350
  13 Au:    0.051613    0.049789
  14 Au:   -0.001976    0.068844
  15 Au:   -0.043450    0.048436
  16 Fe:   -0.426312    3.318884

  Mayer bond orders larger than 0.100000
B(  0-Au,  1-Au) :   0.2005 B(  0-Au,  2-Au) :   0.2848 B(  0-Au,  3-Au) :   0.2773
B(  0-Au,  6-Au) :   0.1207 B(  0-Au,  9-Au) :   0.2720 B(  0-Au, 16-Fe) :   0.4748
B(  1-Au,  6-Au) :   0.2766 B(  1-Au,  9-Au) :   0.2072 B(  1-Au, 10-Au) :   0.2415
B(  1-Au, 16-Fe) :   0.3577 B(  2-Au,  3-Au) :   0.2843 B(  2-Au,  4-Au) :   0.2619
B(  2-Au,  5-Au) :   0.2213 B(  2-Au,  6-Au) :   0.3075 B(  2-Au, 16-Fe) :   0.1243
B(  3-Au,  4-Au) :   0.1947 B(  3-Au,  7-Au) :   0.2627 B(  3-Au, 14-Au) :   0.3393
B(  3-Au, 16-Fe) :   0.1880 B(  4-Au,  5-Au) :   0.2782 B(  4-Au,  7-Au) :   0.3092
B(  4-Au, 15-Au) :   0.3473 B(  5-Au,  6-Au) :   0.2459 B(  5-Au,  8-Au) :   0.2966
B(  5-Au, 15-Au) :   0.3570 B(  5-Au, 16-Fe) :   0.1386 B(  6-Au,  8-Au) :   0.1808
B(  6-Au, 16-Fe) :   0.4145 B(  7-Au, 11-Au) :   0.3241 B(  7-Au, 14-Au) :   0.2856
B(  7-Au, 15-Au) :   0.2684 B(  8-Au, 10-Au) :   0.1815 B(  8-Au, 12-Au) :   0.2314
B(  8-Au, 15-Au) :   0.1594 B(  8-Au, 16-Fe) :   0.4703 B(  9-Au, 13-Au) :   0.2184
B(  9-Au, 14-Au) :   0.2616 B(  9-Au, 16-Fe) :   0.3983 B( 10-Au, 12-Au) :   0.1863
B( 10-Au, 13-Au) :   0.1811 B( 10-Au, 16-Fe) :   0.4497 B( 11-Au, 12-Au) :   0.2545
B( 11-Au, 13-Au) :   0.2551 B( 11-Au, 14-Au) :   0.2127 B( 11-Au, 15-Au) :   0.2905
B( 11-Au, 16-Fe) :   0.1681 B( 12-Au, 13-Au) :   0.1541 B( 12-Au, 15-Au) :   0.3492
B( 12-Au, 16-Fe) :   0.3105 B( 13-Au, 14-Au) :   0.1923 B( 13-Au, 16-Fe) :   0.4347
B( 14-Au, 16-Fe) :   0.4588 B( 15-Au, 16-Fe) :   0.4057

FINAL SINGLE POINT ENERGY     -3436.760290865527

DIPOLE MOMENT
-------------
                                X             Y             Z
Electronic contribution:    -16.95075     -16.05776     -17.82581
Nuclear contribution   :     17.13884      16.30043      18.18462
                        -----------------------------------------
Total Dipole Moment    :      0.18810       0.24266       0.35881
                        -----------------------------------------
Magnitude (a.u.)       :      0.47224
Magnitude (Debye)      :      1.20034

Rotational constants in cm-1:     0.000931     0.000832     0.000759
Rotational constants in MHz :    27.899325    24.950991    22.752792

                             ****ORCA TERMINATED NORMALLY****
TOTAL RUN TIME: 0 days 7 hours 45 minutes 51 seconds 439 msec
