                         Program Version 5.0.3 -  RELEASE  -
|  1> !RI-B2PLYP def2-TZVP def2-TZVP/C
|  2> !RIJCOSX VERYSLOWCONV
|  3>
|  4> %scf
|  5>   AutoTRAHIter 200
|  6>   maxiter 400
|  7> end
|  8>
|  9>
| 10> %pal nprocs 6 end
| 11>
| 12> *xyzfile 0 5 pbe.xyz
| 13>
| 14> $new_job
| 15>
| 16> !RI-B2PLYP def2-TZVP def2-TZVP/C
| 17> !RIJCOSX VERYSLOWCONV
| 18>
| 19> %scf
| 20>   AutoTRAHIter 200
| 21>   maxiter 400
| 22> end
| 23>
| 24>
| 25> %pal nprocs 6 end
| 26>
| 27> *xyzfile 0 3 pbe.xyz
| 28>
| 29>
| 30>
| 31>
| 32>
| 33>                          ****END OF INPUT****
 Total Charge           Charge          ....    0
 Multiplicity           Mult            ....    5
 Number of Electrons    NEL             ....  254
MP2 TOTAL ENERGY:    -2890.543286109 Eh
FINAL SINGLE POINT ENERGY     -2890.543286109210

CARTESIAN COORDINATES (ANGSTROEM)
---------------------------------
  Au     7.221887    5.093497    9.176052
  Au     9.672516    4.843526   10.476512
  Au     6.884466    7.342379    7.556069
  Au     9.552865    4.709874    7.689469
  Au     9.321348    7.346444   11.643546
  Au    11.566009    6.598246    7.262665
  Au    11.555516    6.861887   10.041858
  Au     8.888209    9.490515    9.908496
  Au    11.217908    9.108767    8.419239
  Au     8.767218    9.358625    7.121098
  Au     9.119367    6.854428    5.956148
  Au     6.874363    7.602012   10.336425
  Fe     9.219478    7.100242    8.800503

 Multiplicity           Mult            ....    3
 Number of Electrons    NEL             ....  254
 Basis Dimension        Dim             ....  525

ORBITAL ENERGIES
----------------
                 SPIN UP ORBITALS
  NO   OCC          E(Eh)            E(eV)
   0   1.0000    -258.338093     -7029.7369
   1   1.0000     -30.896610      -840.7395
   2   1.0000     -26.605617      -723.9757
   3   1.0000     -26.602861      -723.9006
   4   1.0000     -26.576521      -723.1839
   5   1.0000      -4.404484      -119.8521
   6   1.0000      -4.404448      -119.8511
   7   1.0000      -4.404420      -119.8504
   8   1.0000      -4.404416      -119.8502
   9   1.0000      -4.390578      -119.4737
  10   1.0000      -4.390552      -119.4730
  11   1.0000      -4.390503      -119.4717
  12   1.0000      -4.390480      -119.4710
  13   1.0000      -4.390256      -119.4649
  14   1.0000      -4.390214      -119.4638
  15   1.0000      -4.390134      -119.4616
  16   1.0000      -4.390114      -119.4611
  17   1.0000      -3.907123      -106.3182
  18   1.0000      -2.637833       -71.7791
  19   1.0000      -2.632206       -71.6260
  20   1.0000      -2.577694       -70.1426
  21   1.0000      -2.525823       -68.7312
  22   1.0000      -2.525665       -68.7268
  23   1.0000      -2.525623       -68.7257
  24   1.0000      -2.525605       -68.7252
  25   1.0000      -2.523190       -68.6595
  26   1.0000      -2.523075       -68.6564
  27   1.0000      -2.523051       -68.6557
  28   1.0000      -2.523008       -68.6546
  29   1.0000      -2.519856       -68.5688
  30   1.0000      -2.519709       -68.5648
  31   1.0000      -2.519695       -68.5644
  32   1.0000      -2.519504       -68.5592
  33   1.0000      -2.510296       -68.3086
  34   1.0000      -2.510141       -68.3044
  35   1.0000      -2.509804       -68.2953
  36   1.0000      -2.509710       -68.2927
  37   1.0000      -2.509638       -68.2907
  38   1.0000      -2.509566       -68.2888
  39   1.0000      -2.509455       -68.2857
  40   1.0000      -2.509025       -68.2740
  41   1.0000      -2.508339       -68.2554
  42   1.0000      -2.507939       -68.2445
  43   1.0000      -2.507672       -68.2372
  44   1.0000      -2.507666       -68.2371
  45   1.0000      -2.507227       -68.2251
  46   1.0000      -2.507224       -68.2250
  47   1.0000      -2.506620       -68.2086
  48   1.0000      -2.506356       -68.2014
  49   1.0000      -2.504975       -68.1638
  50   1.0000      -2.504678       -68.1557
  51   1.0000      -2.504366       -68.1473
  52   1.0000      -2.504318       -68.1459
  53   1.0000      -2.504171       -68.1420
  54   1.0000      -2.504136       -68.1410
  55   1.0000      -2.503631       -68.1273
  56   1.0000      -2.503515       -68.1241
  57   1.0000      -0.558005       -15.1841
  58   1.0000      -0.554035       -15.0761
  59   1.0000      -0.541043       -14.7225
  60   1.0000      -0.539294       -14.6749
  61   1.0000      -0.511952       -13.9309
  62   1.0000      -0.494420       -13.4539
  63   1.0000      -0.463924       -12.6240
  64   1.0000      -0.461223       -12.5505
  65   1.0000      -0.459483       -12.5032
  66   1.0000      -0.454610       -12.3706
  67   1.0000      -0.454530       -12.3684
  68   1.0000      -0.448778       -12.2119
  69   1.0000      -0.448531       -12.2052
  70   1.0000      -0.448388       -12.2013
  71   1.0000      -0.442733       -12.0474
  72   1.0000      -0.442683       -12.0460
  73   1.0000      -0.437627       -11.9084
  74   1.0000      -0.436954       -11.8901
  75   1.0000      -0.436542       -11.8789
  76   1.0000      -0.434964       -11.8360
  77   1.0000      -0.433310       -11.7910
  78   1.0000      -0.429082       -11.6759
  79   1.0000      -0.426855       -11.6153
  80   1.0000      -0.424050       -11.5390
  81   1.0000      -0.423662       -11.5284
  82   1.0000      -0.422403       -11.4942
  83   1.0000      -0.422098       -11.4859
  84   1.0000      -0.418982       -11.4011
  85   1.0000      -0.417288       -11.3550
  86   1.0000      -0.411294       -11.1919
  87   1.0000      -0.410873       -11.1804
  88   1.0000      -0.410531       -11.1711
  89   1.0000      -0.410228       -11.1629
  90   1.0000      -0.405364       -11.0305
  91   1.0000      -0.395806       -10.7704
  92   1.0000      -0.393486       -10.7073
  93   1.0000      -0.392903       -10.6914
  94   1.0000      -0.378711       -10.3052
  95   1.0000      -0.378208       -10.2916
  96   1.0000      -0.378014       -10.2863
  97   1.0000      -0.370629       -10.0853
  98   1.0000      -0.370604       -10.0847
  99   1.0000      -0.370356       -10.0779
 100   1.0000      -0.369927       -10.0662
 101   1.0000      -0.369782       -10.0623
 102   1.0000      -0.367412        -9.9978
 103   1.0000      -0.365808        -9.9542
 104   1.0000      -0.364133        -9.9086
 105   1.0000      -0.358350        -9.7512
 106   1.0000      -0.356584        -9.7031
 107   1.0000      -0.356439        -9.6992
 108   1.0000      -0.353312        -9.6141
 109   1.0000      -0.350660        -9.5419
 110   1.0000      -0.348710        -9.4889
 111   1.0000      -0.345955        -9.4139
 112   1.0000      -0.345217        -9.3938
 113   1.0000      -0.345086        -9.3903
 114   1.0000      -0.343029        -9.3343
 115   1.0000      -0.340953        -9.2778
 116   1.0000      -0.340662        -9.2699
 117   1.0000      -0.338553        -9.2125
 118   1.0000      -0.338317        -9.2061
 119   1.0000      -0.337055        -9.1717
 120   1.0000      -0.336776        -9.1641
 121   1.0000      -0.330989        -9.0067
 122   1.0000      -0.307854        -8.3771
 123   1.0000      -0.303204        -8.2506
 124   1.0000      -0.291877        -7.9424
 125   1.0000      -0.291254        -7.9254
 126   1.0000      -0.213306        -5.8043
 127   1.0000      -0.212990        -5.7958
 128   0.0000      -0.131176        -3.5695
 129   0.0000      -0.103696        -2.8217
 130   0.0000      -0.098031        -2.6676
 131   0.0000      -0.067100        -1.8259
 132   0.0000      -0.031301        -0.8517

                 SPIN DOWN ORBITALS
  NO   OCC          E(Eh)            E(eV)
   0   1.0000    -258.336110     -7029.6829
   1   1.0000     -30.804208      -838.2251
   2   1.0000     -26.513824      -721.4778
   3   1.0000     -26.513065      -721.4572
   4   1.0000     -26.504924      -721.2356
   5   1.0000      -4.404643      -119.8564
   6   1.0000      -4.404608      -119.8555
   7   1.0000      -4.404583      -119.8548
   8   1.0000      -4.404578      -119.8547
   9   1.0000      -4.391270      -119.4925
  10   1.0000      -4.391246      -119.4919
  11   1.0000      -4.391175      -119.4899
  12   1.0000      -4.391155      -119.4894
  13   1.0000      -4.391006      -119.4853
  14   1.0000      -4.390967      -119.4843
  15   1.0000      -4.390875      -119.4818
  16   1.0000      -4.390856      -119.4813
  17   1.0000      -3.664599       -99.7188
  18   1.0000      -2.524642       -68.6990
  19   1.0000      -2.524608       -68.6981
  20   1.0000      -2.524584       -68.6974
  21   1.0000      -2.524455       -68.6939
  22   1.0000      -2.522668       -68.6453
  23   1.0000      -2.522489       -68.6404
  24   1.0000      -2.522465       -68.6398
  25   1.0000      -2.522425       -68.6387
  26   1.0000      -2.519580       -68.5613
  27   1.0000      -2.519495       -68.5590
  28   1.0000      -2.519484       -68.5586
  29   1.0000      -2.519305       -68.5538
  30   1.0000      -2.510719       -68.3201
  31   1.0000      -2.510076       -68.3026
  32   1.0000      -2.510051       -68.3020
  33   1.0000      -2.510029       -68.3014
  34   1.0000      -2.509967       -68.2997
  35   1.0000      -2.509948       -68.2992
  36   1.0000      -2.509670       -68.2916
  37   1.0000      -2.509663       -68.2914
  38   1.0000      -2.508945       -68.2719
  39   1.0000      -2.508838       -68.2689
  40   1.0000      -2.508747       -68.2665
  41   1.0000      -2.508477       -68.2591
  42   1.0000      -2.508375       -68.2563
  43   1.0000      -2.508308       -68.2545
  44   1.0000      -2.507554       -68.2340
  45   1.0000      -2.507326       -68.2278
  46   1.0000      -2.506180       -68.1966
  47   1.0000      -2.505900       -68.1890
  48   1.0000      -2.504839       -68.1601
  49   1.0000      -2.504780       -68.1585
  50   1.0000      -2.504681       -68.1558
  51   1.0000      -2.504631       -68.1545
  52   1.0000      -2.503749       -68.1305
  53   1.0000      -2.503684       -68.1287
  54   1.0000      -2.344880       -63.8074
  55   1.0000      -2.336937       -63.5913
  56   1.0000      -2.335578       -63.5543
  57   1.0000      -0.510698       -13.8968
  58   1.0000      -0.465437       -12.6652
  59   1.0000      -0.465273       -12.6607
  60   1.0000      -0.462412       -12.5829
  61   1.0000      -0.461584       -12.5603
  62   1.0000      -0.461363       -12.5543
  63   1.0000      -0.458809       -12.4848
  64   1.0000      -0.458749       -12.4832
  65   1.0000      -0.458367       -12.4728
  66   1.0000      -0.453812       -12.3489
  67   1.0000      -0.451620       -12.2892
  68   1.0000      -0.451050       -12.2737
  69   1.0000      -0.450760       -12.2658
  70   1.0000      -0.442342       -12.0367
  71   1.0000      -0.442285       -12.0352
  72   1.0000      -0.440131       -11.9766
  73   1.0000      -0.438363       -11.9285
  74   1.0000      -0.435608       -11.8535
  75   1.0000      -0.429701       -11.6928
  76   1.0000      -0.429297       -11.6818
  77   1.0000      -0.425979       -11.5915
  78   1.0000      -0.424501       -11.5513
  79   1.0000      -0.424168       -11.5422
  80   1.0000      -0.422297       -11.4913
  81   1.0000      -0.412840       -11.2340
  82   1.0000      -0.412650       -11.2288
  83   1.0000      -0.412547       -11.2260
  84   1.0000      -0.412333       -11.2202
  85   1.0000      -0.407879       -11.0989
  86   1.0000      -0.399561       -10.8726
  87   1.0000      -0.397866       -10.8265
  88   1.0000      -0.397492       -10.8163
  89   1.0000      -0.395816       -10.7707
  90   1.0000      -0.391820       -10.6620
  91   1.0000      -0.385604       -10.4928
  92   1.0000      -0.385540       -10.4911
  93   1.0000      -0.380897       -10.3647
  94   1.0000      -0.373942       -10.1755
  95   1.0000      -0.373906       -10.1745
  96   1.0000      -0.371700       -10.1145
  97   1.0000      -0.371614       -10.1121
  98   1.0000      -0.366701        -9.9784
  99   1.0000      -0.364078        -9.9071
 100   1.0000      -0.363817        -9.9000
 101   1.0000      -0.358767        -9.7625
 102   1.0000      -0.358664        -9.7597
 103   1.0000      -0.355897        -9.6844
 104   1.0000      -0.353709        -9.6249
 105   1.0000      -0.350810        -9.5460
 106   1.0000      -0.349940        -9.5223
 107   1.0000      -0.345841        -9.4108
 108   1.0000      -0.345806        -9.4099
 109   1.0000      -0.344381        -9.3711
 110   1.0000      -0.343264        -9.3407
 111   1.0000      -0.343126        -9.3369
 112   1.0000      -0.341388        -9.2896
 113   1.0000      -0.339732        -9.2446
 114   1.0000      -0.338349        -9.2069
 115   1.0000      -0.337862        -9.1937
 116   1.0000      -0.332493        -9.0476
 117   1.0000      -0.320446        -8.7198
 118   1.0000      -0.309915        -8.4332
 119   1.0000      -0.309687        -8.4270
 120   1.0000      -0.309556        -8.4234
 121   1.0000      -0.303802        -8.2669
 122   1.0000      -0.230363        -6.2685
 123   1.0000      -0.230321        -6.2674
 124   1.0000      -0.229812        -6.2535
 125   1.0000      -0.189856        -5.1662
 126   0.0000      -0.105655        -2.8750
 127   0.0000      -0.067782        -1.8445
 128   0.0000      -0.042500        -1.1565
 129   0.0000      -0.037112        -1.0099
 130   0.0000      -0.033164        -0.9024

MULLIKEN ATOMIC CHARGES AND SPIN POPULATIONS
--------------------------------------------
   0 Au:    0.134243   -0.061288
   1 Au:    0.139621   -0.048662
   2 Au:    0.268102   -0.223202
   3 Au:    0.268119   -0.223119
   4 Au:    0.134254   -0.061260
   5 Au:    0.138940   -0.048594
   6 Au:    0.268121   -0.223213
   7 Au:    0.268001   -0.223282
   8 Au:    0.134043   -0.060750
   9 Au:    0.139336   -0.048560
  10 Au:    0.133426   -0.061214
  11 Au:    0.139436   -0.048449
  12 Fe:   -2.165643    3.331593
Sum of atomic charges         :   -0.0000000

LOEWDIN ATOMIC CHARGES AND SPIN POPULATIONS
-------------------------------------------
   0 Au:    0.035191   -0.089474
   1 Au:    0.034501   -0.087439
   2 Au:    0.044239   -0.172768
   3 Au:    0.044141   -0.172766
   4 Au:    0.035484   -0.090032
   5 Au:    0.034704   -0.088165
   6 Au:    0.044291   -0.172747
   7 Au:    0.044227   -0.172764
   8 Au:    0.035110   -0.089179
   9 Au:    0.034357   -0.087442
  10 Au:    0.035080   -0.089902
  11 Au:    0.034948   -0.088075
  12 Fe:   -0.456272    3.400753

  Mayer bond orders larger than 0.100000
B(  0-Au,  1-Au) :   0.1784 B(  0-Au,  2-Au) :   0.2150 B(  0-Au,  3-Au) :   0.2162
B(  0-Au, 11-Au) :   0.1781 B(  0-Au, 12-Fe) :   0.4356 B(  1-Au,  3-Au) :   0.2199
B(  1-Au,  4-Au) :   0.1786 B(  1-Au,  6-Au) :   0.2185 B(  1-Au, 12-Fe) :   0.4353
B(  2-Au,  9-Au) :   0.2195 B(  2-Au, 10-Au) :   0.2159 B(  2-Au, 11-Au) :   0.2203
B(  2-Au, 12-Fe) :   0.4345 B(  3-Au,  5-Au) :   0.2194 B(  3-Au, 10-Au) :   0.2151
B(  3-Au, 12-Fe) :   0.4343 B(  4-Au,  6-Au) :   0.2159 B(  4-Au,  7-Au) :   0.2147
B(  4-Au, 11-Au) :   0.1775 B(  4-Au, 12-Fe) :   0.4358 B(  5-Au,  6-Au) :   0.2207
B(  5-Au,  8-Au) :   0.1781 B(  5-Au, 10-Au) :   0.1779 B(  5-Au, 12-Fe) :   0.4346
B(  6-Au,  8-Au) :   0.2154 B(  6-Au, 12-Fe) :   0.4348 B(  7-Au,  8-Au) :   0.2165
B(  7-Au,  9-Au) :   0.2199 B(  7-Au, 11-Au) :   0.2190 B(  7-Au, 12-Fe) :   0.4351
B(  8-Au,  9-Au) :   0.1789 B(  8-Au, 12-Fe) :   0.4346 B(  9-Au, 10-Au) :   0.1786
B(  9-Au, 12-Fe) :   0.4340 B( 10-Au, 12-Fe) :   0.4357 B( 11-Au, 12-Fe) :   0.4352

MP2 TOTAL ENERGY:    -2890.527688432 Eh
FINAL SINGLE POINT ENERGY     -2890.527688432223

DIPOLE MOMENT
-------------
                                X             Y             Z
Electronic contribution:      0.02497       0.02368      -0.05705
Nuclear contribution   :     -0.02515      -0.02315       0.05855
                        -----------------------------------------
Total Dipole Moment    :     -0.00018       0.00053       0.00150
                        -----------------------------------------
Magnitude (a.u.)       :      0.00160
Magnitude (Debye)      :      0.00407

Rotational constants in cm-1:     0.001444     0.001346     0.001341
Rotational constants in MHz :    43.302946    40.339927    40.206470

                             ****ORCA TERMINATED NORMALLY****
TOTAL RUN TIME: 0 days 0 hours 27 minutes 46 seconds 491 msec
