                         Program Version 5.0.3 -  RELEASE  -
|  1> !PBE def2-TZVP VERYSLOWCONV
|  2>
|  3> %scf
|  4>   AutoTRAHIter 200
|  5>   maxiter 400
|  6> end
|  7>
|  8>
|  9> %pal nprocs 6 end
| 10>
| 11> *xyzfile 0 5 pbe.xyz
| 12>
| 13> $new_job
| 14>
| 15> !PBE def2-TZVP VERYSLOWCONV
| 16>
| 17> %scf
| 18>   AutoTRAHIter 200
| 19>   maxiter 400
| 20> end
| 21>
| 22>
| 23> %pal nprocs 6 end
| 24>
| 25> *xyzfile 0 3 pbe.xyz
| 26>
| 27>
| 28>
| 29>
| 30>
| 31>                          ****END OF INPUT****
 Total Charge           Charge          ....    0
 Multiplicity           Mult            ....    5
 Number of Electrons    NEL             ....  254
FINAL SINGLE POINT ENERGY     -2893.400241298247

CARTESIAN COORDINATES (ANGSTROEM)
---------------------------------
  Au     7.221887    5.093497    9.176052
  Au     9.672516    4.843526   10.476512
  Au     6.884466    7.342379    7.556069
  Au     9.552865    4.709874    7.689469
  Au     9.321348    7.346444   11.643546
  Au    11.566009    6.598246    7.262665
  Au    11.555516    6.861887   10.041858
  Au     8.888209    9.490515    9.908496
  Au    11.217908    9.108767    8.419239
  Au     8.767218    9.358625    7.121098
  Au     9.119367    6.854428    5.956148
  Au     6.874363    7.602012   10.336425
  Fe     9.219478    7.100242    8.800503

 Multiplicity           Mult            ....    3
 Number of Electrons    NEL             ....  254
 Basis Dimension        Dim             ....  525

ORBITAL ENERGIES
----------------
                 SPIN UP ORBITALS
  NO   OCC          E(Eh)            E(eV)
   0   1.0000    -254.756035     -6932.2641
   1   1.0000     -29.591723      -805.2317
   2   1.0000     -25.528270      -694.6595
   3   1.0000     -25.527160      -694.6293
   4   1.0000     -25.527013      -694.6253
   5   1.0000      -4.027306      -109.5886
   6   1.0000      -4.027294      -109.5882
   7   1.0000      -4.027277      -109.5878
   8   1.0000      -4.027274      -109.5877
   9   1.0000      -4.018969      -109.3617
  10   1.0000      -4.018954      -109.3613
  11   1.0000      -4.018840      -109.3582
  12   1.0000      -4.018837      -109.3581
  13   1.0000      -4.018834      -109.3580
  14   1.0000      -4.018814      -109.3575
  15   1.0000      -4.018707      -109.3546
  16   1.0000      -4.018693      -109.3542
  17   1.0000      -3.366653       -91.6113
  18   1.0000      -2.243441       -61.0471
  19   1.0000      -2.243420       -61.0466
  20   1.0000      -2.243398       -61.0460
  21   1.0000      -2.243250       -61.0419
  22   1.0000      -2.241863       -61.0042
  23   1.0000      -2.241695       -60.9996
  24   1.0000      -2.241686       -60.9994
  25   1.0000      -2.241628       -60.9978
  26   1.0000      -2.237602       -60.8882
  27   1.0000      -2.237517       -60.8859
  28   1.0000      -2.237508       -60.8857
  29   1.0000      -2.237305       -60.8802
  30   1.0000      -2.234607       -60.8068
  31   1.0000      -2.233966       -60.7893
  32   1.0000      -2.233784       -60.7844
  33   1.0000      -2.233771       -60.7840
  34   1.0000      -2.233590       -60.7791
  35   1.0000      -2.233489       -60.7763
  36   1.0000      -2.233484       -60.7762
  37   1.0000      -2.233469       -60.7758
  38   1.0000      -2.232293       -60.7438
  39   1.0000      -2.232270       -60.7432
  40   1.0000      -2.232227       -60.7420
  41   1.0000      -2.231885       -60.7327
  42   1.0000      -2.231862       -60.7321
  43   1.0000      -2.231806       -60.7305
  44   1.0000      -2.231269       -60.7159
  45   1.0000      -2.230973       -60.7079
  46   1.0000      -2.230412       -60.6926
  47   1.0000      -2.230240       -60.6879
  48   1.0000      -2.228902       -60.6515
  49   1.0000      -2.228875       -60.6508
  50   1.0000      -2.228822       -60.6493
  51   1.0000      -2.228798       -60.6487
  52   1.0000      -2.227931       -60.6251
  53   1.0000      -2.227840       -60.6226
  54   1.0000      -2.182845       -59.3982
  55   1.0000      -2.179323       -59.3024
  56   1.0000      -2.179009       -59.2938
  57   1.0000      -0.426552       -11.6071
  58   1.0000      -0.373208       -10.1555
  59   1.0000      -0.371898       -10.1198
  60   1.0000      -0.371699       -10.1144
  61   1.0000      -0.369590       -10.0571
  62   1.0000      -0.369353       -10.0506
  63   1.0000      -0.366345        -9.9688
  64   1.0000      -0.362044        -9.8517
  65   1.0000      -0.356031        -9.6881
  66   1.0000      -0.354317        -9.6415
  67   1.0000      -0.347288        -9.4502
  68   1.0000      -0.340539        -9.2665
  69   1.0000      -0.340379        -9.2622
  70   1.0000      -0.336845        -9.1660
  71   1.0000      -0.336004        -9.1431
  72   1.0000      -0.335958        -9.1419
  73   1.0000      -0.331560        -9.0222
  74   1.0000      -0.326587        -8.8869
  75   1.0000      -0.326569        -8.8864
  76   1.0000      -0.323949        -8.8151
  77   1.0000      -0.323176        -8.7941
  78   1.0000      -0.320932        -8.7330
  79   1.0000      -0.319961        -8.7066
  80   1.0000      -0.319537        -8.6950
  81   1.0000      -0.318967        -8.6795
  82   1.0000      -0.312055        -8.4915
  83   1.0000      -0.311896        -8.4871
  84   1.0000      -0.310025        -8.4362
  85   1.0000      -0.309928        -8.4336
  86   1.0000      -0.299142        -8.1401
  87   1.0000      -0.298674        -8.1273
  88   1.0000      -0.298625        -8.1260
  89   1.0000      -0.295176        -8.0322
  90   1.0000      -0.293510        -7.9868
  91   1.0000      -0.293110        -7.9759
  92   1.0000      -0.292540        -7.9604
  93   1.0000      -0.275659        -7.5011
  94   1.0000      -0.275442        -7.4951
  95   1.0000      -0.274953        -7.4818
  96   1.0000      -0.274812        -7.4780
  97   1.0000      -0.273309        -7.4371
  98   1.0000      -0.273159        -7.4330
  99   1.0000      -0.269308        -7.3282
 100   1.0000      -0.261766        -7.1230
 101   1.0000      -0.258001        -7.0206
 102   1.0000      -0.257928        -7.0186
 103   1.0000      -0.256704        -6.9853
 104   1.0000      -0.255372        -6.9490
 105   1.0000      -0.254813        -6.9338
 106   1.0000      -0.254329        -6.9206
 107   1.0000      -0.253927        -6.9097
 108   1.0000      -0.253814        -6.9066
 109   1.0000      -0.251708        -6.8493
 110   1.0000      -0.251700        -6.8491
 111   1.0000      -0.248321        -6.7572
 112   1.0000      -0.248277        -6.7560
 113   1.0000      -0.246972        -6.7205
 114   1.0000      -0.246441        -6.7060
 115   1.0000      -0.245869        -6.6904
 116   1.0000      -0.245281        -6.6744
 117   1.0000      -0.244556        -6.6547
 118   1.0000      -0.244358        -6.6493
 119   1.0000      -0.244067        -6.6414
 120   1.0000      -0.243653        -6.6301
 121   1.0000      -0.243127        -6.6158
 122   1.0000      -0.240533        -6.5452
 123   1.0000      -0.239655        -6.5213
 124   1.0000      -0.239544        -6.5183
 125   1.0000      -0.217428        -5.9165
 126   1.0000      -0.196255        -5.3404
 127   1.0000      -0.195824        -5.3286
 128   0.0000      -0.188144        -5.1197
 129   0.0000      -0.166032        -4.5180
 130   0.0000      -0.163953        -4.4614
 131   0.0000      -0.126771        -3.4496
 132   0.0000      -0.104697        -2.8490

                 SPIN DOWN ORBITALS
  NO   OCC          E(Eh)            E(eV)
   0   1.0000    -254.755384     -6932.2464
   1   1.0000     -29.536404      -803.7264
   2   1.0000     -25.486333      -693.5184
   3   1.0000     -25.486240      -693.5159
   4   1.0000     -25.484534      -693.4694
   5   1.0000      -4.027507      -109.5940
   6   1.0000      -4.027497      -109.5938
   7   1.0000      -4.027481      -109.5933
   8   1.0000      -4.027478      -109.5933
   9   1.0000      -4.019284      -109.3703
  10   1.0000      -4.019270      -109.3699
  11   1.0000      -4.019158      -109.3669
  12   1.0000      -4.019145      -109.3665
  13   1.0000      -4.019143      -109.3664
  14   1.0000      -4.019137      -109.3663
  15   1.0000      -4.019021      -109.3631
  16   1.0000      -4.019010      -109.3628
  17   1.0000      -3.242155       -88.2235
  18   1.0000      -2.243217       -61.0410
  19   1.0000      -2.243155       -61.0393
  20   1.0000      -2.243149       -61.0392
  21   1.0000      -2.243047       -61.0364
  22   1.0000      -2.242267       -61.0152
  23   1.0000      -2.242095       -61.0105
  24   1.0000      -2.242087       -61.0103
  25   1.0000      -2.242025       -61.0086
  26   1.0000      -2.237978       -60.8985
  27   1.0000      -2.237892       -60.8962
  28   1.0000      -2.237883       -60.8959
  29   1.0000      -2.237672       -60.8902
  30   1.0000      -2.234989       -60.8172
  31   1.0000      -2.234358       -60.8000
  32   1.0000      -2.234017       -60.7907
  33   1.0000      -2.233999       -60.7902
  34   1.0000      -2.233759       -60.7837
  35   1.0000      -2.233738       -60.7831
  36   1.0000      -2.233617       -60.7798
  37   1.0000      -2.233484       -60.7762
  38   1.0000      -2.232606       -60.7523
  39   1.0000      -2.232602       -60.7522
  40   1.0000      -2.232504       -60.7495
  41   1.0000      -2.232211       -60.7416
  42   1.0000      -2.232204       -60.7414
  43   1.0000      -2.232051       -60.7372
  44   1.0000      -2.231657       -60.7265
  45   1.0000      -2.231358       -60.7183
  46   1.0000      -2.230965       -60.7076
  47   1.0000      -2.230811       -60.7035
  48   1.0000      -2.229295       -60.6622
  49   1.0000      -2.229263       -60.6613
  50   1.0000      -2.229219       -60.6601
  51   1.0000      -2.229191       -60.6594
  52   1.0000      -2.228246       -60.6337
  53   1.0000      -2.228177       -60.6318
  54   1.0000      -2.060090       -56.0579
  55   1.0000      -2.059930       -56.0535
  56   1.0000      -2.055489       -55.9327
  57   1.0000      -0.423555       -11.5255
  58   1.0000      -0.373342       -10.1591
  59   1.0000      -0.373112       -10.1529
  60   1.0000      -0.372936       -10.1481
  61   1.0000      -0.362772        -9.8715
  62   1.0000      -0.360789        -9.8176
  63   1.0000      -0.360629        -9.8132
  64   1.0000      -0.360012        -9.7964
  65   1.0000      -0.355351        -9.6696
  66   1.0000      -0.349317        -9.5054
  67   1.0000      -0.341864        -9.3026
  68   1.0000      -0.341727        -9.2989
  69   1.0000      -0.340657        -9.2697
  70   1.0000      -0.337816        -9.1924
  71   1.0000      -0.337758        -9.1909
  72   1.0000      -0.335392        -9.1265
  73   1.0000      -0.332379        -9.0445
  74   1.0000      -0.328399        -8.9362
  75   1.0000      -0.328172        -8.9300
  76   1.0000      -0.325756        -8.8643
  77   1.0000      -0.324113        -8.8196
  78   1.0000      -0.322217        -8.7680
  79   1.0000      -0.320822        -8.7300
  80   1.0000      -0.320393        -8.7183
  81   1.0000      -0.313469        -8.5299
  82   1.0000      -0.313293        -8.5251
  83   1.0000      -0.308605        -8.3976
  84   1.0000      -0.308278        -8.3887
  85   1.0000      -0.304283        -8.2800
  86   1.0000      -0.300906        -8.1881
  87   1.0000      -0.296061        -8.0562
  88   1.0000      -0.295323        -8.0361
  89   1.0000      -0.294928        -8.0254
  90   1.0000      -0.289384        -7.8746
  91   1.0000      -0.289317        -7.8727
  92   1.0000      -0.283380        -7.7112
  93   1.0000      -0.277879        -7.5615
  94   1.0000      -0.273884        -7.4528
  95   1.0000      -0.273857        -7.4520
  96   1.0000      -0.273750        -7.4491
  97   1.0000      -0.273586        -7.4447
  98   1.0000      -0.269811        -7.3419
  99   1.0000      -0.268531        -7.3071
 100   1.0000      -0.263197        -7.1620
 101   1.0000      -0.259322        -7.0565
 102   1.0000      -0.259271        -7.0551
 103   1.0000      -0.258254        -7.0275
 104   1.0000      -0.255683        -6.9575
 105   1.0000      -0.254891        -6.9359
 106   1.0000      -0.254867        -6.9353
 107   1.0000      -0.252799        -6.8790
 108   1.0000      -0.252788        -6.8787
 109   1.0000      -0.250156        -6.8071
 110   1.0000      -0.250136        -6.8065
 111   1.0000      -0.247273        -6.7286
 112   1.0000      -0.247173        -6.7259
 113   1.0000      -0.246054        -6.6955
 114   1.0000      -0.245557        -6.6819
 115   1.0000      -0.245320        -6.6755
 116   1.0000      -0.245151        -6.6709
 117   1.0000      -0.241054        -6.5594
 118   1.0000      -0.240826        -6.5532
 119   1.0000      -0.240740        -6.5509
 120   1.0000      -0.218562        -5.9474
 121   1.0000      -0.209187        -5.6923
 122   1.0000      -0.209081        -5.6894
 123   1.0000      -0.208999        -5.6872
 124   1.0000      -0.189629        -5.1601
 125   1.0000      -0.188271        -5.1231
 126   0.0000      -0.153780        -4.1846
 127   0.0000      -0.152752        -4.1566
 128   0.0000      -0.148792        -4.0488
 129   0.0000      -0.148613        -4.0440
 130   0.0000      -0.148324        -4.0361

MULLIKEN ATOMIC CHARGES AND SPIN POPULATIONS
--------------------------------------------
   0 Au:    0.209226   -0.007928
   1 Au:    0.205611   -0.005788
   2 Au:    0.222862   -0.178630
   3 Au:    0.222959   -0.178551
   4 Au:    0.209585   -0.008233
   5 Au:    0.205035   -0.006051
   6 Au:    0.222920   -0.178622
   7 Au:    0.222931   -0.178601
   8 Au:    0.208702   -0.008128
   9 Au:    0.205215   -0.006059
  10 Au:    0.208610   -0.008082
  11 Au:    0.205566   -0.005940
  12 Fe:   -2.549221    2.770614
Sum of atomic charges         :   -0.0000000

LOEWDIN ATOMIC CHARGES AND SPIN POPULATIONS
-------------------------------------------
   0 Au:    0.054804   -0.055103
   1 Au:    0.054228   -0.053725
   2 Au:    0.068654   -0.111395
   3 Au:    0.068648   -0.111347
   4 Au:    0.054981   -0.055474
   5 Au:    0.054181   -0.054211
   6 Au:    0.068720   -0.111387
   7 Au:    0.068757   -0.111370
   8 Au:    0.054585   -0.055236
   9 Au:    0.054004   -0.053958
  10 Au:    0.054614   -0.055277
  11 Au:    0.054423   -0.054131
  12 Fe:   -0.710599    2.882615

  Mayer bond orders larger than 0.100000
B(  0-Au,  1-Au) :   0.2412 B(  0-Au,  2-Au) :   0.2169 B(  0-Au,  3-Au) :   0.2176
B(  0-Au, 11-Au) :   0.2411 B(  0-Au, 12-Fe) :   0.4753 B(  1-Au,  3-Au) :   0.2162
B(  1-Au,  4-Au) :   0.2419 B(  1-Au,  6-Au) :   0.2152 B(  1-Au, 12-Fe) :   0.4795
B(  2-Au,  9-Au) :   0.2162 B(  2-Au, 10-Au) :   0.2174 B(  2-Au, 11-Au) :   0.2165
B(  2-Au, 12-Fe) :   0.5408 B(  3-Au,  5-Au) :   0.2161 B(  3-Au, 10-Au) :   0.2171
B(  3-Au, 12-Fe) :   0.5406 B(  4-Au,  6-Au) :   0.2173 B(  4-Au,  7-Au) :   0.2167
B(  4-Au, 11-Au) :   0.2409 B(  4-Au, 12-Fe) :   0.4752 B(  5-Au,  6-Au) :   0.2169
B(  5-Au,  8-Au) :   0.2412 B(  5-Au, 10-Au) :   0.2412 B(  5-Au, 12-Fe) :   0.4785
B(  6-Au,  8-Au) :   0.2170 B(  6-Au, 12-Fe) :   0.5413 B(  7-Au,  8-Au) :   0.2177
B(  7-Au,  9-Au) :   0.2161 B(  7-Au, 11-Au) :   0.2156 B(  7-Au, 12-Fe) :   0.5417
B(  8-Au,  9-Au) :   0.2420 B(  8-Au, 12-Fe) :   0.4743 B(  9-Au, 10-Au) :   0.2419
B(  9-Au, 12-Fe) :   0.4780 B( 10-Au, 12-Fe) :   0.4754 B( 11-Au, 12-Fe) :   0.4794

FINAL SINGLE POINT ENERGY     -2893.396809823369

DIPOLE MOMENT
-------------
                                X             Y             Z
Electronic contribution:      0.02507       0.02347      -0.05765
Nuclear contribution   :     -0.02515      -0.02315       0.05855
                        -----------------------------------------
Total Dipole Moment    :     -0.00008       0.00032       0.00089
                        -----------------------------------------
Magnitude (a.u.)       :      0.00095
Magnitude (Debye)      :      0.00242

Rotational constants in cm-1:     0.001444     0.001346     0.001341
Rotational constants in MHz :    43.302946    40.339927    40.206470

                             ****ORCA TERMINATED NORMALLY****
TOTAL RUN TIME: 0 days 0 hours 21 minutes 43 seconds 594 msec
