                         Program Version 5.0.3 -  RELEASE  -
|  1> !R2SCAN def2-TZVP VERYSLOWCONV
|  2> !KDIIS
|  3> %scf
|  4>   AutoTRAHIter 200
|  5>   maxiter 400
|  6> end
|  7>
|  8> %pal nprocs 6 end
|  9>
| 10> *xyzfile 0 5 pbe.xyz
| 11>
| 12> $new_job
| 13>
| 14> !R2SCAN def2-TZVP VERYSLOWCONV
| 15> !KDIIS
| 16> %scf
| 17>   AutoTRAHIter 200
| 18>   maxiter 400
| 19> end
| 20>
| 21>
| 22> %pal nprocs 6 end
| 23>
| 24> *xyzfile 0 3 pbe.xyz
| 25>
| 26>
| 27>
| 28>
| 29>
| 30>                          ****END OF INPUT****
 Total Charge           Charge          ....    0
 Multiplicity           Mult            ....    5
 Number of Electrons    NEL             ....  254
FINAL SINGLE POINT ENERGY     -2893.806228660916

CARTESIAN COORDINATES (ANGSTROEM)
---------------------------------
  Au     7.221887    5.093497    9.176052
  Au     9.672516    4.843526   10.476512
  Au     6.884466    7.342379    7.556069
  Au     9.552865    4.709874    7.689469
  Au     9.321348    7.346444   11.643546
  Au    11.566009    6.598246    7.262665
  Au    11.555516    6.861887   10.041858
  Au     8.888209    9.490515    9.908496
  Au    11.217908    9.108767    8.419239
  Au     8.767218    9.358625    7.121098
  Au     9.119367    6.854428    5.956148
  Au     6.874363    7.602012   10.336425
  Fe     9.219478    7.100242    8.800503

 Multiplicity           Mult            ....    3
 Number of Electrons    NEL             ....  254
 Basis Dimension        Dim             ....  525

ORBITAL ENERGIES
----------------
                 SPIN UP ORBITALS
  NO   OCC          E(Eh)            E(eV)
   0   1.0000    -255.639558     -6956.3060
   1   1.0000     -29.936699      -814.6190
   2   1.0000     -25.768480      -701.1960
   3   1.0000     -25.766629      -701.1456
   4   1.0000     -25.766468      -701.1412
   5   1.0000      -4.118449      -112.0687
   6   1.0000      -4.118433      -112.0683
   7   1.0000      -4.118410      -112.0676
   8   1.0000      -4.118407      -112.0675
   9   1.0000      -4.109970      -111.8380
  10   1.0000      -4.109950      -111.8374
  11   1.0000      -4.109832      -111.8342
  12   1.0000      -4.109820      -111.8339
  13   1.0000      -4.109815      -111.8338
  14   1.0000      -4.109789      -111.8330
  15   1.0000      -4.109675      -111.8299
  16   1.0000      -4.109657      -111.8294
  17   1.0000      -3.514127       -95.6243
  18   1.0000      -2.307741       -62.7968
  19   1.0000      -2.307725       -62.7964
  20   1.0000      -2.307590       -62.7927
  21   1.0000      -2.307409       -62.7878
  22   1.0000      -2.305771       -62.7432
  23   1.0000      -2.305597       -62.7385
  24   1.0000      -2.305584       -62.7381
  25   1.0000      -2.305546       -62.7371
  26   1.0000      -2.301908       -62.6381
  27   1.0000      -2.301808       -62.6354
  28   1.0000      -2.301798       -62.6351
  29   1.0000      -2.301583       -62.6292
  30   1.0000      -2.298208       -62.5374
  31   1.0000      -2.297551       -62.5195
  32   1.0000      -2.297528       -62.5189
  33   1.0000      -2.297515       -62.5186
  34   1.0000      -2.297498       -62.5181
  35   1.0000      -2.297488       -62.5178
  36   1.0000      -2.297164       -62.5090
  37   1.0000      -2.297157       -62.5088
  38   1.0000      -2.296021       -62.4779
  39   1.0000      -2.295988       -62.4770
  40   1.0000      -2.295964       -62.4763
  41   1.0000      -2.295586       -62.4661
  42   1.0000      -2.295560       -62.4654
  43   1.0000      -2.295535       -62.4647
  44   1.0000      -2.294652       -62.4407
  45   1.0000      -2.294358       -62.4327
  46   1.0000      -2.294230       -62.4292
  47   1.0000      -2.294026       -62.4236
  48   1.0000      -2.292607       -62.3850
  49   1.0000      -2.292590       -62.3845
  50   1.0000      -2.292498       -62.3821
  51   1.0000      -2.292485       -62.3817
  52   1.0000      -2.291630       -62.3584
  53   1.0000      -2.291529       -62.3557
  54   1.0000      -2.282336       -62.1055
  55   1.0000      -2.277503       -61.9740
  56   1.0000      -2.277149       -61.9644
  57   1.0000      -0.432275       -11.7628
  58   1.0000      -0.382990       -10.4217
  59   1.0000      -0.382749       -10.4151
  60   1.0000      -0.379780       -10.3343
  61   1.0000      -0.379189       -10.3183
  62   1.0000      -0.377827       -10.2812
  63   1.0000      -0.377632       -10.2759
  64   1.0000      -0.370931       -10.0935
  65   1.0000      -0.368245       -10.0204
  66   1.0000      -0.364208        -9.9106
  67   1.0000      -0.359098        -9.7716
  68   1.0000      -0.349967        -9.5231
  69   1.0000      -0.349804        -9.5186
  70   1.0000      -0.347385        -9.4528
  71   1.0000      -0.345048        -9.3892
  72   1.0000      -0.345011        -9.3882
  73   1.0000      -0.340970        -9.2783
  74   1.0000      -0.335865        -9.1393
  75   1.0000      -0.335640        -9.1332
  76   1.0000      -0.332799        -9.0559
  77   1.0000      -0.331818        -9.0292
  78   1.0000      -0.331738        -9.0271
  79   1.0000      -0.329989        -8.9795
  80   1.0000      -0.329236        -8.9590
  81   1.0000      -0.328820        -8.9476
  82   1.0000      -0.321840        -8.7577
  83   1.0000      -0.321460        -8.7474
  84   1.0000      -0.320481        -8.7207
  85   1.0000      -0.320322        -8.7164
  86   1.0000      -0.311567        -8.4782
  87   1.0000      -0.311278        -8.4703
  88   1.0000      -0.308508        -8.3949
  89   1.0000      -0.305533        -8.3140
  90   1.0000      -0.304400        -8.2832
  91   1.0000      -0.302393        -8.2285
  92   1.0000      -0.301980        -8.2173
  93   1.0000      -0.288345        -7.8463
  94   1.0000      -0.284580        -7.7438
  95   1.0000      -0.284391        -7.7387
  96   1.0000      -0.284346        -7.7374
  97   1.0000      -0.281744        -7.6666
  98   1.0000      -0.281611        -7.6630
  99   1.0000      -0.278080        -7.5669
 100   1.0000      -0.271086        -7.3766
 101   1.0000      -0.270594        -7.3632
 102   1.0000      -0.270441        -7.3591
 103   1.0000      -0.266507        -7.2520
 104   1.0000      -0.266494        -7.2517
 105   1.0000      -0.266423        -7.2497
 106   1.0000      -0.264399        -7.1946
 107   1.0000      -0.262331        -7.1384
 108   1.0000      -0.261087        -7.1045
 109   1.0000      -0.259349        -7.0572
 110   1.0000      -0.259277        -7.0553
 111   1.0000      -0.259268        -7.0550
 112   1.0000      -0.258984        -7.0473
 113   1.0000      -0.258640        -7.0380
 114   1.0000      -0.255324        -6.9477
 115   1.0000      -0.255267        -6.9462
 116   1.0000      -0.254343        -6.9210
 117   1.0000      -0.253916        -6.9094
 118   1.0000      -0.253672        -6.9028
 119   1.0000      -0.252418        -6.8686
 120   1.0000      -0.252165        -6.8618
 121   1.0000      -0.249513        -6.7896
 122   1.0000      -0.247931        -6.7465
 123   1.0000      -0.244527        -6.6539
 124   1.0000      -0.244385        -6.6501
 125   1.0000      -0.223848        -6.0912
 126   1.0000      -0.197839        -5.3835
 127   1.0000      -0.197427        -5.3723
 128   0.0000      -0.187505        -5.1023
 129   0.0000      -0.163078        -4.4376
 130   0.0000      -0.161828        -4.4036
 131   0.0000      -0.120234        -3.2717
 132   0.0000      -0.100165        -2.7256

                 SPIN DOWN ORBITALS
  NO   OCC          E(Eh)            E(eV)
   0   1.0000    -255.638581     -6956.2795
   1   1.0000     -29.859563      -812.5200
   2   1.0000     -25.708772      -699.5713
   3   1.0000     -25.708686      -699.5689
   4   1.0000     -25.707634      -699.5403
   5   1.0000      -4.118883      -112.0805
   6   1.0000      -4.118868      -112.0801
   7   1.0000      -4.118847      -112.0795
   8   1.0000      -4.118843      -112.0794
   9   1.0000      -4.110446      -111.8509
  10   1.0000      -4.110427      -111.8504
  11   1.0000      -4.110300      -111.8469
  12   1.0000      -4.110296      -111.8468
  13   1.0000      -4.110289      -111.8466
  14   1.0000      -4.110275      -111.8463
  15   1.0000      -4.110151      -111.8429
  16   1.0000      -4.110136      -111.8425
  17   1.0000      -3.347298       -91.0846
  18   1.0000      -2.307290       -62.7845
  19   1.0000      -2.307218       -62.7826
  20   1.0000      -2.307211       -62.7824
  21   1.0000      -2.307096       -62.7793
  22   1.0000      -2.306319       -62.7581
  23   1.0000      -2.306120       -62.7527
  24   1.0000      -2.306109       -62.7524
  25   1.0000      -2.306044       -62.7506
  26   1.0000      -2.302387       -62.6511
  27   1.0000      -2.302294       -62.6486
  28   1.0000      -2.302284       -62.6483
  29   1.0000      -2.302061       -62.6423
  30   1.0000      -2.298941       -62.5574
  31   1.0000      -2.298228       -62.5380
  32   1.0000      -2.297930       -62.5299
  33   1.0000      -2.297910       -62.5293
  34   1.0000      -2.297639       -62.5219
  35   1.0000      -2.297615       -62.5213
  36   1.0000      -2.297536       -62.5191
  37   1.0000      -2.297395       -62.5153
  38   1.0000      -2.296473       -62.4902
  39   1.0000      -2.296464       -62.4900
  40   1.0000      -2.296371       -62.4874
  41   1.0000      -2.296061       -62.4790
  42   1.0000      -2.296052       -62.4787
  43   1.0000      -2.295894       -62.4744
  44   1.0000      -2.295394       -62.4608
  45   1.0000      -2.295085       -62.4524
  46   1.0000      -2.294899       -62.4474
  47   1.0000      -2.294720       -62.4425
  48   1.0000      -2.293086       -62.3980
  49   1.0000      -2.293062       -62.3974
  50   1.0000      -2.292994       -62.3955
  51   1.0000      -2.292974       -62.3950
  52   1.0000      -2.291984       -62.3681
  53   1.0000      -2.291912       -62.3661
  54   1.0000      -2.115426       -57.5637
  55   1.0000      -2.115316       -57.5607
  56   1.0000      -2.112183       -57.4754
  57   1.0000      -0.431020       -11.7286
  58   1.0000      -0.380605       -10.3568
  59   1.0000      -0.380282       -10.3480
  60   1.0000      -0.380124       -10.3437
  61   1.0000      -0.372811       -10.1447
  62   1.0000      -0.369087       -10.0434
  63   1.0000      -0.368933       -10.0392
  64   1.0000      -0.368301       -10.0220
  65   1.0000      -0.365360        -9.9420
  66   1.0000      -0.358822        -9.7641
  67   1.0000      -0.352006        -9.5786
  68   1.0000      -0.351859        -9.5746
  69   1.0000      -0.349630        -9.5139
  70   1.0000      -0.347817        -9.4646
  71   1.0000      -0.347766        -9.4632
  72   1.0000      -0.345274        -9.3954
  73   1.0000      -0.342089        -9.3087
  74   1.0000      -0.338441        -9.2094
  75   1.0000      -0.337988        -9.1971
  76   1.0000      -0.335317        -9.1245
  77   1.0000      -0.333481        -9.0745
  78   1.0000      -0.331791        -9.0285
  79   1.0000      -0.330638        -8.9971
  80   1.0000      -0.330208        -8.9854
  81   1.0000      -0.322535        -8.7766
  82   1.0000      -0.322355        -8.7717
  83   1.0000      -0.318106        -8.6561
  84   1.0000      -0.317767        -8.6469
  85   1.0000      -0.311863        -8.4862
  86   1.0000      -0.310790        -8.4570
  87   1.0000      -0.305487        -8.3127
  88   1.0000      -0.305056        -8.3010
  89   1.0000      -0.304660        -8.2902
  90   1.0000      -0.297727        -8.1016
  91   1.0000      -0.297647        -8.0994
  92   1.0000      -0.291847        -7.9416
  93   1.0000      -0.287626        -7.8267
  94   1.0000      -0.282890        -7.6978
  95   1.0000      -0.282867        -7.6972
  96   1.0000      -0.282268        -7.6809
  97   1.0000      -0.282118        -7.6768
  98   1.0000      -0.278136        -7.5685
  99   1.0000      -0.276838        -7.5331
 100   1.0000      -0.272136        -7.4052
 101   1.0000      -0.268348        -7.3021
 102   1.0000      -0.268295        -7.3007
 103   1.0000      -0.266697        -7.2572
 104   1.0000      -0.263935        -7.1820
 105   1.0000      -0.263617        -7.1734
 106   1.0000      -0.263180        -7.1615
 107   1.0000      -0.260801        -7.0967
 108   1.0000      -0.260784        -7.0963
 109   1.0000      -0.258028        -7.0213
 110   1.0000      -0.257997        -7.0204
 111   1.0000      -0.255854        -6.9621
 112   1.0000      -0.255218        -6.9448
 113   1.0000      -0.253955        -6.9105
 114   1.0000      -0.253636        -6.9018
 115   1.0000      -0.253384        -6.8949
 116   1.0000      -0.251442        -6.8421
 117   1.0000      -0.248756        -6.7690
 118   1.0000      -0.246954        -6.7200
 119   1.0000      -0.246855        -6.7173
 120   1.0000      -0.225395        -6.1333
 121   1.0000      -0.210173        -5.7191
 122   1.0000      -0.210119        -5.7176
 123   1.0000      -0.209969        -5.7136
 124   1.0000      -0.190667        -5.1883
 125   1.0000      -0.189141        -5.1468
 126   0.0000      -0.151362        -4.1188
 127   0.0000      -0.150394        -4.0924
 128   0.0000      -0.133999        -3.6463
 129   0.0000      -0.133734        -3.6391
 130   0.0000      -0.133563        -3.6344

MULLIKEN ATOMIC CHARGES AND SPIN POPULATIONS
--------------------------------------------
   0 Au:    0.181214   -0.016995
   1 Au:    0.177505   -0.014816
   2 Au:    0.214301   -0.208803
   3 Au:    0.214463   -0.208614
   4 Au:    0.181631   -0.017235
   5 Au:    0.176937   -0.014955
   6 Au:    0.214352   -0.208792
   7 Au:    0.214407   -0.208696
   8 Au:    0.180760   -0.017161
   9 Au:    0.177171   -0.015050
  10 Au:    0.180710   -0.017066
  11 Au:    0.177423   -0.014858
  12 Fe:   -2.290873    2.963041
Sum of atomic charges         :   -0.0000000

LOEWDIN ATOMIC CHARGES AND SPIN POPULATIONS
-------------------------------------------
   0 Au:    0.048037   -0.068420
   1 Au:    0.047415   -0.067032
   2 Au:    0.063813   -0.128448
   3 Au:    0.063818   -0.128374
   4 Au:    0.048229   -0.068820
   5 Au:    0.047400   -0.067528
   6 Au:    0.063881   -0.128447
   7 Au:    0.063929   -0.128419
   8 Au:    0.047828   -0.068526
   9 Au:    0.047200   -0.067240
  10 Au:    0.047858   -0.068606
  11 Au:    0.047637   -0.067466
  12 Fe:   -0.637044    3.057325

  Mayer bond orders larger than 0.100000
B(  0-Au,  1-Au) :   0.2293 B(  0-Au,  2-Au) :   0.2086 B(  0-Au,  3-Au) :   0.2095
B(  0-Au, 11-Au) :   0.2291 B(  0-Au, 12-Fe) :   0.4621 B(  1-Au,  3-Au) :   0.2081
B(  1-Au,  4-Au) :   0.2300 B(  1-Au,  6-Au) :   0.2070 B(  1-Au, 12-Fe) :   0.4666
B(  2-Au,  9-Au) :   0.2080 B(  2-Au, 10-Au) :   0.2092 B(  2-Au, 11-Au) :   0.2084
B(  2-Au, 12-Fe) :   0.5230 B(  3-Au,  5-Au) :   0.2079 B(  3-Au, 10-Au) :   0.2088
B(  3-Au, 12-Fe) :   0.5229 B(  4-Au,  6-Au) :   0.2092 B(  4-Au,  7-Au) :   0.2084
B(  4-Au, 11-Au) :   0.2289 B(  4-Au, 12-Fe) :   0.4620 B(  5-Au,  6-Au) :   0.2089
B(  5-Au,  8-Au) :   0.2292 B(  5-Au, 10-Au) :   0.2293 B(  5-Au, 12-Fe) :   0.4656
B(  6-Au,  8-Au) :   0.2088 B(  6-Au, 12-Fe) :   0.5235 B(  7-Au,  8-Au) :   0.2096
B(  7-Au,  9-Au) :   0.2080 B(  7-Au, 11-Au) :   0.2074 B(  7-Au, 12-Fe) :   0.5240
B(  8-Au,  9-Au) :   0.2301 B(  8-Au, 12-Fe) :   0.4611 B(  9-Au, 10-Au) :   0.2300
B(  9-Au, 12-Fe) :   0.4651 B( 10-Au, 12-Fe) :   0.4622 B( 11-Au, 12-Fe) :   0.4665

FINAL SINGLE POINT ENERGY     -2893.841817500768

DIPOLE MOMENT
-------------
                                X             Y             Z
Electronic contribution:      0.02506       0.02352      -0.05750
Nuclear contribution   :     -0.02515      -0.02315       0.05855
                        -----------------------------------------
Total Dipole Moment    :     -0.00009       0.00037       0.00104
                        -----------------------------------------
Magnitude (a.u.)       :      0.00111
Magnitude (Debye)      :      0.00282

Rotational constants in cm-1:     0.001444     0.001346     0.001341
Rotational constants in MHz :    43.302946    40.339927    40.206470

                             ****ORCA TERMINATED NORMALLY****
TOTAL RUN TIME: 0 days 0 hours 6 minutes 57 seconds 175 msec
