                         Program Version 5.0.3 -  RELEASE  -
|  1> %pal nprocs 1 end
|  2>
|  3> !PBE def2-TZVP OPT UNO
|  4> !SLOWCONV KDIIS
|  5>
|  6> %geom maxiter 300 end
|  7>
|  8> *xyzfile 0 3 1.xyz                           ****END OF INPUT****
 Total Charge           Charge          ....    0
 Multiplicity           Mult            ....    3
 Number of Electrons    NEL             ....  252
FINAL SINGLE POINT ENERGY     -2674.134919203867
FINAL SINGLE POINT ENERGY     -2674.137663570476
FINAL SINGLE POINT ENERGY     -2674.139037590668
FINAL SINGLE POINT ENERGY     -2674.140752436502
FINAL SINGLE POINT ENERGY     -2674.141688648409
FINAL SINGLE POINT ENERGY     -2674.142491813528
FINAL SINGLE POINT ENERGY     -2674.143780791270
FINAL SINGLE POINT ENERGY     -2674.144903588145
FINAL SINGLE POINT ENERGY     -2674.145688617724
FINAL SINGLE POINT ENERGY     -2674.146242523994
FINAL SINGLE POINT ENERGY     -2674.147604878252
FINAL SINGLE POINT ENERGY     -2674.147659453861
FINAL SINGLE POINT ENERGY     -2674.147700370952
FINAL SINGLE POINT ENERGY     -2674.147742674125
FINAL SINGLE POINT ENERGY     -2674.147777118172
FINAL SINGLE POINT ENERGY     -2674.147789001975
FINAL SINGLE POINT ENERGY     -2674.147796600404
FINAL SINGLE POINT ENERGY     -2674.147799997296
FINAL SINGLE POINT ENERGY     -2674.147802867140
                    ***********************HURRAY********************

CARTESIAN COORDINATES (ANGSTROEM)
---------------------------------
  Au     5.547107    4.638696    8.823854
  Au     7.969628    6.919541    6.135605
  Au    10.385132    5.642836    7.270845
  Au    10.243984    8.295770    7.090485
  Au     7.113663    4.329692    6.418069
  Au     8.676054    5.924689   11.065134
  Au     7.640195    3.533881   10.261093
  Au     9.276833    3.312701    8.038056
  Au     9.169333    8.088086    9.704845
  Au     9.788186   10.546244    8.557203
  Au     5.902945    7.237896    8.221466
  Au     7.558142    9.250966    7.681874
  Cr     8.028591    5.657555    8.515629

 Multiplicity           Mult            ....    3
 Number of Electrons    NEL             ....  252
 Basis Dimension        Dim             ....  525

ORBITAL ENERGIES
----------------
                 SPIN UP ORBITALS
  NO   OCC          E(Eh)            E(eV)
   0   1.0000    -214.509345     -5837.0960
   1   1.0000     -24.312982      -661.5899
   2   1.0000     -20.677862      -562.6732
   3   1.0000     -20.675980      -562.6220
   4   1.0000     -20.675723      -562.6150
   5   1.0000      -4.026185      -109.5581
   6   1.0000      -4.022768      -109.4651
   7   1.0000      -4.022626      -109.4612
   8   1.0000      -4.021256      -109.4239
   9   1.0000      -4.021128      -109.4204
  10   1.0000      -4.019033      -109.3635
  11   1.0000      -4.018963      -109.3616
  12   1.0000      -4.018809      -109.3574
  13   1.0000      -4.018280      -109.3430
  14   1.0000      -4.018243      -109.3420
  15   1.0000      -4.014689      -109.2452
  16   1.0000      -4.014668      -109.2447
  17   1.0000      -2.809406       -76.4478
  18   1.0000      -2.242991       -61.0349
  19   1.0000      -2.242881       -61.0319
  20   1.0000      -2.241985       -61.0075
  21   1.0000      -2.240571       -60.9690
  22   1.0000      -2.239502       -60.9399
  23   1.0000      -2.238781       -60.9203
  24   1.0000      -2.238720       -60.9187
  25   1.0000      -2.236659       -60.8626
  26   1.0000      -2.236337       -60.8538
  27   1.0000      -2.235822       -60.8398
  28   1.0000      -2.235430       -60.8291
  29   1.0000      -2.235109       -60.8204
  30   1.0000      -2.234901       -60.8148
  31   1.0000      -2.234531       -60.8047
  32   1.0000      -2.234154       -60.7944
  33   1.0000      -2.233170       -60.7676
  34   1.0000      -2.233051       -60.7644
  35   1.0000      -2.232818       -60.7581
  36   1.0000      -2.232641       -60.7532
  37   1.0000      -2.232567       -60.7512
  38   1.0000      -2.231909       -60.7333
  39   1.0000      -2.231867       -60.7322
  40   1.0000      -2.230466       -60.6941
  41   1.0000      -2.229890       -60.6784
  42   1.0000      -2.229848       -60.6773
  43   1.0000      -2.229132       -60.6578
  44   1.0000      -2.228645       -60.6445
  45   1.0000      -2.228377       -60.6372
  46   1.0000      -2.226979       -60.5992
  47   1.0000      -2.226593       -60.5887
  48   1.0000      -2.226443       -60.5846
  49   1.0000      -2.226149       -60.5766
  50   1.0000      -2.225924       -60.5705
  51   1.0000      -2.225614       -60.5620
  52   1.0000      -2.222843       -60.4866
  53   1.0000      -2.219612       -60.3987
  54   1.0000      -1.800764       -49.0013
  55   1.0000      -1.797155       -48.9031
  56   1.0000      -1.797077       -48.9010
  57   1.0000      -0.409077       -11.1316
  58   1.0000      -0.387602       -10.5472
  59   1.0000      -0.368586       -10.0297
  60   1.0000      -0.368002       -10.0139
  61   1.0000      -0.361833        -9.8460
  62   1.0000      -0.354801        -9.6546
  63   1.0000      -0.351551        -9.5662
  64   1.0000      -0.348794        -9.4912
  65   1.0000      -0.344906        -9.3854
  66   1.0000      -0.343722        -9.3532
  67   1.0000      -0.341145        -9.2830
  68   1.0000      -0.338585        -9.2134
  69   1.0000      -0.335823        -9.1382
  70   1.0000      -0.332114        -9.0373
  71   1.0000      -0.330472        -8.9926
  72   1.0000      -0.329525        -8.9668
  73   1.0000      -0.325907        -8.8684
  74   1.0000      -0.323414        -8.8005
  75   1.0000      -0.319303        -8.6887
  76   1.0000      -0.314787        -8.5658
  77   1.0000      -0.314176        -8.5492
  78   1.0000      -0.313989        -8.5441
  79   1.0000      -0.312422        -8.5014
  80   1.0000      -0.308889        -8.4053
  81   1.0000      -0.305184        -8.3045
  82   1.0000      -0.302278        -8.2254
  83   1.0000      -0.300194        -8.1687
  84   1.0000      -0.298058        -8.1106
  85   1.0000      -0.296507        -8.0684
  86   1.0000      -0.293423        -7.9844
  87   1.0000      -0.291648        -7.9362
  88   1.0000      -0.289447        -7.8763
  89   1.0000      -0.288011        -7.8372
  90   1.0000      -0.286207        -7.7881
  91   1.0000      -0.281356        -7.6561
  92   1.0000      -0.280358        -7.6289
  93   1.0000      -0.276542        -7.5251
  94   1.0000      -0.275048        -7.4844
  95   1.0000      -0.273245        -7.4354
  96   1.0000      -0.272387        -7.4120
  97   1.0000      -0.271172        -7.3790
  98   1.0000      -0.270357        -7.3568
  99   1.0000      -0.268791        -7.3142
 100   1.0000      -0.266472        -7.2511
 101   1.0000      -0.265532        -7.2255
 102   1.0000      -0.263166        -7.1611
 103   1.0000      -0.262057        -7.1309
 104   1.0000      -0.262021        -7.1300
 105   1.0000      -0.260461        -7.0875
 106   1.0000      -0.255291        -6.9468
 107   1.0000      -0.254783        -6.9330
 108   1.0000      -0.253027        -6.8852
 109   1.0000      -0.251548        -6.8450
 110   1.0000      -0.250420        -6.8143
 111   1.0000      -0.249214        -6.7815
 112   1.0000      -0.247728        -6.7410
 113   1.0000      -0.244521        -6.6538
 114   1.0000      -0.243390        -6.6230
 115   1.0000      -0.241914        -6.5828
 116   1.0000      -0.240491        -6.5441
 117   1.0000      -0.236340        -6.4311
 118   1.0000      -0.235735        -6.4147
 119   1.0000      -0.230718        -6.2782
 120   1.0000      -0.230603        -6.2750
 121   1.0000      -0.222048        -6.0422
 122   1.0000      -0.214238        -5.8297
 123   1.0000      -0.213092        -5.7985
 124   1.0000      -0.210768        -5.7353
 125   1.0000      -0.208325        -5.6688
 126   1.0000      -0.204631        -5.5683
 127   0.0000      -0.179527        -4.8852
 128   0.0000      -0.177079        -4.8186
 129   0.0000      -0.160730        -4.3737
 130   0.0000      -0.137378        -3.7382
 131   0.0000      -0.121010        -3.2928

                 SPIN DOWN ORBITALS
  NO   OCC          E(Eh)            E(eV)
   0   1.0000    -214.508923     -5837.0846
   1   1.0000     -24.269788      -660.4145
   2   1.0000     -20.644827      -561.7743
   3   1.0000     -20.643020      -561.7251
   4   1.0000     -20.642677      -561.7158
   5   1.0000      -4.026555      -109.5681
   6   1.0000      -4.023237      -109.4778
   7   1.0000      -4.023090      -109.4739
   8   1.0000      -4.020864      -109.4133
   9   1.0000      -4.020736      -109.4098
  10   1.0000      -4.019443      -109.3746
  11   1.0000      -4.019117      -109.3657
  12   1.0000      -4.018750      -109.3558
  13   1.0000      -4.018339      -109.3446
  14   1.0000      -4.018304      -109.3436
  15   1.0000      -4.014907      -109.2512
  16   1.0000      -4.013664      -109.2173
  17   1.0000      -2.693257       -73.2873
  18   1.0000      -2.243237       -61.0416
  19   1.0000      -2.242614       -61.0246
  20   1.0000      -2.242147       -61.0119
  21   1.0000      -2.240507       -60.9673
  22   1.0000      -2.239919       -60.9513
  23   1.0000      -2.238590       -60.9151
  24   1.0000      -2.238394       -60.9098
  25   1.0000      -2.236676       -60.8630
  26   1.0000      -2.236330       -60.8536
  27   1.0000      -2.235524       -60.8317
  28   1.0000      -2.235456       -60.8298
  29   1.0000      -2.235306       -60.8258
  30   1.0000      -2.234769       -60.8112
  31   1.0000      -2.234496       -60.8037
  32   1.0000      -2.234170       -60.7949
  33   1.0000      -2.233658       -60.7809
  34   1.0000      -2.233374       -60.7732
  35   1.0000      -2.233181       -60.7679
  36   1.0000      -2.233007       -60.7632
  37   1.0000      -2.232314       -60.7443
  38   1.0000      -2.232306       -60.7441
  39   1.0000      -2.230718       -60.7009
  40   1.0000      -2.230600       -60.6977
  41   1.0000      -2.230180       -60.6863
  42   1.0000      -2.229768       -60.6751
  43   1.0000      -2.229130       -60.6577
  44   1.0000      -2.228921       -60.6520
  45   1.0000      -2.227776       -60.6209
  46   1.0000      -2.227387       -60.6103
  47   1.0000      -2.226556       -60.5877
  48   1.0000      -2.226393       -60.5832
  49   1.0000      -2.226251       -60.5794
  50   1.0000      -2.226034       -60.5735
  51   1.0000      -2.225813       -60.5674
  52   1.0000      -2.223460       -60.5034
  53   1.0000      -2.218739       -60.3750
  54   1.0000      -1.686514       -45.8924
  55   1.0000      -1.683030       -45.7976
  56   1.0000      -1.682427       -45.7812
  57   1.0000      -0.406991       -11.0748
  58   1.0000      -0.384193       -10.4544
  59   1.0000      -0.368711       -10.0331
  60   1.0000      -0.367800       -10.0084
  61   1.0000      -0.361426        -9.8349
  62   1.0000      -0.351735        -9.5712
  63   1.0000      -0.349049        -9.4981
  64   1.0000      -0.348150        -9.4737
  65   1.0000      -0.341867        -9.3027
  66   1.0000      -0.339863        -9.2481
  67   1.0000      -0.339113        -9.2277
  68   1.0000      -0.337202        -9.1757
  69   1.0000      -0.335932        -9.1412
  70   1.0000      -0.330340        -8.9890
  71   1.0000      -0.330065        -8.9815
  72   1.0000      -0.329052        -8.9540
  73   1.0000      -0.326100        -8.8736
  74   1.0000      -0.323467        -8.8020
  75   1.0000      -0.318403        -8.6642
  76   1.0000      -0.315454        -8.5839
  77   1.0000      -0.314953        -8.5703
  78   1.0000      -0.314211        -8.5501
  79   1.0000      -0.312865        -8.5135
  80   1.0000      -0.306172        -8.3314
  81   1.0000      -0.304572        -8.2878
  82   1.0000      -0.302313        -8.2264
  83   1.0000      -0.299560        -8.1514
  84   1.0000      -0.297515        -8.0958
  85   1.0000      -0.296209        -8.0602
  86   1.0000      -0.294267        -8.0074
  87   1.0000      -0.290593        -7.9074
  88   1.0000      -0.288047        -7.8382
  89   1.0000      -0.287586        -7.8256
  90   1.0000      -0.286872        -7.8062
  91   1.0000      -0.281892        -7.6707
  92   1.0000      -0.279867        -7.6156
  93   1.0000      -0.277125        -7.5410
  94   1.0000      -0.275675        -7.5015
  95   1.0000      -0.274045        -7.4571
  96   1.0000      -0.273030        -7.4295
  97   1.0000      -0.271951        -7.4002
  98   1.0000      -0.270959        -7.3732
  99   1.0000      -0.267472        -7.2783
 100   1.0000      -0.266494        -7.2517
 101   1.0000      -0.266053        -7.2397
 102   1.0000      -0.263972        -7.1830
 103   1.0000      -0.262859        -7.1528
 104   1.0000      -0.262477        -7.1424
 105   1.0000      -0.260644        -7.0925
 106   1.0000      -0.256002        -6.9662
 107   1.0000      -0.255781        -6.9601
 108   1.0000      -0.253910        -6.9092
 109   1.0000      -0.252400        -6.8682
 110   1.0000      -0.250954        -6.8288
 111   1.0000      -0.248847        -6.7715
 112   1.0000      -0.248383        -6.7589
 113   1.0000      -0.245268        -6.6741
 114   1.0000      -0.244058        -6.6411
 115   1.0000      -0.243030        -6.6132
 116   1.0000      -0.242077        -6.5873
 117   1.0000      -0.237612        -6.4658
 118   1.0000      -0.237477        -6.4621
 119   1.0000      -0.232419        -6.3244
 120   1.0000      -0.232232        -6.3194
 121   1.0000      -0.220199        -5.9919
 122   1.0000      -0.200356        -5.4520
 123   1.0000      -0.200220        -5.4483
 124   1.0000      -0.191334        -5.2065
 125   0.0000      -0.152794        -4.1577
 126   0.0000      -0.135153        -3.6777
 127   0.0000      -0.130915        -3.5624
 128   0.0000      -0.121289        -3.3004
 129   0.0000      -0.116961        -3.1827

MULLIKEN ATOMIC CHARGES AND SPIN POPULATIONS
--------------------------------------------
   0 Au:    0.284846   -0.102925
   1 Au:    0.299606   -0.115694
   2 Au:    0.170953   -0.075846
   3 Au:    0.217448   -0.150592
   4 Au:    0.569940   -0.095742
   5 Au:    0.108370    0.022932
   6 Au:    0.396826   -0.134117
   7 Au:    0.283762   -0.102978
   8 Au:   -0.425271   -0.099765
   9 Au:    0.440845   -0.008666
  10 Au:    0.170246   -0.074692
  11 Au:    0.211655   -0.150525
  12 Cr:   -2.729226    3.088609
Sum of atomic charges         :   -0.0000000

LOEWDIN ATOMIC CHARGES AND SPIN POPULATIONS
-------------------------------------------
   0 Au:    0.111734   -0.098380
   1 Au:    0.063490   -0.104952
   2 Au:    0.119026   -0.076908
   3 Au:   -0.003762   -0.114255
   4 Au:    0.125734   -0.094127
   5 Au:    0.150221   -0.012887
   6 Au:    0.089627   -0.109777
   7 Au:    0.112162   -0.098155
   8 Au:   -0.041925   -0.055916
   9 Au:    0.140183   -0.039421
  10 Au:    0.119588   -0.076467
  11 Au:   -0.004562   -0.113629
  12 Cr:   -0.981517    2.994873

  Mayer bond orders larger than 0.100000
B(  0-Au,  4-Au) :   0.1687 B(  0-Au,  6-Au) :   0.2206 B(  0-Au, 10-Au) :   0.3663
B(  0-Au, 12-Cr) :   0.6157 B(  1-Au,  3-Au) :   0.2346 B(  1-Au,  4-Au) :   0.2443
B(  1-Au,  6-Au) :   0.1037 B(  1-Au, 11-Au) :   0.2320 B(  1-Au, 12-Cr) :   0.6385
B(  2-Au,  3-Au) :   0.3243 B(  2-Au,  7-Au) :   0.3668 B(  2-Au, 12-Cr) :   0.6809
B(  3-Au,  8-Au) :   0.2255 B(  3-Au,  9-Au) :   0.3269 B(  3-Au, 11-Au) :   0.1715
B(  3-Au, 12-Cr) :   0.3326 B(  4-Au,  7-Au) :   0.1730 B(  4-Au, 12-Cr) :   0.9700
B(  5-Au,  6-Au) :   0.2603 B(  5-Au,  8-Au) :   0.7136 B(  5-Au, 12-Cr) :   0.6480
B(  6-Au,  7-Au) :   0.2184 B(  6-Au, 12-Cr) :   0.5055 B(  7-Au, 12-Cr) :   0.6153
B(  8-Au,  9-Au) :   0.4398 B(  8-Au, 11-Au) :   0.2274 B(  8-Au, 12-Cr) :   0.4747
B(  9-Au, 11-Au) :   0.3307 B( 10-Au, 11-Au) :   0.3253 B( 10-Au, 12-Cr) :   0.6798
B( 11-Au, 12-Cr) :   0.3345

FINAL SINGLE POINT ENERGY     -2674.147804053342

DIPOLE MOMENT
-------------
                                X             Y             Z
Electronic contribution:      8.52749      28.67184      -8.58901
Nuclear contribution   :     -8.56523     -28.75549       8.53865
                        -----------------------------------------
Total Dipole Moment    :     -0.03773      -0.08365      -0.05036
                        -----------------------------------------
Magnitude (a.u.)       :      0.10468
Magnitude (Debye)      :      0.26607

Rotational constants in cm-1:     0.001758     0.000981     0.000976
Rotational constants in MHz :    52.692230    29.402657    29.266823

                             ****ORCA TERMINATED NORMALLY****
TOTAL RUN TIME: 0 days 3 hours 15 minutes 35 seconds 353 msec
