                         Program Version 5.0.3 -  RELEASE  -
|  1> %pal nprocs 1 end
|  2>
|  3> !PBE def2-TZVP OPT UNO
|  4> !SLOWCONV KDIIS
|  5>
|  6> %geom maxiter 300 end
|  7>
|  8> *xyzfile 0 5 9.xyz                           ****END OF INPUT****
 Total Charge           Charge          ....    0
 Multiplicity           Mult            ....    5
 Number of Electrons    NEL             ....  216
FINAL SINGLE POINT ENERGY     -2621.703559849878
FINAL SINGLE POINT ENERGY     -2621.705855704677
FINAL SINGLE POINT ENERGY     -2621.707012134971
FINAL SINGLE POINT ENERGY     -2621.708354870656
FINAL SINGLE POINT ENERGY     -2621.709245749128
FINAL SINGLE POINT ENERGY     -2621.709626995812
FINAL SINGLE POINT ENERGY     -2621.709670104717
FINAL SINGLE POINT ENERGY     -2621.709679513111
FINAL SINGLE POINT ENERGY     -2621.709684011175
                    ***********************HURRAY********************

CARTESIAN COORDINATES (ANGSTROEM)
---------------------------------
  Au     9.843594    8.388957    9.424908
  Au     7.456289    6.893656    9.674453
  Au     7.883668    8.792490    7.429436
  Au    11.013209    7.559575    6.986573
  Au    10.586251    5.664541    9.227361
  Au     9.632383    3.867225    7.524603
  Au    10.059158    5.765706    5.279146
  Au     6.931386    6.994032    5.726031
  Au     6.504332    5.099556    7.967250
  Au     7.672787    4.269569    5.528355
  Fe     8.758568    6.329987    7.477295

 Multiplicity           Mult            ....    5
 Number of Electrons    NEL             ....  216
 Basis Dimension        Dim             ....  445

ORBITAL ENERGIES
----------------
                 SPIN UP ORBITALS
  NO   OCC          E(Eh)            E(eV)
   0   1.0000    -254.773632     -6932.7430
   1   1.0000     -29.618634      -805.9640
   2   1.0000     -25.556854      -695.4373
   3   1.0000     -25.551981      -695.3047
   4   1.0000     -25.551169      -695.2826
   5   1.0000      -4.021872      -109.4407
   6   1.0000      -4.021832      -109.4396
   7   1.0000      -4.021794      -109.4386
   8   1.0000      -4.021783      -109.4383
   9   1.0000      -4.021671      -109.4352
  10   1.0000      -4.021581      -109.4328
  11   1.0000      -4.021523      -109.4312
  12   1.0000      -4.021483      -109.4301
  13   1.0000      -4.021476      -109.4299
  14   1.0000      -4.021458      -109.4294
  15   1.0000      -3.396338       -92.4191
  16   1.0000      -2.241379       -60.9910
  17   1.0000      -2.241231       -60.9870
  18   1.0000      -2.241111       -60.9837
  19   1.0000      -2.240821       -60.9758
  20   1.0000      -2.238836       -60.9218
  21   1.0000      -2.238241       -60.9056
  22   1.0000      -2.238073       -60.9011
  23   1.0000      -2.237794       -60.8935
  24   1.0000      -2.237737       -60.8919
  25   1.0000      -2.237512       -60.8858
  26   1.0000      -2.237162       -60.8763
  27   1.0000      -2.236327       -60.8536
  28   1.0000      -2.235702       -60.8366
  29   1.0000      -2.235256       -60.8244
  30   1.0000      -2.235049       -60.8188
  31   1.0000      -2.234104       -60.7931
  32   1.0000      -2.233653       -60.7808
  33   1.0000      -2.233328       -60.7719
  34   1.0000      -2.233070       -60.7649
  35   1.0000      -2.232992       -60.7628
  36   1.0000      -2.232485       -60.7490
  37   1.0000      -2.232301       -60.7440
  38   1.0000      -2.230098       -60.6841
  39   1.0000      -2.229957       -60.6802
  40   1.0000      -2.229489       -60.6675
  41   1.0000      -2.229354       -60.6638
  42   1.0000      -2.229219       -60.6601
  43   1.0000      -2.229099       -60.6569
  44   1.0000      -2.228670       -60.6452
  45   1.0000      -2.228565       -60.6423
  46   1.0000      -2.216250       -60.3072
  47   1.0000      -2.206180       -60.0332
  48   1.0000      -2.205047       -60.0024
  49   1.0000      -0.420333       -11.4379
  50   1.0000      -0.374590       -10.1931
  51   1.0000      -0.370291       -10.0761
  52   1.0000      -0.366597        -9.9756
  53   1.0000      -0.364076        -9.9070
  54   1.0000      -0.362688        -9.8693
  55   1.0000      -0.358425        -9.7532
  56   1.0000      -0.357924        -9.7396
  57   1.0000      -0.351965        -9.5774
  58   1.0000      -0.350154        -9.5282
  59   1.0000      -0.345561        -9.4032
  60   1.0000      -0.342017        -9.3068
  61   1.0000      -0.335899        -9.1403
  62   1.0000      -0.334839        -9.1114
  63   1.0000      -0.326380        -8.8813
  64   1.0000      -0.325505        -8.8574
  65   1.0000      -0.320957        -8.7337
  66   1.0000      -0.320691        -8.7265
  67   1.0000      -0.314440        -8.5563
  68   1.0000      -0.312827        -8.5125
  69   1.0000      -0.312376        -8.5002
  70   1.0000      -0.307429        -8.3656
  71   1.0000      -0.306933        -8.3521
  72   1.0000      -0.301901        -8.2151
  73   1.0000      -0.300921        -8.1885
  74   1.0000      -0.297576        -8.0974
  75   1.0000      -0.296022        -8.0552
  76   1.0000      -0.292404        -7.9567
  77   1.0000      -0.291013        -7.9189
  78   1.0000      -0.284000        -7.7280
  79   1.0000      -0.283823        -7.7232
  80   1.0000      -0.283368        -7.7108
  81   1.0000      -0.279862        -7.6154
  82   1.0000      -0.276311        -7.5188
  83   1.0000      -0.271542        -7.3890
  84   1.0000      -0.271241        -7.3809
  85   1.0000      -0.270902        -7.3716
  86   1.0000      -0.268974        -7.3191
  87   1.0000      -0.267088        -7.2678
  88   1.0000      -0.266033        -7.2391
  89   1.0000      -0.264369        -7.1938
  90   1.0000      -0.259594        -7.0639
  91   1.0000      -0.259182        -7.0527
  92   1.0000      -0.258677        -7.0389
  93   1.0000      -0.258071        -7.0225
  94   1.0000      -0.257411        -7.0045
  95   1.0000      -0.253717        -6.9040
  96   1.0000      -0.253226        -6.8906
  97   1.0000      -0.250306        -6.8112
  98   1.0000      -0.250292        -6.8108
  99   1.0000      -0.248374        -6.7586
 100   1.0000      -0.248189        -6.7536
 101   1.0000      -0.246628        -6.7111
 102   1.0000      -0.243472        -6.6252
 103   1.0000      -0.242842        -6.6081
 104   1.0000      -0.241250        -6.5647
 105   1.0000      -0.240913        -6.5556
 106   1.0000      -0.232168        -6.3176
 107   1.0000      -0.228271        -6.2116
 108   1.0000      -0.193536        -5.2664
 109   1.0000      -0.183805        -5.0016
 110   0.0000      -0.179340        -4.8801
 111   0.0000      -0.164210        -4.4684
 112   0.0000      -0.121476        -3.3055
 113   0.0000      -0.107509        -2.9255
 114   0.0000      -0.106567        -2.8998

                 SPIN DOWN ORBITALS
  NO   OCC          E(Eh)            E(eV)
   0   1.0000    -254.772881     -6932.7226
   1   1.0000     -29.557428      -804.2985
   2   1.0000     -25.508539      -694.1226
   3   1.0000     -25.506756      -694.0741
   4   1.0000     -25.506005      -694.0537
   5   1.0000      -4.021395      -109.4277
   6   1.0000      -4.021389      -109.4276
   7   1.0000      -4.020710      -109.4091
   8   1.0000      -4.020695      -109.4087
   9   1.0000      -4.020662      -109.4078
  10   1.0000      -4.020655      -109.4076
  11   1.0000      -4.020402      -109.4007
  12   1.0000      -4.020395      -109.4005
  13   1.0000      -4.020357      -109.3995
  14   1.0000      -4.020352      -109.3993
  15   1.0000      -3.258813       -88.6768
  16   1.0000      -2.239656       -60.9441
  17   1.0000      -2.239601       -60.9426
  18   1.0000      -2.239469       -60.9390
  19   1.0000      -2.239347       -60.9357
  20   1.0000      -2.236993       -60.8717
  21   1.0000      -2.236941       -60.8703
  22   1.0000      -2.236603       -60.8611
  23   1.0000      -2.236466       -60.8573
  24   1.0000      -2.235798       -60.8392
  25   1.0000      -2.235685       -60.8361
  26   1.0000      -2.235551       -60.8324
  27   1.0000      -2.234965       -60.8165
  28   1.0000      -2.234878       -60.8141
  29   1.0000      -2.234810       -60.8123
  30   1.0000      -2.234156       -60.7945
  31   1.0000      -2.233554       -60.7781
  32   1.0000      -2.233010       -60.7633
  33   1.0000      -2.232671       -60.7541
  34   1.0000      -2.232428       -60.7474
  35   1.0000      -2.232295       -60.7438
  36   1.0000      -2.231918       -60.7336
  37   1.0000      -2.231568       -60.7240
  38   1.0000      -2.229264       -60.6614
  39   1.0000      -2.229111       -60.6572
  40   1.0000      -2.228689       -60.6457
  41   1.0000      -2.228546       -60.6418
  42   1.0000      -2.228427       -60.6386
  43   1.0000      -2.228303       -60.6352
  44   1.0000      -2.227902       -60.6243
  45   1.0000      -2.227789       -60.6212
  46   1.0000      -2.075872       -56.4873
  47   1.0000      -2.075071       -56.4655
  48   1.0000      -2.073513       -56.4232
  49   1.0000      -0.413668       -11.2565
  50   1.0000      -0.368649       -10.0315
  51   1.0000      -0.361383        -9.8337
  52   1.0000      -0.359990        -9.7958
  53   1.0000      -0.351019        -9.5517
  54   1.0000      -0.350596        -9.5402
  55   1.0000      -0.349072        -9.4987
  56   1.0000      -0.348642        -9.4870
  57   1.0000      -0.344993        -9.3877
  58   1.0000      -0.334429        -9.1003
  59   1.0000      -0.334369        -9.0986
  60   1.0000      -0.334173        -9.0933
  61   1.0000      -0.333464        -9.0740
  62   1.0000      -0.332428        -9.0458
  63   1.0000      -0.324878        -8.8404
  64   1.0000      -0.323699        -8.8083
  65   1.0000      -0.319713        -8.6998
  66   1.0000      -0.312174        -8.4947
  67   1.0000      -0.312103        -8.4928
  68   1.0000      -0.306695        -8.3456
  69   1.0000      -0.305195        -8.3048
  70   1.0000      -0.304141        -8.2761
  71   1.0000      -0.300626        -8.1805
  72   1.0000      -0.296144        -8.0585
  73   1.0000      -0.294028        -8.0009
  74   1.0000      -0.293843        -7.9959
  75   1.0000      -0.292547        -7.9606
  76   1.0000      -0.290773        -7.9123
  77   1.0000      -0.290245        -7.8980
  78   1.0000      -0.282723        -7.6933
  79   1.0000      -0.282340        -7.6829
  80   1.0000      -0.274760        -7.4766
  81   1.0000      -0.274686        -7.4746
  82   1.0000      -0.268951        -7.3185
  83   1.0000      -0.268826        -7.3151
  84   1.0000      -0.268075        -7.2947
  85   1.0000      -0.265107        -7.2139
  86   1.0000      -0.264743        -7.2040
  87   1.0000      -0.262763        -7.1502
  88   1.0000      -0.257623        -7.0103
  89   1.0000      -0.257502        -7.0070
  90   1.0000      -0.257443        -7.0054
  91   1.0000      -0.256085        -6.9684
  92   1.0000      -0.255402        -6.9499
  93   1.0000      -0.253366        -6.8945
  94   1.0000      -0.252794        -6.8789
  95   1.0000      -0.249654        -6.7934
  96   1.0000      -0.246206        -6.6996
  97   1.0000      -0.245557        -6.6819
  98   1.0000      -0.242697        -6.6041
  99   1.0000      -0.241331        -6.5669
 100   1.0000      -0.239679        -6.5220
 101   1.0000      -0.231206        -6.2914
 102   1.0000      -0.225410        -6.1337
 103   1.0000      -0.208219        -5.6659
 104   1.0000      -0.201418        -5.4809
 105   1.0000      -0.200960        -5.4684
 106   0.0000      -0.186811        -5.0834
 107   0.0000      -0.174024        -4.7354
 108   0.0000      -0.163638        -4.4528
 109   0.0000      -0.155785        -4.2391
 110   0.0000      -0.155150        -4.2218

MULLIKEN ATOMIC CHARGES AND SPIN POPULATIONS
--------------------------------------------
   0 Au:    0.197623    0.145101
   1 Au:    0.209632    0.072985
   2 Au:    0.210544    0.070257
   3 Au:    0.210807    0.070249
   4 Au:    0.209871    0.073022
   5 Au:    0.210388    0.070104
   6 Au:    0.209474    0.072824
   7 Au:    0.209712    0.072863
   8 Au:    0.210651    0.070073
   9 Au:    0.197655    0.144798
  10 Fe:   -2.076357    3.137723
Sum of atomic charges         :    0.0000000

LOEWDIN ATOMIC CHARGES AND SPIN POPULATIONS
-------------------------------------------
   0 Au:    0.023866    0.064140
   1 Au:    0.068879    0.074367
   2 Au:    0.069116    0.073303
   3 Au:    0.069136    0.072841
   4 Au:    0.068921    0.073940
   5 Au:    0.069039    0.073239
   6 Au:    0.068760    0.074271
   7 Au:    0.068802    0.073844
   8 Au:    0.069054    0.072762
   9 Au:    0.023905    0.063884
  10 Fe:   -0.599478    3.283409

  Mayer bond orders larger than 0.100000
B(  0-Au,  1-Au) :   0.2016 B(  0-Au,  2-Au) :   0.2029 B(  0-Au,  3-Au) :   0.2005
B(  0-Au,  4-Au) :   0.1993 B(  0-Au,  9-Au) :   0.1201 B(  0-Au, 10-Fe) :   0.4306
B(  1-Au,  2-Au) :   0.1236 B(  1-Au,  8-Au) :   0.4581 B(  1-Au, 10-Fe) :   0.6143
B(  2-Au,  7-Au) :   0.4579 B(  2-Au, 10-Fe) :   0.6149 B(  3-Au,  4-Au) :   0.1260
B(  3-Au,  6-Au) :   0.4577 B(  3-Au, 10-Fe) :   0.6143 B(  4-Au,  5-Au) :   0.4581
B(  4-Au, 10-Fe) :   0.6137 B(  5-Au,  6-Au) :   0.1235 B(  5-Au,  9-Au) :   0.2031
B(  5-Au, 10-Fe) :   0.6149 B(  6-Au,  9-Au) :   0.2020 B(  6-Au, 10-Fe) :   0.6143
B(  7-Au,  8-Au) :   0.1259 B(  7-Au,  9-Au) :   0.1996 B(  7-Au, 10-Fe) :   0.6136
B(  8-Au,  9-Au) :   0.2007 B(  8-Au, 10-Fe) :   0.6143 B(  9-Au, 10-Fe) :   0.4295

FINAL SINGLE POINT ENERGY     -2621.709686045170

DIPOLE MOMENT
-------------
                                X             Y             Z
Electronic contribution:     -0.01001      -0.01748      -0.01822
Nuclear contribution   :      0.00993       0.01730       0.01832
                        -----------------------------------------
Total Dipole Moment    :     -0.00007      -0.00018       0.00009
                        -----------------------------------------
Magnitude (a.u.)       :      0.00021
Magnitude (Debye)      :      0.00054

Rotational constants in cm-1:     0.002107     0.001707     0.001542
Rotational constants in MHz :    63.155337    51.174972    46.214833

                             ****ORCA TERMINATED NORMALLY****
TOTAL RUN TIME: 0 days 0 hours 59 minutes 14 seconds 367 msec
