                         Program Version 5.0.3 -  RELEASE  -
|  1> !RI-B2PLYP def2-TZVP def2-TZVP/C
|  2> !RIJCOSX VERYSLOWCONV
|  3>
|  4> %scf
|  5>   AutoTRAHIter 200
|  6>   maxiter 400
|  7> end
|  8>
|  9>
| 10> %pal nprocs 6 end
| 11>
| 12> *xyzfile 0 5 pbe.xyz
| 13>
| 14> $new_job
| 15>
| 16> !RI-B2PLYP def2-TZVP def2-TZVP/C
| 17> !RIJCOSX VERYSLOWCONV
| 18>
| 19> %scf
| 20>   AutoTRAHIter 200
| 21>   maxiter 400
| 22> end
| 23>
| 24>
| 25> %pal nprocs 6 end
| 26>
| 27> *xyzfile 0 3 pbe.xyz
| 28>
| 29>
| 30>
| 31>
| 32>
| 33>                          ****END OF INPUT****
 Total Charge           Charge          ....    0
 Multiplicity           Mult            ....    5
 Number of Electrons    NEL             ....  214
MP2 TOTAL ENERGY:    -2400.101075957 Eh
FINAL SINGLE POINT ENERGY     -2400.101075956578

CARTESIAN COORDINATES (ANGSTROEM)
---------------------------------
  Au    10.903102    5.430103    8.984597
  Au    10.114515    4.555455    6.441033
  Au     8.959549    3.418794    8.801176
  Au     9.681038    7.740477    9.497642
  Au     8.250496    6.331010    5.328916
  Au     7.703366    9.624382    9.439648
  Au     7.888660    8.349704    7.029397
  Au     6.393741    4.503344    9.122401
  Au     6.632525    7.114976    9.591009
  Au     7.316866    3.973584    6.527665
  Cr     8.412237    5.957169    8.019264

 Multiplicity           Mult            ....    3
 Number of Electrons    NEL             ....  214
 Basis Dimension        Dim             ....  445

ORBITAL ENERGIES
----------------
                 SPIN UP ORBITALS
  NO   OCC          E(Eh)            E(eV)
   0   1.0000    -217.699288     -5923.8988
   1   1.0000     -25.381368      -690.6621
   2   1.0000     -21.519554      -585.5768
   3   1.0000     -21.518629      -585.5517
   4   1.0000     -21.518595      -585.5507
   5   1.0000      -4.397758      -119.6691
   6   1.0000      -4.388853      -119.4268
   7   1.0000      -4.388694      -119.4224
   8   1.0000      -4.388651      -119.4213
   9   1.0000      -4.387870      -119.4000
  10   1.0000      -4.387842      -119.3993
  11   1.0000      -4.387639      -119.3937
  12   1.0000      -4.386073      -119.3511
  13   1.0000      -4.386064      -119.3509
  14   1.0000      -4.385893      -119.3462
  15   1.0000      -3.177090       -86.4530
  16   1.0000      -2.519598       -68.5617
  17   1.0000      -2.515224       -68.4427
  18   1.0000      -2.515209       -68.4423
  19   1.0000      -2.511184       -68.3328
  20   1.0000      -2.510316       -68.3092
  21   1.0000      -2.510273       -68.3080
  22   1.0000      -2.510126       -68.3040
  23   1.0000      -2.509918       -68.2983
  24   1.0000      -2.509867       -68.2970
  25   1.0000      -2.507940       -68.2445
  26   1.0000      -2.507930       -68.2443
  27   1.0000      -2.506965       -68.2180
  28   1.0000      -2.506491       -68.2051
  29   1.0000      -2.506196       -68.1971
  30   1.0000      -2.505870       -68.1882
  31   1.0000      -2.505735       -68.1845
  32   1.0000      -2.504820       -68.1596
  33   1.0000      -2.504731       -68.1572
  34   1.0000      -2.504260       -68.1444
  35   1.0000      -2.502970       -68.1093
  36   1.0000      -2.502950       -68.1087
  37   1.0000      -2.501589       -68.0717
  38   1.0000      -2.501245       -68.0623
  39   1.0000      -2.501133       -68.0593
  40   1.0000      -2.500648       -68.0461
  41   1.0000      -2.500539       -68.0431
  42   1.0000      -2.500207       -68.0341
  43   1.0000      -2.500126       -68.0319
  44   1.0000      -2.500021       -68.0290
  45   1.0000      -2.499642       -68.0187
  46   1.0000      -2.065749       -56.2119
  47   1.0000      -2.065698       -56.2105
  48   1.0000      -2.064646       -56.1819
  49   1.0000      -0.475412       -12.9366
  50   1.0000      -0.463492       -12.6122
  51   1.0000      -0.456835       -12.4311
  52   1.0000      -0.456807       -12.4303
  53   1.0000      -0.450203       -12.2507
  54   1.0000      -0.450175       -12.2499
  55   1.0000      -0.448010       -12.1910
  56   1.0000      -0.439683       -11.9644
  57   1.0000      -0.436586       -11.8801
  58   1.0000      -0.433673       -11.8009
  59   1.0000      -0.433658       -11.8004
  60   1.0000      -0.422812       -11.5053
  61   1.0000      -0.422763       -11.5040
  62   1.0000      -0.419947       -11.4273
  63   1.0000      -0.419855       -11.4248
  64   1.0000      -0.417889       -11.3713
  65   1.0000      -0.413497       -11.2518
  66   1.0000      -0.413445       -11.2504
  67   1.0000      -0.412540       -11.2258
  68   1.0000      -0.407753       -11.0955
  69   1.0000      -0.407589       -11.0911
  70   1.0000      -0.398703       -10.8493
  71   1.0000      -0.397667       -10.8211
  72   1.0000      -0.397486       -10.8161
  73   1.0000      -0.396649       -10.7934
  74   1.0000      -0.385786       -10.4978
  75   1.0000      -0.385720       -10.4960
  76   1.0000      -0.376465       -10.2441
  77   1.0000      -0.375521       -10.2184
  78   1.0000      -0.375482       -10.2174
  79   1.0000      -0.371150       -10.0995
  80   1.0000      -0.371115       -10.0985
  81   1.0000      -0.369963       -10.0672
  82   1.0000      -0.363621        -9.8946
  83   1.0000      -0.363101        -9.8805
  84   1.0000      -0.363063        -9.8794
  85   1.0000      -0.361226        -9.8295
  86   1.0000      -0.361160        -9.8277
  87   1.0000      -0.358236        -9.7481
  88   1.0000      -0.351532        -9.5657
  89   1.0000      -0.351491        -9.5646
  90   1.0000      -0.351148        -9.5552
  91   1.0000      -0.347739        -9.4624
  92   1.0000      -0.347678        -9.4608
  93   1.0000      -0.346927        -9.4404
  94   1.0000      -0.342986        -9.3331
  95   1.0000      -0.334192        -9.0938
  96   1.0000      -0.334122        -9.0919
  97   1.0000      -0.323877        -8.8131
  98   1.0000      -0.322076        -8.7641
  99   1.0000      -0.322023        -8.7627
 100   1.0000      -0.310178        -8.4404
 101   1.0000      -0.305276        -8.3070
 102   1.0000      -0.305133        -8.3031
 103   1.0000      -0.282731        -7.6935
 104   1.0000      -0.265812        -7.2331
 105   1.0000      -0.265534        -7.2255
 106   1.0000      -0.258697        -7.0395
 107   1.0000      -0.258680        -7.0390
 108   0.0000      -0.123917        -3.3720
 109   0.0000      -0.088132        -2.3982
 110   0.0000      -0.088054        -2.3961
 111   0.0000      -0.055919        -1.5216
 112   0.0000      -0.055894        -1.5210

                 SPIN DOWN ORBITALS
  NO   OCC          E(Eh)            E(eV)
   0   1.0000    -217.698036     -5923.8647
   1   1.0000     -25.309531      -688.7073
   2   1.0000     -21.456426      -583.8590
   3   1.0000     -21.450774      -583.7052
   4   1.0000     -21.450673      -583.7025
   5   1.0000      -4.399920      -119.7279
   6   1.0000      -4.389192      -119.4360
   7   1.0000      -4.389035      -119.4317
   8   1.0000      -4.389002      -119.4308
   9   1.0000      -4.388323      -119.4123
  10   1.0000      -4.388295      -119.4116
  11   1.0000      -4.388051      -119.4049
  12   1.0000      -4.385587      -119.3379
  13   1.0000      -4.385576      -119.3376
  14   1.0000      -4.385383      -119.3323
  15   1.0000      -2.952271       -80.3354
  16   1.0000      -2.520866       -68.5963
  17   1.0000      -2.516428       -68.4755
  18   1.0000      -2.516412       -68.4750
  19   1.0000      -2.510414       -68.3118
  20   1.0000      -2.510115       -68.3037
  21   1.0000      -2.510004       -68.3007
  22   1.0000      -2.509679       -68.2918
  23   1.0000      -2.508936       -68.2716
  24   1.0000      -2.508864       -68.2697
  25   1.0000      -2.507058       -68.2205
  26   1.0000      -2.507048       -68.2202
  27   1.0000      -2.506465       -68.2044
  28   1.0000      -2.505822       -68.1869
  29   1.0000      -2.505566       -68.1799
  30   1.0000      -2.505361       -68.1743
  31   1.0000      -2.505164       -68.1690
  32   1.0000      -2.503860       -68.1335
  33   1.0000      -2.503809       -68.1321
  34   1.0000      -2.503075       -68.1121
  35   1.0000      -2.502595       -68.0991
  36   1.0000      -2.502513       -68.0968
  37   1.0000      -2.501618       -68.0725
  38   1.0000      -2.501221       -68.0617
  39   1.0000      -2.501082       -68.0579
  40   1.0000      -2.500077       -68.0306
  41   1.0000      -2.499949       -68.0271
  42   1.0000      -2.499525       -68.0155
  43   1.0000      -2.499237       -68.0077
  44   1.0000      -2.499150       -68.0053
  45   1.0000      -2.498876       -67.9979
  46   1.0000      -1.816090       -49.4183
  47   1.0000      -1.801515       -49.0217
  48   1.0000      -1.801291       -49.0156
  49   1.0000      -0.471945       -12.8423
  50   1.0000      -0.464756       -12.6466
  51   1.0000      -0.454463       -12.3666
  52   1.0000      -0.454412       -12.3652
  53   1.0000      -0.451098       -12.2750
  54   1.0000      -0.451015       -12.2727
  55   1.0000      -0.446125       -12.1397
  56   1.0000      -0.440843       -11.9959
  57   1.0000      -0.438664       -11.9366
  58   1.0000      -0.430824       -11.7233
  59   1.0000      -0.430781       -11.7221
  60   1.0000      -0.422714       -11.5026
  61   1.0000      -0.422584       -11.4991
  62   1.0000      -0.418638       -11.3917
  63   1.0000      -0.414371       -11.2756
  64   1.0000      -0.414277       -11.2731
  65   1.0000      -0.414002       -11.2656
  66   1.0000      -0.411993       -11.2109
  67   1.0000      -0.411967       -11.2102
  68   1.0000      -0.401787       -10.9332
  69   1.0000      -0.401776       -10.9329
  70   1.0000      -0.399974       -10.8839
  71   1.0000      -0.396959       -10.8018
  72   1.0000      -0.393733       -10.7140
  73   1.0000      -0.393703       -10.7132
  74   1.0000      -0.389373       -10.5954
  75   1.0000      -0.389320       -10.5939
  76   1.0000      -0.377387       -10.2692
  77   1.0000      -0.375760       -10.2249
  78   1.0000      -0.375712       -10.2237
  79   1.0000      -0.372141       -10.1265
  80   1.0000      -0.371393       -10.1061
  81   1.0000      -0.371332       -10.1045
  82   1.0000      -0.365921        -9.9572
  83   1.0000      -0.365065        -9.9339
  84   1.0000      -0.365024        -9.9328
  85   1.0000      -0.361269        -9.8306
  86   1.0000      -0.361165        -9.8278
  87   1.0000      -0.358421        -9.7531
  88   1.0000      -0.351458        -9.5637
  89   1.0000      -0.351288        -9.5590
  90   1.0000      -0.351256        -9.5582
  91   1.0000      -0.349793        -9.5184
  92   1.0000      -0.347414        -9.4536
  93   1.0000      -0.347407        -9.4534
  94   1.0000      -0.344131        -9.3643
  95   1.0000      -0.334886        -9.1127
  96   1.0000      -0.334821        -9.1109
  97   1.0000      -0.326208        -8.8766
  98   1.0000      -0.324234        -8.8228
  99   1.0000      -0.323197        -8.7946
 100   1.0000      -0.323025        -8.7899
 101   1.0000      -0.284000        -7.7280
 102   1.0000      -0.283928        -7.7261
 103   1.0000      -0.229366        -6.2414
 104   1.0000      -0.204814        -5.5733
 105   1.0000      -0.204722        -5.5708
 106   0.0000      -0.076038        -2.0691
 107   0.0000      -0.075974        -2.0674
 108   0.0000      -0.069288        -1.8854
 109   0.0000      -0.034530        -0.9396
 110   0.0000      -0.007226        -0.1966

MULLIKEN ATOMIC CHARGES AND SPIN POPULATIONS
--------------------------------------------
   0 Au:    0.229071   -0.044133
   1 Au:    0.427762   -0.232951
   2 Au:    0.427521   -0.233367
   3 Au:    0.077643   -0.308915
   4 Au:    0.226284   -0.044356
   5 Au:    0.348872   -0.404602
   6 Au:    0.079928   -0.309528
   7 Au:    0.226818   -0.044521
   8 Au:    0.079167   -0.309505
   9 Au:    0.428510   -0.233842
  10 Cr:   -2.551576    4.165721
Sum of atomic charges         :   -0.0000000

LOEWDIN ATOMIC CHARGES AND SPIN POPULATIONS
-------------------------------------------
   0 Au:    0.120013   -0.126515
   1 Au:    0.082902   -0.185742
   2 Au:    0.082789   -0.186017
   3 Au:    0.050030   -0.205303
   4 Au:    0.120536   -0.127672
   5 Au:    0.162267   -0.311792
   6 Au:    0.050588   -0.207011
   7 Au:    0.120518   -0.127755
   8 Au:    0.050614   -0.206920
   9 Au:    0.082741   -0.186080
  10 Cr:   -0.922999    3.870806

  Mayer bond orders larger than 0.100000
B(  0-Au,  1-Au) :   0.2073 B(  0-Au,  2-Au) :   0.2076 B(  0-Au,  3-Au) :   0.3873
B(  0-Au, 10-Cr) :   0.4280 B(  1-Au,  2-Au) :   0.1016 B(  1-Au,  4-Au) :   0.2067
B(  1-Au,  9-Au) :   0.1028 B(  1-Au, 10-Cr) :   0.5599 B(  2-Au,  7-Au) :   0.2067
B(  2-Au,  9-Au) :   0.1025 B(  2-Au, 10-Cr) :   0.5600 B(  3-Au,  5-Au) :   0.2314
B(  3-Au, 10-Cr) :   0.5755 B(  4-Au,  6-Au) :   0.3864 B(  4-Au,  9-Au) :   0.2068
B(  4-Au, 10-Cr) :   0.4290 B(  5-Au,  6-Au) :   0.2327 B(  5-Au,  8-Au) :   0.2327
B(  5-Au, 10-Cr) :   0.2920 B(  6-Au, 10-Cr) :   0.5751 B(  7-Au,  8-Au) :   0.3864
B(  7-Au,  9-Au) :   0.2067 B(  7-Au, 10-Cr) :   0.4289 B(  8-Au, 10-Cr) :   0.5754
B(  9-Au, 10-Cr) :   0.5563

MP2 TOTAL ENERGY:    -2400.099197925 Eh
FINAL SINGLE POINT ENERGY     -2400.099197924953

DIPOLE MOMENT
-------------
                                X             Y             Z
Electronic contribution:     -1.03242       5.42737       2.10512
Nuclear contribution   :      0.97345      -5.13838      -1.99520
                        -----------------------------------------
Total Dipole Moment    :     -0.05897       0.28899       0.10992
                        -----------------------------------------
Magnitude (a.u.)       :      0.31476
Magnitude (Debye)      :      0.80006

Rotational constants in cm-1:     0.002191     0.001394     0.001393
Rotational constants in MHz :    65.688799    41.789289    41.773619

                             ****ORCA TERMINATED NORMALLY****
TOTAL RUN TIME: 0 days 0 hours 26 minutes 50 seconds 816 msec
