                         Program Version 5.0.3 -  RELEASE  -
|  1> !R2SCAN def2-TZVP VERYSLOWCONV
|  2> !KDIIS
|  3> %scf
|  4>   AutoTRAHIter 200
|  5>   maxiter 400
|  6> end
|  7>
|  8> %pal nprocs 6 end
|  9>
| 10> *xyzfile 0 5 pbe.xyz
| 11>
| 12> $new_job
| 13>
| 14> !R2SCAN def2-TZVP VERYSLOWCONV
| 15> !KDIIS
| 16> %scf
| 17>   AutoTRAHIter 200
| 18>   maxiter 400
| 19> end
| 20>
| 21>
| 22> %pal nprocs 6 end
| 23>
| 24> *xyzfile 0 3 pbe.xyz
| 25>
| 26>
| 27>
| 28>
| 29>
| 30>                          ****END OF INPUT****
 Total Charge           Charge          ....    0
 Multiplicity           Mult            ....    5
 Number of Electrons    NEL             ....  214
FINAL SINGLE POINT ENERGY     -2402.871732952174

CARTESIAN COORDINATES (ANGSTROEM)
---------------------------------
  Au    10.903102    5.430103    8.984597
  Au    10.114515    4.555455    6.441033
  Au     8.959549    3.418794    8.801176
  Au     9.681038    7.740477    9.497642
  Au     8.250496    6.331010    5.328916
  Au     7.703366    9.624382    9.439648
  Au     7.888660    8.349704    7.029397
  Au     6.393741    4.503344    9.122401
  Au     6.632525    7.114976    9.591009
  Au     7.316866    3.973584    6.527665
  Cr     8.412237    5.957169    8.019264

 Multiplicity           Mult            ....    3
 Number of Electrons    NEL             ....  214
 Basis Dimension        Dim             ....  445

ORBITAL ENERGIES
----------------
                 SPIN UP ORBITALS
  NO   OCC          E(Eh)            E(eV)
   0   1.0000    -215.291711     -5858.3853
   1   1.0000     -24.594698      -669.2558
   2   1.0000     -20.863403      -567.7221
   3   1.0000     -20.859742      -567.6224
   4   1.0000     -20.859741      -567.6224
   5   1.0000      -4.113517      -111.9345
   6   1.0000      -4.110591      -111.8549
   7   1.0000      -4.110569      -111.8543
   8   1.0000      -4.110531      -111.8532
   9   1.0000      -4.108982      -111.8111
  10   1.0000      -4.108841      -111.8073
  11   1.0000      -4.108811      -111.8064
  12   1.0000      -4.106998      -111.7571
  13   1.0000      -4.106975      -111.7565
  14   1.0000      -4.106965      -111.7562
  15   1.0000      -2.912706       -79.2588
  16   1.0000      -2.304703       -62.7142
  17   1.0000      -2.302671       -62.6589
  18   1.0000      -2.302654       -62.6584
  19   1.0000      -2.301315       -62.6220
  20   1.0000      -2.299623       -62.5759
  21   1.0000      -2.298499       -62.5453
  22   1.0000      -2.298489       -62.5451
  23   1.0000      -2.298308       -62.5401
  24   1.0000      -2.298300       -62.5399
  25   1.0000      -2.297721       -62.5242
  26   1.0000      -2.296739       -62.4974
  27   1.0000      -2.296731       -62.4972
  28   1.0000      -2.296583       -62.4932
  29   1.0000      -2.296573       -62.4929
  30   1.0000      -2.295344       -62.4595
  31   1.0000      -2.294721       -62.4425
  32   1.0000      -2.294550       -62.4379
  33   1.0000      -2.294515       -62.4369
  34   1.0000      -2.292970       -62.3949
  35   1.0000      -2.292353       -62.3781
  36   1.0000      -2.292331       -62.3775
  37   1.0000      -2.291935       -62.3667
  38   1.0000      -2.290469       -62.3268
  39   1.0000      -2.290438       -62.3260
  40   1.0000      -2.289195       -62.2922
  41   1.0000      -2.289164       -62.2913
  42   1.0000      -2.288877       -62.2835
  43   1.0000      -2.288529       -62.2740
  44   1.0000      -2.288517       -62.2737
  45   1.0000      -2.288369       -62.2697
  46   1.0000      -1.861252       -50.6472
  47   1.0000      -1.857841       -50.5544
  48   1.0000      -1.857836       -50.5543
  49   1.0000      -0.410276       -11.1642
  50   1.0000      -0.381732       -10.3875
  51   1.0000      -0.367948       -10.0124
  52   1.0000      -0.367931       -10.0119
  53   1.0000      -0.363385        -9.8882
  54   1.0000      -0.363363        -9.8876
  55   1.0000      -0.363313        -9.8862
  56   1.0000      -0.356724        -9.7070
  57   1.0000      -0.343566        -9.3489
  58   1.0000      -0.340600        -9.2682
  59   1.0000      -0.340570        -9.2674
  60   1.0000      -0.332241        -9.0407
  61   1.0000      -0.332204        -9.0397
  62   1.0000      -0.327835        -8.9208
  63   1.0000      -0.326890        -8.8951
  64   1.0000      -0.326781        -8.8922
  65   1.0000      -0.323725        -8.8090
  66   1.0000      -0.323122        -8.7926
  67   1.0000      -0.323059        -8.7909
  68   1.0000      -0.317109        -8.6290
  69   1.0000      -0.317048        -8.6273
  70   1.0000      -0.313414        -8.5284
  71   1.0000      -0.309114        -8.4114
  72   1.0000      -0.308955        -8.4071
  73   1.0000      -0.306612        -8.3433
  74   1.0000      -0.296415        -8.0659
  75   1.0000      -0.296397        -8.0654
  76   1.0000      -0.292875        -7.9695
  77   1.0000      -0.285063        -7.7570
  78   1.0000      -0.285015        -7.7556
  79   1.0000      -0.284958        -7.7541
  80   1.0000      -0.282530        -7.6880
  81   1.0000      -0.282477        -7.6866
  82   1.0000      -0.279943        -7.6176
  83   1.0000      -0.275568        -7.4986
  84   1.0000      -0.275515        -7.4971
  85   1.0000      -0.272566        -7.4169
  86   1.0000      -0.272523        -7.4157
  87   1.0000      -0.270179        -7.3519
  88   1.0000      -0.270126        -7.3505
  89   1.0000      -0.265554        -7.2261
  90   1.0000      -0.265539        -7.2257
  91   1.0000      -0.261189        -7.1073
  92   1.0000      -0.260535        -7.0895
  93   1.0000      -0.260515        -7.0890
  94   1.0000      -0.256560        -6.9814
  95   1.0000      -0.255275        -6.9464
  96   1.0000      -0.250396        -6.8136
  97   1.0000      -0.250362        -6.8127
  98   1.0000      -0.242754        -6.6057
  99   1.0000      -0.242715        -6.6046
 100   1.0000      -0.240913        -6.5556
 101   1.0000      -0.236870        -6.4456
 102   1.0000      -0.236847        -6.4449
 103   1.0000      -0.217095        -5.9075
 104   1.0000      -0.211320        -5.7503
 105   1.0000      -0.211282        -5.7493
 106   1.0000      -0.206038        -5.6066
 107   1.0000      -0.206026        -5.6063
 108   0.0000      -0.183996        -5.0068
 109   0.0000      -0.155979        -4.2444
 110   0.0000      -0.155947        -4.2435
 111   0.0000      -0.123518        -3.3611
 112   0.0000      -0.123441        -3.3590

                 SPIN DOWN ORBITALS
  NO   OCC          E(Eh)            E(eV)
   0   1.0000    -215.291092     -5858.3684
   1   1.0000     -24.534444      -667.6162
   2   1.0000     -20.821296      -566.5763
   3   1.0000     -20.811171      -566.3007
   4   1.0000     -20.811168      -566.3007
   5   1.0000      -4.114802      -111.9695
   6   1.0000      -4.110840      -111.8616
   7   1.0000      -4.110814      -111.8609
   8   1.0000      -4.110774      -111.8598
   9   1.0000      -4.109182      -111.8165
  10   1.0000      -4.109042      -111.8127
  11   1.0000      -4.109010      -111.8119
  12   1.0000      -4.106825      -111.7524
  13   1.0000      -4.106806      -111.7519
  14   1.0000      -4.106787      -111.7514
  15   1.0000      -2.753849       -74.9360
  16   1.0000      -2.305604       -62.7387
  17   1.0000      -2.302856       -62.6639
  18   1.0000      -2.302837       -62.6634
  19   1.0000      -2.301430       -62.6251
  20   1.0000      -2.299563       -62.5743
  21   1.0000      -2.299048       -62.5603
  22   1.0000      -2.299036       -62.5600
  23   1.0000      -2.298256       -62.5387
  24   1.0000      -2.298246       -62.5385
  25   1.0000      -2.298125       -62.5352
  26   1.0000      -2.297262       -62.5117
  27   1.0000      -2.297243       -62.5112
  28   1.0000      -2.296429       -62.4890
  29   1.0000      -2.296419       -62.4887
  30   1.0000      -2.294674       -62.4412
  31   1.0000      -2.294642       -62.4404
  32   1.0000      -2.294084       -62.4252
  33   1.0000      -2.294054       -62.4244
  34   1.0000      -2.293229       -62.4019
  35   1.0000      -2.292577       -62.3842
  36   1.0000      -2.292555       -62.3836
  37   1.0000      -2.291952       -62.3672
  38   1.0000      -2.290537       -62.3287
  39   1.0000      -2.290506       -62.3278
  40   1.0000      -2.289010       -62.2871
  41   1.0000      -2.288975       -62.2862
  42   1.0000      -2.288640       -62.2771
  43   1.0000      -2.288153       -62.2638
  44   1.0000      -2.288139       -62.2634
  45   1.0000      -2.288028       -62.2604
  46   1.0000      -1.716510       -46.7086
  47   1.0000      -1.692645       -46.0592
  48   1.0000      -1.692636       -46.0590
  49   1.0000      -0.405270       -11.0279
  50   1.0000      -0.383991       -10.4489
  51   1.0000      -0.367566       -10.0020
  52   1.0000      -0.367508       -10.0004
  53   1.0000      -0.362941        -9.8761
  54   1.0000      -0.362922        -9.8756
  55   1.0000      -0.359306        -9.7772
  56   1.0000      -0.356583        -9.7031
  57   1.0000      -0.345042        -9.3891
  58   1.0000      -0.338854        -9.2207
  59   1.0000      -0.338829        -9.2200
  60   1.0000      -0.331050        -9.0083
  61   1.0000      -0.330940        -9.0053
  62   1.0000      -0.329583        -8.9684
  63   1.0000      -0.325058        -8.8453
  64   1.0000      -0.325042        -8.8448
  65   1.0000      -0.324811        -8.8386
  66   1.0000      -0.322707        -8.7813
  67   1.0000      -0.322674        -8.7804
  68   1.0000      -0.313057        -8.5187
  69   1.0000      -0.312425        -8.5015
  70   1.0000      -0.312388        -8.5005
  71   1.0000      -0.308924        -8.4062
  72   1.0000      -0.308840        -8.4040
  73   1.0000      -0.307934        -8.3793
  74   1.0000      -0.298902        -8.1335
  75   1.0000      -0.298883        -8.1330
  76   1.0000      -0.294773        -8.0212
  77   1.0000      -0.286775        -7.8035
  78   1.0000      -0.286722        -7.8021
  79   1.0000      -0.286431        -7.7942
  80   1.0000      -0.283674        -7.7192
  81   1.0000      -0.283609        -7.7174
  82   1.0000      -0.280950        -7.6450
  83   1.0000      -0.276866        -7.5339
  84   1.0000      -0.276817        -7.5326
  85   1.0000      -0.274422        -7.4674
  86   1.0000      -0.274371        -7.4660
  87   1.0000      -0.272160        -7.4058
  88   1.0000      -0.271455        -7.3867
  89   1.0000      -0.266139        -7.2420
  90   1.0000      -0.266130        -7.2418
  91   1.0000      -0.263315        -7.1652
  92   1.0000      -0.261799        -7.1239
  93   1.0000      -0.261782        -7.1234
  94   1.0000      -0.258367        -7.0305
  95   1.0000      -0.256910        -6.9909
  96   1.0000      -0.251420        -6.8415
  97   1.0000      -0.251386        -6.8406
  98   1.0000      -0.244414        -6.6508
  99   1.0000      -0.244366        -6.6495
 100   1.0000      -0.241564        -6.5733
 101   1.0000      -0.239266        -6.5107
 102   1.0000      -0.239227        -6.5097
 103   1.0000      -0.207505        -5.6465
 104   1.0000      -0.188995        -5.1428
 105   1.0000      -0.188955        -5.1417
 106   0.0000      -0.137857        -3.7513
 107   0.0000      -0.137773        -3.7490
 108   0.0000      -0.130561        -3.5528
 109   0.0000      -0.088077        -2.3967
 110   0.0000      -0.087298        -2.3755

MULLIKEN ATOMIC CHARGES AND SPIN POPULATIONS
--------------------------------------------
   0 Au:    0.253868   -0.049963
   1 Au:    0.414539   -0.167107
   2 Au:    0.414453   -0.167567
   3 Au:    0.113837   -0.192570
   4 Au:    0.253463   -0.049571
   5 Au:    0.325417   -0.253718
   6 Au:    0.114977   -0.191942
   7 Au:    0.253496   -0.049961
   8 Au:    0.114779   -0.192132
   9 Au:    0.414610   -0.167517
  10 Cr:   -2.673440    3.482047
Sum of atomic charges         :   -0.0000000

LOEWDIN ATOMIC CHARGES AND SPIN POPULATIONS
-------------------------------------------
   0 Au:    0.119735   -0.085330
   1 Au:    0.085887   -0.132882
   2 Au:    0.085794   -0.133095
   3 Au:    0.070162   -0.134926
   4 Au:    0.120001   -0.084878
   5 Au:    0.122698   -0.217194
   6 Au:    0.070219   -0.135031
   7 Au:    0.120019   -0.085271
   8 Au:    0.070366   -0.135236
   9 Au:    0.085807   -0.133196
  10 Cr:   -0.950688    3.277038

  Mayer bond orders larger than 0.100000
B(  0-Au,  1-Au) :   0.2233 B(  0-Au,  2-Au) :   0.2235 B(  0-Au,  3-Au) :   0.4145
B(  0-Au, 10-Cr) :   0.4715 B(  1-Au,  2-Au) :   0.1134 B(  1-Au,  4-Au) :   0.2226
B(  1-Au,  9-Au) :   0.1154 B(  1-Au, 10-Cr) :   0.7301 B(  2-Au,  7-Au) :   0.2228
B(  2-Au,  9-Au) :   0.1150 B(  2-Au, 10-Cr) :   0.7302 B(  3-Au,  5-Au) :   0.2851
B(  3-Au, 10-Cr) :   0.7565 B(  4-Au,  6-Au) :   0.4146 B(  4-Au,  9-Au) :   0.2227
B(  4-Au, 10-Cr) :   0.4724 B(  5-Au,  6-Au) :   0.2852 B(  5-Au,  8-Au) :   0.2853
B(  5-Au, 10-Cr) :   0.3176 B(  6-Au, 10-Cr) :   0.7566 B(  7-Au,  8-Au) :   0.4144
B(  7-Au,  9-Au) :   0.2226 B(  7-Au, 10-Cr) :   0.4726 B(  8-Au, 10-Cr) :   0.7564
B(  9-Au, 10-Cr) :   0.7287

FINAL SINGLE POINT ENERGY     -2402.871024661709

DIPOLE MOMENT
-------------
                                X             Y             Z
Electronic contribution:     -1.01088       5.32861       2.06892
Nuclear contribution   :      0.97345      -5.13838      -1.99520
                        -----------------------------------------
Total Dipole Moment    :     -0.03743       0.19023       0.07372
                        -----------------------------------------
Magnitude (a.u.)       :      0.20742
Magnitude (Debye)      :      0.52723

Rotational constants in cm-1:     0.002191     0.001394     0.001393
Rotational constants in MHz :    65.688799    41.789289    41.773619

                             ****ORCA TERMINATED NORMALLY****
TOTAL RUN TIME: 0 days 0 hours 37 minutes 28 seconds 571 msec
