                         Program Version 5.0.3 -  RELEASE  -
|  1> %pal nprocs 4 end
|  2>
|  3> !PBE def2-TZVP OPT UNO
|  4> !SLOWCONV KDIIS
|  5>
|  6> %geom maxiter 300 end
|  7>
|  8> *xyzfile 0 4 9.xyz
|  9>
| 10>                          ****END OF INPUT****
 Total Charge           Charge          ....    0
 Multiplicity           Mult            ....    4
 Number of Electrons    NEL             ....  215
FINAL SINGLE POINT ENERGY     -2509.015139091010
FINAL SINGLE POINT ENERGY     -2509.019472522235
FINAL SINGLE POINT ENERGY     -2509.021472895962
FINAL SINGLE POINT ENERGY     -2509.023333948689
FINAL SINGLE POINT ENERGY     -2509.023413443134
FINAL SINGLE POINT ENERGY     -2509.023728513169
FINAL SINGLE POINT ENERGY     -2509.023914940340
FINAL SINGLE POINT ENERGY     -2509.024302445357
FINAL SINGLE POINT ENERGY     -2509.024932962161
FINAL SINGLE POINT ENERGY     -2509.025415447480
FINAL SINGLE POINT ENERGY     -2509.037523678799
FINAL SINGLE POINT ENERGY     -2509.037568120797
FINAL SINGLE POINT ENERGY     -2509.037580857088
FINAL SINGLE POINT ENERGY     -2509.037594056424
FINAL SINGLE POINT ENERGY     -2509.037598520944
FINAL SINGLE POINT ENERGY     -2509.037603312056
FINAL SINGLE POINT ENERGY     -2509.037607400532
FINAL SINGLE POINT ENERGY     -2509.037610960311
FINAL SINGLE POINT ENERGY     -2509.037612969971
                    ***********************HURRAY********************

CARTESIAN COORDINATES (ANGSTROEM)
---------------------------------
  Au     4.622035    6.719722    5.574994
  Au     8.542776    9.141094    5.891053
  Au     7.082831   11.413768    5.497732
  Au     5.544817    9.143960    5.208950
  Au     9.047167    6.553095    6.233061
  Au     6.946730    4.949064    6.518763
  Au     6.702239   10.134969    7.877777
  Au     5.110743    5.947812    8.507306
  Au     5.974947    8.222236    9.572929
  Au     4.331932    4.171839    6.586275
  Mn     6.679732    7.576085    7.043710

 Multiplicity           Mult            ....    4
 Number of Electrons    NEL             ....  215
 Basis Dimension        Dim             ....  445

ORBITAL ENERGIES
----------------
                 SPIN UP ORBITALS
  NO   OCC          E(Eh)            E(eV)
   0   1.0000    -234.197658     -6372.8423
   1   1.0000     -26.894855      -731.8462
   2   1.0000     -23.043895      -627.0562
   3   1.0000     -23.043527      -627.0462
   4   1.0000     -23.042434      -627.0165
   5   1.0000      -4.023958      -109.4975
   6   1.0000      -4.023939      -109.4970
   7   1.0000      -4.023857      -109.4947
   8   1.0000      -4.023825      -109.4939
   9   1.0000      -4.021711      -109.4363
  10   1.0000      -4.021691      -109.4358
  11   1.0000      -4.020133      -109.3934
  12   1.0000      -4.019817      -109.3848
  13   1.0000      -4.018211      -109.3411
  14   1.0000      -4.018087      -109.3377
  15   1.0000      -3.103301       -84.4451
  16   1.0000      -2.243886       -61.0592
  17   1.0000      -2.243474       -61.0480
  18   1.0000      -2.242898       -61.0324
  19   1.0000      -2.242318       -61.0166
  20   1.0000      -2.241912       -61.0055
  21   1.0000      -2.239603       -60.9427
  22   1.0000      -2.239505       -60.9400
  23   1.0000      -2.237764       -60.8927
  24   1.0000      -2.237479       -60.8849
  25   1.0000      -2.237430       -60.8836
  26   1.0000      -2.237090       -60.8743
  27   1.0000      -2.235817       -60.8397
  28   1.0000      -2.234382       -60.8006
  29   1.0000      -2.234315       -60.7988
  30   1.0000      -2.234105       -60.7931
  31   1.0000      -2.233693       -60.7819
  32   1.0000      -2.233080       -60.7652
  33   1.0000      -2.232631       -60.7530
  34   1.0000      -2.232412       -60.7470
  35   1.0000      -2.232121       -60.7391
  36   1.0000      -2.231847       -60.7316
  37   1.0000      -2.231709       -60.7279
  38   1.0000      -2.230357       -60.6911
  39   1.0000      -2.230328       -60.6903
  40   1.0000      -2.229803       -60.6760
  41   1.0000      -2.229767       -60.6750
  42   1.0000      -2.225507       -60.5591
  43   1.0000      -2.224926       -60.5433
  44   1.0000      -2.224054       -60.5196
  45   1.0000      -2.223916       -60.5158
  46   1.0000      -2.007483       -54.6264
  47   1.0000      -2.006224       -54.5921
  48   1.0000      -2.003529       -54.5188
  49   1.0000      -0.405693       -11.0395
  50   1.0000      -0.382993       -10.4218
  51   1.0000      -0.371360       -10.1052
  52   1.0000      -0.367920       -10.0116
  53   1.0000      -0.361417        -9.8346
  54   1.0000      -0.359518        -9.7830
  55   1.0000      -0.358612        -9.7583
  56   1.0000      -0.354431        -9.6445
  57   1.0000      -0.339353        -9.2343
  58   1.0000      -0.333923        -9.0865
  59   1.0000      -0.332841        -9.0571
  60   1.0000      -0.330340        -8.9890
  61   1.0000      -0.329320        -8.9612
  62   1.0000      -0.325477        -8.8567
  63   1.0000      -0.323444        -8.8014
  64   1.0000      -0.320674        -8.7260
  65   1.0000      -0.319822        -8.7028
  66   1.0000      -0.318006        -8.6534
  67   1.0000      -0.315684        -8.5902
  68   1.0000      -0.309719        -8.4279
  69   1.0000      -0.302427        -8.2295
  70   1.0000      -0.301012        -8.1910
  71   1.0000      -0.297131        -8.0854
  72   1.0000      -0.292537        -7.9603
  73   1.0000      -0.289694        -7.8830
  74   1.0000      -0.289245        -7.8708
  75   1.0000      -0.288261        -7.8440
  76   1.0000      -0.286558        -7.7976
  77   1.0000      -0.283750        -7.7212
  78   1.0000      -0.280987        -7.6460
  79   1.0000      -0.279178        -7.5968
  80   1.0000      -0.276538        -7.5250
  81   1.0000      -0.276497        -7.5239
  82   1.0000      -0.275484        -7.4963
  83   1.0000      -0.275175        -7.4879
  84   1.0000      -0.270341        -7.3563
  85   1.0000      -0.268155        -7.2969
  86   1.0000      -0.267379        -7.2757
  87   1.0000      -0.265320        -7.2197
  88   1.0000      -0.263293        -7.1646
  89   1.0000      -0.262958        -7.1554
  90   1.0000      -0.259861        -7.0712
  91   1.0000      -0.259758        -7.0684
  92   1.0000      -0.257545        -7.0082
  93   1.0000      -0.255209        -6.9446
  94   1.0000      -0.254419        -6.9231
  95   1.0000      -0.253200        -6.8899
  96   1.0000      -0.251784        -6.8514
  97   1.0000      -0.251163        -6.8345
  98   1.0000      -0.249400        -6.7865
  99   1.0000      -0.246828        -6.7165
 100   1.0000      -0.242534        -6.5997
 101   1.0000      -0.240974        -6.5572
 102   1.0000      -0.237605        -6.4656
 103   1.0000      -0.236706        -6.4411
 104   1.0000      -0.231326        -6.2947
 105   1.0000      -0.230353        -6.2682
 106   1.0000      -0.230104        -6.2614
 107   1.0000      -0.228520        -6.2183
 108   1.0000      -0.209625        -5.7042
 109   0.0000      -0.175579        -4.7778
 110   0.0000      -0.170483        -4.6391
 111   0.0000      -0.136242        -3.7073
 112   0.0000      -0.130480        -3.5505
 113   0.0000      -0.122133        -3.3234

                 SPIN DOWN ORBITALS
  NO   OCC          E(Eh)            E(eV)
   0   1.0000    -234.196922     -6372.8222
   1   1.0000     -26.829153      -730.0584
   2   1.0000     -22.993725      -625.6911
   3   1.0000     -22.993675      -625.6897
   4   1.0000     -22.992738      -625.6642
   5   1.0000      -4.023707      -109.4906
   6   1.0000      -4.023690      -109.4902
   7   1.0000      -4.023602      -109.4878
   8   1.0000      -4.023572      -109.4870
   9   1.0000      -4.022528      -109.4585
  10   1.0000      -4.022511      -109.4581
  11   1.0000      -4.019291      -109.3705
  12   1.0000      -4.018974      -109.3618
  13   1.0000      -4.018425      -109.3469
  14   1.0000      -4.018291      -109.3433
  15   1.0000      -2.941993       -80.0557
  16   1.0000      -2.243990       -61.0621
  17   1.0000      -2.243506       -61.0489
  18   1.0000      -2.242764       -61.0287
  19   1.0000      -2.241971       -61.0071
  20   1.0000      -2.241149       -60.9848
  21   1.0000      -2.239366       -60.9363
  22   1.0000      -2.238936       -60.9246
  23   1.0000      -2.237957       -60.8979
  24   1.0000      -2.237518       -60.8860
  25   1.0000      -2.236863       -60.8682
  26   1.0000      -2.236851       -60.8678
  27   1.0000      -2.235246       -60.8241
  28   1.0000      -2.234232       -60.7965
  29   1.0000      -2.234122       -60.7935
  30   1.0000      -2.234004       -60.7903
  31   1.0000      -2.233712       -60.7824
  32   1.0000      -2.233573       -60.7786
  33   1.0000      -2.233227       -60.7692
  34   1.0000      -2.232801       -60.7576
  35   1.0000      -2.232582       -60.7516
  36   1.0000      -2.232581       -60.7516
  37   1.0000      -2.231656       -60.7264
  38   1.0000      -2.230292       -60.6893
  39   1.0000      -2.230256       -60.6883
  40   1.0000      -2.229807       -60.6761
  41   1.0000      -2.229775       -60.6752
  42   1.0000      -2.224950       -60.5440
  43   1.0000      -2.224367       -60.5281
  44   1.0000      -2.223672       -60.5092
  45   1.0000      -2.223526       -60.5052
  46   1.0000      -1.849421       -50.3253
  47   1.0000      -1.847680       -50.2779
  48   1.0000      -1.845061       -50.2067
  49   1.0000      -0.402711       -10.9583
  50   1.0000      -0.384481       -10.4623
  51   1.0000      -0.367437        -9.9985
  52   1.0000      -0.364661        -9.9229
  53   1.0000      -0.363523        -9.8920
  54   1.0000      -0.355913        -9.6849
  55   1.0000      -0.353519        -9.6197
  56   1.0000      -0.352887        -9.6026
  57   1.0000      -0.333729        -9.0812
  58   1.0000      -0.331892        -9.0312
  59   1.0000      -0.331289        -9.0148
  60   1.0000      -0.328379        -8.9356
  61   1.0000      -0.326052        -8.8723
  62   1.0000      -0.318864        -8.6767
  63   1.0000      -0.318312        -8.6617
  64   1.0000      -0.314474        -8.5573
  65   1.0000      -0.312793        -8.5115
  66   1.0000      -0.311122        -8.4661
  67   1.0000      -0.311067        -8.4646
  68   1.0000      -0.308243        -8.3877
  69   1.0000      -0.302328        -8.2268
  70   1.0000      -0.298347        -8.1184
  71   1.0000      -0.294936        -8.0256
  72   1.0000      -0.294308        -8.0085
  73   1.0000      -0.291327        -7.9274
  74   1.0000      -0.290277        -7.8988
  75   1.0000      -0.288656        -7.8547
  76   1.0000      -0.287219        -7.8156
  77   1.0000      -0.282243        -7.6802
  78   1.0000      -0.280891        -7.6434
  79   1.0000      -0.279991        -7.6189
  80   1.0000      -0.277143        -7.5414
  81   1.0000      -0.274786        -7.4773
  82   1.0000      -0.274241        -7.4625
  83   1.0000      -0.271147        -7.3783
  84   1.0000      -0.270858        -7.3704
  85   1.0000      -0.267527        -7.2798
  86   1.0000      -0.266490        -7.2516
  87   1.0000      -0.265865        -7.2346
  88   1.0000      -0.263155        -7.1608
  89   1.0000      -0.262661        -7.1474
  90   1.0000      -0.261468        -7.1149
  91   1.0000      -0.260251        -7.0818
  92   1.0000      -0.257086        -6.9957
  93   1.0000      -0.256534        -6.9806
  94   1.0000      -0.254376        -6.9219
  95   1.0000      -0.250890        -6.8271
  96   1.0000      -0.250035        -6.8038
  97   1.0000      -0.248192        -6.7537
  98   1.0000      -0.244187        -6.6447
  99   1.0000      -0.242929        -6.6104
 100   1.0000      -0.236975        -6.4484
 101   1.0000      -0.235854        -6.4179
 102   1.0000      -0.235701        -6.4138
 103   1.0000      -0.222009        -6.0412
 104   1.0000      -0.192961        -5.2507
 105   1.0000      -0.187422        -5.1000
 106   0.0000      -0.146158        -3.9771
 107   0.0000      -0.139136        -3.7861
 108   0.0000      -0.138655        -3.7730
 109   0.0000      -0.127563        -3.4712
 110   0.0000      -0.123306        -3.3553

MULLIKEN ATOMIC CHARGES AND SPIN POPULATIONS
--------------------------------------------
   0 Au:    0.013595   -0.013353
   1 Au:    0.023486   -0.215914
   2 Au:    0.401001   -0.115746
   3 Au:    0.013132   -0.012087
   4 Au:    0.223423   -0.026910
   5 Au:    0.022457   -0.215690
   6 Au:    0.021801   -0.215790
   7 Au:    0.021552   -0.216157
   8 Au:    0.225380   -0.027065
   9 Au:    0.401653   -0.114493
  10 Mn:   -1.367480    4.173205
Sum of atomic charges         :   -0.0000000

LOEWDIN ATOMIC CHARGES AND SPIN POPULATIONS
-------------------------------------------
   0 Au:    0.011107   -0.013276
   1 Au:   -0.020943   -0.132635
   2 Au:    0.090302   -0.133203
   3 Au:    0.011569   -0.012562
   4 Au:    0.111622   -0.125063
   5 Au:   -0.021287   -0.132297
   6 Au:   -0.021083   -0.132258
   7 Au:   -0.021269   -0.132396
   8 Au:    0.111811   -0.125500
   9 Au:    0.090638   -0.132327
  10 Mn:   -0.342466    4.071519

  Mayer bond orders larger than 0.100000
B(  0-Au,  3-Au) :   0.5981 B(  0-Au,  5-Au) :   0.1272 B(  0-Au,  7-Au) :   0.1271
B(  0-Au,  9-Au) :   0.3337 B(  0-Au, 10-Mn) :   0.5731 B(  1-Au,  2-Au) :   0.3478
B(  1-Au,  3-Au) :   0.1261 B(  1-Au,  4-Au) :   0.4193 B(  1-Au,  6-Au) :   0.1872
B(  1-Au, 10-Mn) :   0.5348 B(  2-Au,  3-Au) :   0.3337 B(  2-Au,  6-Au) :   0.3489
B(  3-Au,  6-Au) :   0.1266 B(  3-Au, 10-Mn) :   0.5746 B(  4-Au,  5-Au) :   0.4204
B(  4-Au, 10-Mn) :   0.5216 B(  5-Au,  7-Au) :   0.1873 B(  5-Au,  9-Au) :   0.3486
B(  5-Au, 10-Mn) :   0.5349 B(  6-Au,  8-Au) :   0.4204 B(  6-Au, 10-Mn) :   0.5359
B(  7-Au,  8-Au) :   0.4214 B(  7-Au,  9-Au) :   0.3484 B(  7-Au, 10-Mn) :   0.5350
B(  8-Au, 10-Mn) :   0.5194

FINAL SINGLE POINT ENERGY     -2509.037613595115

DIPOLE MOMENT
-------------
                                X             Y             Z
Electronic contribution:    -10.51767       2.31624     -10.79698
Nuclear contribution   :     10.47097      -2.30603      10.75043
                        -----------------------------------------
Total Dipole Moment    :     -0.04670       0.01021      -0.04655
                        -----------------------------------------
Magnitude (a.u.)       :      0.06673
Magnitude (Debye)      :      0.16960

Rotational constants in cm-1:     0.002363     0.001210     0.001148
Rotational constants in MHz :    70.848280    36.280496    34.426438

                             ****ORCA TERMINATED NORMALLY****
TOTAL RUN TIME: 0 days 1 hours 39 minutes 42 seconds 379 msec
