                         Program Version 5.0.3 -  RELEASE  -
|  1> !SC-NEVPT2 def2-TZVP def2-TZVP/C
|  2> !MOREAD RIJCOSX def2/J
|  3> %maxcore 4000
|  4> %moinp "casscf.gbw"
|  5> %pal nprocs 6 end
|  6>
|  7> %casscf
|  8>  mult 5,3
|  9>  bweight 1,1
| 10>  nroots 5,45
| 11>  nel 6
| 12>  norb 5
| 13>  ptsettings
| 14>   d4tpre 1e-14 # default = 1e-10
| 15>   d3tpre 1e-14
| 16>  end
| 17>  rel
| 18>    dosoc true
| 19>    gtensor true
| 20>  end
| 21> end
| 22>
| 23>
| 24> *xyzfile 0 5 pbe.xyz
| 25>
| 26>
| 27>                          ****END OF INPUT****

CARTESIAN COORDINATES (ANGSTROEM)
---------------------------------
  Au     6.305628    9.014371    9.031280
  Au     8.735667    5.904696    8.862535
  Au     9.005907    8.663708    9.383534
  Au     8.375974   10.745516    5.484367
  Au     6.074389    6.247279    8.530792
  Au    10.442262   10.047937    7.214382
  Au    10.755290    7.348018    7.522981
  Au     6.794291    8.572291    4.762463
  Au     8.059735   11.032881    8.258156
  Au     9.049718    5.624010    6.078713
  Au     6.387097    5.956057    5.746341
  Au     5.838479   10.609171    6.628954
  Au     4.817217    8.065891    6.772122
  Au     9.498277    8.225057    5.093071
  Fe     7.813583    7.863510    7.135131

 Total Charge           Charge          ....    0
 Multiplicity           Mult            ....    5
 Number of Electrons    NEL             ....  292
 Basis Dimension        Dim             ....  605

ORBITAL ENERGIES
----------------

  NO   OCC          E(Eh)            E(eV)
   0   2.0000    -261.411314     -7113.3635
   1   2.0000     -31.972241      -870.0089
   2   2.0000     -27.452701      -747.0260
   3   2.0000     -27.452205      -747.0125
   4   2.0000     -27.452098      -747.0096
   5   2.0000      -4.733896      -128.8159
   6   2.0000      -4.733758      -128.8121
   7   2.0000      -4.731388      -128.7476
   8   2.0000      -4.731289      -128.7449
   9   2.0000      -4.722306      -128.5005
  10   2.0000      -4.721681      -128.4835
  11   2.0000      -4.718230      -128.3896
  12   2.0000      -4.718031      -128.3842
  13   2.0000      -4.716585      -128.3448
  14   2.0000      -4.716404      -128.3399
  15   2.0000      -4.703881      -127.9991
  16   2.0000      -4.703854      -127.9984
  17   2.0000      -4.701247      -127.9274
  18   2.0000      -4.701072      -127.9227
  19   2.0000      -4.205470      -114.4367
  20   2.0000      -2.785636       -75.8010
  21   2.0000      -2.785062       -75.7854
  22   2.0000      -2.783608       -75.7458
  23   2.0000      -2.774043       -75.4855
  24   2.0000      -2.773161       -75.4616
  25   2.0000      -2.771270       -75.4101
  26   2.0000      -2.770822       -75.3979
  27   2.0000      -2.769363       -75.3582
  28   2.0000      -2.768959       -75.3472
  29   2.0000      -2.768592       -75.3372
  30   2.0000      -2.768354       -75.3308
  31   2.0000      -2.766715       -75.2861
  32   2.0000      -2.766638       -75.2840
  33   2.0000      -2.764930       -75.2376
  34   2.0000      -2.764891       -75.2365
  35   2.0000      -2.759707       -75.0955
  36   2.0000      -2.758685       -75.0676
  37   2.0000      -2.758107       -75.0519
  38   2.0000      -2.757854       -75.0450
  39   2.0000      -2.757408       -75.0329
  40   2.0000      -2.757127       -75.0252
  41   2.0000      -2.757026       -75.0225
  42   2.0000      -2.756298       -75.0027
  43   2.0000      -2.754467       -74.9528
  44   2.0000      -2.753779       -74.9341
  45   2.0000      -2.753323       -74.9217
  46   2.0000      -2.752451       -74.8980
  47   2.0000      -2.752380       -74.8961
  48   2.0000      -2.750901       -74.8558
  49   2.0000      -2.749489       -74.8174
  50   2.0000      -2.748639       -74.7943
  51   2.0000      -2.748564       -74.7922
  52   2.0000      -2.747595       -74.7659
  53   2.0000      -2.742656       -74.6315
  54   2.0000      -2.741843       -74.6093
  55   2.0000      -2.740753       -74.5797
  56   2.0000      -2.739548       -74.5469
  57   2.0000      -2.739517       -74.5460
  58   2.0000      -2.739345       -74.5414
  59   2.0000      -2.736858       -74.4737
  60   2.0000      -2.736187       -74.4554
  61   2.0000      -2.736132       -74.4539
  62   2.0000      -2.735498       -74.4367
  63   2.0000      -2.734459       -74.4084
  64   2.0000      -2.733280       -74.3763
  65   2.0000      -0.594082       -16.1658
  66   2.0000      -0.564319       -15.3559
  67   2.0000      -0.560320       -15.2471
  68   2.0000      -0.558844       -15.2069
  69   2.0000      -0.556694       -15.1484
  70   2.0000      -0.555870       -15.1260
  71   2.0000      -0.555496       -15.1158
  72   2.0000      -0.549722       -14.9587
  73   2.0000      -0.549649       -14.9567
  74   2.0000      -0.549058       -14.9406
  75   2.0000      -0.548258       -14.9189
  76   2.0000      -0.547387       -14.8952
  77   2.0000      -0.546662       -14.8754
  78   2.0000      -0.544038       -14.8040
  79   2.0000      -0.541854       -14.7446
  80   2.0000      -0.538311       -14.6482
  81   2.0000      -0.537177       -14.6173
  82   2.0000      -0.533943       -14.5293
  83   2.0000      -0.532222       -14.4825
  84   2.0000      -0.530928       -14.4473
  85   2.0000      -0.527321       -14.3491
  86   2.0000      -0.526882       -14.3372
  87   2.0000      -0.522876       -14.2282
  88   2.0000      -0.520363       -14.1598
  89   2.0000      -0.518961       -14.1217
  90   2.0000      -0.515813       -14.0360
  91   2.0000      -0.511753       -13.9255
  92   2.0000      -0.509881       -13.8746
  93   2.0000      -0.508217       -13.8293
  94   2.0000      -0.507670       -13.8144
  95   2.0000      -0.500194       -13.6110
  96   2.0000      -0.497413       -13.5353
  97   2.0000      -0.497070       -13.5260
  98   2.0000      -0.496371       -13.5069
  99   2.0000      -0.493212       -13.4210
 100   2.0000      -0.489076       -13.3084
 101   2.0000      -0.480400       -13.0723
 102   2.0000      -0.478434       -13.0188
 103   2.0000      -0.478083       -13.0093
 104   2.0000      -0.477723       -12.9995
 105   2.0000      -0.475111       -12.9284
 106   2.0000      -0.473180       -12.8759
 107   2.0000      -0.467450       -12.7200
 108   2.0000      -0.463449       -12.6111
 109   2.0000      -0.460543       -12.5320
 110   2.0000      -0.456043       -12.4096
 111   2.0000      -0.455116       -12.3843
 112   2.0000      -0.450060       -12.2468
 113   2.0000      -0.449184       -12.2229
 114   2.0000      -0.445793       -12.1307
 115   2.0000      -0.444753       -12.1024
 116   2.0000      -0.444128       -12.0854
 117   2.0000      -0.441807       -12.0222
 118   2.0000      -0.441709       -12.0195
 119   2.0000      -0.439680       -11.9643
 120   2.0000      -0.439513       -11.9598
 121   2.0000      -0.436283       -11.8719
 122   2.0000      -0.434067       -11.8116
 123   2.0000      -0.432997       -11.7824
 124   2.0000      -0.429664       -11.6918
 125   2.0000      -0.428097       -11.6491
 126   2.0000      -0.427627       -11.6363
 127   2.0000      -0.425959       -11.5909
 128   2.0000      -0.422864       -11.5067
 129   2.0000      -0.417511       -11.3610
 130   2.0000      -0.417165       -11.3516
 131   2.0000      -0.411322       -11.1926
 132   2.0000      -0.409034       -11.1304
 133   2.0000      -0.406658       -11.0657
 134   2.0000      -0.400270       -10.8919
 135   2.0000      -0.391362       -10.6495
 136   2.0000      -0.372431       -10.1344
 137   2.0000      -0.363581        -9.8935
 138   2.0000      -0.342866        -9.3298
 139   2.0000      -0.245826        -6.6893
 140   2.0000      -0.243809        -6.6344
 141   2.0000      -0.236354        -6.4315
 142   2.0000      -0.224288        -6.1032
 143   1.2000      -0.282471        -7.6864
 144   1.2000      -0.285570        -7.7707
 145   1.2000      -0.283814        -7.7230
 146   1.2000      -0.283060        -7.7025
 147   1.2000      -0.278585        -7.5807
 148   0.0000      -0.073374        -1.9966
 149   0.0000      -0.019827        -0.5395
 150   0.0000      -0.003158        -0.0859
 151   0.0000       0.001993         0.0542
 152   0.0000       0.014190         0.3861

MULLIKEN ATOMIC CHARGES AND SPIN DENSITIES
------------------------------------------
   0 Au:    0.172859    0.007846
   1 Au:    0.207377    0.006848
   2 Au:    0.224457    0.007678
   3 Au:    0.061426    0.004889
   4 Au:    0.227152    0.006852
   5 Au:    0.050957    0.004472
   6 Au:    0.090619    0.005217
   7 Au:    0.217499    0.007625
   8 Au:    0.061829    0.004879
   9 Au:    0.220869    0.006748
  10 Au:    0.212336    0.006944
  11 Au:    0.051038    0.004516
  12 Au:    0.094778    0.005185
  13 Au:    0.181176    0.007892
  14 Fe:   -2.074373    2.912409
Sum of atomic charges       :    0.0000000

LOEWDIN ATOMIC CHARGES AND SPIN DENSITIES
-----------------------------------------
   0 Au:    0.030378    0.009593
   1 Au:    0.025120    0.008548
   2 Au:    0.038697    0.009612
   3 Au:   -0.058877    0.006273
   4 Au:    0.028332    0.008489
   5 Au:   -0.002361    0.005697
   6 Au:    0.042590    0.006940
   7 Au:    0.036260    0.009559
   8 Au:   -0.058906    0.006265
   9 Au:    0.023673    0.008397
  10 Au:    0.029356    0.008643
  11 Au:   -0.007336    0.005767
  12 Au:    0.047425    0.006861
  13 Au:    0.033212    0.009639
  14 Fe:   -0.207563    2.889717

  Mayer bond orders larger than 0.100000
B(  0-Au,  2-Au) :   0.3631 B(  0-Au,  8-Au) :   0.2151 B(  0-Au, 11-Au) :   0.1208
B(  0-Au, 12-Au) :   0.1207 B(  0-Au, 14-Fe) :   0.4347 B(  1-Au,  2-Au) :   0.1060
B(  1-Au,  4-Au) :   0.2784 B(  1-Au,  6-Au) :   0.1917 B(  1-Au,  9-Au) :   0.1673
B(  1-Au, 14-Fe) :   0.3898 B(  2-Au,  5-Au) :   0.1238 B(  2-Au,  6-Au) :   0.1316
B(  2-Au,  8-Au) :   0.2036 B(  2-Au, 14-Fe) :   0.4109 B(  3-Au,  5-Au) :   0.2545
B(  3-Au,  7-Au) :   0.2151 B(  3-Au,  8-Au) :   0.2385 B(  3-Au, 11-Au) :   0.2593
B(  3-Au, 13-Au) :   0.2058 B(  3-Au, 14-Fe) :   0.2238 B(  4-Au, 10-Au) :   0.1726
B(  4-Au, 12-Au) :   0.1828 B(  4-Au, 14-Fe) :   0.3878 B(  5-Au,  6-Au) :   0.3184
B(  5-Au,  8-Au) :   0.2634 B(  5-Au, 13-Au) :   0.1101 B(  5-Au, 14-Fe) :   0.2133
B(  6-Au,  9-Au) :   0.1837 B(  6-Au, 13-Au) :   0.1185 B(  6-Au, 14-Fe) :   0.3250
B(  7-Au, 11-Au) :   0.1320 B(  7-Au, 12-Au) :   0.1346 B(  7-Au, 13-Au) :   0.3627
B(  7-Au, 14-Fe) :   0.4061 B(  8-Au, 11-Au) :   0.2525 B(  8-Au, 14-Fe) :   0.2230
B(  9-Au, 10-Au) :   0.2785 B(  9-Au, 13-Au) :   0.1067 B(  9-Au, 14-Fe) :   0.3854
B( 10-Au, 12-Au) :   0.1916 B( 10-Au, 14-Fe) :   0.3917 B( 11-Au, 12-Au) :   0.3127
B( 11-Au, 14-Fe) :   0.2140 B( 12-Au, 14-Fe) :   0.3210 B( 13-Au, 14-Fe) :   0.4400

FINAL SINGLE POINT ENERGY     -3156.769360755143

DIPOLE MOMENT
-------------
                                X             Y             Z
Electronic contribution:      1.94175      15.64609      -1.37129
Nuclear contribution   :     -2.04465     -16.27437       1.42392
                        -----------------------------------------
Total Dipole Moment    :     -0.10290      -0.62827       0.05263
                        -----------------------------------------
Magnitude (a.u.)       :      0.63882
Magnitude (Debye)      :      1.62374

Rotational constants in cm-1:     0.001148     0.001112     0.000948
Rotational constants in MHz :    34.412688    33.337662    28.418928

                             ****ORCA TERMINATED NORMALLY****
TOTAL RUN TIME: 0 days 2 hours 46 minutes 34 seconds 794 msec
