                         Program Version 5.0.3 -  RELEASE  -
|  1> !RI-B2PLYP def2-TZVP def2-TZVP/C
|  2> !RIJCOSX VERYSLOWCONV
|  3>
|  4> %scf
|  5>   AutoTRAHIter 200
|  6>   maxiter 400
|  7> end
|  8>
|  9>
| 10> %pal nprocs 6 end
| 11>
| 12> *xyzfile 0 6 pbe.xyz
| 13>
| 14> $new_job
| 15>
| 16> !RI-B2PLYP def2-TZVP def2-TZVP/C
| 17> !RIJCOSX VERYSLOWCONV
| 18>
| 19> %scf
| 20>   AutoTRAHIter 200
| 21>   maxiter 400
| 22> end
| 23>
| 24>
| 25> %pal nprocs 6 end
| 26>
| 27> *xyzfile 0 4 pbe.xyz
| 28>
| 29>
| 30>
| 31>
| 32>
| 33>                          ****END OF INPUT****
 Total Charge           Charge          ....    0
 Multiplicity           Mult            ....    6
 Number of Electrons    NEL             ....  215
MP2 TOTAL ENERGY:    -2506.665116963 Eh
FINAL SINGLE POINT ENERGY     -2506.665116963110

CARTESIAN COORDINATES (ANGSTROEM)
---------------------------------
  Au     5.486576    8.048517    9.134200
  Au     9.483220    9.812500    8.141620
  Au     5.420094    8.957479    6.199820
  Au     4.215995   10.323290    8.233938
  Au     6.931056   10.548294    8.071267
  Au     6.954791    7.146175    5.003923
  Au     9.975179    7.219689    8.451003
  Au     7.248219    6.121896    9.347907
  Au     9.476313    4.569978    8.877550
  Au     8.477259    5.632226    6.569674
  Mn     7.584146    8.002260    7.488494

 Multiplicity           Mult            ....    4
 Number of Electrons    NEL             ....  215
 Basis Dimension        Dim             ....  445

ORBITAL ENERGIES
----------------
                 SPIN UP ORBITALS
  NO   OCC          E(Eh)            E(eV)
   0   1.0000    -237.615516     -6465.8469
   1   1.0000     -28.120434      -765.1959
   2   1.0000     -24.038349      -654.1167
   3   1.0000     -24.037858      -654.1034
   4   1.0000     -24.037704      -654.0992
   5   1.0000      -4.395964      -119.6203
   6   1.0000      -4.395940      -119.6196
   7   1.0000      -4.395841      -119.6169
   8   1.0000      -4.395804      -119.6159
   9   1.0000      -4.392544      -119.5272
  10   1.0000      -4.392482      -119.5255
  11   1.0000      -4.390523      -119.4722
  12   1.0000      -4.390112      -119.4610
  13   1.0000      -4.390010      -119.4582
  14   1.0000      -4.389981      -119.4574
  15   1.0000      -3.598616       -97.9233
  16   1.0000      -2.519775       -68.5666
  17   1.0000      -2.519157       -68.5498
  18   1.0000      -2.518678       -68.5367
  19   1.0000      -2.518065       -68.5200
  20   1.0000      -2.516698       -68.4828
  21   1.0000      -2.516472       -68.4767
  22   1.0000      -2.515900       -68.4611
  23   1.0000      -2.513720       -68.4018
  24   1.0000      -2.513601       -68.3986
  25   1.0000      -2.512005       -68.3551
  26   1.0000      -2.511277       -68.3353
  27   1.0000      -2.509592       -68.2895
  28   1.0000      -2.509539       -68.2880
  29   1.0000      -2.509513       -68.2873
  30   1.0000      -2.508708       -68.2654
  31   1.0000      -2.508629       -68.2633
  32   1.0000      -2.508369       -68.2562
  33   1.0000      -2.508340       -68.2554
  34   1.0000      -2.508278       -68.2537
  35   1.0000      -2.508055       -68.2476
  36   1.0000      -2.507421       -68.2304
  37   1.0000      -2.506965       -68.2180
  38   1.0000      -2.506934       -68.2172
  39   1.0000      -2.505213       -68.1703
  40   1.0000      -2.505065       -68.1663
  41   1.0000      -2.504139       -68.1411
  42   1.0000      -2.502159       -68.0872
  43   1.0000      -2.502116       -68.0860
  44   1.0000      -2.502040       -68.0840
  45   1.0000      -2.501350       -68.0652
  46   1.0000      -2.400306       -65.3156
  47   1.0000      -2.399531       -65.2946
  48   1.0000      -2.399411       -65.2913
  49   1.0000      -0.512514       -13.9462
  50   1.0000      -0.504613       -13.7312
  51   1.0000      -0.502763       -13.6809
  52   1.0000      -0.500914       -13.6306
  53   1.0000      -0.496432       -13.5086
  54   1.0000      -0.473573       -12.8866
  55   1.0000      -0.471809       -12.8386
  56   1.0000      -0.463161       -12.6033
  57   1.0000      -0.456827       -12.4309
  58   1.0000      -0.449726       -12.2377
  59   1.0000      -0.449673       -12.2362
  60   1.0000      -0.444384       -12.0923
  61   1.0000      -0.436022       -11.8648
  62   1.0000      -0.434320       -11.8184
  63   1.0000      -0.433178       -11.7874
  64   1.0000      -0.429403       -11.6847
  65   1.0000      -0.426867       -11.6156
  66   1.0000      -0.423293       -11.5184
  67   1.0000      -0.420327       -11.4377
  68   1.0000      -0.416897       -11.3444
  69   1.0000      -0.407992       -11.1020
  70   1.0000      -0.403839       -10.9890
  71   1.0000      -0.398926       -10.8553
  72   1.0000      -0.396607       -10.7922
  73   1.0000      -0.393464       -10.7067
  74   1.0000      -0.390928       -10.6377
  75   1.0000      -0.388401       -10.5689
  76   1.0000      -0.386020       -10.5041
  77   1.0000      -0.384655       -10.4670
  78   1.0000      -0.383748       -10.4423
  79   1.0000      -0.382950       -10.4206
  80   1.0000      -0.377827       -10.2812
  81   1.0000      -0.377126       -10.2621
  82   1.0000      -0.376292       -10.2394
  83   1.0000      -0.376150       -10.2356
  84   1.0000      -0.371194       -10.1007
  85   1.0000      -0.367850       -10.0097
  86   1.0000      -0.367270        -9.9939
  87   1.0000      -0.364680        -9.9235
  88   1.0000      -0.362477        -9.8635
  89   1.0000      -0.361640        -9.8407
  90   1.0000      -0.361156        -9.8276
  91   1.0000      -0.360327        -9.8050
  92   1.0000      -0.359302        -9.7771
  93   1.0000      -0.358448        -9.7539
  94   1.0000      -0.357626        -9.7315
  95   1.0000      -0.355220        -9.6660
  96   1.0000      -0.349502        -9.5104
  97   1.0000      -0.348513        -9.4835
  98   1.0000      -0.346846        -9.4382
  99   1.0000      -0.343632        -9.3507
 100   1.0000      -0.340485        -9.2651
 101   1.0000      -0.334462        -9.1012
 102   1.0000      -0.327445        -8.9102
 103   1.0000      -0.325612        -8.8604
 104   1.0000      -0.317193        -8.6312
 105   1.0000      -0.315137        -8.5753
 106   1.0000      -0.275595        -7.4993
 107   1.0000      -0.272485        -7.4147
 108   1.0000      -0.238457        -6.4887
 109   0.0000      -0.107718        -2.9311
 110   0.0000      -0.101658        -2.7663
 111   0.0000      -0.070084        -1.9071
 112   0.0000      -0.064245        -1.7482
 113   0.0000      -0.051685        -1.4064

                 SPIN DOWN ORBITALS
  NO   OCC          E(Eh)            E(eV)
   0   1.0000    -237.613410     -6465.7896
   1   1.0000     -28.019280      -762.4434
   2   1.0000     -23.945369      -651.5866
   3   1.0000     -23.945015      -651.5770
   4   1.0000     -23.944917      -651.5743
   5   1.0000      -4.396426      -119.6328
   6   1.0000      -4.396400      -119.6321
   7   1.0000      -4.396297      -119.6293
   8   1.0000      -4.396264      -119.6284
   9   1.0000      -4.394115      -119.5699
  10   1.0000      -4.394052      -119.5682
  11   1.0000      -4.390454      -119.4703
  12   1.0000      -4.390405      -119.4690
  13   1.0000      -4.389573      -119.4464
  14   1.0000      -4.389161      -119.4352
  15   1.0000      -3.314055       -90.1800
  16   1.0000      -2.520017       -68.5732
  17   1.0000      -2.519202       -68.5510
  18   1.0000      -2.518383       -68.5287
  19   1.0000      -2.517167       -68.4956
  20   1.0000      -2.515429       -68.4483
  21   1.0000      -2.515258       -68.4437
  22   1.0000      -2.514655       -68.4272
  23   1.0000      -2.513251       -68.3890
  24   1.0000      -2.512874       -68.3788
  25   1.0000      -2.512857       -68.3783
  26   1.0000      -2.511939       -68.3533
  27   1.0000      -2.510026       -68.3013
  28   1.0000      -2.509739       -68.2935
  29   1.0000      -2.509253       -68.2802
  30   1.0000      -2.509229       -68.2796
  31   1.0000      -2.508784       -68.2675
  32   1.0000      -2.508632       -68.2634
  33   1.0000      -2.508450       -68.2584
  34   1.0000      -2.508096       -68.2488
  35   1.0000      -2.507827       -68.2414
  36   1.0000      -2.507818       -68.2412
  37   1.0000      -2.506780       -68.2130
  38   1.0000      -2.506590       -68.2078
  39   1.0000      -2.506520       -68.2059
  40   1.0000      -2.506301       -68.1999
  41   1.0000      -2.503284       -68.1178
  42   1.0000      -2.501322       -68.0644
  43   1.0000      -2.501296       -68.0637
  44   1.0000      -2.501252       -68.0625
  45   1.0000      -2.500646       -68.0460
  46   1.0000      -2.076140       -56.4946
  47   1.0000      -2.073396       -56.4200
  48   1.0000      -2.072733       -56.4019
  49   1.0000      -0.483320       -13.1518
  50   1.0000      -0.470936       -12.8148
  51   1.0000      -0.466833       -12.7032
  52   1.0000      -0.460577       -12.5329
  53   1.0000      -0.457739       -12.4557
  54   1.0000      -0.457024       -12.4363
  55   1.0000      -0.455329       -12.3901
  56   1.0000      -0.452643       -12.3170
  57   1.0000      -0.437693       -11.9102
  58   1.0000      -0.435808       -11.8590
  59   1.0000      -0.434047       -11.8110
  60   1.0000      -0.429509       -11.6875
  61   1.0000      -0.427317       -11.6279
  62   1.0000      -0.420832       -11.4514
  63   1.0000      -0.420739       -11.4489
  64   1.0000      -0.415091       -11.2952
  65   1.0000      -0.414326       -11.2744
  66   1.0000      -0.411759       -11.2045
  67   1.0000      -0.409096       -11.1321
  68   1.0000      -0.408072       -11.1042
  69   1.0000      -0.404390       -11.0040
  70   1.0000      -0.399015       -10.8577
  71   1.0000      -0.390389       -10.6230
  72   1.0000      -0.389541       -10.6000
  73   1.0000      -0.388778       -10.5792
  74   1.0000      -0.387877       -10.5547
  75   1.0000      -0.387692       -10.5496
  76   1.0000      -0.380340       -10.3496
  77   1.0000      -0.380271       -10.3477
  78   1.0000      -0.376637       -10.2488
  79   1.0000      -0.374287       -10.1849
  80   1.0000      -0.372806       -10.1446
  81   1.0000      -0.371362       -10.1053
  82   1.0000      -0.370596       -10.0844
  83   1.0000      -0.369054       -10.0425
  84   1.0000      -0.365090        -9.9346
  85   1.0000      -0.364694        -9.9238
  86   1.0000      -0.362122        -9.8538
  87   1.0000      -0.361436        -9.8352
  88   1.0000      -0.359987        -9.7957
  89   1.0000      -0.359789        -9.7904
  90   1.0000      -0.358090        -9.7441
  91   1.0000      -0.352407        -9.5895
  92   1.0000      -0.351548        -9.5661
  93   1.0000      -0.348789        -9.4910
  94   1.0000      -0.344425        -9.3723
  95   1.0000      -0.344097        -9.3634
  96   1.0000      -0.337580        -9.1860
  97   1.0000      -0.334606        -9.1051
  98   1.0000      -0.331612        -9.0236
  99   1.0000      -0.324446        -8.8286
 100   1.0000      -0.319464        -8.6931
 101   1.0000      -0.295370        -8.0374
 102   1.0000      -0.289948        -7.8899
 103   1.0000      -0.248106        -6.7513
 104   1.0000      -0.215072        -5.8524
 105   1.0000      -0.206839        -5.6284
 106   0.0000      -0.081409        -2.2153
 107   0.0000      -0.068931        -1.8757
 108   0.0000      -0.065325        -1.7776
 109   0.0000      -0.031158        -0.8479
 110   0.0000      -0.025274        -0.6877

MULLIKEN ATOMIC CHARGES AND SPIN POPULATIONS
--------------------------------------------
   0 Au:   -0.010034   -0.048791
   1 Au:    0.223758    0.014832
   2 Au:   -0.028931   -0.309661
   3 Au:    0.361880   -0.195615
   4 Au:   -0.030950   -0.308797
   5 Au:    0.221495    0.015085
   6 Au:   -0.030887   -0.309435
   7 Au:   -0.011050   -0.048468
   8 Au:    0.362715   -0.195693
   9 Au:   -0.029806   -0.308709
  10 Mn:   -1.028190    4.695252
Sum of atomic charges         :   -0.0000000

LOEWDIN ATOMIC CHARGES AND SPIN POPULATIONS
-------------------------------------------
   0 Au:   -0.027678   -0.049124
   1 Au:    0.088027   -0.166017
   2 Au:   -0.056188   -0.195206
   3 Au:    0.114331   -0.165280
   4 Au:   -0.056235   -0.194650
   5 Au:    0.087664   -0.165684
   6 Au:   -0.056526   -0.195021
   7 Au:   -0.027821   -0.048893
   8 Au:    0.114469   -0.165306
   9 Au:   -0.056320   -0.195027
  10 Mn:   -0.123725    4.540208

  Mayer bond orders larger than 0.100000
B(  0-Au,  2-Au) :   0.1048 B(  0-Au,  3-Au) :   0.2995 B(  0-Au,  4-Au) :   0.1045
B(  0-Au,  7-Au) :   0.5926 B(  0-Au, 10-Mn) :   0.4919 B(  1-Au,  4-Au) :   0.3732
B(  1-Au,  6-Au) :   0.3731 B(  1-Au, 10-Mn) :   0.4990 B(  2-Au,  3-Au) :   0.3217
B(  2-Au,  4-Au) :   0.1700 B(  2-Au,  5-Au) :   0.3724 B(  2-Au, 10-Mn) :   0.4431
B(  3-Au,  4-Au) :   0.3221 B(  4-Au, 10-Mn) :   0.4443 B(  5-Au,  9-Au) :   0.3726
B(  5-Au, 10-Mn) :   0.5012 B(  6-Au,  7-Au) :   0.1052 B(  6-Au,  8-Au) :   0.3220
B(  6-Au,  9-Au) :   0.1705 B(  6-Au, 10-Mn) :   0.4433 B(  7-Au,  8-Au) :   0.3001
B(  7-Au,  9-Au) :   0.1045 B(  7-Au, 10-Mn) :   0.4927 B(  8-Au,  9-Au) :   0.3213
B(  9-Au, 10-Mn) :   0.4425

MP2 TOTAL ENERGY:    -2506.670530286 Eh
FINAL SINGLE POINT ENERGY     -2506.670530286374

DIPOLE MOMENT
-------------
                                X             Y             Z
Electronic contribution:     -7.92220      -5.98833      11.47225
Nuclear contribution   :      7.86929       5.94900     -11.39402
                        -----------------------------------------
Total Dipole Moment    :     -0.05290      -0.03933       0.07823
                        -----------------------------------------
Magnitude (a.u.)       :      0.10230
Magnitude (Debye)      :      0.26004

Rotational constants in cm-1:     0.002364     0.001210     0.001148
Rotational constants in MHz :    70.874428    36.262003    34.430306

                             ****ORCA TERMINATED NORMALLY****
TOTAL RUN TIME: 0 days 0 hours 18 minutes 29 seconds 921 msec
