                         Program Version 5.0.3 -  RELEASE  -
|  1> !PBE def2-TZVP VERYSLOWCONV
|  2> !KDIIS
|  3>
|  4> %scf
|  5>   AutoTRAHIter 200
|  6>   maxiter 400
|  7> end
|  8>
|  9>
| 10> %pal nprocs 6 end
| 11>
| 12> *xyzfile 0 6 pbe.xyz
| 13>
| 14> $new_job
| 15>
| 16> !PBE def2-TZVP VERYSLOWCONV
| 17> !KDIIS
| 18>
| 19> %scf
| 20>   AutoTRAHIter 200
| 21>   maxiter 400
| 22> end
| 23>
| 24>
| 25> %pal nprocs 6 end
| 26>
| 27> *xyzfile 0 4 pbe.xyz
| 28>
| 29>
| 30>
| 31>
| 32>
| 33>                          ****END OF INPUT****
 Total Charge           Charge          ....    0
 Multiplicity           Mult            ....    6
 Number of Electrons    NEL             ....  215
FINAL SINGLE POINT ENERGY     -2509.031038905911

CARTESIAN COORDINATES (ANGSTROEM)
---------------------------------
  Au     5.486576    8.048517    9.134200
  Au     9.483220    9.812500    8.141620
  Au     5.420094    8.957479    6.199820
  Au     4.215995   10.323290    8.233938
  Au     6.931056   10.548294    8.071267
  Au     6.954791    7.146175    5.003923
  Au     9.975179    7.219689    8.451003
  Au     7.248219    6.121896    9.347907
  Au     9.476313    4.569978    8.877550
  Au     8.477259    5.632226    6.569674
  Mn     7.584146    8.002260    7.488494

 Multiplicity           Mult            ....    4
 Number of Electrons    NEL             ....  215
 Basis Dimension        Dim             ....  445

ORBITAL ENERGIES
----------------
                 SPIN UP ORBITALS
  NO   OCC          E(Eh)            E(eV)
   0   1.0000    -234.197420     -6372.8358
   1   1.0000     -26.894633      -731.8402
   2   1.0000     -23.043664      -627.0500
   3   1.0000     -23.043305      -627.0402
   4   1.0000     -23.042214      -627.0105
   5   1.0000      -4.023929      -109.4967
   6   1.0000      -4.023909      -109.4961
   7   1.0000      -4.023819      -109.4937
   8   1.0000      -4.023788      -109.4928
   9   1.0000      -4.021734      -109.4369
  10   1.0000      -4.021733      -109.4369
  11   1.0000      -4.020166      -109.3943
  12   1.0000      -4.019849      -109.3856
  13   1.0000      -4.018185      -109.3404
  14   1.0000      -4.018131      -109.3389
  15   1.0000      -3.103130       -84.4405
  16   1.0000      -2.243861       -61.0586
  17   1.0000      -2.243452       -61.0474
  18   1.0000      -2.242866       -61.0315
  19   1.0000      -2.242278       -61.0155
  20   1.0000      -2.241957       -61.0068
  21   1.0000      -2.239581       -60.9421
  22   1.0000      -2.239482       -60.9394
  23   1.0000      -2.237782       -60.8931
  24   1.0000      -2.237437       -60.8837
  25   1.0000      -2.237389       -60.8825
  26   1.0000      -2.237105       -60.8747
  27   1.0000      -2.235866       -60.8410
  28   1.0000      -2.234400       -60.8011
  29   1.0000      -2.234336       -60.7994
  30   1.0000      -2.234129       -60.7937
  31   1.0000      -2.233735       -60.7830
  32   1.0000      -2.233085       -60.7653
  33   1.0000      -2.232638       -60.7532
  34   1.0000      -2.232464       -60.7484
  35   1.0000      -2.232138       -60.7396
  36   1.0000      -2.231860       -60.7320
  37   1.0000      -2.231749       -60.7290
  38   1.0000      -2.230339       -60.6906
  39   1.0000      -2.230309       -60.6898
  40   1.0000      -2.229776       -60.6753
  41   1.0000      -2.229744       -60.6744
  42   1.0000      -2.225524       -60.5596
  43   1.0000      -2.224942       -60.5437
  44   1.0000      -2.224016       -60.5185
  45   1.0000      -2.223948       -60.5167
  46   1.0000      -2.007311       -54.6217
  47   1.0000      -2.006061       -54.5877
  48   1.0000      -2.003365       -54.5143
  49   1.0000      -0.405641       -11.0381
  50   1.0000      -0.382917       -10.4197
  51   1.0000      -0.371312       -10.1039
  52   1.0000      -0.368030       -10.0146
  53   1.0000      -0.361356        -9.8330
  54   1.0000      -0.359490        -9.7822
  55   1.0000      -0.358518        -9.7558
  56   1.0000      -0.354383        -9.6433
  57   1.0000      -0.339419        -9.2361
  58   1.0000      -0.333889        -9.0856
  59   1.0000      -0.332879        -9.0581
  60   1.0000      -0.330255        -8.9867
  61   1.0000      -0.329289        -8.9604
  62   1.0000      -0.325440        -8.8557
  63   1.0000      -0.323500        -8.8029
  64   1.0000      -0.320671        -8.7259
  65   1.0000      -0.319791        -8.7020
  66   1.0000      -0.317991        -8.6530
  67   1.0000      -0.315595        -8.5878
  68   1.0000      -0.309857        -8.4316
  69   1.0000      -0.302465        -8.2305
  70   1.0000      -0.301004        -8.1907
  71   1.0000      -0.297219        -8.0877
  72   1.0000      -0.292559        -7.9609
  73   1.0000      -0.289592        -7.8802
  74   1.0000      -0.289254        -7.8710
  75   1.0000      -0.288357        -7.8466
  76   1.0000      -0.286665        -7.8006
  77   1.0000      -0.283752        -7.7213
  78   1.0000      -0.281031        -7.6472
  79   1.0000      -0.279123        -7.5953
  80   1.0000      -0.276498        -7.5239
  81   1.0000      -0.276394        -7.5211
  82   1.0000      -0.275522        -7.4973
  83   1.0000      -0.275208        -7.4888
  84   1.0000      -0.270237        -7.3535
  85   1.0000      -0.268114        -7.2957
  86   1.0000      -0.267411        -7.2766
  87   1.0000      -0.265261        -7.2181
  88   1.0000      -0.263255        -7.1635
  89   1.0000      -0.262965        -7.1557
  90   1.0000      -0.259829        -7.0703
  91   1.0000      -0.259738        -7.0678
  92   1.0000      -0.257565        -7.0087
  93   1.0000      -0.255179        -6.9438
  94   1.0000      -0.254419        -6.9231
  95   1.0000      -0.253185        -6.8895
  96   1.0000      -0.251741        -6.8502
  97   1.0000      -0.251088        -6.8324
  98   1.0000      -0.249343        -6.7850
  99   1.0000      -0.246787        -6.7154
 100   1.0000      -0.242567        -6.6006
 101   1.0000      -0.240984        -6.5575
 102   1.0000      -0.237544        -6.4639
 103   1.0000      -0.236613        -6.4386
 104   1.0000      -0.231376        -6.2961
 105   1.0000      -0.230240        -6.2651
 106   1.0000      -0.230069        -6.2605
 107   1.0000      -0.228454        -6.2165
 108   1.0000      -0.209683        -5.7058
 109   0.0000      -0.175691        -4.7808
 110   0.0000      -0.170480        -4.6390
 111   0.0000      -0.136242        -3.7073
 112   0.0000      -0.130490        -3.5508
 113   0.0000      -0.121991        -3.3196

                 SPIN DOWN ORBITALS
  NO   OCC          E(Eh)            E(eV)
   0   1.0000    -234.196684     -6372.8158
   1   1.0000     -26.828940      -730.0526
   2   1.0000     -22.993513      -625.6853
   3   1.0000     -22.993453      -625.6837
   4   1.0000     -22.992524      -625.6584
   5   1.0000      -4.023685      -109.4900
   6   1.0000      -4.023661      -109.4894
   7   1.0000      -4.023566      -109.4868
   8   1.0000      -4.023541      -109.4861
   9   1.0000      -4.022549      -109.4591
  10   1.0000      -4.022548      -109.4591
  11   1.0000      -4.019317      -109.3712
  12   1.0000      -4.019000      -109.3625
  13   1.0000      -4.018392      -109.3460
  14   1.0000      -4.018322      -109.3441
  15   1.0000      -2.941853       -80.0519
  16   1.0000      -2.243969       -61.0615
  17   1.0000      -2.243488       -61.0484
  18   1.0000      -2.242735       -61.0279
  19   1.0000      -2.241934       -61.0061
  20   1.0000      -2.241187       -60.9858
  21   1.0000      -2.239363       -60.9362
  22   1.0000      -2.238922       -60.9242
  23   1.0000      -2.237951       -60.8977
  24   1.0000      -2.237524       -60.8861
  25   1.0000      -2.236828       -60.8672
  26   1.0000      -2.236811       -60.8667
  27   1.0000      -2.235291       -60.8254
  28   1.0000      -2.234216       -60.7961
  29   1.0000      -2.234143       -60.7941
  30   1.0000      -2.233996       -60.7901
  31   1.0000      -2.233749       -60.7834
  32   1.0000      -2.233582       -60.7789
  33   1.0000      -2.233260       -60.7701
  34   1.0000      -2.232814       -60.7580
  35   1.0000      -2.232616       -60.7526
  36   1.0000      -2.232589       -60.7518
  37   1.0000      -2.231680       -60.7271
  38   1.0000      -2.230280       -60.6890
  39   1.0000      -2.230242       -60.6880
  40   1.0000      -2.229783       -60.6755
  41   1.0000      -2.229757       -60.6748
  42   1.0000      -2.224959       -60.5442
  43   1.0000      -2.224376       -60.5283
  44   1.0000      -2.223629       -60.5080
  45   1.0000      -2.223551       -60.5059
  46   1.0000      -1.849289       -50.3217
  47   1.0000      -1.847526       -50.2737
  48   1.0000      -1.844942       -50.2034
  49   1.0000      -0.402663       -10.9570
  50   1.0000      -0.384410       -10.4603
  51   1.0000      -0.367541       -10.0013
  52   1.0000      -0.364621        -9.9218
  53   1.0000      -0.363462        -9.8903
  54   1.0000      -0.355799        -9.6818
  55   1.0000      -0.353482        -9.6187
  56   1.0000      -0.352904        -9.6030
  57   1.0000      -0.333755        -9.0819
  58   1.0000      -0.331930        -9.0323
  59   1.0000      -0.331225        -9.0131
  60   1.0000      -0.328390        -8.9359
  61   1.0000      -0.326056        -8.8724
  62   1.0000      -0.318872        -8.6770
  63   1.0000      -0.318344        -8.6626
  64   1.0000      -0.314470        -8.5572
  65   1.0000      -0.312847        -8.5130
  66   1.0000      -0.311248        -8.4695
  67   1.0000      -0.311011        -8.4630
  68   1.0000      -0.308130        -8.3847
  69   1.0000      -0.302343        -8.2272
  70   1.0000      -0.298451        -8.1213
  71   1.0000      -0.294986        -8.0270
  72   1.0000      -0.294344        -8.0095
  73   1.0000      -0.291192        -7.9237
  74   1.0000      -0.290250        -7.8981
  75   1.0000      -0.288724        -7.8566
  76   1.0000      -0.287281        -7.8173
  77   1.0000      -0.282201        -7.6791
  78   1.0000      -0.280854        -7.6424
  79   1.0000      -0.280022        -7.6198
  80   1.0000      -0.277107        -7.5405
  81   1.0000      -0.274688        -7.4747
  82   1.0000      -0.274298        -7.4640
  83   1.0000      -0.271205        -7.3799
  84   1.0000      -0.270813        -7.3692
  85   1.0000      -0.267470        -7.2782
  86   1.0000      -0.266516        -7.2523
  87   1.0000      -0.265816        -7.2332
  88   1.0000      -0.263122        -7.1599
  89   1.0000      -0.262696        -7.1483
  90   1.0000      -0.261423        -7.1137
  91   1.0000      -0.260228        -7.0812
  92   1.0000      -0.257073        -6.9953
  93   1.0000      -0.256548        -6.9810
  94   1.0000      -0.254392        -6.9224
  95   1.0000      -0.250852        -6.8260
  96   1.0000      -0.249982        -6.8024
  97   1.0000      -0.248160        -6.7528
  98   1.0000      -0.244160        -6.6439
  99   1.0000      -0.242933        -6.6105
 100   1.0000      -0.236964        -6.4481
 101   1.0000      -0.235833        -6.4173
 102   1.0000      -0.235773        -6.4157
 103   1.0000      -0.222119        -6.0442
 104   1.0000      -0.192934        -5.2500
 105   1.0000      -0.187561        -5.1038
 106   0.0000      -0.146155        -3.9771
 107   0.0000      -0.139009        -3.7826
 108   0.0000      -0.138606        -3.7716
 109   0.0000      -0.127474        -3.4687
 110   0.0000      -0.123221        -3.3530

MULLIKEN ATOMIC CHARGES AND SPIN POPULATIONS
--------------------------------------------
   0 Au:    0.014511   -0.012920
   1 Au:    0.224375   -0.026644
   2 Au:    0.024289   -0.216558
   3 Au:    0.400767   -0.114455
   4 Au:    0.022163   -0.215735
   5 Au:    0.222555   -0.026128
   6 Au:    0.023169   -0.216385
   7 Au:    0.013108   -0.012500
   8 Au:    0.400841   -0.114900
   9 Au:    0.023928   -0.216043
  10 Mn:   -1.369706    4.172269
Sum of atomic charges         :    0.0000000

LOEWDIN ATOMIC CHARGES AND SPIN POPULATIONS
-------------------------------------------
   0 Au:    0.011730   -0.012932
   1 Au:    0.111709   -0.125032
   2 Au:   -0.021092   -0.132910
   3 Au:    0.090497   -0.132298
   4 Au:   -0.021054   -0.132219
   5 Au:    0.111501   -0.124466
   6 Au:   -0.021251   -0.132752
   7 Au:    0.011709   -0.012621
   8 Au:    0.090508   -0.132534
   9 Au:   -0.021138   -0.132831
  10 Mn:   -0.343117    4.070593

  Mayer bond orders larger than 0.100000
B(  0-Au,  2-Au) :   0.1266 B(  0-Au,  3-Au) :   0.3337 B(  0-Au,  4-Au) :   0.1257
B(  0-Au,  7-Au) :   0.5974 B(  0-Au, 10-Mn) :   0.5744 B(  1-Au,  4-Au) :   0.4205
B(  1-Au,  6-Au) :   0.4204 B(  1-Au, 10-Mn) :   0.5200 B(  2-Au,  3-Au) :   0.3481
B(  2-Au,  4-Au) :   0.1875 B(  2-Au,  5-Au) :   0.4196 B(  2-Au, 10-Mn) :   0.5339
B(  3-Au,  4-Au) :   0.3487 B(  4-Au, 10-Mn) :   0.5353 B(  5-Au,  9-Au) :   0.4196
B(  5-Au, 10-Mn) :   0.5225 B(  6-Au,  7-Au) :   0.1265 B(  6-Au,  8-Au) :   0.3482
B(  6-Au,  9-Au) :   0.1884 B(  6-Au, 10-Mn) :   0.5342 B(  7-Au,  8-Au) :   0.3345
B(  7-Au,  9-Au) :   0.1256 B(  7-Au, 10-Mn) :   0.5755 B(  8-Au,  9-Au) :   0.3478
B(  9-Au, 10-Mn) :   0.5335

FINAL SINGLE POINT ENERGY     -2509.037611054260

DIPOLE MOMENT
-------------
                                X             Y             Z
Electronic contribution:     -7.90547      -5.97554      11.44789
Nuclear contribution   :      7.86929       5.94900     -11.39402
                        -----------------------------------------
Total Dipole Moment    :     -0.03618      -0.02654       0.05387
                        -----------------------------------------
Magnitude (a.u.)       :      0.07011
Magnitude (Debye)      :      0.17820

Rotational constants in cm-1:     0.002364     0.001210     0.001148
Rotational constants in MHz :    70.874428    36.262003    34.430306

                             ****ORCA TERMINATED NORMALLY****
TOTAL RUN TIME: 0 days 0 hours 2 minutes 46 seconds 824 msec
