                         Program Version 5.0.3 -  RELEASE  -
|  1> !R2SCAN def2-TZVP VERYSLOWCONV
|  2> !KDIIS
|  3> %scf
|  4>   AutoTRAHIter 200
|  5>   maxiter 400
|  6> end
|  7>
|  8> %pal nprocs 6 end
|  9>
| 10> *xyzfile 0 6 pbe.xyz
| 11>
| 12> $new_job
| 13>
| 14> !R2SCAN def2-TZVP VERYSLOWCONV
| 15> !KDIIS
| 16> %scf
| 17>   AutoTRAHIter 200
| 18>   maxiter 400
| 19> end
| 20>
| 21>
| 22> %pal nprocs 6 end
| 23>
| 24> *xyzfile 0 4 pbe.xyz
| 25>
| 26>
| 27>
| 28>
| 29>
| 30>                          ****END OF INPUT****
 Total Charge           Charge          ....    0
 Multiplicity           Mult            ....    6
 Number of Electrons    NEL             ....  215
FINAL SINGLE POINT ENERGY     -2509.437154387508

CARTESIAN COORDINATES (ANGSTROEM)
---------------------------------
  Au     5.486576    8.048517    9.134200
  Au     9.483220    9.812500    8.141620
  Au     5.420094    8.957479    6.199820
  Au     4.215995   10.323290    8.233938
  Au     6.931056   10.548294    8.071267
  Au     6.954791    7.146175    5.003923
  Au     9.975179    7.219689    8.451003
  Au     7.248219    6.121896    9.347907
  Au     9.476313    4.569978    8.877550
  Au     8.477259    5.632226    6.569674
  Mn     7.584146    8.002260    7.488494

 Multiplicity           Mult            ....    4
 Number of Electrons    NEL             ....  215
 Basis Dimension        Dim             ....  445

ORBITAL ENERGIES
----------------
                 SPIN UP ORBITALS
  NO   OCC          E(Eh)            E(eV)
   0   1.0000    -235.038835     -6395.7319
   1   1.0000     -27.220041      -740.6950
   2   1.0000     -23.267360      -633.1371
   3   1.0000     -23.266801      -633.1218
   4   1.0000     -23.265970      -633.0992
   5   1.0000      -4.114868      -111.9713
   6   1.0000      -4.114854      -111.9709
   7   1.0000      -4.114754      -111.9681
   8   1.0000      -4.114723      -111.9673
   9   1.0000      -4.112663      -111.9113
  10   1.0000      -4.112661      -111.9112
  11   1.0000      -4.110696      -111.8577
  12   1.0000      -4.110338      -111.8480
  13   1.0000      -4.109909      -111.8363
  14   1.0000      -4.109856      -111.8349
  15   1.0000      -3.241523       -88.2063
  16   1.0000      -2.307658       -62.7946
  17   1.0000      -2.307163       -62.7811
  18   1.0000      -2.306633       -62.7667
  19   1.0000      -2.305975       -62.7488
  20   1.0000      -2.305343       -62.7316
  21   1.0000      -2.303429       -62.6795
  22   1.0000      -2.303336       -62.6770
  23   1.0000      -2.301352       -62.6230
  24   1.0000      -2.301212       -62.6192
  25   1.0000      -2.301144       -62.6173
  26   1.0000      -2.300643       -62.6037
  27   1.0000      -2.298993       -62.5588
  28   1.0000      -2.298516       -62.5458
  29   1.0000      -2.298373       -62.5419
  30   1.0000      -2.297505       -62.5183
  31   1.0000      -2.297186       -62.5096
  32   1.0000      -2.296994       -62.5044
  33   1.0000      -2.296396       -62.4881
  34   1.0000      -2.296016       -62.4778
  35   1.0000      -2.295750       -62.4705
  36   1.0000      -2.295474       -62.4630
  37   1.0000      -2.294955       -62.4489
  38   1.0000      -2.294500       -62.4365
  39   1.0000      -2.294431       -62.4346
  40   1.0000      -2.293913       -62.4205
  41   1.0000      -2.293874       -62.4195
  42   1.0000      -2.289180       -62.2918
  43   1.0000      -2.288783       -62.2809
  44   1.0000      -2.288716       -62.2791
  45   1.0000      -2.288547       -62.2745
  46   1.0000      -2.099540       -57.1314
  47   1.0000      -2.098091       -57.0920
  48   1.0000      -2.096063       -57.0368
  49   1.0000      -0.411453       -11.1962
  50   1.0000      -0.388393       -10.5687
  51   1.0000      -0.380780       -10.3615
  52   1.0000      -0.376995       -10.2586
  53   1.0000      -0.371316       -10.1040
  54   1.0000      -0.369984       -10.0678
  55   1.0000      -0.369484       -10.0542
  56   1.0000      -0.365014        -9.9325
  57   1.0000      -0.351969        -9.5776
  58   1.0000      -0.345831        -9.4105
  59   1.0000      -0.342414        -9.3176
  60   1.0000      -0.341647        -9.2967
  61   1.0000      -0.338408        -9.2085
  62   1.0000      -0.337677        -9.1887
  63   1.0000      -0.335662        -9.1338
  64   1.0000      -0.330618        -8.9966
  65   1.0000      -0.330443        -8.9918
  66   1.0000      -0.326983        -8.8977
  67   1.0000      -0.325824        -8.8661
  68   1.0000      -0.318491        -8.6666
  69   1.0000      -0.314649        -8.5620
  70   1.0000      -0.310389        -8.4461
  71   1.0000      -0.306263        -8.3338
  72   1.0000      -0.300978        -8.1900
  73   1.0000      -0.297891        -8.1060
  74   1.0000      -0.297755        -8.1023
  75   1.0000      -0.297115        -8.0849
  76   1.0000      -0.295381        -8.0377
  77   1.0000      -0.291636        -7.9358
  78   1.0000      -0.290481        -7.9044
  79   1.0000      -0.287794        -7.8313
  80   1.0000      -0.285906        -7.7799
  81   1.0000      -0.285435        -7.7671
  82   1.0000      -0.284588        -7.7440
  83   1.0000      -0.284468        -7.7408
  84   1.0000      -0.280632        -7.6364
  85   1.0000      -0.277296        -7.5456
  86   1.0000      -0.276537        -7.5250
  87   1.0000      -0.273590        -7.4448
  88   1.0000      -0.272521        -7.4157
  89   1.0000      -0.272129        -7.4050
  90   1.0000      -0.268254        -7.2996
  91   1.0000      -0.267655        -7.2833
  92   1.0000      -0.266952        -7.2641
  93   1.0000      -0.265272        -7.2184
  94   1.0000      -0.265202        -7.2165
  95   1.0000      -0.262648        -7.1470
  96   1.0000      -0.262595        -7.1456
  97   1.0000      -0.259649        -7.0654
  98   1.0000      -0.257280        -7.0009
  99   1.0000      -0.256964        -6.9923
 100   1.0000      -0.252504        -6.8710
 101   1.0000      -0.252205        -6.8628
 102   1.0000      -0.247568        -6.7367
 103   1.0000      -0.247146        -6.7252
 104   1.0000      -0.239205        -6.5091
 105   1.0000      -0.238119        -6.4796
 106   1.0000      -0.236876        -6.4457
 107   1.0000      -0.235244        -6.4013
 108   1.0000      -0.213704        -5.8152
 109   0.0000      -0.172351        -4.6899
 110   0.0000      -0.167790        -4.5658
 111   0.0000      -0.130286        -3.5453
 112   0.0000      -0.125263        -3.4086
 113   0.0000      -0.116481        -3.1696

                 SPIN DOWN ORBITALS
  NO   OCC          E(Eh)            E(eV)
   0   1.0000    -235.037790     -6395.7034
   1   1.0000     -27.131976      -738.2986
   2   1.0000     -23.199465      -631.2895
   3   1.0000     -23.199294      -631.2849
   4   1.0000     -23.198682      -631.2682
   5   1.0000      -4.114914      -111.9725
   6   1.0000      -4.114894      -111.9720
   7   1.0000      -4.114787      -111.9690
   8   1.0000      -4.114763      -111.9684
   9   1.0000      -4.113801      -111.9422
  10   1.0000      -4.113798      -111.9421
  11   1.0000      -4.110390      -111.8494
  12   1.0000      -4.110317      -111.8474
  13   1.0000      -4.109799      -111.8333
  14   1.0000      -4.109441      -111.8236
  15   1.0000      -3.031131       -82.4813
  16   1.0000      -2.307978       -62.8033
  17   1.0000      -2.307397       -62.7875
  18   1.0000      -2.306647       -62.7671
  19   1.0000      -2.305715       -62.7417
  20   1.0000      -2.304298       -62.7031
  21   1.0000      -2.303241       -62.6744
  22   1.0000      -2.302710       -62.6599
  23   1.0000      -2.301796       -62.6351
  24   1.0000      -2.301290       -62.6213
  25   1.0000      -2.300598       -62.6025
  26   1.0000      -2.300564       -62.6015
  27   1.0000      -2.298693       -62.5506
  28   1.0000      -2.298653       -62.5495
  29   1.0000      -2.298489       -62.5451
  30   1.0000      -2.298061       -62.5334
  31   1.0000      -2.297519       -62.5187
  32   1.0000      -2.297366       -62.5145
  33   1.0000      -2.296725       -62.4971
  34   1.0000      -2.296435       -62.4892
  35   1.0000      -2.296428       -62.4890
  36   1.0000      -2.295790       -62.4716
  37   1.0000      -2.294752       -62.4434
  38   1.0000      -2.294405       -62.4339
  39   1.0000      -2.294202       -62.4284
  40   1.0000      -2.293934       -62.4211
  41   1.0000      -2.293900       -62.4202
  42   1.0000      -2.288555       -62.2747
  43   1.0000      -2.288532       -62.2741
  44   1.0000      -2.288456       -62.2721
  45   1.0000      -2.287913       -62.2573
  46   1.0000      -1.890720       -51.4491
  47   1.0000      -1.888733       -51.3950
  48   1.0000      -1.886881       -51.3447
  49   1.0000      -0.409499       -11.1430
  50   1.0000      -0.390877       -10.6363
  51   1.0000      -0.376009       -10.2317
  52   1.0000      -0.374696       -10.1960
  53   1.0000      -0.372832       -10.1453
  54   1.0000      -0.365391        -9.9428
  55   1.0000      -0.363184        -9.8827
  56   1.0000      -0.361703        -9.8424
  57   1.0000      -0.343621        -9.3504
  58   1.0000      -0.341805        -9.3010
  59   1.0000      -0.341526        -9.2934
  60   1.0000      -0.337974        -9.1968
  61   1.0000      -0.335571        -9.1314
  62   1.0000      -0.328438        -8.9372
  63   1.0000      -0.328123        -8.9287
  64   1.0000      -0.324207        -8.8221
  65   1.0000      -0.321850        -8.7580
  66   1.0000      -0.320303        -8.7159
  67   1.0000      -0.320217        -8.7136
  68   1.0000      -0.317349        -8.6355
  69   1.0000      -0.311828        -8.4853
  70   1.0000      -0.307644        -8.3714
  71   1.0000      -0.303835        -8.2678
  72   1.0000      -0.303264        -8.2522
  73   1.0000      -0.300544        -8.1782
  74   1.0000      -0.299366        -8.1462
  75   1.0000      -0.297994        -8.1088
  76   1.0000      -0.295434        -8.0392
  77   1.0000      -0.291108        -7.9215
  78   1.0000      -0.289888        -7.8882
  79   1.0000      -0.288519        -7.8510
  80   1.0000      -0.286055        -7.7839
  81   1.0000      -0.283440        -7.7128
  82   1.0000      -0.283382        -7.7112
  83   1.0000      -0.280115        -7.6223
  84   1.0000      -0.279277        -7.5995
  85   1.0000      -0.276661        -7.5283
  86   1.0000      -0.275390        -7.4937
  87   1.0000      -0.274307        -7.4643
  88   1.0000      -0.272130        -7.4050
  89   1.0000      -0.271554        -7.3894
  90   1.0000      -0.269443        -7.3319
  91   1.0000      -0.268935        -7.3181
  92   1.0000      -0.265385        -7.2215
  93   1.0000      -0.264343        -7.1931
  94   1.0000      -0.262274        -7.1368
  95   1.0000      -0.258220        -7.0265
  96   1.0000      -0.257687        -7.0120
  97   1.0000      -0.255747        -6.9592
  98   1.0000      -0.250900        -6.8273
  99   1.0000      -0.249474        -6.7885
 100   1.0000      -0.244267        -6.6468
 101   1.0000      -0.242673        -6.6035
 102   1.0000      -0.242508        -6.5990
 103   1.0000      -0.225284        -6.1303
 104   1.0000      -0.195032        -5.3071
 105   1.0000      -0.189457        -5.1554
 106   0.0000      -0.140424        -3.8211
 107   0.0000      -0.131749        -3.5851
 108   0.0000      -0.130820        -3.5598
 109   0.0000      -0.111132        -3.0240
 110   0.0000      -0.105806        -2.8791

MULLIKEN ATOMIC CHARGES AND SPIN POPULATIONS
--------------------------------------------
   0 Au:    0.008584   -0.017709
   1 Au:    0.223441   -0.022807
   2 Au:    0.013005   -0.248352
   3 Au:    0.361020   -0.146897
   4 Au:    0.010893   -0.247453
   5 Au:    0.221595   -0.022207
   6 Au:    0.011769   -0.248218
   7 Au:    0.007174   -0.017106
   8 Au:    0.361168   -0.147323
   9 Au:    0.012579   -0.247746
  10 Mn:   -1.231228    4.365818
Sum of atomic charges         :   -0.0000000

LOEWDIN ATOMIC CHARGES AND SPIN POPULATIONS
-------------------------------------------
   0 Au:    0.002282   -0.020707
   1 Au:    0.104922   -0.141560
   2 Au:   -0.028232   -0.154900
   3 Au:    0.088065   -0.148693
   4 Au:   -0.028211   -0.154206
   5 Au:    0.104706   -0.140980
   6 Au:   -0.028413   -0.154762
   7 Au:    0.002246   -0.020369
   8 Au:    0.088088   -0.148908
   9 Au:   -0.028289   -0.154792
  10 Mn:   -0.277164    4.239878

  Mayer bond orders larger than 0.100000
B(  0-Au,  3-Au) :   0.3244 B(  0-Au,  7-Au) :   0.6110 B(  0-Au, 10-Mn) :   0.5514
B(  1-Au,  4-Au) :   0.4124 B(  1-Au,  6-Au) :   0.4124 B(  1-Au, 10-Mn) :   0.5133
B(  2-Au,  3-Au) :   0.3411 B(  2-Au,  4-Au) :   0.1584 B(  2-Au,  5-Au) :   0.4115
B(  2-Au, 10-Mn) :   0.5005 B(  3-Au,  4-Au) :   0.3418 B(  4-Au, 10-Mn) :   0.5018
B(  5-Au,  9-Au) :   0.4116 B(  5-Au, 10-Mn) :   0.5157 B(  6-Au,  8-Au) :   0.3413
B(  6-Au,  9-Au) :   0.1592 B(  6-Au, 10-Mn) :   0.5007 B(  7-Au,  8-Au) :   0.3253
B(  7-Au, 10-Mn) :   0.5524 B(  8-Au,  9-Au) :   0.3407 B(  9-Au, 10-Mn) :   0.5001

FINAL SINGLE POINT ENERGY     -2509.444568391641

DIPOLE MOMENT
-------------
                                X             Y             Z
Electronic contribution:     -7.89413      -5.96690      11.43133
Nuclear contribution   :      7.86929       5.94900     -11.39402
                        -----------------------------------------
Total Dipole Moment    :     -0.02483      -0.01790       0.03731
                        -----------------------------------------
Magnitude (a.u.)       :      0.04826
Magnitude (Debye)      :      0.12268

Rotational constants in cm-1:     0.002364     0.001210     0.001148
Rotational constants in MHz :    70.874428    36.262003    34.430306

                             ****ORCA TERMINATED NORMALLY****
TOTAL RUN TIME: 0 days 0 hours 3 minutes 25 seconds 788 msec
