                         Program Version 5.0.3 -  RELEASE  -
|  1> %pal nprocs 1 end
|  2>
|  3> !PBE def2-TZVP OPT UNO
|  4> !SLOWCONV KDIIS
|  5>
|  6> %geom maxiter 300 end
|  7>
|  8> *xyzfile 0 4 6.xyz                           ****END OF INPUT****
 Total Charge           Charge          ....    0
 Multiplicity           Mult            ....    4
 Number of Electrons    NEL             ....  329
FINAL SINGLE POINT ENERGY     -3323.994941421015
FINAL SINGLE POINT ENERGY     -3324.001316300431
FINAL SINGLE POINT ENERGY     -3324.004957152750
FINAL SINGLE POINT ENERGY     -3324.006438901660
FINAL SINGLE POINT ENERGY     -3324.007490941315
FINAL SINGLE POINT ENERGY     -3324.008304170548
FINAL SINGLE POINT ENERGY     -3324.009073636239
FINAL SINGLE POINT ENERGY     -3324.009694418568
FINAL SINGLE POINT ENERGY     -3324.010175497563
FINAL SINGLE POINT ENERGY     -3324.010559470295
FINAL SINGLE POINT ENERGY     -3324.015336559550
FINAL SINGLE POINT ENERGY     -3324.015416444313
FINAL SINGLE POINT ENERGY     -3324.015463429368
FINAL SINGLE POINT ENERGY     -3324.015499619491
FINAL SINGLE POINT ENERGY     -3324.015524257535
FINAL SINGLE POINT ENERGY     -3324.015548958145
FINAL SINGLE POINT ENERGY     -3324.015562926244
FINAL SINGLE POINT ENERGY     -3324.015573140088
FINAL SINGLE POINT ENERGY     -3324.015578592405
                    ***********************HURRAY********************

CARTESIAN COORDINATES (ANGSTROEM)
---------------------------------
  Au     4.470032    6.579359    6.891460
  Au     6.194729    6.407565    4.692866
  Au     6.898485    5.137622    7.029387
  Au     7.340354    8.984714    4.658629
  Au     4.545665    8.728404    5.196348
  Au     8.751688    6.975524    5.808960
  Au     8.370271    9.452855    7.179329
  Au     6.062701   10.834005    6.290746
  Au     5.962514    8.142204    9.928429
  Au     8.631371    8.970088    9.979188
  Au     8.002745    6.260108    9.373954
  Au     3.247732    7.462498    9.294666
  Au     6.542697   10.660973    9.006660
  Au     5.361105    5.517043    9.328201
  Au     9.619101    4.921352    7.465709
  Au    10.144674    7.568845    8.154463
  Mn     4.640836    9.129546    7.807284

 Multiplicity           Mult            ....    4
 Number of Electrons    NEL             ....  329
 Basis Dimension        Dim             ....  685

ORBITAL ENERGIES
----------------
                 SPIN UP ORBITALS
  NO   OCC          E(Eh)            E(eV)
   0   1.0000    -234.205107     -6373.0450
   1   1.0000     -26.900159      -731.9905
   2   1.0000     -23.052344      -627.2862
   3   1.0000     -23.048152      -627.1721
   4   1.0000     -23.045231      -627.0926
   5   1.0000      -4.038796      -109.9012
   6   1.0000      -4.037229      -109.8586
   7   1.0000      -4.036189      -109.8303
   8   1.0000      -4.034983      -109.7975
   9   1.0000      -4.029917      -109.6596
  10   1.0000      -4.029333      -109.6437
  11   1.0000      -4.028110      -109.6105
  12   1.0000      -4.026955      -109.5790
  13   1.0000      -4.026866      -109.5766
  14   1.0000      -4.026520      -109.5672
  15   1.0000      -4.026252      -109.5599
  16   1.0000      -4.025349      -109.5353
  17   1.0000      -4.025230      -109.5321
  18   1.0000      -4.022875      -109.4680
  19   1.0000      -4.020713      -109.4092
  20   1.0000      -4.019825      -109.3850
  21   1.0000      -3.110799       -84.6492
  22   1.0000      -2.254896       -61.3588
  23   1.0000      -2.253876       -61.3311
  24   1.0000      -2.252913       -61.3049
  25   1.0000      -2.252267       -61.2873
  26   1.0000      -2.252162       -61.2845
  27   1.0000      -2.249961       -61.2246
  28   1.0000      -2.248932       -61.1966
  29   1.0000      -2.247382       -61.1544
  30   1.0000      -2.246958       -61.1428
  31   1.0000      -2.246514       -61.1308
  32   1.0000      -2.246090       -61.1192
  33   1.0000      -2.245986       -61.1164
  34   1.0000      -2.245671       -61.1078
  35   1.0000      -2.245333       -61.0986
  36   1.0000      -2.245085       -61.0919
  37   1.0000      -2.243976       -61.0617
  38   1.0000      -2.243548       -61.0501
  39   1.0000      -2.243534       -61.0497
  40   1.0000      -2.243432       -61.0469
  41   1.0000      -2.242595       -61.0241
  42   1.0000      -2.242335       -61.0170
  43   1.0000      -2.242279       -61.0155
  44   1.0000      -2.241713       -61.0001
  45   1.0000      -2.241335       -60.9898
  46   1.0000      -2.241118       -60.9839
  47   1.0000      -2.239911       -60.9511
  48   1.0000      -2.239421       -60.9377
  49   1.0000      -2.238992       -60.9261
  50   1.0000      -2.238804       -60.9209
  51   1.0000      -2.238028       -60.8998
  52   1.0000      -2.237981       -60.8986
  53   1.0000      -2.237868       -60.8955
  54   1.0000      -2.237416       -60.8832
  55   1.0000      -2.237206       -60.8775
  56   1.0000      -2.236564       -60.8600
  57   1.0000      -2.236077       -60.8467
  58   1.0000      -2.235994       -60.8445
  59   1.0000      -2.235411       -60.8286
  60   1.0000      -2.235117       -60.8206
  61   1.0000      -2.234544       -60.8050
  62   1.0000      -2.234256       -60.7972
  63   1.0000      -2.233214       -60.7688
  64   1.0000      -2.233120       -60.7663
  65   1.0000      -2.232734       -60.7558
  66   1.0000      -2.232155       -60.7400
  67   1.0000      -2.231955       -60.7346
  68   1.0000      -2.231322       -60.7173
  69   1.0000      -2.229244       -60.6608
  70   1.0000      -2.021704       -55.0134
  71   1.0000      -2.011685       -54.7407
  72   1.0000      -2.006988       -54.6129
  73   1.0000      -0.418705       -11.3936
  74   1.0000      -0.392774       -10.6879
  75   1.0000      -0.388953       -10.5839
  76   1.0000      -0.385978       -10.5030
  77   1.0000      -0.373337       -10.1590
  78   1.0000      -0.372324       -10.1314
  79   1.0000      -0.369409       -10.0521
  80   1.0000      -0.368185       -10.0188
  81   1.0000      -0.364900        -9.9294
  82   1.0000      -0.363605        -9.8942
  83   1.0000      -0.361329        -9.8323
  84   1.0000      -0.360037        -9.7971
  85   1.0000      -0.359507        -9.7827
  86   1.0000      -0.359077        -9.7710
  87   1.0000      -0.356234        -9.6936
  88   1.0000      -0.352233        -9.5847
  89   1.0000      -0.349005        -9.4969
  90   1.0000      -0.348486        -9.4828
  91   1.0000      -0.346620        -9.4320
  92   1.0000      -0.345045        -9.3892
  93   1.0000      -0.343199        -9.3389
  94   1.0000      -0.342465        -9.3189
  95   1.0000      -0.341287        -9.2869
  96   1.0000      -0.338231        -9.2037
  97   1.0000      -0.335483        -9.1290
  98   1.0000      -0.334343        -9.0979
  99   1.0000      -0.332896        -9.0586
 100   1.0000      -0.330949        -9.0056
 101   1.0000      -0.329100        -8.9553
 102   1.0000      -0.325524        -8.8579
 103   1.0000      -0.323476        -8.8022
 104   1.0000      -0.320837        -8.7304
 105   1.0000      -0.320088        -8.7100
 106   1.0000      -0.318092        -8.6557
 107   1.0000      -0.313657        -8.5350
 108   1.0000      -0.311975        -8.4893
 109   1.0000      -0.310341        -8.4448
 110   1.0000      -0.307330        -8.3629
 111   1.0000      -0.306507        -8.3405
 112   1.0000      -0.304073        -8.2742
 113   1.0000      -0.303436        -8.2569
 114   1.0000      -0.302384        -8.2283
 115   1.0000      -0.300763        -8.1842
 116   1.0000      -0.296344        -8.0639
 117   1.0000      -0.293323        -7.9817
 118   1.0000      -0.290625        -7.9083
 119   1.0000      -0.288072        -7.8388
 120   1.0000      -0.287175        -7.8144
 121   1.0000      -0.284741        -7.7482
 122   1.0000      -0.283892        -7.7251
 123   1.0000      -0.282620        -7.6905
 124   1.0000      -0.281939        -7.6720
 125   1.0000      -0.280885        -7.6433
 126   1.0000      -0.279926        -7.6172
 127   1.0000      -0.278700        -7.5838
 128   1.0000      -0.277400        -7.5484
 129   1.0000      -0.275889        -7.5073
 130   1.0000      -0.272536        -7.4161
 131   1.0000      -0.271721        -7.3939
 132   1.0000      -0.270467        -7.3598
 133   1.0000      -0.268707        -7.3119
 134   1.0000      -0.268048        -7.2940
 135   1.0000      -0.267021        -7.2660
 136   1.0000      -0.265482        -7.2241
 137   1.0000      -0.264973        -7.2103
 138   1.0000      -0.264193        -7.1891
 139   1.0000      -0.260853        -7.0982
 140   1.0000      -0.259909        -7.0725
 141   1.0000      -0.259228        -7.0540
 142   1.0000      -0.258578        -7.0363
 143   1.0000      -0.256739        -6.9862
 144   1.0000      -0.256281        -6.9738
 145   1.0000      -0.255047        -6.9402
 146   1.0000      -0.254617        -6.9285
 147   1.0000      -0.253246        -6.8912
 148   1.0000      -0.252907        -6.8819
 149   1.0000      -0.252002        -6.8573
 150   1.0000      -0.249845        -6.7986
 151   1.0000      -0.249625        -6.7926
 152   1.0000      -0.247025        -6.7219
 153   1.0000      -0.246542        -6.7087
 154   1.0000      -0.244842        -6.6625
 155   1.0000      -0.243996        -6.6395
 156   1.0000      -0.241359        -6.5677
 157   1.0000      -0.240476        -6.5437
 158   1.0000      -0.237425        -6.4607
 159   1.0000      -0.235945        -6.4204
 160   1.0000      -0.235814        -6.4168
 161   1.0000      -0.232423        -6.3245
 162   1.0000      -0.220311        -5.9950
 163   1.0000      -0.218469        -5.9448
 164   1.0000      -0.212924        -5.7939
 165   1.0000      -0.210663        -5.7324
 166   0.0000      -0.195912        -5.3310
 167   0.0000      -0.156165        -4.2495
 168   0.0000      -0.143899        -3.9157
 169   0.0000      -0.140674        -3.8279
 170   0.0000      -0.133088        -3.6215

                 SPIN DOWN ORBITALS
  NO   OCC          E(Eh)            E(eV)
   0   1.0000    -234.204348     -6373.0243
   1   1.0000     -26.833711      -730.1824
   2   1.0000     -22.999726      -625.8544
   3   1.0000     -22.998270      -625.8148
   4   1.0000     -22.996344      -625.7623
   5   1.0000      -4.038726      -109.8993
   6   1.0000      -4.037236      -109.8588
   7   1.0000      -4.035247      -109.8046
   8   1.0000      -4.034783      -109.7920
   9   1.0000      -4.030154      -109.6661
  10   1.0000      -4.029116      -109.6378
  11   1.0000      -4.028950      -109.6333
  12   1.0000      -4.027216      -109.5861
  13   1.0000      -4.027146      -109.5842
  14   1.0000      -4.026976      -109.5796
  15   1.0000      -4.026672      -109.5713
  16   1.0000      -4.026521      -109.5672
  17   1.0000      -4.025935      -109.5512
  18   1.0000      -4.023365      -109.4813
  19   1.0000      -4.020998      -109.4169
  20   1.0000      -4.020830      -109.4123
  21   1.0000      -2.946712       -80.1841
  22   1.0000      -2.254936       -61.3599
  23   1.0000      -2.253807       -61.3292
  24   1.0000      -2.252854       -61.3033
  25   1.0000      -2.252454       -61.2924
  26   1.0000      -2.251068       -61.2547
  27   1.0000      -2.248731       -61.1911
  28   1.0000      -2.248281       -61.1788
  29   1.0000      -2.247616       -61.1608
  30   1.0000      -2.246964       -61.1430
  31   1.0000      -2.246491       -61.1301
  32   1.0000      -2.246179       -61.1216
  33   1.0000      -2.245971       -61.1160
  34   1.0000      -2.245560       -61.1048
  35   1.0000      -2.245207       -61.0952
  36   1.0000      -2.244785       -61.0837
  37   1.0000      -2.244599       -61.0786
  38   1.0000      -2.244067       -61.0642
  39   1.0000      -2.243944       -61.0608
  40   1.0000      -2.243390       -61.0457
  41   1.0000      -2.243245       -61.0418
  42   1.0000      -2.242886       -61.0320
  43   1.0000      -2.242296       -61.0160
  44   1.0000      -2.241967       -61.0070
  45   1.0000      -2.241768       -61.0016
  46   1.0000      -2.241494       -60.9942
  47   1.0000      -2.241005       -60.9808
  48   1.0000      -2.240163       -60.9579
  49   1.0000      -2.239524       -60.9406
  50   1.0000      -2.238900       -60.9236
  51   1.0000      -2.238709       -60.9184
  52   1.0000      -2.238687       -60.9178
  53   1.0000      -2.238672       -60.9174
  54   1.0000      -2.238311       -60.9075
  55   1.0000      -2.237862       -60.8953
  56   1.0000      -2.237537       -60.8865
  57   1.0000      -2.236981       -60.8714
  58   1.0000      -2.236573       -60.8603
  59   1.0000      -2.236029       -60.8455
  60   1.0000      -2.235512       -60.8314
  61   1.0000      -2.235320       -60.8262
  62   1.0000      -2.234556       -60.8053
  63   1.0000      -2.233782       -60.7843
  64   1.0000      -2.233513       -60.7770
  65   1.0000      -2.233190       -60.7682
  66   1.0000      -2.232490       -60.7491
  67   1.0000      -2.232269       -60.7431
  68   1.0000      -2.231763       -60.7294
  69   1.0000      -2.230140       -60.6852
  70   1.0000      -1.853881       -50.4467
  71   1.0000      -1.851737       -50.3883
  72   1.0000      -1.851144       -50.3722
  73   1.0000      -0.418562       -11.3896
  74   1.0000      -0.392430       -10.6786
  75   1.0000      -0.388900       -10.5825
  76   1.0000      -0.386433       -10.5154
  77   1.0000      -0.374303       -10.1853
  78   1.0000      -0.369997       -10.0681
  79   1.0000      -0.368840       -10.0367
  80   1.0000      -0.367804       -10.0085
  81   1.0000      -0.364442        -9.9170
  82   1.0000      -0.363637        -9.8951
  83   1.0000      -0.361088        -9.8257
  84   1.0000      -0.359937        -9.7944
  85   1.0000      -0.359575        -9.7845
  86   1.0000      -0.356851        -9.7104
  87   1.0000      -0.355474        -9.6729
  88   1.0000      -0.351873        -9.5749
  89   1.0000      -0.347827        -9.4649
  90   1.0000      -0.346023        -9.4158
  91   1.0000      -0.344591        -9.3768
  92   1.0000      -0.343302        -9.3417
  93   1.0000      -0.342431        -9.3180
  94   1.0000      -0.341289        -9.2869
  95   1.0000      -0.340425        -9.2634
  96   1.0000      -0.337904        -9.1948
  97   1.0000      -0.335076        -9.1179
  98   1.0000      -0.333037        -9.0624
  99   1.0000      -0.332457        -9.0466
 100   1.0000      -0.331309        -9.0154
 101   1.0000      -0.326735        -8.8909
 102   1.0000      -0.324856        -8.8398
 103   1.0000      -0.323989        -8.8162
 104   1.0000      -0.320422        -8.7191
 105   1.0000      -0.318062        -8.6549
 106   1.0000      -0.316024        -8.5994
 107   1.0000      -0.310895        -8.4599
 108   1.0000      -0.310056        -8.4371
 109   1.0000      -0.308119        -8.3843
 110   1.0000      -0.307116        -8.3570
 111   1.0000      -0.304374        -8.2824
 112   1.0000      -0.302279        -8.2254
 113   1.0000      -0.301552        -8.2057
 114   1.0000      -0.299991        -8.1632
 115   1.0000      -0.295967        -8.0537
 116   1.0000      -0.294991        -8.0271
 117   1.0000      -0.291688        -7.9372
 118   1.0000      -0.289929        -7.8894
 119   1.0000      -0.287344        -7.8190
 120   1.0000      -0.286337        -7.7916
 121   1.0000      -0.284984        -7.7548
 122   1.0000      -0.283382        -7.7112
 123   1.0000      -0.282196        -7.6790
 124   1.0000      -0.280885        -7.6433
 125   1.0000      -0.280369        -7.6292
 126   1.0000      -0.279850        -7.6151
 127   1.0000      -0.279140        -7.5958
 128   1.0000      -0.277183        -7.5425
 129   1.0000      -0.276040        -7.5114
 130   1.0000      -0.272264        -7.4087
 131   1.0000      -0.271594        -7.3905
 132   1.0000      -0.270678        -7.3655
 133   1.0000      -0.268512        -7.3066
 134   1.0000      -0.267660        -7.2834
 135   1.0000      -0.266754        -7.2588
 136   1.0000      -0.265864        -7.2345
 137   1.0000      -0.263770        -7.1775
 138   1.0000      -0.261971        -7.1286
 139   1.0000      -0.260795        -7.0966
 140   1.0000      -0.258954        -7.0465
 141   1.0000      -0.257862        -7.0168
 142   1.0000      -0.256663        -6.9841
 143   1.0000      -0.255845        -6.9619
 144   1.0000      -0.254250        -6.9185
 145   1.0000      -0.253696        -6.9034
 146   1.0000      -0.252864        -6.8808
 147   1.0000      -0.250935        -6.8283
 148   1.0000      -0.250683        -6.8214
 149   1.0000      -0.247989        -6.7481
 150   1.0000      -0.247216        -6.7271
 151   1.0000      -0.245376        -6.6770
 152   1.0000      -0.244556        -6.6547
 153   1.0000      -0.241411        -6.5691
 154   1.0000      -0.239215        -6.5094
 155   1.0000      -0.237276        -6.4566
 156   1.0000      -0.235269        -6.4020
 157   1.0000      -0.223446        -6.0803
 158   1.0000      -0.220745        -6.0068
 159   1.0000      -0.215227        -5.8566
 160   1.0000      -0.212957        -5.7949
 161   1.0000      -0.203271        -5.5313
 162   1.0000      -0.167593        -4.5604
 163   0.0000      -0.154281        -4.1982
 164   0.0000      -0.150266        -4.0889
 165   0.0000      -0.149322        -4.0633
 166   0.0000      -0.136993        -3.7278
 167   0.0000      -0.133922        -3.6442

MULLIKEN ATOMIC CHARGES AND SPIN POPULATIONS
--------------------------------------------
   0 Au:   -0.282702   -0.156152
   1 Au:    0.243364   -0.169063
   2 Au:   -0.303770   -0.021081
   3 Au:    0.224555   -0.069649
   4 Au:    0.212890   -0.021537
   5 Au:   -0.451123   -0.063346
   6 Au:   -0.755133   -0.143735
   7 Au:    0.295276   -0.009515
   8 Au:   -0.385192   -0.210129
   9 Au:    0.290227   -0.184213
  10 Au:   -0.446778   -0.027140
  11 Au:    0.363594   -0.218311
  12 Au:    0.280231   -0.018788
  13 Au:    0.293003   -0.034898
  14 Au:    0.464359   -0.054415
  15 Au:    0.406332   -0.059179
  16 Mn:   -0.449134    4.461152
Sum of atomic charges         :   -0.0000000

LOEWDIN ATOMIC CHARGES AND SPIN POPULATIONS
-------------------------------------------
   0 Au:   -0.052353   -0.067811
   1 Au:    0.017732   -0.145575
   2 Au:   -0.070710   -0.049512
   3 Au:   -0.010603   -0.083098
   4 Au:    0.037882   -0.009298
   5 Au:   -0.084223   -0.072134
   6 Au:   -0.093997   -0.087986
   7 Au:    0.040639    0.004196
   8 Au:   -0.066524   -0.079595
   9 Au:    0.034245   -0.172682
  10 Au:   -0.083714   -0.061891
  11 Au:    0.098109   -0.184942
  12 Au:    0.064795   -0.042475
  13 Au:    0.039655   -0.082765
  14 Au:    0.117454   -0.046843
  15 Au:    0.017987   -0.087796
  16 Mn:   -0.006374    4.270209

  Mayer bond orders larger than 0.100000
B(  0-Au,  1-Au) :   0.3222 B(  0-Au,  2-Au) :   0.3475 B(  0-Au,  4-Au) :   0.2918
B(  0-Au, 11-Au) :   0.2345 B(  0-Au, 13-Au) :   0.2590 B(  0-Au, 16-Mn) :   0.4999
B(  1-Au,  2-Au) :   0.3581 B(  1-Au,  3-Au) :   0.2039 B(  1-Au,  4-Au) :   0.2012
B(  1-Au,  5-Au) :   0.2311 B(  2-Au,  5-Au) :   0.3052 B(  2-Au, 10-Au) :   0.3286
B(  2-Au, 13-Au) :   0.2756 B(  2-Au, 14-Au) :   0.2841 B(  3-Au,  4-Au) :   0.2245
B(  3-Au,  5-Au) :   0.4218 B(  3-Au,  6-Au) :   0.3676 B(  3-Au,  7-Au) :   0.2610
B(  4-Au,  7-Au) :   0.1960 B(  4-Au, 16-Mn) :   0.5194 B(  5-Au,  6-Au) :   0.3755
B(  5-Au, 10-Au) :   0.1699 B(  5-Au, 14-Au) :   0.3178 B(  5-Au, 15-Au) :   0.3087
B(  6-Au,  7-Au) :   0.3210 B(  6-Au,  8-Au) :   0.1308 B(  6-Au,  9-Au) :   0.2706
B(  6-Au, 10-Au) :   0.1230 B(  6-Au, 12-Au) :   0.2542 B(  6-Au, 15-Au) :   0.3281
B(  6-Au, 16-Mn) :   0.1152 B(  7-Au, 12-Au) :   0.2504 B(  7-Au, 16-Mn) :   0.4520
B(  8-Au,  9-Au) :   0.3008 B(  8-Au, 10-Au) :   0.3404 B(  8-Au, 11-Au) :   0.2096
B(  8-Au, 12-Au) :   0.2503 B(  8-Au, 13-Au) :   0.3118 B(  8-Au, 16-Mn) :   0.5357
B(  9-Au, 10-Au) :   0.2761 B(  9-Au, 12-Au) :   0.2155 B(  9-Au, 15-Au) :   0.2476
B( 10-Au, 13-Au) :   0.3849 B( 10-Au, 14-Au) :   0.2285 B( 10-Au, 15-Au) :   0.2844
B( 11-Au, 13-Au) :   0.1786 B( 11-Au, 16-Mn) :   0.5376 B( 12-Au, 16-Mn) :   0.4008
B( 14-Au, 15-Au) :   0.2121

FINAL SINGLE POINT ENERGY     -3324.015582063740

DIPOLE MOMENT
-------------
                                X             Y             Z
Electronic contribution:     81.81412     -53.50314     -10.36436
Nuclear contribution   :    -82.08234      53.67245      10.60558
                        -----------------------------------------
Total Dipole Moment    :     -0.26822       0.16931       0.24122
                        -----------------------------------------
Magnitude (a.u.)       :      0.39849
Magnitude (Debye)      :      1.01289

Rotational constants in cm-1:     0.000860     0.000779     0.000758
Rotational constants in MHz :    25.779943    23.363435    22.710583

                             ****ORCA TERMINATED NORMALLY****
TOTAL RUN TIME: 0 days 13 hours 40 minutes 55 seconds 163 msec
