                         Program Version 5.0.3 -  RELEASE  -
|  1> %pal nprocs 1 end
|  2>
|  3> !PBE def2-TZVP OPT UNO
|  4> !SLOWCONV KDIIS
|  5>
|  6> %geom maxiter 300 end
|  7>
|  8> *xyzfile 0 4 8.xyz                           ****END OF INPUT****
 Total Charge           Charge          ....    0
 Multiplicity           Mult            ....    4
 Number of Electrons    NEL             ....  253
FINAL SINGLE POINT ENERGY     -2780.654811000521
FINAL SINGLE POINT ENERGY     -2780.658901748592
FINAL SINGLE POINT ENERGY     -2780.680423296583
FINAL SINGLE POINT ENERGY     -2780.682352873313
FINAL SINGLE POINT ENERGY     -2780.684450229515
FINAL SINGLE POINT ENERGY     -2780.684921027040
FINAL SINGLE POINT ENERGY     -2780.685251880966
FINAL SINGLE POINT ENERGY     -2780.685799110265
FINAL SINGLE POINT ENERGY     -2780.686398253364
FINAL SINGLE POINT ENERGY     -2780.686583498047
FINAL SINGLE POINT ENERGY     -2780.692842003390
FINAL SINGLE POINT ENERGY     -2780.692863658079
FINAL SINGLE POINT ENERGY     -2780.692872625574
FINAL SINGLE POINT ENERGY     -2780.692881557544
FINAL SINGLE POINT ENERGY     -2780.692885840141
FINAL SINGLE POINT ENERGY     -2780.692891631199
FINAL SINGLE POINT ENERGY     -2780.692895583199
FINAL SINGLE POINT ENERGY     -2780.692899127397
FINAL SINGLE POINT ENERGY     -2780.692900281406
                    ***********************HURRAY********************

CARTESIAN COORDINATES (ANGSTROEM)
---------------------------------
  Au    11.119184   11.817586    8.075427
  Au     9.449470   10.321879    9.774380
  Au    11.648433    9.050670    8.316206
  Au    10.656337   10.086984    5.887123
  Au    10.378977    6.771975    8.829853
  Au     8.808373    8.410803    4.966861
  Au     8.447849   11.369077    7.314056
  Au     8.016954    8.073991    9.993337
  Au     8.158925    5.301611    9.429337
  Au     6.913567    6.948084    7.712689
  Au     6.388810    7.148901    5.087356
  Au     6.660036    9.495621    6.647109
  Mn     9.056088    8.742909    7.606170

 Multiplicity           Mult            ....    4
 Number of Electrons    NEL             ....  253
 Basis Dimension        Dim             ....  525

ORBITAL ENERGIES
----------------
                 SPIN UP ORBITALS
  NO   OCC          E(Eh)            E(eV)
   0   1.0000    -234.201631     -6372.9504
   1   1.0000     -26.897766      -731.9254
   2   1.0000     -23.047162      -627.1452
   3   1.0000     -23.046329      -627.1225
   4   1.0000     -23.045626      -627.1034
   5   1.0000      -4.032628      -109.7334
   6   1.0000      -4.028291      -109.6154
   7   1.0000      -4.028229      -109.6137
   8   1.0000      -4.023986      -109.4982
   9   1.0000      -4.023889      -109.4956
  10   1.0000      -4.023685      -109.4900
  11   1.0000      -4.023574      -109.4870
  12   1.0000      -4.022464      -109.4568
  13   1.0000      -4.022463      -109.4568
  14   1.0000      -4.017363      -109.3180
  15   1.0000      -4.016304      -109.2892
  16   1.0000      -4.016232      -109.2872
  17   1.0000      -3.104520       -84.4783
  18   1.0000      -2.251417       -61.2642
  19   1.0000      -2.246380       -61.1271
  20   1.0000      -2.245397       -61.1003
  21   1.0000      -2.245331       -61.0986
  22   1.0000      -2.243177       -61.0400
  23   1.0000      -2.242977       -61.0345
  24   1.0000      -2.242838       -61.0307
  25   1.0000      -2.242780       -61.0292
  26   1.0000      -2.239600       -60.9426
  27   1.0000      -2.239441       -60.9383
  28   1.0000      -2.239210       -60.9320
  29   1.0000      -2.239004       -60.9264
  30   1.0000      -2.238229       -60.9053
  31   1.0000      -2.238120       -60.9024
  32   1.0000      -2.238111       -60.9021
  33   1.0000      -2.237432       -60.8836
  34   1.0000      -2.237036       -60.8728
  35   1.0000      -2.236823       -60.8671
  36   1.0000      -2.235865       -60.8410
  37   1.0000      -2.235478       -60.8305
  38   1.0000      -2.235432       -60.8292
  39   1.0000      -2.233134       -60.7667
  40   1.0000      -2.231987       -60.7354
  41   1.0000      -2.231851       -60.7317
  42   1.0000      -2.231820       -60.7309
  43   1.0000      -2.231657       -60.7265
  44   1.0000      -2.230865       -60.7049
  45   1.0000      -2.230610       -60.6980
  46   1.0000      -2.229621       -60.6711
  47   1.0000      -2.229350       -60.6637
  48   1.0000      -2.229186       -60.6592
  49   1.0000      -2.229118       -60.6574
  50   1.0000      -2.228658       -60.6449
  51   1.0000      -2.228630       -60.6441
  52   1.0000      -2.225447       -60.5575
  53   1.0000      -2.225363       -60.5552
  54   1.0000      -2.008396       -54.6512
  55   1.0000      -2.007228       -54.6195
  56   1.0000      -2.005308       -54.5672
  57   1.0000      -0.417691       -11.3659
  58   1.0000      -0.388206       -10.5636
  59   1.0000      -0.377196       -10.2640
  60   1.0000      -0.375432       -10.2160
  61   1.0000      -0.365494        -9.9456
  62   1.0000      -0.363906        -9.9024
  63   1.0000      -0.361805        -9.8452
  64   1.0000      -0.360036        -9.7971
  65   1.0000      -0.349400        -9.5076
  66   1.0000      -0.347029        -9.4431
  67   1.0000      -0.346025        -9.4158
  68   1.0000      -0.343283        -9.3412
  69   1.0000      -0.341120        -9.2823
  70   1.0000      -0.336464        -9.1557
  71   1.0000      -0.335215        -9.1217
  72   1.0000      -0.335138        -9.1196
  73   1.0000      -0.332546        -9.0490
  74   1.0000      -0.330246        -8.9865
  75   1.0000      -0.326398        -8.8817
  76   1.0000      -0.319715        -8.6999
  77   1.0000      -0.318626        -8.6703
  78   1.0000      -0.316525        -8.6131
  79   1.0000      -0.312541        -8.5047
  80   1.0000      -0.311392        -8.4734
  81   1.0000      -0.310400        -8.4464
  82   1.0000      -0.306120        -8.3299
  83   1.0000      -0.303812        -8.2671
  84   1.0000      -0.299922        -8.1613
  85   1.0000      -0.299212        -8.1420
  86   1.0000      -0.296344        -8.0639
  87   1.0000      -0.296253        -8.0614
  88   1.0000      -0.292180        -7.9506
  89   1.0000      -0.291232        -7.9248
  90   1.0000      -0.290241        -7.8979
  91   1.0000      -0.288063        -7.8386
  92   1.0000      -0.287215        -7.8155
  93   1.0000      -0.282901        -7.6981
  94   1.0000      -0.280158        -7.6235
  95   1.0000      -0.276283        -7.5180
  96   1.0000      -0.274008        -7.4561
  97   1.0000      -0.273798        -7.4504
  98   1.0000      -0.272256        -7.4085
  99   1.0000      -0.269996        -7.3470
 100   1.0000      -0.269634        -7.3371
 101   1.0000      -0.269411        -7.3311
 102   1.0000      -0.267125        -7.2688
 103   1.0000      -0.266082        -7.2405
 104   1.0000      -0.264717        -7.2033
 105   1.0000      -0.263689        -7.1754
 106   1.0000      -0.260662        -7.0930
 107   1.0000      -0.260117        -7.0781
 108   1.0000      -0.258409        -7.0317
 109   1.0000      -0.256602        -6.9825
 110   1.0000      -0.255593        -6.9550
 111   1.0000      -0.254659        -6.9296
 112   1.0000      -0.252176        -6.8621
 113   1.0000      -0.250728        -6.8227
 114   1.0000      -0.249666        -6.7938
 115   1.0000      -0.248135        -6.7521
 116   1.0000      -0.247556        -6.7364
 117   1.0000      -0.243838        -6.6352
 118   1.0000      -0.243478        -6.6254
 119   1.0000      -0.240883        -6.5547
 120   1.0000      -0.238466        -6.4890
 121   1.0000      -0.236051        -6.4233
 122   1.0000      -0.233201        -6.3457
 123   1.0000      -0.229505        -6.2451
 124   1.0000      -0.228365        -6.2141
 125   1.0000      -0.223926        -6.0933
 126   1.0000      -0.211655        -5.7594
 127   1.0000      -0.210067        -5.7162
 128   0.0000      -0.177504        -4.8301
 129   0.0000      -0.170415        -4.6372
 130   0.0000      -0.143338        -3.9004
 131   0.0000      -0.132930        -3.6172
 132   0.0000      -0.129194        -3.5155

                 SPIN DOWN ORBITALS
  NO   OCC          E(Eh)            E(eV)
   0   1.0000    -234.200908     -6372.9307
   1   1.0000     -26.833471      -730.1759
   2   1.0000     -22.998704      -625.8266
   3   1.0000     -22.997984      -625.8070
   4   1.0000     -22.995921      -625.7508
   5   1.0000      -4.032189      -109.7214
   6   1.0000      -4.028461      -109.6200
   7   1.0000      -4.028396      -109.6182
   8   1.0000      -4.023877      -109.4953
   9   1.0000      -4.023778      -109.4926
  10   1.0000      -4.023524      -109.4857
  11   1.0000      -4.023409      -109.4825
  12   1.0000      -4.021777      -109.4381
  13   1.0000      -4.021773      -109.4380
  14   1.0000      -4.017788      -109.3296
  15   1.0000      -4.017332      -109.3171
  16   1.0000      -4.017265      -109.3153
  17   1.0000      -2.946944       -80.1904
  18   1.0000      -2.251286       -61.2606
  19   1.0000      -2.246258       -61.1238
  20   1.0000      -2.245369       -61.0996
  21   1.0000      -2.244918       -61.0873
  22   1.0000      -2.243070       -61.0370
  23   1.0000      -2.242602       -61.0243
  24   1.0000      -2.242503       -61.0216
  25   1.0000      -2.242313       -61.0164
  26   1.0000      -2.239516       -60.9403
  27   1.0000      -2.239210       -60.9320
  28   1.0000      -2.239110       -60.9293
  29   1.0000      -2.238311       -60.9075
  30   1.0000      -2.237634       -60.8891
  31   1.0000      -2.237242       -60.8784
  32   1.0000      -2.237229       -60.8781
  33   1.0000      -2.236897       -60.8691
  34   1.0000      -2.236704       -60.8638
  35   1.0000      -2.236681       -60.8632
  36   1.0000      -2.235655       -60.8353
  37   1.0000      -2.235526       -60.8318
  38   1.0000      -2.235251       -60.8243
  39   1.0000      -2.233401       -60.7739
  40   1.0000      -2.233197       -60.7684
  41   1.0000      -2.232864       -60.7593
  42   1.0000      -2.232106       -60.7387
  43   1.0000      -2.232022       -60.7364
  44   1.0000      -2.231146       -60.7126
  45   1.0000      -2.231106       -60.7115
  46   1.0000      -2.230551       -60.6964
  47   1.0000      -2.230476       -60.6943
  48   1.0000      -2.230339       -60.6906
  49   1.0000      -2.229367       -60.6642
  50   1.0000      -2.228279       -60.6346
  51   1.0000      -2.228250       -60.6338
  52   1.0000      -2.225995       -60.5724
  53   1.0000      -2.225912       -60.5701
  54   1.0000      -1.854323       -50.4587
  55   1.0000      -1.853593       -50.4388
  56   1.0000      -1.848999       -50.3138
  57   1.0000      -0.412540       -11.2258
  58   1.0000      -0.388298       -10.5661
  59   1.0000      -0.377144       -10.2626
  60   1.0000      -0.370081       -10.0704
  61   1.0000      -0.363971        -9.9041
  62   1.0000      -0.360458        -9.8086
  63   1.0000      -0.357403        -9.7254
  64   1.0000      -0.357162        -9.7189
  65   1.0000      -0.345858        -9.4113
  66   1.0000      -0.345218        -9.3939
  67   1.0000      -0.343310        -9.3419
  68   1.0000      -0.341856        -9.3024
  69   1.0000      -0.340255        -9.2588
  70   1.0000      -0.334342        -9.0979
  71   1.0000      -0.333848        -9.0845
  72   1.0000      -0.330759        -9.0004
  73   1.0000      -0.328659        -8.9433
  74   1.0000      -0.325894        -8.8680
  75   1.0000      -0.322645        -8.7796
  76   1.0000      -0.319935        -8.7059
  77   1.0000      -0.314188        -8.5495
  78   1.0000      -0.312991        -8.5169
  79   1.0000      -0.312766        -8.5108
  80   1.0000      -0.310717        -8.4550
  81   1.0000      -0.309224        -8.4144
  82   1.0000      -0.306786        -8.3481
  83   1.0000      -0.302732        -8.2378
  84   1.0000      -0.297451        -8.0941
  85   1.0000      -0.297275        -8.0893
  86   1.0000      -0.295497        -8.0409
  87   1.0000      -0.292137        -7.9494
  88   1.0000      -0.290448        -7.9035
  89   1.0000      -0.290041        -7.8924
  90   1.0000      -0.287642        -7.8271
  91   1.0000      -0.286285        -7.7902
  92   1.0000      -0.283705        -7.7200
  93   1.0000      -0.282065        -7.6754
  94   1.0000      -0.279537        -7.6066
  95   1.0000      -0.275992        -7.5101
  96   1.0000      -0.275143        -7.4870
  97   1.0000      -0.273252        -7.4356
  98   1.0000      -0.273219        -7.4347
  99   1.0000      -0.270642        -7.3645
 100   1.0000      -0.269893        -7.3442
 101   1.0000      -0.268215        -7.2985
 102   1.0000      -0.268073        -7.2946
 103   1.0000      -0.266254        -7.2451
 104   1.0000      -0.265062        -7.2127
 105   1.0000      -0.264148        -7.1878
 106   1.0000      -0.260406        -7.0860
 107   1.0000      -0.260263        -7.0821
 108   1.0000      -0.257514        -7.0073
 109   1.0000      -0.256047        -6.9674
 110   1.0000      -0.255812        -6.9610
 111   1.0000      -0.252736        -6.8773
 112   1.0000      -0.250708        -6.8221
 113   1.0000      -0.250577        -6.8185
 114   1.0000      -0.248741        -6.7686
 115   1.0000      -0.248413        -6.7597
 116   1.0000      -0.244058        -6.6411
 117   1.0000      -0.242064        -6.5869
 118   1.0000      -0.235941        -6.4203
 119   1.0000      -0.233665        -6.3583
 120   1.0000      -0.227938        -6.2025
 121   1.0000      -0.219273        -5.9667
 122   1.0000      -0.217809        -5.9269
 123   1.0000      -0.199838        -5.4379
 124   1.0000      -0.183512        -4.9936
 125   0.0000      -0.149303        -4.0628
 126   0.0000      -0.142107        -3.8669
 127   0.0000      -0.135320        -3.6823
 128   0.0000      -0.128184        -3.4881
 129   0.0000      -0.127831        -3.4785

MULLIKEN ATOMIC CHARGES AND SPIN POPULATIONS
--------------------------------------------
   0 Au:    0.301527   -0.005136
   1 Au:    0.104737   -0.100382
   2 Au:    0.183621   -0.056070
   3 Au:    0.183000   -0.056075
   4 Au:    0.106724   -0.135450
   5 Au:    0.108863   -0.135798
   6 Au:    0.105342   -0.100392
   7 Au:    0.220071   -0.115162
   8 Au:    0.315588   -0.085939
   9 Au:   -0.143855   -0.029519
  10 Au:    0.316342   -0.085134
  11 Au:    0.218708   -0.115294
  12 Mn:   -2.020669    4.020351
Sum of atomic charges         :   -0.0000000

LOEWDIN ATOMIC CHARGES AND SPIN POPULATIONS
-------------------------------------------
   0 Au:    0.043353   -0.040747
   1 Au:    0.034839   -0.084748
   2 Au:    0.031011   -0.061652
   3 Au:    0.030838   -0.061817
   4 Au:    0.054194   -0.086344
   5 Au:    0.054573   -0.086606
   6 Au:    0.034860   -0.084921
   7 Au:    0.043801   -0.106119
   8 Au:    0.083809   -0.106767
   9 Au:   -0.063839   -0.018024
  10 Au:    0.084146   -0.106071
  11 Au:    0.043324   -0.106203
  12 Mn:   -0.474910    3.950019

  Mayer bond orders larger than 0.100000
B(  0-Au,  1-Au) :   0.2877 B(  0-Au,  2-Au) :   0.2493 B(  0-Au,  3-Au) :   0.2495
B(  0-Au,  6-Au) :   0.2873 B(  1-Au,  2-Au) :   0.1695 B(  1-Au,  6-Au) :   0.1933
B(  1-Au,  7-Au) :   0.3492 B(  1-Au, 12-Mn) :   0.5016 B(  2-Au,  3-Au) :   0.2026
B(  2-Au,  4-Au) :   0.3648 B(  2-Au, 12-Mn) :   0.5204 B(  3-Au,  5-Au) :   0.3644
B(  3-Au,  6-Au) :   0.1709 B(  3-Au, 12-Mn) :   0.5207 B(  4-Au,  7-Au) :   0.1490
B(  4-Au,  8-Au) :   0.3854 B(  4-Au, 12-Mn) :   0.5647 B(  5-Au, 10-Au) :   0.3835
B(  5-Au, 11-Au) :   0.1498 B(  5-Au, 12-Mn) :   0.5632 B(  6-Au, 11-Au) :   0.3497
B(  6-Au, 12-Mn) :   0.5005 B(  7-Au,  8-Au) :   0.2357 B(  7-Au,  9-Au) :   0.2487
B(  7-Au, 12-Mn) :   0.5370 B(  8-Au,  9-Au) :   0.4511 B(  9-Au, 10-Au) :   0.4514
B(  9-Au, 11-Au) :   0.2480 B(  9-Au, 12-Mn) :   0.3340 B( 10-Au, 11-Au) :   0.2372
B( 11-Au, 12-Mn) :   0.5369

FINAL SINGLE POINT ENERGY     -2780.692900550642

DIPOLE MOMENT
-------------
                                X             Y             Z
Electronic contribution:     -6.25725      -0.38933       2.33341
Nuclear contribution   :      6.14300       0.35693      -2.30332
                        -----------------------------------------
Total Dipole Moment    :     -0.11425      -0.03240       0.03010
                        -----------------------------------------
Magnitude (a.u.)       :      0.12251
Magnitude (Debye)      :      0.31140

Rotational constants in cm-1:     0.001535     0.001171     0.000911
Rotational constants in MHz :    46.010758    35.107292    27.306238

                             ****ORCA TERMINATED NORMALLY****
TOTAL RUN TIME: 0 days 10 hours 40 minutes 47 seconds 44 msec
