                         Program Version 5.0.3 -  RELEASE  -
|  1> !RI-B2PLYP def2-TZVP def2-TZVP/C
|  2> !RIJCOSX VERYSLOWCONV
|  3>
|  4> %scf
|  5>   AutoTRAHIter 200
|  6>   maxiter 400
|  7> end
|  8>
|  9>
| 10> %pal nprocs 6 end
| 11>
| 12> *xyzfile 0 5 pbe.xyz
| 13>
| 14> $new_job
| 15>
| 16> !RI-B2PLYP def2-TZVP def2-TZVP/C
| 17> !RIJCOSX VERYSLOWCONV
| 18>
| 19> %scf
| 20>   AutoTRAHIter 200
| 21>   maxiter 400
| 22> end
| 23>
| 24>
| 25> %pal nprocs 6 end
| 26>
| 27> *xyzfile 0 3 pbe.xyz
| 28>
| 29>
| 30>
| 31>
| 32>
| 33>                          ****END OF INPUT****
 Total Charge           Charge          ....    0
 Multiplicity           Mult            ....    5
 Number of Electrons    NEL             ....  290
MP2 TOTAL ENERGY:    -2942.514930965 Eh
FINAL SINGLE POINT ENERGY     -2942.514930964965

CARTESIAN COORDINATES (ANGSTROEM)
---------------------------------
  Au     8.938456    5.033494    6.378415
  Au    10.006233    7.315248    7.501598
  Au     8.685938    8.396027    9.670378
  Au     7.794444    5.823366    8.731261
  Au     6.364709    7.188705   10.656892
  Au     4.792969    6.224404    8.620738
  Au     5.997251   10.621437    6.852013
  Au     8.543826    9.602872    7.007165
  Au     4.074641    8.600952    7.057676
  Au     8.965920    7.521633    4.956189
  Au     6.852690    5.792520    4.502756
  Au     6.355905    8.350521    5.323386
  Au     4.491162    6.140071    5.880394
  Au     6.312901    4.350065    6.920834
  Cr     6.516346    8.219493    8.102522

 Multiplicity           Mult            ....    3
 Number of Electrons    NEL             ....  290
 Basis Dimension        Dim             ....  605

ORBITAL ENERGIES
----------------
                 SPIN UP ORBITALS
  NO   OCC          E(Eh)            E(eV)
   0   1.0000    -217.764756     -5925.6803
   1   1.0000     -25.449859      -692.5259
   2   1.0000     -21.589094      -587.4691
   3   1.0000     -21.588636      -587.4566
   4   1.0000     -21.583739      -587.3234
   5   1.0000      -4.404590      -119.8550
   6   1.0000      -4.404547      -119.8538
   7   1.0000      -4.403258      -119.8188
   8   1.0000      -4.403087      -119.8141
   9   1.0000      -4.403003      -119.8118
  10   1.0000      -4.402296      -119.7926
  11   1.0000      -4.397523      -119.6627
  12   1.0000      -4.397465      -119.6611
  13   1.0000      -4.394764      -119.5876
  14   1.0000      -4.394095      -119.5694
  15   1.0000      -4.392005      -119.5125
  16   1.0000      -4.391674      -119.5035
  17   1.0000      -4.389387      -119.4413
  18   1.0000      -4.389119      -119.4340
  19   1.0000      -3.241558       -88.2073
  20   1.0000      -2.525158       -68.7131
  21   1.0000      -2.525113       -68.7118
  22   1.0000      -2.523451       -68.6666
  23   1.0000      -2.523073       -68.6563
  24   1.0000      -2.522649       -68.6448
  25   1.0000      -2.522153       -68.6313
  26   1.0000      -2.521931       -68.6252
  27   1.0000      -2.521695       -68.6188
  28   1.0000      -2.520818       -68.5950
  29   1.0000      -2.520717       -68.5922
  30   1.0000      -2.520610       -68.5893
  31   1.0000      -2.520393       -68.5834
  32   1.0000      -2.519680       -68.5640
  33   1.0000      -2.519407       -68.5566
  34   1.0000      -2.517518       -68.5051
  35   1.0000      -2.517213       -68.4968
  36   1.0000      -2.516830       -68.4864
  37   1.0000      -2.516517       -68.4779
  38   1.0000      -2.516182       -68.4688
  39   1.0000      -2.515587       -68.4526
  40   1.0000      -2.514575       -68.4251
  41   1.0000      -2.514101       -68.4122
  42   1.0000      -2.513186       -68.3873
  43   1.0000      -2.512827       -68.3775
  44   1.0000      -2.512544       -68.3698
  45   1.0000      -2.511927       -68.3530
  46   1.0000      -2.511672       -68.3461
  47   1.0000      -2.511584       -68.3437
  48   1.0000      -2.511179       -68.3326
  49   1.0000      -2.511060       -68.3294
  50   1.0000      -2.510500       -68.3142
  51   1.0000      -2.509874       -68.2971
  52   1.0000      -2.509259       -68.2804
  53   1.0000      -2.508951       -68.2720
  54   1.0000      -2.508231       -68.2524
  55   1.0000      -2.507870       -68.2426
  56   1.0000      -2.506903       -68.2163
  57   1.0000      -2.506160       -68.1961
  58   1.0000      -2.505752       -68.1850
  59   1.0000      -2.505526       -68.1788
  60   1.0000      -2.504288       -68.1451
  61   1.0000      -2.503065       -68.1119
  62   1.0000      -2.133936       -58.0674
  63   1.0000      -2.123962       -57.7959
  64   1.0000      -2.122603       -57.7590
  65   1.0000      -0.500867       -13.6293
  66   1.0000      -0.481858       -13.1120
  67   1.0000      -0.473838       -12.8938
  68   1.0000      -0.468790       -12.7564
  69   1.0000      -0.467195       -12.7130
  70   1.0000      -0.463206       -12.6045
  71   1.0000      -0.460632       -12.5344
  72   1.0000      -0.458842       -12.4857
  73   1.0000      -0.457125       -12.4390
  74   1.0000      -0.455864       -12.4047
  75   1.0000      -0.455112       -12.3842
  76   1.0000      -0.452096       -12.3022
  77   1.0000      -0.451324       -12.2812
  78   1.0000      -0.450892       -12.2694
  79   1.0000      -0.449783       -12.2392
  80   1.0000      -0.448392       -12.2014
  81   1.0000      -0.447396       -12.1743
  82   1.0000      -0.444604       -12.0983
  83   1.0000      -0.443772       -12.0757
  84   1.0000      -0.440235       -11.9794
  85   1.0000      -0.437039       -11.8924
  86   1.0000      -0.435653       -11.8547
  87   1.0000      -0.435331       -11.8460
  88   1.0000      -0.428697       -11.6654
  89   1.0000      -0.427349       -11.6288
  90   1.0000      -0.427265       -11.6265
  91   1.0000      -0.425749       -11.5852
  92   1.0000      -0.423529       -11.5248
  93   1.0000      -0.414994       -11.2926
  94   1.0000      -0.413194       -11.2436
  95   1.0000      -0.412769       -11.2320
  96   1.0000      -0.410487       -11.1699
  97   1.0000      -0.410100       -11.1594
  98   1.0000      -0.407987       -11.1019
  99   1.0000      -0.401631       -10.9289
 100   1.0000      -0.397332       -10.8119
 101   1.0000      -0.396777       -10.7969
 102   1.0000      -0.395314       -10.7571
 103   1.0000      -0.391641       -10.6571
 104   1.0000      -0.387597       -10.5470
 105   1.0000      -0.386627       -10.5207
 106   1.0000      -0.383533       -10.4365
 107   1.0000      -0.381266       -10.3748
 108   1.0000      -0.380150       -10.3444
 109   1.0000      -0.379806       -10.3350
 110   1.0000      -0.377469       -10.2715
 111   1.0000      -0.375579       -10.2200
 112   1.0000      -0.372122       -10.1260
 113   1.0000      -0.371959       -10.1215
 114   1.0000      -0.371354       -10.1051
 115   1.0000      -0.367579       -10.0023
 116   1.0000      -0.366898        -9.9838
 117   1.0000      -0.363668        -9.8959
 118   1.0000      -0.362692        -9.8694
 119   1.0000      -0.360924        -9.8212
 120   1.0000      -0.358669        -9.7599
 121   1.0000      -0.356554        -9.7023
 122   1.0000      -0.355356        -9.6697
 123   1.0000      -0.352782        -9.5997
 124   1.0000      -0.351539        -9.5659
 125   1.0000      -0.349896        -9.5212
 126   1.0000      -0.349010        -9.4970
 127   1.0000      -0.348800        -9.4913
 128   1.0000      -0.348246        -9.4762
 129   1.0000      -0.344837        -9.3835
 130   1.0000      -0.343821        -9.3559
 131   1.0000      -0.340229        -9.2581
 132   1.0000      -0.339760        -9.2453
 133   1.0000      -0.336578        -9.1587
 134   1.0000      -0.331790        -9.0285
 135   1.0000      -0.331017        -9.0074
 136   1.0000      -0.330610        -8.9964
 137   1.0000      -0.325903        -8.8683
 138   1.0000      -0.321742        -8.7551
 139   1.0000      -0.318405        -8.6642
 140   1.0000      -0.317286        -8.6338
 141   1.0000      -0.308535        -8.3957
 142   1.0000      -0.304759        -8.2929
 143   1.0000      -0.236530        -6.4363
 144   1.0000      -0.232502        -6.3267
 145   1.0000      -0.222370        -6.0510
 146   0.0000      -0.144110        -3.9214
 147   0.0000      -0.102677        -2.7940
 148   0.0000      -0.078656        -2.1403
 149   0.0000      -0.077072        -2.0972
 150   0.0000      -0.057898        -1.5755

                 SPIN DOWN ORBITALS
  NO   OCC          E(Eh)            E(eV)
   0   1.0000    -217.763604     -5925.6489
   1   1.0000     -25.378723      -690.5902
   2   1.0000     -21.529151      -585.8380
   3   1.0000     -21.527921      -585.8045
   4   1.0000     -21.507635      -585.2525
   5   1.0000      -4.406898      -119.9178
   6   1.0000      -4.406855      -119.9166
   7   1.0000      -4.403676      -119.8301
   8   1.0000      -4.403571      -119.8273
   9   1.0000      -4.403270      -119.8191
  10   1.0000      -4.402190      -119.7897
  11   1.0000      -4.397968      -119.6748
  12   1.0000      -4.397852      -119.6716
  13   1.0000      -4.395144      -119.5980
  14   1.0000      -4.394432      -119.5786
  15   1.0000      -4.393222      -119.5456
  16   1.0000      -4.392851      -119.5355
  17   1.0000      -4.390466      -119.4707
  18   1.0000      -4.390189      -119.4631
  19   1.0000      -3.023892       -82.2843
  20   1.0000      -2.527864       -68.7867
  21   1.0000      -2.527842       -68.7861
  22   1.0000      -2.524120       -68.6848
  23   1.0000      -2.524058       -68.6831
  24   1.0000      -2.522942       -68.6528
  25   1.0000      -2.522869       -68.6508
  26   1.0000      -2.522443       -68.6392
  27   1.0000      -2.521720       -68.6195
  28   1.0000      -2.521464       -68.6125
  29   1.0000      -2.521207       -68.6055
  30   1.0000      -2.520629       -68.5898
  31   1.0000      -2.520569       -68.5882
  32   1.0000      -2.519917       -68.5704
  33   1.0000      -2.519319       -68.5542
  34   1.0000      -2.518088       -68.5207
  35   1.0000      -2.517828       -68.5136
  36   1.0000      -2.517054       -68.4925
  37   1.0000      -2.516659       -68.4818
  38   1.0000      -2.516358       -68.4736
  39   1.0000      -2.515547       -68.4515
  40   1.0000      -2.515134       -68.4403
  41   1.0000      -2.514702       -68.4285
  42   1.0000      -2.513567       -68.3976
  43   1.0000      -2.512986       -68.3818
  44   1.0000      -2.512863       -68.3785
  45   1.0000      -2.512330       -68.3640
  46   1.0000      -2.512300       -68.3631
  47   1.0000      -2.512148       -68.3590
  48   1.0000      -2.511747       -68.3481
  49   1.0000      -2.511477       -68.3408
  50   1.0000      -2.510899       -68.3250
  51   1.0000      -2.510543       -68.3154
  52   1.0000      -2.510244       -68.3072
  53   1.0000      -2.510115       -68.3037
  54   1.0000      -2.508777       -68.2673
  55   1.0000      -2.508359       -68.2559
  56   1.0000      -2.507683       -68.2375
  57   1.0000      -2.507104       -68.2218
  58   1.0000      -2.506956       -68.2178
  59   1.0000      -2.506154       -68.1959
  60   1.0000      -2.505537       -68.1791
  61   1.0000      -2.504002       -68.1374
  62   1.0000      -1.894336       -51.5475
  63   1.0000      -1.891972       -51.4832
  64   1.0000      -1.843343       -50.1599
  65   1.0000      -0.491939       -13.3863
  66   1.0000      -0.478053       -13.0085
  67   1.0000      -0.469484       -12.7753
  68   1.0000      -0.468254       -12.7418
  69   1.0000      -0.464364       -12.6360
  70   1.0000      -0.463211       -12.6046
  71   1.0000      -0.462570       -12.5872
  72   1.0000      -0.458208       -12.4685
  73   1.0000      -0.457634       -12.4529
  74   1.0000      -0.455658       -12.3991
  75   1.0000      -0.454988       -12.3809
  76   1.0000      -0.453589       -12.3428
  77   1.0000      -0.453345       -12.3361
  78   1.0000      -0.452704       -12.3187
  79   1.0000      -0.450347       -12.2546
  80   1.0000      -0.448554       -12.2058
  81   1.0000      -0.445670       -12.1273
  82   1.0000      -0.445566       -12.1245
  83   1.0000      -0.441424       -12.0118
  84   1.0000      -0.440812       -11.9951
  85   1.0000      -0.437750       -11.9118
  86   1.0000      -0.433131       -11.7861
  87   1.0000      -0.431869       -11.7517
  88   1.0000      -0.428897       -11.6709
  89   1.0000      -0.427579       -11.6350
  90   1.0000      -0.425334       -11.5739
  91   1.0000      -0.424897       -11.5620
  92   1.0000      -0.418055       -11.3759
  93   1.0000      -0.413717       -11.2578
  94   1.0000      -0.413621       -11.2552
  95   1.0000      -0.412996       -11.2382
  96   1.0000      -0.408594       -11.1184
  97   1.0000      -0.404728       -11.0132
  98   1.0000      -0.400802       -10.9064
  99   1.0000      -0.400709       -10.9039
 100   1.0000      -0.394781       -10.7425
 101   1.0000      -0.394412       -10.7325
 102   1.0000      -0.392617       -10.6837
 103   1.0000      -0.385353       -10.4860
 104   1.0000      -0.384816       -10.4714
 105   1.0000      -0.384610       -10.4658
 106   1.0000      -0.382590       -10.4108
 107   1.0000      -0.380749       -10.3607
 108   1.0000      -0.377435       -10.2705
 109   1.0000      -0.377359       -10.2684
 110   1.0000      -0.376260       -10.2386
 111   1.0000      -0.373608       -10.1664
 112   1.0000      -0.373117       -10.1530
 113   1.0000      -0.372693       -10.1415
 114   1.0000      -0.372340       -10.1319
 115   1.0000      -0.365889        -9.9564
 116   1.0000      -0.365213        -9.9379
 117   1.0000      -0.362736        -9.8705
 118   1.0000      -0.361369        -9.8333
 119   1.0000      -0.360017        -9.7966
 120   1.0000      -0.358061        -9.7433
 121   1.0000      -0.356223        -9.6933
 122   1.0000      -0.353292        -9.6136
 123   1.0000      -0.353223        -9.6117
 124   1.0000      -0.351849        -9.5743
 125   1.0000      -0.351198        -9.5566
 126   1.0000      -0.350644        -9.5415
 127   1.0000      -0.347263        -9.4495
 128   1.0000      -0.343760        -9.3542
 129   1.0000      -0.341458        -9.2915
 130   1.0000      -0.336754        -9.1635
 131   1.0000      -0.336025        -9.1437
 132   1.0000      -0.335650        -9.1335
 133   1.0000      -0.329167        -8.9571
 134   1.0000      -0.325888        -8.8679
 135   1.0000      -0.323148        -8.7933
 136   1.0000      -0.320730        -8.7275
 137   1.0000      -0.320277        -8.7152
 138   1.0000      -0.318883        -8.6772
 139   1.0000      -0.243393        -6.6231
 140   1.0000      -0.239713        -6.5229
 141   1.0000      -0.233679        -6.3587
 142   1.0000      -0.224313        -6.1039
 143   1.0000      -0.189938        -5.1685
 144   0.0000      -0.084529        -2.3001
 145   0.0000      -0.072063        -1.9609
 146   0.0000      -0.071512        -1.9459
 147   0.0000      -0.062709        -1.7064
 148   0.0000      -0.056635        -1.5411

MULLIKEN ATOMIC CHARGES AND SPIN POPULATIONS
--------------------------------------------
   0 Au:    0.137671   -0.173833
   1 Au:    0.157701   -0.039936
   2 Au:    0.484697   -0.194862
   3 Au:   -0.407028   -0.121717
   4 Au:    0.459289   -0.095682
   5 Au:    0.124530   -0.101198
   6 Au:    0.463985   -0.103432
   7 Au:    0.111885   -0.078432
   8 Au:    0.480090   -0.193334
   9 Au:    0.183346   -0.224796
  10 Au:    0.145862   -0.184811
  11 Au:   -0.404721   -0.121199
  12 Au:    0.146367   -0.018434
  13 Au:    0.181765   -0.215532
  14 Cr:   -2.265438    3.867198
Sum of atomic charges         :   -0.0000000

LOEWDIN ATOMIC CHARGES AND SPIN POPULATIONS
-------------------------------------------
   0 Au:    0.012635   -0.191321
   1 Au:    0.036177   -0.096952
   2 Au:    0.103325   -0.141591
   3 Au:   -0.050341   -0.087728
   4 Au:    0.160060   -0.120156
   5 Au:    0.039329   -0.114861
   6 Au:    0.159743   -0.118187
   7 Au:    0.037575   -0.106938
   8 Au:    0.104401   -0.143779
   9 Au:    0.042578   -0.162245
  10 Au:    0.011798   -0.190058
  11 Au:   -0.049736   -0.087690
  12 Au:    0.034657   -0.090732
  13 Au:    0.041096   -0.156647
  14 Cr:   -0.683296    3.808885

  Mayer bond orders larger than 0.100000
B(  0-Au,  1-Au) :   0.2395 B(  0-Au,  3-Au) :   0.4171 B(  0-Au,  9-Au) :   0.1817
B(  0-Au, 10-Au) :   0.2467 B(  0-Au, 13-Au) :   0.2633 B(  1-Au,  2-Au) :   0.1467
B(  1-Au,  3-Au) :   0.2394 B(  1-Au,  7-Au) :   0.3080 B(  1-Au,  9-Au) :   0.2056
B(  1-Au, 14-Cr) :   0.3118 B(  2-Au,  3-Au) :   0.1353 B(  2-Au,  4-Au) :   0.2809
B(  2-Au,  7-Au) :   0.1277 B(  2-Au, 14-Cr) :   0.4579 B(  3-Au,  4-Au) :   0.1828
B(  3-Au, 13-Au) :   0.3294 B(  3-Au, 14-Cr) :   0.4445 B(  4-Au,  5-Au) :   0.1776
B(  4-Au, 14-Cr) :   0.5076 B(  5-Au,  8-Au) :   0.1198 B(  5-Au, 12-Au) :   0.3132
B(  5-Au, 13-Au) :   0.2288 B(  5-Au, 14-Cr) :   0.5175 B(  6-Au,  7-Au) :   0.1760
B(  6-Au,  8-Au) :   0.2855 B(  6-Au, 11-Au) :   0.1795 B(  6-Au, 14-Cr) :   0.5016
B(  7-Au,  9-Au) :   0.2163 B(  7-Au, 14-Cr) :   0.5223 B(  8-Au, 11-Au) :   0.1398
B(  8-Au, 12-Au) :   0.1388 B(  8-Au, 14-Cr) :   0.4681 B(  9-Au, 10-Au) :   0.2721
B(  9-Au, 11-Au) :   0.3385 B(  9-Au, 14-Cr) :   0.1177 B( 10-Au, 11-Au) :   0.4121
B( 10-Au, 12-Au) :   0.2375 B( 10-Au, 13-Au) :   0.1784 B( 11-Au, 12-Au) :   0.2332
B( 11-Au, 14-Cr) :   0.4443 B( 12-Au, 13-Au) :   0.2139 B( 12-Au, 14-Cr) :   0.3151
B( 13-Au, 14-Cr) :   0.1246

MP2 TOTAL ENERGY:    -2942.482011138 Eh
FINAL SINGLE POINT ENERGY     -2942.482011137583

DIPOLE MOMENT
-------------
                                X             Y             Z
Electronic contribution:     17.30187     -35.13372     -33.29940
Nuclear contribution   :    -17.47493      35.49108      33.64006
                        -----------------------------------------
Total Dipole Moment    :     -0.17306       0.35736       0.34066
                        -----------------------------------------
Magnitude (a.u.)       :      0.52317
Magnitude (Debye)      :      1.32978

Rotational constants in cm-1:     0.001038     0.001028     0.000965
Rotational constants in MHz :    31.129881    30.818174    28.939542

                             ****ORCA TERMINATED NORMALLY****
TOTAL RUN TIME: 0 days 1 hours 26 minutes 2 seconds 201 msec
