                         Program Version 5.0.3 -  RELEASE  -
|  1> !PBE def2-TZVP VERYSLOWCONV
|  2>
|  3> %scf
|  4>   AutoTRAHIter 200
|  5>   maxiter 400
|  6> end
|  7>
|  8>
|  9> %pal nprocs 6 end
| 10>
| 11> *xyzfile 0 5 pbe.xyz
| 12>
| 13> $new_job
| 14>
| 15> !PBE def2-TZVP VERYSLOWCONV
| 16>
| 17> %scf
| 18>   AutoTRAHIter 200
| 19>   maxiter 400
| 20> end
| 21>
| 22>
| 23> %pal nprocs 6 end
| 24>
| 25> *xyzfile 0 3 pbe.xyz
| 26>
| 27>
| 28>
| 29>
| 30>
| 31>                          ****END OF INPUT****
 Total Charge           Charge          ....    0
 Multiplicity           Mult            ....    5
 Number of Electrons    NEL             ....  290
FINAL SINGLE POINT ENERGY     -2945.821086024762

CARTESIAN COORDINATES (ANGSTROEM)
---------------------------------
  Au     8.938456    5.033494    6.378415
  Au    10.006233    7.315248    7.501598
  Au     8.685938    8.396027    9.670378
  Au     7.794444    5.823366    8.731261
  Au     6.364709    7.188705   10.656892
  Au     4.792969    6.224404    8.620738
  Au     5.997251   10.621437    6.852013
  Au     8.543826    9.602872    7.007165
  Au     4.074641    8.600952    7.057676
  Au     8.965920    7.521633    4.956189
  Au     6.852690    5.792520    4.502756
  Au     6.355905    8.350521    5.323386
  Au     4.491162    6.140071    5.880394
  Au     6.312901    4.350065    6.920834
  Cr     6.516346    8.219493    8.102522

 Multiplicity           Mult            ....    3
 Number of Electrons    NEL             ....  290
 Basis Dimension        Dim             ....  605

ORBITAL ENERGIES
----------------
                 SPIN UP ORBITALS
  NO   OCC          E(Eh)            E(eV)
   0   1.0000    -214.506319     -5837.0137
   1   1.0000     -24.306834      -661.4226
   2   1.0000     -20.674885      -562.5922
   3   1.0000     -20.669958      -562.4582
   4   1.0000     -20.665158      -562.3275
   5   1.0000      -4.035356      -109.8076
   6   1.0000      -4.035336      -109.8071
   7   1.0000      -4.035300      -109.8061
   8   1.0000      -4.035296      -109.8060
   9   1.0000      -4.034068      -109.7726
  10   1.0000      -4.034028      -109.7715
  11   1.0000      -4.028440      -109.6194
  12   1.0000      -4.028417      -109.6188
  13   1.0000      -4.024962      -109.5248
  14   1.0000      -4.024919      -109.5236
  15   1.0000      -4.017848      -109.3312
  16   1.0000      -4.017772      -109.3291
  17   1.0000      -4.016199      -109.2863
  18   1.0000      -4.016161      -109.2853
  19   1.0000      -2.811174       -76.4959
  20   1.0000      -2.252461       -61.2926
  21   1.0000      -2.252425       -61.2916
  22   1.0000      -2.251821       -61.2752
  23   1.0000      -2.251694       -61.2717
  24   1.0000      -2.250521       -61.2398
  25   1.0000      -2.250410       -61.2368
  26   1.0000      -2.249239       -61.2049
  27   1.0000      -2.249149       -61.2024
  28   1.0000      -2.247436       -61.1558
  29   1.0000      -2.247383       -61.1544
  30   1.0000      -2.246548       -61.1317
  31   1.0000      -2.246474       -61.1297
  32   1.0000      -2.246018       -61.1173
  33   1.0000      -2.245986       -61.1164
  34   1.0000      -2.244513       -61.0763
  35   1.0000      -2.244477       -61.0753
  36   1.0000      -2.243658       -61.0531
  37   1.0000      -2.243586       -61.0511
  38   1.0000      -2.242328       -61.0168
  39   1.0000      -2.242293       -61.0159
  40   1.0000      -2.240433       -60.9653
  41   1.0000      -2.240370       -60.9636
  42   1.0000      -2.240143       -60.9574
  43   1.0000      -2.240081       -60.9557
  44   1.0000      -2.238707       -60.9183
  45   1.0000      -2.238673       -60.9174
  46   1.0000      -2.237844       -60.8948
  47   1.0000      -2.237822       -60.8942
  48   1.0000      -2.235181       -60.8224
  49   1.0000      -2.235081       -60.8196
  50   1.0000      -2.233912       -60.7878
  51   1.0000      -2.233583       -60.7789
  52   1.0000      -2.232112       -60.7389
  53   1.0000      -2.231450       -60.7208
  54   1.0000      -2.230878       -60.7053
  55   1.0000      -2.230688       -60.7001
  56   1.0000      -2.229379       -60.6645
  57   1.0000      -2.228715       -60.6464
  58   1.0000      -2.227399       -60.6106
  59   1.0000      -2.226354       -60.5822
  60   1.0000      -2.225857       -60.5687
  61   1.0000      -2.225824       -60.5678
  62   1.0000      -1.806207       -49.1494
  63   1.0000      -1.801012       -49.0080
  64   1.0000      -1.794720       -48.8368
  65   1.0000      -0.421944       -11.4817
  66   1.0000      -0.391612       -10.6563
  67   1.0000      -0.380963       -10.3665
  68   1.0000      -0.380854       -10.3636
  69   1.0000      -0.373818       -10.1721
  70   1.0000      -0.370580       -10.0840
  71   1.0000      -0.361958        -9.8494
  72   1.0000      -0.358907        -9.7664
  73   1.0000      -0.358573        -9.7573
  74   1.0000      -0.356082        -9.6895
  75   1.0000      -0.354608        -9.6494
  76   1.0000      -0.353104        -9.6085
  77   1.0000      -0.351395        -9.5619
  78   1.0000      -0.349364        -9.5067
  79   1.0000      -0.348570        -9.4851
  80   1.0000      -0.347729        -9.4622
  81   1.0000      -0.345378        -9.3982
  82   1.0000      -0.340209        -9.2576
  83   1.0000      -0.338561        -9.2127
  84   1.0000      -0.336588        -9.1590
  85   1.0000      -0.336140        -9.1468
  86   1.0000      -0.333381        -9.0718
  87   1.0000      -0.333276        -9.0689
  88   1.0000      -0.329000        -8.9526
  89   1.0000      -0.328647        -8.9429
  90   1.0000      -0.324588        -8.8325
  91   1.0000      -0.322691        -8.7809
  92   1.0000      -0.321758        -8.7555
  93   1.0000      -0.316276        -8.6063
  94   1.0000      -0.315223        -8.5777
  95   1.0000      -0.314207        -8.5500
  96   1.0000      -0.311611        -8.4794
  97   1.0000      -0.309477        -8.4213
  98   1.0000      -0.304534        -8.2868
  99   1.0000      -0.300564        -8.1788
 100   1.0000      -0.299203        -8.1417
 101   1.0000      -0.296790        -8.0761
 102   1.0000      -0.294527        -8.0145
 103   1.0000      -0.293109        -7.9759
 104   1.0000      -0.291439        -7.9305
 105   1.0000      -0.289811        -7.8861
 106   1.0000      -0.288833        -7.8595
 107   1.0000      -0.285348        -7.7647
 108   1.0000      -0.283088        -7.7032
 109   1.0000      -0.282991        -7.7006
 110   1.0000      -0.280599        -7.6355
 111   1.0000      -0.279560        -7.6072
 112   1.0000      -0.277634        -7.5548
 113   1.0000      -0.275094        -7.4857
 114   1.0000      -0.274265        -7.4631
 115   1.0000      -0.272297        -7.4096
 116   1.0000      -0.269735        -7.3399
 117   1.0000      -0.268391        -7.3033
 118   1.0000      -0.266118        -7.2414
 119   1.0000      -0.264564        -7.1992
 120   1.0000      -0.263143        -7.1605
 121   1.0000      -0.262148        -7.1334
 122   1.0000      -0.260988        -7.1019
 123   1.0000      -0.259665        -7.0658
 124   1.0000      -0.257197        -6.9987
 125   1.0000      -0.256128        -6.9696
 126   1.0000      -0.255502        -6.9526
 127   1.0000      -0.255444        -6.9510
 128   1.0000      -0.250792        -6.8244
 129   1.0000      -0.250544        -6.8177
 130   1.0000      -0.249119        -6.7789
 131   1.0000      -0.247606        -6.7377
 132   1.0000      -0.244676        -6.6580
 133   1.0000      -0.242224        -6.5912
 134   1.0000      -0.241302        -6.5662
 135   1.0000      -0.240247        -6.5374
 136   1.0000      -0.239312        -6.5120
 137   1.0000      -0.237626        -6.4661
 138   1.0000      -0.233033        -6.3411
 139   1.0000      -0.224109        -6.0983
 140   1.0000      -0.222276        -6.0484
 141   1.0000      -0.221548        -6.0286
 142   1.0000      -0.217515        -5.9189
 143   1.0000      -0.217332        -5.9139
 144   1.0000      -0.202435        -5.5085
 145   1.0000      -0.199429        -5.4267
 146   0.0000      -0.195298        -5.3143
 147   0.0000      -0.186024        -5.0620
 148   0.0000      -0.167324        -4.5531
 149   0.0000      -0.142305        -3.8723
 150   0.0000      -0.127901        -3.4804

                 SPIN DOWN ORBITALS
  NO   OCC          E(Eh)            E(eV)
   0   1.0000    -214.505904     -5837.0024
   1   1.0000     -24.259615      -660.1377
   2   1.0000     -20.643377      -561.7348
   3   1.0000     -20.635024      -561.5076
   4   1.0000     -20.623419      -561.1918
   5   1.0000      -4.035704      -109.8171
   6   1.0000      -4.035685      -109.8166
   7   1.0000      -4.035058      -109.7995
   8   1.0000      -4.035024      -109.7986
   9   1.0000      -4.034342      -109.7800
  10   1.0000      -4.034302      -109.7789
  11   1.0000      -4.028760      -109.6281
  12   1.0000      -4.028744      -109.6277
  13   1.0000      -4.025503      -109.5395
  14   1.0000      -4.025456      -109.5382
  15   1.0000      -4.018704      -109.3545
  16   1.0000      -4.018629      -109.3525
  17   1.0000      -4.016920      -109.3059
  18   1.0000      -4.016881      -109.3049
  19   1.0000      -2.683600       -73.0245
  20   1.0000      -2.253058       -61.3088
  21   1.0000      -2.253047       -61.3085
  22   1.0000      -2.251505       -61.2666
  23   1.0000      -2.251409       -61.2639
  24   1.0000      -2.250750       -61.2460
  25   1.0000      -2.250645       -61.2432
  26   1.0000      -2.249069       -61.2003
  27   1.0000      -2.248974       -61.1977
  28   1.0000      -2.247760       -61.1646
  29   1.0000      -2.247704       -61.1631
  30   1.0000      -2.246838       -61.1396
  31   1.0000      -2.246783       -61.1381
  32   1.0000      -2.246110       -61.1198
  33   1.0000      -2.246077       -61.1189
  34   1.0000      -2.244763       -61.0831
  35   1.0000      -2.244733       -61.0823
  36   1.0000      -2.243531       -61.0496
  37   1.0000      -2.243473       -61.0480
  38   1.0000      -2.242595       -61.0241
  39   1.0000      -2.242545       -61.0228
  40   1.0000      -2.240962       -60.9797
  41   1.0000      -2.240919       -60.9785
  42   1.0000      -2.240613       -60.9702
  43   1.0000      -2.240583       -60.9694
  44   1.0000      -2.239381       -60.9367
  45   1.0000      -2.239346       -60.9357
  46   1.0000      -2.238133       -60.9027
  47   1.0000      -2.238117       -60.9022
  48   1.0000      -2.235722       -60.8371
  49   1.0000      -2.235596       -60.8337
  50   1.0000      -2.234535       -60.8048
  51   1.0000      -2.234189       -60.7954
  52   1.0000      -2.233340       -60.7723
  53   1.0000      -2.232730       -60.7557
  54   1.0000      -2.231463       -60.7212
  55   1.0000      -2.231370       -60.7187
  56   1.0000      -2.230276       -60.6889
  57   1.0000      -2.229714       -60.6736
  58   1.0000      -2.228250       -60.6338
  59   1.0000      -2.227080       -60.6019
  60   1.0000      -2.226677       -60.5910
  61   1.0000      -2.226565       -60.5879
  62   1.0000      -1.695727       -46.1431
  63   1.0000      -1.678257       -45.6677
  64   1.0000      -1.650172       -44.9035
  65   1.0000      -0.418391       -11.3850
  66   1.0000      -0.392812       -10.6890
  67   1.0000      -0.381158       -10.3718
  68   1.0000      -0.378316       -10.2945
  69   1.0000      -0.373460       -10.1624
  70   1.0000      -0.368164       -10.0183
  71   1.0000      -0.363235        -9.8841
  72   1.0000      -0.360031        -9.7969
  73   1.0000      -0.357529        -9.7289
  74   1.0000      -0.356960        -9.7134
  75   1.0000      -0.355174        -9.6648
  76   1.0000      -0.353975        -9.6321
  77   1.0000      -0.351895        -9.5756
  78   1.0000      -0.350218        -9.5299
  79   1.0000      -0.349393        -9.5075
  80   1.0000      -0.347118        -9.4456
  81   1.0000      -0.344480        -9.3738
  82   1.0000      -0.341106        -9.2820
  83   1.0000      -0.338241        -9.2040
  84   1.0000      -0.336979        -9.1697
  85   1.0000      -0.336850        -9.1661
  86   1.0000      -0.333564        -9.0767
  87   1.0000      -0.333155        -9.0656
  88   1.0000      -0.329463        -8.9651
  89   1.0000      -0.328656        -8.9432
  90   1.0000      -0.325209        -8.8494
  91   1.0000      -0.323169        -8.7939
  92   1.0000      -0.320000        -8.7077
  93   1.0000      -0.317101        -8.6288
  94   1.0000      -0.315560        -8.5868
  95   1.0000      -0.312671        -8.5082
  96   1.0000      -0.312476        -8.5029
  97   1.0000      -0.305704        -8.3186
  98   1.0000      -0.304316        -8.2809
  99   1.0000      -0.300736        -8.1834
 100   1.0000      -0.300152        -8.1675
 101   1.0000      -0.297559        -8.0970
 102   1.0000      -0.294341        -8.0094
 103   1.0000      -0.293838        -7.9957
 104   1.0000      -0.289969        -7.8905
 105   1.0000      -0.289043        -7.8653
 106   1.0000      -0.289007        -7.8643
 107   1.0000      -0.285636        -7.7726
 108   1.0000      -0.284225        -7.7342
 109   1.0000      -0.283936        -7.7263
 110   1.0000      -0.281770        -7.6673
 111   1.0000      -0.279527        -7.6063
 112   1.0000      -0.278538        -7.5794
 113   1.0000      -0.276156        -7.5146
 114   1.0000      -0.275580        -7.4989
 115   1.0000      -0.273534        -7.4432
 116   1.0000      -0.271147        -7.3783
 117   1.0000      -0.269742        -7.3401
 118   1.0000      -0.267295        -7.2735
 119   1.0000      -0.265656        -7.2289
 120   1.0000      -0.264446        -7.1959
 121   1.0000      -0.263247        -7.1633
 122   1.0000      -0.261769        -7.1231
 123   1.0000      -0.260515        -7.0890
 124   1.0000      -0.257965        -7.0196
 125   1.0000      -0.257580        -7.0091
 126   1.0000      -0.257058        -6.9949
 127   1.0000      -0.256626        -6.9832
 128   1.0000      -0.252209        -6.8630
 129   1.0000      -0.251144        -6.8340
 130   1.0000      -0.250263        -6.8100
 131   1.0000      -0.249037        -6.7766
 132   1.0000      -0.245922        -6.6919
 133   1.0000      -0.243660        -6.6303
 134   1.0000      -0.242471        -6.5980
 135   1.0000      -0.241502        -6.5716
 136   1.0000      -0.240464        -6.5433
 137   1.0000      -0.239168        -6.5081
 138   1.0000      -0.234295        -6.3755
 139   1.0000      -0.217558        -5.9201
 140   1.0000      -0.214552        -5.8383
 141   1.0000      -0.208947        -5.6857
 142   1.0000      -0.206166        -5.6101
 143   1.0000      -0.174987        -4.7616
 144   0.0000      -0.147935        -4.0255
 145   0.0000      -0.140824        -3.8320
 146   0.0000      -0.138909        -3.7799
 147   0.0000      -0.129156        -3.5145
 148   0.0000      -0.125657        -3.4193

MULLIKEN ATOMIC CHARGES AND SPIN POPULATIONS
--------------------------------------------
   0 Au:    0.174617   -0.149899
   1 Au:    0.185950   -0.074554
   2 Au:    0.440679   -0.077998
   3 Au:   -0.401178   -0.144577
   4 Au:    0.463214   -0.090674
   5 Au:    0.171377   -0.112735
   6 Au:    0.463218   -0.089913
   7 Au:    0.171589   -0.112049
   8 Au:    0.441057   -0.077802
   9 Au:    0.106063   -0.049852
  10 Au:    0.173287   -0.148742
  11 Au:   -0.398560   -0.144223
  12 Au:    0.186040   -0.073901
  13 Au:    0.106346   -0.048600
  14 Cr:   -2.283699    3.395519
Sum of atomic charges         :   -0.0000000

LOEWDIN ATOMIC CHARGES AND SPIN POPULATIONS
-------------------------------------------
   0 Au:    0.002679   -0.136873
   1 Au:    0.030544   -0.085454
   2 Au:    0.121060   -0.113614
   3 Au:   -0.018369   -0.086417
   4 Au:    0.166729   -0.118583
   5 Au:    0.060119   -0.086370
   6 Au:    0.166768   -0.117828
   7 Au:    0.060115   -0.086195
   8 Au:    0.121316   -0.113553
   9 Au:    0.027943   -0.095594
  10 Au:    0.002648   -0.136131
  11 Au:   -0.018126   -0.086120
  12 Au:    0.030377   -0.085003
  13 Au:    0.028028   -0.094738
  14 Cr:   -0.781832    3.442472

  Mayer bond orders larger than 0.100000
B(  0-Au,  1-Au) :   0.3325 B(  0-Au,  3-Au) :   0.3868 B(  0-Au,  9-Au) :   0.2445
B(  0-Au, 10-Au) :   0.2681 B(  0-Au, 13-Au) :   0.2949 B(  1-Au,  2-Au) :   0.1936
B(  1-Au,  3-Au) :   0.2681 B(  1-Au,  7-Au) :   0.2756 B(  1-Au,  9-Au) :   0.2926
B(  1-Au, 14-Cr) :   0.2870 B(  2-Au,  3-Au) :   0.1437 B(  2-Au,  4-Au) :   0.2856
B(  2-Au,  7-Au) :   0.2007 B(  2-Au,  8-Au) :   0.1104 B(  2-Au, 14-Cr) :   0.5387
B(  3-Au,  4-Au) :   0.2205 B(  3-Au,  5-Au) :   0.1174 B(  3-Au, 13-Au) :   0.3495
B(  3-Au, 14-Cr) :   0.5727 B(  4-Au,  5-Au) :   0.2527 B(  4-Au, 14-Cr) :   0.5919
B(  5-Au,  8-Au) :   0.1985 B(  5-Au, 12-Au) :   0.2761 B(  5-Au, 13-Au) :   0.2017
B(  5-Au, 14-Cr) :   0.5755 B(  6-Au,  7-Au) :   0.2516 B(  6-Au,  8-Au) :   0.2857
B(  6-Au, 11-Au) :   0.2194 B(  6-Au, 14-Cr) :   0.5931 B(  7-Au,  9-Au) :   0.2018
B(  7-Au, 11-Au) :   0.1172 B(  7-Au, 14-Cr) :   0.5754 B(  8-Au, 11-Au) :   0.1456
B(  8-Au, 12-Au) :   0.1935 B(  8-Au, 14-Cr) :   0.5391 B(  9-Au, 10-Au) :   0.2944
B(  9-Au, 11-Au) :   0.3503 B(  9-Au, 14-Cr) :   0.1482 B( 10-Au, 11-Au) :   0.3873
B( 10-Au, 12-Au) :   0.3339 B( 10-Au, 13-Au) :   0.2437 B( 11-Au, 12-Au) :   0.2644
B( 11-Au, 14-Cr) :   0.5736 B( 12-Au, 13-Au) :   0.2930 B( 12-Au, 14-Cr) :   0.2871
B( 13-Au, 14-Cr) :   0.1484

FINAL SINGLE POINT ENERGY     -2945.800828845288

DIPOLE MOMENT
-------------
                                X             Y             Z
Electronic contribution:     17.23546     -35.00203     -33.17676
Nuclear contribution   :    -17.47493      35.49108      33.64006
                        -----------------------------------------
Total Dipole Moment    :     -0.23947       0.48905       0.46331
                        -----------------------------------------
Magnitude (a.u.)       :      0.71496
Magnitude (Debye)      :      1.81728

Rotational constants in cm-1:     0.001038     0.001028     0.000965
Rotational constants in MHz :    31.129881    30.818174    28.939542

                             ****ORCA TERMINATED NORMALLY****
TOTAL RUN TIME: 0 days 1 hours 22 minutes 55 seconds 655 msec
