                         Program Version 5.0.3 -  RELEASE  -
|  1> !R2SCAN def2-TZVP VERYSLOWCONV
|  2> !KDIIS
|  3> %scf
|  4>   AutoTRAHIter 200
|  5>   maxiter 400
|  6> end
|  7>
|  8> %pal nprocs 6 end
|  9>
| 10> *xyzfile 0 5 pbe.xyz
| 11>
| 12> $new_job
| 13>
| 14> !R2SCAN def2-TZVP VERYSLOWCONV
| 15> !KDIIS
| 16> %scf
| 17>   AutoTRAHIter 200
| 18>   maxiter 400
| 19> end
| 20>
| 21>
| 22> %pal nprocs 6 end
| 23>
| 24> *xyzfile 0 3 pbe.xyz
| 25>
| 26>
| 27>
| 28>
| 29>
| 30>                          ****END OF INPUT****
 Total Charge           Charge          ....    0
 Multiplicity           Mult            ....    5
 Number of Electrons    NEL             ....  290
FINAL SINGLE POINT ENERGY     -2946.308001603998

CARTESIAN COORDINATES (ANGSTROEM)
---------------------------------
  Au     8.938456    5.033494    6.378415
  Au    10.006233    7.315248    7.501598
  Au     8.685938    8.396027    9.670378
  Au     7.794444    5.823366    8.731261
  Au     6.364709    7.188705   10.656892
  Au     4.792969    6.224404    8.620738
  Au     5.997251   10.621437    6.852013
  Au     8.543826    9.602872    7.007165
  Au     4.074641    8.600952    7.057676
  Au     8.965920    7.521633    4.956189
  Au     6.852690    5.792520    4.502756
  Au     6.355905    8.350521    5.323386
  Au     4.491162    6.140071    5.880394
  Au     6.312901    4.350065    6.920834
  Cr     6.516346    8.219493    8.102522

 Multiplicity           Mult            ....    3
 Number of Electrons    NEL             ....  290
 Basis Dimension        Dim             ....  605

ORBITAL ENERGIES
----------------
                 SPIN UP ORBITALS
  NO   OCC          E(Eh)            E(eV)
   0   1.0000    -215.300162     -5858.6153
   1   1.0000     -24.601085      -669.4296
   2   1.0000     -20.871014      -567.9292
   3   1.0000     -20.866391      -567.8034
   4   1.0000     -20.863413      -567.7223
   5   1.0000      -4.125461      -112.2595
   6   1.0000      -4.125433      -112.2587
   7   1.0000      -4.125309      -112.2554
   8   1.0000      -4.125291      -112.2549
   9   1.0000      -4.124364      -112.2297
  10   1.0000      -4.124327      -112.2286
  11   1.0000      -4.118910      -112.0812
  12   1.0000      -4.118877      -112.0803
  13   1.0000      -4.115722      -111.9945
  14   1.0000      -4.115676      -111.9932
  15   1.0000      -4.107934      -111.7826
  16   1.0000      -4.107846      -111.7802
  17   1.0000      -4.106350      -111.7395
  18   1.0000      -4.106311      -111.7384
  19   1.0000      -2.924019       -79.5666
  20   1.0000      -2.315170       -62.9990
  21   1.0000      -2.315132       -62.9979
  22   1.0000      -2.314555       -62.9823
  23   1.0000      -2.314402       -62.9781
  24   1.0000      -2.313288       -62.9478
  25   1.0000      -2.313129       -62.9434
  26   1.0000      -2.312385       -62.9232
  27   1.0000      -2.312252       -62.9196
  28   1.0000      -2.310588       -62.8743
  29   1.0000      -2.310519       -62.8724
  30   1.0000      -2.309634       -62.8483
  31   1.0000      -2.309542       -62.8458
  32   1.0000      -2.309028       -62.8319
  33   1.0000      -2.308986       -62.8307
  34   1.0000      -2.307511       -62.7906
  35   1.0000      -2.307462       -62.7892
  36   1.0000      -2.306922       -62.7745
  37   1.0000      -2.306841       -62.7723
  38   1.0000      -2.305658       -62.7401
  39   1.0000      -2.305628       -62.7393
  40   1.0000      -2.303776       -62.6889
  41   1.0000      -2.303697       -62.6868
  42   1.0000      -2.303437       -62.6797
  43   1.0000      -2.303368       -62.6778
  44   1.0000      -2.302207       -62.6462
  45   1.0000      -2.302170       -62.6452
  46   1.0000      -2.301155       -62.6176
  47   1.0000      -2.301120       -62.6167
  48   1.0000      -2.298881       -62.5557
  49   1.0000      -2.298810       -62.5538
  50   1.0000      -2.296828       -62.4999
  51   1.0000      -2.296535       -62.4919
  52   1.0000      -2.294833       -62.4456
  53   1.0000      -2.294151       -62.4270
  54   1.0000      -2.293597       -62.4119
  55   1.0000      -2.293401       -62.4066
  56   1.0000      -2.292318       -62.3772
  57   1.0000      -2.291516       -62.3553
  58   1.0000      -2.290522       -62.3283
  59   1.0000      -2.289499       -62.3004
  60   1.0000      -2.289003       -62.2869
  61   1.0000      -2.288962       -62.2858
  62   1.0000      -1.872707       -50.9590
  63   1.0000      -1.870995       -50.9124
  64   1.0000      -1.868037       -50.8319
  65   1.0000      -0.426218       -11.5980
  66   1.0000      -0.396799       -10.7975
  67   1.0000      -0.386952       -10.5295
  68   1.0000      -0.385855       -10.4996
  69   1.0000      -0.380822       -10.3627
  70   1.0000      -0.378720       -10.3055
  71   1.0000      -0.369995       -10.0681
  72   1.0000      -0.366873        -9.9831
  73   1.0000      -0.366825        -9.9818
  74   1.0000      -0.364214        -9.9108
  75   1.0000      -0.363027        -9.8785
  76   1.0000      -0.361270        -9.8307
  77   1.0000      -0.359678        -9.7873
  78   1.0000      -0.357773        -9.7355
  79   1.0000      -0.357243        -9.7211
  80   1.0000      -0.356428        -9.6989
  81   1.0000      -0.353948        -9.6314
  82   1.0000      -0.349122        -9.5001
  83   1.0000      -0.347039        -9.4434
  84   1.0000      -0.344984        -9.3875
  85   1.0000      -0.344617        -9.3775
  86   1.0000      -0.341823        -9.3015
  87   1.0000      -0.341744        -9.2993
  88   1.0000      -0.337196        -9.1756
  89   1.0000      -0.337028        -9.1710
  90   1.0000      -0.333411        -9.0726
  91   1.0000      -0.331526        -9.0213
  92   1.0000      -0.330494        -8.9932
  93   1.0000      -0.324396        -8.8273
  94   1.0000      -0.323467        -8.8020
  95   1.0000      -0.322315        -8.7706
  96   1.0000      -0.320043        -8.7088
  97   1.0000      -0.317922        -8.6511
  98   1.0000      -0.312877        -8.5138
  99   1.0000      -0.308610        -8.3977
 100   1.0000      -0.307097        -8.3565
 101   1.0000      -0.304786        -8.2936
 102   1.0000      -0.301881        -8.2146
 103   1.0000      -0.301087        -8.1930
 104   1.0000      -0.299251        -8.1430
 105   1.0000      -0.297791        -8.1033
 106   1.0000      -0.296707        -8.0738
 107   1.0000      -0.293073        -7.9749
 108   1.0000      -0.291415        -7.9298
 109   1.0000      -0.290553        -7.9064
 110   1.0000      -0.288727        -7.8567
 111   1.0000      -0.287371        -7.8198
 112   1.0000      -0.285408        -7.7663
 113   1.0000      -0.283236        -7.7072
 114   1.0000      -0.282068        -7.6755
 115   1.0000      -0.279871        -7.6157
 116   1.0000      -0.277184        -7.5426
 117   1.0000      -0.275834        -7.5058
 118   1.0000      -0.273449        -7.4409
 119   1.0000      -0.271703        -7.3934
 120   1.0000      -0.270353        -7.3567
 121   1.0000      -0.269293        -7.3278
 122   1.0000      -0.267924        -7.2906
 123   1.0000      -0.266860        -7.2616
 124   1.0000      -0.264583        -7.1997
 125   1.0000      -0.263693        -7.1754
 126   1.0000      -0.263156        -7.1608
 127   1.0000      -0.262221        -7.1354
 128   1.0000      -0.257355        -7.0030
 129   1.0000      -0.257300        -7.0015
 130   1.0000      -0.255217        -6.9448
 131   1.0000      -0.254713        -6.9311
 132   1.0000      -0.251766        -6.8509
 133   1.0000      -0.248309        -6.7568
 134   1.0000      -0.248100        -6.7511
 135   1.0000      -0.246684        -6.7126
 136   1.0000      -0.245038        -6.6678
 137   1.0000      -0.243910        -6.6371
 138   1.0000      -0.239377        -6.5138
 139   1.0000      -0.235629        -6.4118
 140   1.0000      -0.229210        -6.2371
 141   1.0000      -0.226302        -6.1580
 142   1.0000      -0.223498        -6.0817
 143   1.0000      -0.222622        -6.0579
 144   1.0000      -0.204813        -5.5732
 145   1.0000      -0.202109        -5.4997
 146   0.0000      -0.193798        -5.2735
 147   0.0000      -0.185213        -5.0399
 148   0.0000      -0.163333        -4.4445
 149   0.0000      -0.136930        -3.7260
 150   0.0000      -0.122908        -3.3445

                 SPIN DOWN ORBITALS
  NO   OCC          E(Eh)            E(eV)
   0   1.0000    -215.299608     -5858.6002
   1   1.0000     -24.537488      -667.6990
   2   1.0000     -20.827432      -566.7432
   3   1.0000     -20.818459      -566.4991
   4   1.0000     -20.808181      -566.2194
   5   1.0000      -4.126089      -112.2766
   6   1.0000      -4.126060      -112.2758
   7   1.0000      -4.125256      -112.2539
   8   1.0000      -4.125219      -112.2529
   9   1.0000      -4.124894      -112.2441
  10   1.0000      -4.124857      -112.2431
  11   1.0000      -4.119451      -112.0960
  12   1.0000      -4.119425      -112.0953
  13   1.0000      -4.116409      -112.0132
  14   1.0000      -4.116358      -112.0118
  15   1.0000      -4.109006      -111.8117
  16   1.0000      -4.108921      -111.8094
  17   1.0000      -4.107145      -111.7611
  18   1.0000      -4.107103      -111.7600
  19   1.0000      -2.756940       -75.0201
  20   1.0000      -2.316159       -63.0259
  21   1.0000      -2.316139       -63.0253
  22   1.0000      -2.314371       -62.9772
  23   1.0000      -2.314198       -62.9725
  24   1.0000      -2.313911       -62.9647
  25   1.0000      -2.313728       -62.9597
  26   1.0000      -2.312204       -62.9183
  27   1.0000      -2.312093       -62.9153
  28   1.0000      -2.310921       -62.8834
  29   1.0000      -2.310870       -62.8820
  30   1.0000      -2.310021       -62.8589
  31   1.0000      -2.309964       -62.8573
  32   1.0000      -2.309236       -62.8375
  33   1.0000      -2.309189       -62.8362
  34   1.0000      -2.308084       -62.8062
  35   1.0000      -2.308042       -62.8050
  36   1.0000      -2.306701       -62.7685
  37   1.0000      -2.306637       -62.7668
  38   1.0000      -2.305909       -62.7470
  39   1.0000      -2.305866       -62.7458
  40   1.0000      -2.304355       -62.7047
  41   1.0000      -2.304325       -62.7039
  42   1.0000      -2.303809       -62.6898
  43   1.0000      -2.303790       -62.6893
  44   1.0000      -2.302965       -62.6669
  45   1.0000      -2.302927       -62.6658
  46   1.0000      -2.301611       -62.6300
  47   1.0000      -2.301584       -62.6293
  48   1.0000      -2.299504       -62.5727
  49   1.0000      -2.299424       -62.5705
  50   1.0000      -2.297617       -62.5213
  51   1.0000      -2.297305       -62.5128
  52   1.0000      -2.296320       -62.4860
  53   1.0000      -2.295697       -62.4691
  54   1.0000      -2.294328       -62.4318
  55   1.0000      -2.294228       -62.4291
  56   1.0000      -2.293263       -62.4029
  57   1.0000      -2.292542       -62.3832
  58   1.0000      -2.291473       -62.3542
  59   1.0000      -2.290351       -62.3236
  60   1.0000      -2.289902       -62.3114
  61   1.0000      -2.289831       -62.3095
  62   1.0000      -1.724292       -46.9204
  63   1.0000      -1.705522       -46.4096
  64   1.0000      -1.680948       -45.7409
  65   1.0000      -0.423081       -11.5126
  66   1.0000      -0.399133       -10.8610
  67   1.0000      -0.386736       -10.5236
  68   1.0000      -0.384500       -10.4628
  69   1.0000      -0.380855       -10.3636
  70   1.0000      -0.376379       -10.2418
  71   1.0000      -0.371640       -10.1128
  72   1.0000      -0.368504       -10.0275
  73   1.0000      -0.366105        -9.9622
  74   1.0000      -0.365470        -9.9449
  75   1.0000      -0.363877        -9.9016
  76   1.0000      -0.362687        -9.8692
  77   1.0000      -0.360326        -9.8050
  78   1.0000      -0.359216        -9.7748
  79   1.0000      -0.358371        -9.7518
  80   1.0000      -0.355982        -9.6868
  81   1.0000      -0.352981        -9.6051
  82   1.0000      -0.350390        -9.5346
  83   1.0000      -0.347058        -9.4439
  84   1.0000      -0.345714        -9.4074
  85   1.0000      -0.345544        -9.4027
  86   1.0000      -0.342170        -9.3109
  87   1.0000      -0.341973        -9.3056
  88   1.0000      -0.338306        -9.2058
  89   1.0000      -0.337497        -9.1838
  90   1.0000      -0.334266        -9.0958
  91   1.0000      -0.332122        -9.0375
  92   1.0000      -0.328579        -8.9411
  93   1.0000      -0.325535        -8.8583
  94   1.0000      -0.324307        -8.8248
  95   1.0000      -0.321406        -8.7459
  96   1.0000      -0.320668        -8.7258
  97   1.0000      -0.314171        -8.5490
  98   1.0000      -0.312894        -8.5143
  99   1.0000      -0.309033        -8.4092
 100   1.0000      -0.308374        -8.3913
 101   1.0000      -0.305858        -8.3228
 102   1.0000      -0.302733        -8.2378
 103   1.0000      -0.301517        -8.2047
 104   1.0000      -0.297945        -8.1075
 105   1.0000      -0.297407        -8.0929
 106   1.0000      -0.297130        -8.0853
 107   1.0000      -0.293631        -7.9901
 108   1.0000      -0.292785        -7.9671
 109   1.0000      -0.292194        -7.9510
 110   1.0000      -0.290138        -7.8951
 111   1.0000      -0.287628        -7.8268
 112   1.0000      -0.286666        -7.8006
 113   1.0000      -0.284407        -7.7391
 114   1.0000      -0.283885        -7.7249
 115   1.0000      -0.281458        -7.6589
 116   1.0000      -0.279064        -7.5937
 117   1.0000      -0.277814        -7.5597
 118   1.0000      -0.275143        -7.4870
 119   1.0000      -0.273620        -7.4456
 120   1.0000      -0.272102        -7.4043
 121   1.0000      -0.271044        -7.3755
 122   1.0000      -0.269120        -7.3231
 123   1.0000      -0.268134        -7.2963
 124   1.0000      -0.265478        -7.2240
 125   1.0000      -0.265376        -7.2212
 126   1.0000      -0.264633        -7.2010
 127   1.0000      -0.264519        -7.1979
 128   1.0000      -0.259288        -7.0556
 129   1.0000      -0.258190        -7.0257
 130   1.0000      -0.257154        -6.9975
 131   1.0000      -0.256606        -6.9826
 132   1.0000      -0.253255        -6.8914
 133   1.0000      -0.250324        -6.8117
 134   1.0000      -0.249752        -6.7961
 135   1.0000      -0.248561        -6.7637
 136   1.0000      -0.246712        -6.7134
 137   1.0000      -0.245785        -6.6881
 138   1.0000      -0.240758        -6.5513
 139   1.0000      -0.219979        -5.9859
 140   1.0000      -0.217328        -5.9138
 141   1.0000      -0.210115        -5.7175
 142   1.0000      -0.207938        -5.6583
 143   1.0000      -0.174824        -4.7572
 144   0.0000      -0.142296        -3.8721
 145   0.0000      -0.135148        -3.6776
 146   0.0000      -0.132217        -3.5978
 147   0.0000      -0.123029        -3.3478
 148   0.0000      -0.118378        -3.2212

MULLIKEN ATOMIC CHARGES AND SPIN POPULATIONS
--------------------------------------------
   0 Au:    0.166177   -0.164088
   1 Au:    0.173710   -0.081297
   2 Au:    0.389762   -0.102149
   3 Au:   -0.400427   -0.163724
   4 Au:    0.433805   -0.110892
   5 Au:    0.157256   -0.151605
   6 Au:    0.433850   -0.110308
   7 Au:    0.157077   -0.150314
   8 Au:    0.390309   -0.101541
   9 Au:    0.094484   -0.048423
  10 Au:    0.165302   -0.162923
  11 Au:   -0.397847   -0.163399
  12 Au:    0.173531   -0.080298
  13 Au:    0.094606   -0.046916
  14 Cr:   -2.031594    3.637875
Sum of atomic charges         :   -0.0000000

LOEWDIN ATOMIC CHARGES AND SPIN POPULATIONS
-------------------------------------------
   0 Au:    0.000888   -0.144696
   1 Au:    0.032503   -0.096461
   2 Au:    0.114504   -0.130500
   3 Au:   -0.021644   -0.101538
   4 Au:    0.162083   -0.134293
   5 Au:    0.054802   -0.103770
   6 Au:    0.162165   -0.133566
   7 Au:    0.054820   -0.103507
   8 Au:    0.114772   -0.130347
   9 Au:    0.026525   -0.101074
  10 Au:    0.000904   -0.143861
  11 Au:   -0.021435   -0.101166
  12 Au:    0.032328   -0.095908
  13 Au:    0.026602   -0.100073
  14 Cr:   -0.739816    3.620761

  Mayer bond orders larger than 0.100000
B(  0-Au,  1-Au) :   0.3246 B(  0-Au,  3-Au) :   0.3776 B(  0-Au,  9-Au) :   0.2269
B(  0-Au, 10-Au) :   0.2435 B(  0-Au, 13-Au) :   0.2796 B(  1-Au,  2-Au) :   0.1809
B(  1-Au,  3-Au) :   0.2544 B(  1-Au,  7-Au) :   0.2610 B(  1-Au,  9-Au) :   0.2811
B(  1-Au, 14-Cr) :   0.2724 B(  2-Au,  3-Au) :   0.1301 B(  2-Au,  4-Au) :   0.2758
B(  2-Au,  7-Au) :   0.1949 B(  2-Au, 14-Cr) :   0.5567 B(  3-Au,  4-Au) :   0.2082
B(  3-Au,  5-Au) :   0.1082 B(  3-Au, 13-Au) :   0.3415 B(  3-Au, 14-Cr) :   0.5312
B(  4-Au,  5-Au) :   0.2498 B(  4-Au, 14-Cr) :   0.5777 B(  5-Au,  8-Au) :   0.1923
B(  5-Au, 12-Au) :   0.2616 B(  5-Au, 13-Au) :   0.1788 B(  5-Au, 14-Cr) :   0.5456
B(  6-Au,  7-Au) :   0.2487 B(  6-Au,  8-Au) :   0.2759 B(  6-Au, 11-Au) :   0.2070
B(  6-Au, 14-Cr) :   0.5792 B(  7-Au,  9-Au) :   0.1789 B(  7-Au, 11-Au) :   0.1079
B(  7-Au, 14-Cr) :   0.5452 B(  8-Au, 11-Au) :   0.1319 B(  8-Au, 12-Au) :   0.1807
B(  8-Au, 14-Cr) :   0.5573 B(  9-Au, 10-Au) :   0.2793 B(  9-Au, 11-Au) :   0.3426
B(  9-Au, 14-Cr) :   0.1334 B( 10-Au, 11-Au) :   0.3780 B( 10-Au, 12-Au) :   0.3259
B( 10-Au, 13-Au) :   0.2261 B( 11-Au, 12-Au) :   0.2506 B( 11-Au, 14-Cr) :   0.5320
B( 12-Au, 13-Au) :   0.2820 B( 12-Au, 14-Cr) :   0.2724 B( 13-Au, 14-Cr) :   0.1338

FINAL SINGLE POINT ENERGY     -2946.284394022381

DIPOLE MOMENT
-------------
                                X             Y             Z
Electronic contribution:     17.22688     -34.98437     -33.16015
Nuclear contribution   :    -17.47493      35.49108      33.64006
                        -----------------------------------------
Total Dipole Moment    :     -0.24805       0.50671       0.47991
                        -----------------------------------------
Magnitude (a.u.)       :      0.74067
Magnitude (Debye)      :      1.88265

Rotational constants in cm-1:     0.001038     0.001028     0.000965
Rotational constants in MHz :    31.129881    30.818174    28.939542

                             ****ORCA TERMINATED NORMALLY****
TOTAL RUN TIME: 0 days 0 hours 32 minutes 39 seconds 443 msec
