                         Program Version 5.0.3 -  RELEASE  -
|  1> !SC-NEVPT2 def2-TZVP def2-TZVP/C
|  2> !MOREAD RIJCOSX def2/J
|  3> %maxcore 4000
|  4> %moinp "casscf.gbw"
|  5> %pal nprocs 6 end
|  6>
|  7> %casscf
|  8>  mult 5,3
|  9>  bweight 1,1
| 10>  nroots 5,45
| 11>  nel 6
| 12>  norb 5
| 13>  ptsettings
| 14>   d4tpre 1e-14 # default = 1e-10
| 15>   d3tpre 1e-14
| 16>  end
| 17>  rel
| 18>    dosoc true
| 19>    gtensor true
| 20>  end
| 21> end
| 22>
| 23>
| 24> *xyzfile 0 5 pbe.xyz
| 25>
| 26>
| 27>                          ****END OF INPUT****

CARTESIAN COORDINATES (ANGSTROEM)
---------------------------------
  Au     5.351958    7.517900    6.880027
  Au     8.837850   10.372008    5.739613
  Au     6.073943   10.276160    6.559835
  Au     7.158828    8.205903    4.903312
  Au     9.789491    7.674940    5.551541
  Au     7.698052    5.943720    6.458251
  Au     6.002180    9.341175    9.275365
  Au     9.690030    6.511274    8.461579
  Au     8.666124    8.714644   10.054581
  Au     8.115421   10.927882    8.434487
  Au     7.119025    6.409889    9.235051
  Au     4.501695    7.047858    9.447988
  Au    10.438875    9.498533    7.964135
  Au    11.945648    7.330675    7.214945
  Fe     7.919797    8.417364    7.482168

 Total Charge           Charge          ....    0
 Multiplicity           Mult            ....    5
 Number of Electrons    NEL             ....  292
 Basis Dimension        Dim             ....  605

ORBITAL ENERGIES
----------------

  NO   OCC          E(Eh)            E(eV)
   0   2.0000    -261.400895     -7113.0800
   1   2.0000     -31.962517      -869.7443
   2   2.0000     -27.442705      -746.7540
   3   2.0000     -27.442578      -746.7505
   4   2.0000     -27.442499      -746.7484
   5   2.0000      -4.728286      -128.6632
   6   2.0000      -4.727697      -128.6472
   7   2.0000      -4.727084      -128.6305
   8   2.0000      -4.726125      -128.6044
   9   2.0000      -4.721466      -128.4776
  10   2.0000      -4.721035      -128.4659
  11   2.0000      -4.710259      -128.1727
  12   2.0000      -4.710210      -128.1713
  13   2.0000      -4.710154      -128.1698
  14   2.0000      -4.710107      -128.1685
  15   2.0000      -4.708237      -128.1176
  16   2.0000      -4.708000      -128.1112
  17   2.0000      -4.704164      -128.0068
  18   2.0000      -4.703579      -127.9909
  19   2.0000      -4.196664      -114.1970
  20   2.0000      -2.777952       -75.5919
  21   2.0000      -2.776575       -75.5545
  22   2.0000      -2.775318       -75.5202
  23   2.0000      -2.769560       -75.3636
  24   2.0000      -2.767405       -75.3049
  25   2.0000      -2.766855       -75.2900
  26   2.0000      -2.765661       -75.2575
  27   2.0000      -2.764899       -75.2367
  28   2.0000      -2.764193       -75.2175
  29   2.0000      -2.764029       -75.2131
  30   2.0000      -2.763411       -75.1962
  31   2.0000      -2.762553       -75.1729
  32   2.0000      -2.762337       -75.1670
  33   2.0000      -2.761774       -75.1517
  34   2.0000      -2.761109       -75.1336
  35   2.0000      -2.760223       -75.1095
  36   2.0000      -2.756276       -75.0021
  37   2.0000      -2.755750       -74.9878
  38   2.0000      -2.754082       -74.9424
  39   2.0000      -2.753907       -74.9376
  40   2.0000      -2.753810       -74.9350
  41   2.0000      -2.748579       -74.7926
  42   2.0000      -2.747835       -74.7724
  43   2.0000      -2.747714       -74.7691
  44   2.0000      -2.747234       -74.7560
  45   2.0000      -2.746547       -74.7373
  46   2.0000      -2.746253       -74.7294
  47   2.0000      -2.745939       -74.7208
  48   2.0000      -2.745361       -74.7051
  49   2.0000      -2.744945       -74.6938
  50   2.0000      -2.744693       -74.6869
  51   2.0000      -2.744523       -74.6823
  52   2.0000      -2.743720       -74.6604
  53   2.0000      -2.743561       -74.6561
  54   2.0000      -2.743303       -74.6491
  55   2.0000      -2.741560       -74.6016
  56   2.0000      -2.741373       -74.5966
  57   2.0000      -2.741269       -74.5937
  58   2.0000      -2.739995       -74.5591
  59   2.0000      -2.739689       -74.5507
  60   2.0000      -2.739320       -74.5407
  61   2.0000      -2.737834       -74.5002
  62   2.0000      -2.737367       -74.4875
  63   2.0000      -2.737191       -74.4827
  64   2.0000      -2.736642       -74.4678
  65   2.0000      -0.602778       -16.4024
  66   2.0000      -0.566079       -15.4038
  67   2.0000      -0.559432       -15.2229
  68   2.0000      -0.558623       -15.2009
  69   2.0000      -0.556347       -15.1390
  70   2.0000      -0.554556       -15.0902
  71   2.0000      -0.553350       -15.0574
  72   2.0000      -0.553080       -15.0501
  73   2.0000      -0.550103       -14.9691
  74   2.0000      -0.547098       -14.8873
  75   2.0000      -0.544737       -14.8230
  76   2.0000      -0.542977       -14.7751
  77   2.0000      -0.542246       -14.7553
  78   2.0000      -0.541660       -14.7393
  79   2.0000      -0.538692       -14.6586
  80   2.0000      -0.538085       -14.6420
  81   2.0000      -0.536195       -14.5906
  82   2.0000      -0.535415       -14.5694
  83   2.0000      -0.534584       -14.5468
  84   2.0000      -0.525338       -14.2952
  85   2.0000      -0.524943       -14.2844
  86   2.0000      -0.522071       -14.2063
  87   2.0000      -0.517878       -14.0922
  88   2.0000      -0.515266       -14.0211
  89   2.0000      -0.513533       -13.9739
  90   2.0000      -0.508445       -13.8355
  91   2.0000      -0.506934       -13.7944
  92   2.0000      -0.500984       -13.6325
  93   2.0000      -0.500841       -13.6286
  94   2.0000      -0.499228       -13.5847
  95   2.0000      -0.495672       -13.4879
  96   2.0000      -0.493217       -13.4211
  97   2.0000      -0.491680       -13.3793
  98   2.0000      -0.485497       -13.2110
  99   2.0000      -0.484753       -13.1908
 100   2.0000      -0.480588       -13.0775
 101   2.0000      -0.474238       -12.9047
 102   2.0000      -0.470827       -12.8118
 103   2.0000      -0.468361       -12.7448
 104   2.0000      -0.462164       -12.5761
 105   2.0000      -0.461154       -12.5486
 106   2.0000      -0.456708       -12.4277
 107   2.0000      -0.455910       -12.4059
 108   2.0000      -0.454120       -12.3572
 109   2.0000      -0.453644       -12.3443
 110   2.0000      -0.452587       -12.3155
 111   2.0000      -0.451706       -12.2915
 112   2.0000      -0.451332       -12.2814
 113   2.0000      -0.451017       -12.2728
 114   2.0000      -0.448226       -12.1968
 115   2.0000      -0.444530       -12.0963
 116   2.0000      -0.442414       -12.0387
 117   2.0000      -0.442169       -12.0320
 118   2.0000      -0.440959       -11.9991
 119   2.0000      -0.439329       -11.9547
 120   2.0000      -0.438244       -11.9252
 121   2.0000      -0.437877       -11.9152
 122   2.0000      -0.437122       -11.8947
 123   2.0000      -0.433885       -11.8066
 124   2.0000      -0.431750       -11.7485
 125   2.0000      -0.431608       -11.7446
 126   2.0000      -0.428783       -11.6678
 127   2.0000      -0.427195       -11.6246
 128   2.0000      -0.423517       -11.5245
 129   2.0000      -0.422787       -11.5046
 130   2.0000      -0.418794       -11.3960
 131   2.0000      -0.416497       -11.3335
 132   2.0000      -0.415945       -11.3184
 133   2.0000      -0.403713       -10.9856
 134   2.0000      -0.393139       -10.6978
 135   2.0000      -0.391416       -10.6510
 136   2.0000      -0.376300       -10.2396
 137   2.0000      -0.352940        -9.6040
 138   2.0000      -0.347930        -9.4677
 139   2.0000      -0.271224        -7.3804
 140   2.0000      -0.240297        -6.5388
 141   2.0000      -0.232029        -6.3138
 142   2.0000      -0.221411        -6.0249
 143   1.2000      -0.274196        -7.4613
 144   1.2000      -0.266793        -7.2598
 145   1.2000      -0.277484        -7.5507
 146   1.2000      -0.272794        -7.4231
 147   1.2000      -0.270569        -7.3626
 148   0.0000      -0.056855        -1.5471
 149   0.0000      -0.023945        -0.6516
 150   0.0000      -0.011118        -0.3025
 151   0.0000       0.011182         0.3043
 152   0.0000       0.017064         0.4643

MULLIKEN ATOMIC CHARGES AND SPIN DENSITIES
------------------------------------------
   0 Au:   -0.129364    0.009056
   1 Au:    0.152122    0.007901
   2 Au:    0.148078    0.007897
   3 Au:    0.498568    0.006146
   4 Au:   -0.130464    0.009047
   5 Au:    0.492039    0.006435
   6 Au:   -0.121427    0.009064
   7 Au:   -0.095950    0.008184
   8 Au:    0.455155    0.006750
   9 Au:    0.517813    0.005886
  10 Au:   -0.094435    0.008152
  11 Au:    0.459694    0.003109
  12 Au:   -0.123327    0.009089
  13 Au:    0.461539    0.003091
  14 Fe:   -2.490041    2.900193
Sum of atomic charges       :    0.0000000

LOEWDIN ATOMIC CHARGES AND SPIN DENSITIES
-----------------------------------------
   0 Au:   -0.068338    0.010373
   1 Au:    0.052809    0.009534
   2 Au:    0.054850    0.009506
   3 Au:    0.038600    0.009309
   4 Au:   -0.068949    0.010367
   5 Au:    0.107559    0.008838
   6 Au:   -0.068446    0.010388
   7 Au:   -0.039764    0.010716
   8 Au:    0.107103    0.008980
   9 Au:    0.034014    0.009161
  10 Au:   -0.041207    0.010685
  11 Au:    0.149036    0.004118
  12 Au:   -0.069186    0.010413
  13 Au:    0.151463    0.004109
  14 Fe:   -0.339543    2.873504

  Mayer bond orders larger than 0.100000
B(  0-Au,  2-Au) :   0.1337 B(  0-Au,  3-Au) :   0.2373 B(  0-Au,  5-Au) :   0.1345
B(  0-Au,  6-Au) :   0.1457 B(  0-Au, 10-Au) :   0.2133 B(  0-Au, 11-Au) :   0.2635
B(  0-Au, 14-Fe) :   0.4194 B(  1-Au,  2-Au) :   0.1879 B(  1-Au,  4-Au) :   0.1344
B(  1-Au,  9-Au) :   0.1186 B(  1-Au, 12-Au) :   0.1311 B(  1-Au, 14-Fe) :   0.4519
B(  2-Au,  6-Au) :   0.1335 B(  2-Au,  9-Au) :   0.1169 B(  2-Au, 14-Fe) :   0.4529
B(  3-Au,  4-Au) :   0.2439 B(  3-Au,  5-Au) :   0.2217 B(  3-Au, 14-Fe) :   0.3244
B(  4-Au,  5-Au) :   0.1278 B(  4-Au,  7-Au) :   0.2122 B(  4-Au, 12-Au) :   0.1479
B(  4-Au, 13-Au) :   0.2626 B(  4-Au, 14-Fe) :   0.4193 B(  5-Au, 14-Fe) :   0.3942
B(  6-Au,  8-Au) :   0.1531 B(  6-Au,  9-Au) :   0.2189 B(  6-Au, 10-Au) :   0.2104
B(  6-Au, 11-Au) :   0.2603 B(  6-Au, 14-Fe) :   0.4188 B(  7-Au, 10-Au) :   0.4630
B(  7-Au, 12-Au) :   0.2094 B(  7-Au, 13-Au) :   0.3571 B(  7-Au, 14-Fe) :   0.3891
B(  8-Au,  9-Au) :   0.2201 B(  8-Au, 12-Au) :   0.1466 B(  8-Au, 14-Fe) :   0.4104
B(  9-Au, 12-Au) :   0.2267 B(  9-Au, 14-Fe) :   0.3151 B( 10-Au, 11-Au) :   0.3567
B( 10-Au, 14-Fe) :   0.3871 B( 12-Au, 13-Au) :   0.2612 B( 12-Au, 14-Fe) :   0.4196

FINAL SINGLE POINT ENERGY     -3156.769250786579

DIPOLE MOMENT
-------------
                                X             Y             Z
Electronic contribution:      1.46280      -5.90703       4.05783
Nuclear contribution   :     -1.39614       5.64648      -3.90065
                        -----------------------------------------
Total Dipole Moment    :      0.06666      -0.26055       0.15717
                        -----------------------------------------
Magnitude (a.u.)       :      0.31150
Magnitude (Debye)      :      0.79177

Rotational constants in cm-1:     0.001299     0.000949     0.000904
Rotational constants in MHz :    38.950089    28.457992    27.110945

                             ****ORCA TERMINATED NORMALLY****
TOTAL RUN TIME: 0 days 2 hours 58 minutes 23 seconds 993 msec
