                         Program Version 5.0.3 -  RELEASE  -
|  1> !RI-B2PLYP def2-TZVP def2-TZVP/C
|  2> !RIJCOSX VERYSLOWCONV
|  3>
|  4> %scf
|  5>   AutoTRAHIter 200
|  6>   maxiter 400
|  7> end
|  8>
|  9>
| 10> %pal nprocs 6 end
| 11>
| 12> *xyzfile 0 5 pbe.xyz
| 13>
| 14> $new_job
| 15>
| 16> !RI-B2PLYP def2-TZVP def2-TZVP/C
| 17> !RIJCOSX VERYSLOWCONV
| 18>
| 19> %scf
| 20>   AutoTRAHIter 200
| 21>   maxiter 400
| 22> end
| 23>
| 24>
| 25> %pal nprocs 6 end
| 26>
| 27> *xyzfile 0 3 pbe.xyz
| 28>
| 29>
| 30>
| 31>
| 32>
| 33>                          ****END OF INPUT****
 Total Charge           Charge          ....    0
 Multiplicity           Mult            ....    5
 Number of Electrons    NEL             ....  330
MP2 TOTAL ENERGY:    -3432.982098266 Eh
FINAL SINGLE POINT ENERGY     -3432.982098265879

CARTESIAN COORDINATES (ANGSTROEM)
---------------------------------
  Au    10.120799    7.446568    6.506265
  Au     6.778053   10.759364    6.631331
  Au     7.129701    7.645777   10.188649
  Au     7.645507   10.161784    9.205528
  Au     9.604390    8.209208    9.133390
  Au     7.705922    8.395290    5.469389
  Au     5.147029    9.273708    8.416062
  Au     6.441336    5.000269    9.687123
  Au     4.476156    6.937079    9.758649
  Au     3.716748    7.073618    7.121207
  Au     5.607667    6.287966    5.174204
  Au     9.453115   10.097226    7.019235
  Au     5.004680    8.964132    5.565240
  Au     8.301009    5.698873    5.437212
  Au     6.485148    4.334054    7.019616
  Au     8.718579    5.733999    8.278584
  Fe     6.355750    6.949060    7.658776

 Multiplicity           Mult            ....    3
 Number of Electrons    NEL             ....  330
 Basis Dimension        Dim             ....  685

ORBITAL ENERGIES
----------------
                 SPIN UP ORBITALS
  NO   OCC          E(Eh)            E(eV)
   0   1.0000    -258.351518     -7030.1022
   1   1.0000     -30.911706      -841.1503
   2   1.0000     -26.629593      -724.6281
   3   1.0000     -26.600534      -723.8373
   4   1.0000     -26.599566      -723.8110
   5   1.0000      -4.415522      -120.1525
   6   1.0000      -4.414371      -120.1211
   7   1.0000      -4.412210      -120.0623
   8   1.0000      -4.412080      -120.0588
   9   1.0000      -4.406422      -119.9048
  10   1.0000      -4.406198      -119.8987
  11   1.0000      -4.405949      -119.8920
  12   1.0000      -4.405863      -119.8896
  13   1.0000      -4.404829      -119.8615
  14   1.0000      -4.400669      -119.7483
  15   1.0000      -4.400541      -119.7448
  16   1.0000      -4.396566      -119.6366
  17   1.0000      -4.396541      -119.6360
  18   1.0000      -4.394558      -119.5820
  19   1.0000      -4.394376      -119.5770
  20   1.0000      -4.387101      -119.3791
  21   1.0000      -3.924840      -106.8003
  22   1.0000      -2.675066       -72.7922
  23   1.0000      -2.613359       -71.1131
  24   1.0000      -2.612364       -71.0860
  25   1.0000      -2.535700       -68.9999
  26   1.0000      -2.534107       -68.9566
  27   1.0000      -2.532910       -68.9240
  28   1.0000      -2.532709       -68.9185
  29   1.0000      -2.532425       -68.9108
  30   1.0000      -2.532347       -68.9087
  31   1.0000      -2.531007       -68.8722
  32   1.0000      -2.529369       -68.8276
  33   1.0000      -2.529257       -68.8246
  34   1.0000      -2.529030       -68.8184
  35   1.0000      -2.528738       -68.8105
  36   1.0000      -2.528534       -68.8049
  37   1.0000      -2.526012       -68.7363
  38   1.0000      -2.525850       -68.7319
  39   1.0000      -2.525703       -68.7279
  40   1.0000      -2.525637       -68.7261
  41   1.0000      -2.525149       -68.7128
  42   1.0000      -2.524734       -68.7015
  43   1.0000      -2.523580       -68.6701
  44   1.0000      -2.523215       -68.6602
  45   1.0000      -2.522720       -68.6467
  46   1.0000      -2.521403       -68.6109
  47   1.0000      -2.521346       -68.6093
  48   1.0000      -2.520603       -68.5891
  49   1.0000      -2.520438       -68.5846
  50   1.0000      -2.520110       -68.5757
  51   1.0000      -2.520016       -68.5731
  52   1.0000      -2.519421       -68.5569
  53   1.0000      -2.519269       -68.5528
  54   1.0000      -2.516503       -68.4775
  55   1.0000      -2.516043       -68.4650
  56   1.0000      -2.516018       -68.4643
  57   1.0000      -2.515853       -68.4598
  58   1.0000      -2.515613       -68.4533
  59   1.0000      -2.515209       -68.4423
  60   1.0000      -2.514083       -68.4117
  61   1.0000      -2.513923       -68.4073
  62   1.0000      -2.513626       -68.3992
  63   1.0000      -2.512204       -68.3605
  64   1.0000      -2.512154       -68.3592
  65   1.0000      -2.511654       -68.3456
  66   1.0000      -2.511614       -68.3445
  67   1.0000      -2.510429       -68.3122
  68   1.0000      -2.509429       -68.2850
  69   1.0000      -2.508248       -68.2529
  70   1.0000      -2.505120       -68.1678
  71   1.0000      -2.503594       -68.1263
  72   1.0000      -2.502443       -68.0949
  73   1.0000      -0.572352       -15.5745
  74   1.0000      -0.568241       -15.4626
  75   1.0000      -0.563439       -15.3320
  76   1.0000      -0.542466       -14.7613
  77   1.0000      -0.512373       -13.9424
  78   1.0000      -0.508451       -13.8357
  79   1.0000      -0.479932       -13.0596
  80   1.0000      -0.477334       -12.9889
  81   1.0000      -0.473197       -12.8763
  82   1.0000      -0.472285       -12.8515
  83   1.0000      -0.471939       -12.8421
  84   1.0000      -0.468923       -12.7600
  85   1.0000      -0.467723       -12.7274
  86   1.0000      -0.465660       -12.6712
  87   1.0000      -0.464734       -12.6460
  88   1.0000      -0.464389       -12.6367
  89   1.0000      -0.461948       -12.5703
  90   1.0000      -0.459108       -12.4930
  91   1.0000      -0.458257       -12.4698
  92   1.0000      -0.456940       -12.4340
  93   1.0000      -0.456251       -12.4152
  94   1.0000      -0.455311       -12.3896
  95   1.0000      -0.452879       -12.3235
  96   1.0000      -0.450088       -12.2475
  97   1.0000      -0.449407       -12.2290
  98   1.0000      -0.448621       -12.2076
  99   1.0000      -0.447097       -12.1661
 100   1.0000      -0.443089       -12.0571
 101   1.0000      -0.442634       -12.0447
 102   1.0000      -0.442084       -12.0297
 103   1.0000      -0.439942       -11.9714
 104   1.0000      -0.438764       -11.9394
 105   1.0000      -0.436252       -11.8710
 106   1.0000      -0.435807       -11.8589
 107   1.0000      -0.433263       -11.7897
 108   1.0000      -0.428962       -11.6727
 109   1.0000      -0.428041       -11.6476
 110   1.0000      -0.422672       -11.5015
 111   1.0000      -0.418356       -11.3840
 112   1.0000      -0.417991       -11.3741
 113   1.0000      -0.413776       -11.2594
 114   1.0000      -0.409646       -11.1470
 115   1.0000      -0.402013       -10.9393
 116   1.0000      -0.400870       -10.9082
 117   1.0000      -0.399575       -10.8730
 118   1.0000      -0.398950       -10.8560
 119   1.0000      -0.396449       -10.7879
 120   1.0000      -0.394790       -10.7428
 121   1.0000      -0.390677       -10.6309
 122   1.0000      -0.388075       -10.5601
 123   1.0000      -0.386572       -10.5192
 124   1.0000      -0.385507       -10.4902
 125   1.0000      -0.383885       -10.4460
 126   1.0000      -0.382396       -10.4055
 127   1.0000      -0.381087       -10.3699
 128   1.0000      -0.379738       -10.3332
 129   1.0000      -0.377681       -10.2772
 130   1.0000      -0.375482       -10.2174
 131   1.0000      -0.373214       -10.1557
 132   1.0000      -0.373164       -10.1543
 133   1.0000      -0.372810       -10.1447
 134   1.0000      -0.370520       -10.0824
 135   1.0000      -0.369497       -10.0545
 136   1.0000      -0.367092        -9.9891
 137   1.0000      -0.366215        -9.9652
 138   1.0000      -0.363145        -9.8817
 139   1.0000      -0.362507        -9.8643
 140   1.0000      -0.361853        -9.8465
 141   1.0000      -0.361432        -9.8351
 142   1.0000      -0.357738        -9.7345
 143   1.0000      -0.356328        -9.6962
 144   1.0000      -0.354077        -9.6349
 145   1.0000      -0.353871        -9.6293
 146   1.0000      -0.350532        -9.5384
 147   1.0000      -0.348965        -9.4958
 148   1.0000      -0.346870        -9.4388
 149   1.0000      -0.343558        -9.3487
 150   1.0000      -0.342887        -9.3304
 151   1.0000      -0.342601        -9.3226
 152   1.0000      -0.342063        -9.3080
 153   1.0000      -0.337691        -9.1890
 154   1.0000      -0.337343        -9.1796
 155   1.0000      -0.331244        -9.0136
 156   1.0000      -0.328852        -8.9485
 157   1.0000      -0.327905        -8.9228
 158   1.0000      -0.325535        -8.8583
 159   1.0000      -0.322451        -8.7743
 160   1.0000      -0.317960        -8.6521
 161   1.0000      -0.317746        -8.6463
 162   1.0000      -0.254822        -6.9341
 163   1.0000      -0.240648        -6.5484
 164   1.0000      -0.231764        -6.3066
 165   1.0000      -0.229849        -6.2545
 166   0.0000      -0.145337        -3.9548
 167   0.0000      -0.091549        -2.4912
 168   0.0000      -0.083902        -2.2831
 169   0.0000      -0.081481        -2.2172
 170   0.0000      -0.070937        -1.9303

                 SPIN DOWN ORBITALS
  NO   OCC          E(Eh)            E(eV)
   0   1.0000    -258.349950     -7030.0595
   1   1.0000     -30.818652      -838.6182
   2   1.0000     -26.529774      -721.9119
   3   1.0000     -26.522246      -721.7070
   4   1.0000     -26.522091      -721.7028
   5   1.0000      -4.415485      -120.1514
   6   1.0000      -4.413901      -120.1083
   7   1.0000      -4.412771      -120.0776
   8   1.0000      -4.412615      -120.0734
   9   1.0000      -4.406722      -119.9130
  10   1.0000      -4.406617      -119.9101
  11   1.0000      -4.406403      -119.9043
  12   1.0000      -4.406172      -119.8980
  13   1.0000      -4.406077      -119.8955
  14   1.0000      -4.401989      -119.7842
  15   1.0000      -4.401869      -119.7810
  16   1.0000      -4.397561      -119.6637
  17   1.0000      -4.397557      -119.6636
  18   1.0000      -4.394663      -119.5849
  19   1.0000      -4.394477      -119.5798
  20   1.0000      -4.387226      -119.3825
  21   1.0000      -3.679459      -100.1232
  22   1.0000      -2.535283       -68.9886
  23   1.0000      -2.532444       -68.9113
  24   1.0000      -2.532332       -68.9082
  25   1.0000      -2.532286       -68.9070
  26   1.0000      -2.532189       -68.9044
  27   1.0000      -2.531800       -68.8938
  28   1.0000      -2.530820       -68.8671
  29   1.0000      -2.529406       -68.8286
  30   1.0000      -2.529251       -68.8244
  31   1.0000      -2.529111       -68.8206
  32   1.0000      -2.528838       -68.8132
  33   1.0000      -2.528760       -68.8111
  34   1.0000      -2.527711       -68.7825
  35   1.0000      -2.526327       -68.7448
  36   1.0000      -2.525838       -68.7316
  37   1.0000      -2.525550       -68.7237
  38   1.0000      -2.525180       -68.7136
  39   1.0000      -2.525018       -68.7092
  40   1.0000      -2.524368       -68.6915
  41   1.0000      -2.523532       -68.6688
  42   1.0000      -2.522842       -68.6500
  43   1.0000      -2.521532       -68.6144
  44   1.0000      -2.521299       -68.6080
  45   1.0000      -2.521119       -68.6031
  46   1.0000      -2.520820       -68.5950
  47   1.0000      -2.520503       -68.5864
  48   1.0000      -2.519993       -68.5725
  49   1.0000      -2.519867       -68.5691
  50   1.0000      -2.519356       -68.5552
  51   1.0000      -2.518639       -68.5356
  52   1.0000      -2.518121       -68.5216
  53   1.0000      -2.517063       -68.4928
  54   1.0000      -2.516950       -68.4897
  55   1.0000      -2.516327       -68.4727
  56   1.0000      -2.515706       -68.4558
  57   1.0000      -2.515009       -68.4369
  58   1.0000      -2.514804       -68.4313
  59   1.0000      -2.514024       -68.4101
  60   1.0000      -2.513589       -68.3982
  61   1.0000      -2.513468       -68.3949
  62   1.0000      -2.512168       -68.3596
  63   1.0000      -2.512060       -68.3566
  64   1.0000      -2.510857       -68.3239
  65   1.0000      -2.509825       -68.2958
  66   1.0000      -2.508369       -68.2562
  67   1.0000      -2.505330       -68.1735
  68   1.0000      -2.503656       -68.1279
  69   1.0000      -2.502730       -68.1027
  70   1.0000      -2.356921       -64.1351
  71   1.0000      -2.355764       -64.1036
  72   1.0000      -2.344890       -63.8077
  73   1.0000      -0.518986       -14.1223
  74   1.0000      -0.483805       -13.1650
  75   1.0000      -0.482377       -13.1261
  76   1.0000      -0.481257       -13.0957
  77   1.0000      -0.477473       -12.9927
  78   1.0000      -0.477148       -12.9839
  79   1.0000      -0.475290       -12.9333
  80   1.0000      -0.470821       -12.8117
  81   1.0000      -0.470614       -12.8061
  82   1.0000      -0.468630       -12.7521
  83   1.0000      -0.466428       -12.6922
  84   1.0000      -0.465339       -12.6625
  85   1.0000      -0.465039       -12.6544
  86   1.0000      -0.462892       -12.5959
  87   1.0000      -0.461594       -12.5606
  88   1.0000      -0.461176       -12.5492
  89   1.0000      -0.458065       -12.4646
  90   1.0000      -0.456752       -12.4289
  91   1.0000      -0.455079       -12.3833
  92   1.0000      -0.453712       -12.3461
  93   1.0000      -0.451432       -12.2841
  94   1.0000      -0.449814       -12.2401
  95   1.0000      -0.448122       -12.1940
  96   1.0000      -0.447202       -12.1690
  97   1.0000      -0.446491       -12.1496
  98   1.0000      -0.445448       -12.1213
  99   1.0000      -0.442715       -12.0469
 100   1.0000      -0.438209       -11.9243
 101   1.0000      -0.437054       -11.8928
 102   1.0000      -0.436565       -11.8795
 103   1.0000      -0.430692       -11.7197
 104   1.0000      -0.430378       -11.7112
 105   1.0000      -0.426049       -11.5934
 106   1.0000      -0.423225       -11.5165
 107   1.0000      -0.420164       -11.4332
 108   1.0000      -0.418844       -11.3973
 109   1.0000      -0.418369       -11.3844
 110   1.0000      -0.410714       -11.1761
 111   1.0000      -0.405241       -11.0272
 112   1.0000      -0.403659       -10.9841
 113   1.0000      -0.401909       -10.9365
 114   1.0000      -0.401373       -10.9219
 115   1.0000      -0.400148       -10.8886
 116   1.0000      -0.393635       -10.7114
 117   1.0000      -0.393198       -10.6995
 118   1.0000      -0.389830       -10.6078
 119   1.0000      -0.388482       -10.5711
 120   1.0000      -0.386994       -10.5306
 121   1.0000      -0.386526       -10.5179
 122   1.0000      -0.384414       -10.4604
 123   1.0000      -0.383538       -10.4366
 124   1.0000      -0.380709       -10.3596
 125   1.0000      -0.380311       -10.3488
 126   1.0000      -0.378409       -10.2970
 127   1.0000      -0.374894       -10.2014
 128   1.0000      -0.373811       -10.1719
 129   1.0000      -0.373566       -10.1652
 130   1.0000      -0.370808       -10.0902
 131   1.0000      -0.370287       -10.0760
 132   1.0000      -0.369675       -10.0594
 133   1.0000      -0.367605       -10.0030
 134   1.0000      -0.365392        -9.9428
 135   1.0000      -0.364543        -9.9197
 136   1.0000      -0.362992        -9.8775
 137   1.0000      -0.359474        -9.7818
 138   1.0000      -0.357894        -9.7388
 139   1.0000      -0.356835        -9.7100
 140   1.0000      -0.356039        -9.6883
 141   1.0000      -0.354670        -9.6511
 142   1.0000      -0.350756        -9.5446
 143   1.0000      -0.348827        -9.4921
 144   1.0000      -0.345447        -9.4001
 145   1.0000      -0.344683        -9.3793
 146   1.0000      -0.344075        -9.3628
 147   1.0000      -0.342992        -9.3333
 148   1.0000      -0.341751        -9.2995
 149   1.0000      -0.338847        -9.2205
 150   1.0000      -0.338548        -9.2124
 151   1.0000      -0.333384        -9.0718
 152   1.0000      -0.332103        -9.0370
 153   1.0000      -0.330247        -8.9865
 154   1.0000      -0.328470        -8.9381
 155   1.0000      -0.327221        -8.9041
 156   1.0000      -0.324903        -8.8411
 157   1.0000      -0.321420        -8.7463
 158   1.0000      -0.258328        -7.0295
 159   1.0000      -0.250118        -6.8061
 160   1.0000      -0.242971        -6.6116
 161   1.0000      -0.242228        -6.5914
 162   1.0000      -0.233585        -6.3562
 163   1.0000      -0.168213        -4.5773
 164   0.0000      -0.088149        -2.3986
 165   0.0000      -0.084539        -2.3004
 166   0.0000      -0.081327        -2.2130
 167   0.0000      -0.074832        -2.0363
 168   0.0000      -0.067853        -1.8464

MULLIKEN ATOMIC CHARGES AND SPIN POPULATIONS
--------------------------------------------
   0 Au:    0.169581   -0.140720
   1 Au:    0.169195   -0.142866
   2 Au:   -0.110757   -0.152409
   3 Au:    0.169123    0.028915
   4 Au:    0.167106    0.031631
   5 Au:   -0.557994   -0.114418
   6 Au:   -0.082947   -0.152213
   7 Au:    0.302743   -0.118341
   8 Au:    0.302051   -0.116798
   9 Au:    0.321848   -0.016725
  10 Au:    0.282807   -0.135482
  11 Au:    0.146201    0.015453
  12 Au:    0.117247   -0.150678
  13 Au:    0.117594   -0.153085
  14 Au:    0.323041   -0.016454
  15 Au:   -0.083276   -0.149699
  16 Fe:   -1.753564    3.483890
Sum of atomic charges         :    0.0000000

LOEWDIN ATOMIC CHARGES AND SPIN POPULATIONS
-------------------------------------------
   0 Au:    0.010382   -0.133443
   1 Au:    0.009856   -0.135164
   2 Au:   -0.040929   -0.107566
   3 Au:   -0.010702   -0.020467
   4 Au:   -0.010815   -0.018661
   5 Au:   -0.072580   -0.100272
   6 Au:   -0.023084   -0.119587
   7 Au:    0.054984   -0.140911
   8 Au:    0.055395   -0.140634
   9 Au:    0.077109   -0.057098
  10 Au:    0.005783   -0.113629
  11 Au:    0.007922   -0.007610
  12 Au:   -0.003082   -0.175373
  13 Au:   -0.003358   -0.176110
  14 Au:    0.078119   -0.056636
  15 Au:   -0.023799   -0.118610
  16 Fe:   -0.111201    3.621772

  Mayer bond orders larger than 0.100000
B(  0-Au,  4-Au) :   0.2026 B(  0-Au,  5-Au) :   0.2981 B(  0-Au, 11-Au) :   0.2620
B(  0-Au, 13-Au) :   0.3325 B(  0-Au, 15-Au) :   0.2405 B(  1-Au,  3-Au) :   0.2047
B(  1-Au,  5-Au) :   0.2982 B(  1-Au,  6-Au) :   0.2387 B(  1-Au, 11-Au) :   0.2614
B(  1-Au, 12-Au) :   0.3326 B(  2-Au,  3-Au) :   0.2688 B(  2-Au,  4-Au) :   0.2678
B(  2-Au,  6-Au) :   0.1580 B(  2-Au,  7-Au) :   0.2538 B(  2-Au,  8-Au) :   0.2550
B(  2-Au, 15-Au) :   0.1543 B(  2-Au, 16-Fe) :   0.3943 B(  3-Au,  4-Au) :   0.2323
B(  3-Au,  6-Au) :   0.2825 B(  3-Au, 11-Au) :   0.2241 B(  3-Au, 16-Fe) :   0.1001
B(  4-Au, 11-Au) :   0.2229 B(  4-Au, 15-Au) :   0.2844 B(  4-Au, 16-Fe) :   0.1024
B(  5-Au, 10-Au) :   0.1157 B(  5-Au, 11-Au) :   0.2588 B(  5-Au, 12-Au) :   0.2613
B(  5-Au, 13-Au) :   0.2625 B(  5-Au, 16-Fe) :   0.4185 B(  6-Au,  8-Au) :   0.2399
B(  6-Au,  9-Au) :   0.1485 B(  6-Au, 12-Au) :   0.1421 B(  6-Au, 16-Fe) :   0.3840
B(  7-Au,  8-Au) :   0.2105 B(  7-Au, 14-Au) :   0.1760 B(  7-Au, 15-Au) :   0.2398
B(  7-Au, 16-Fe) :   0.2726 B(  8-Au,  9-Au) :   0.1771 B(  8-Au, 16-Fe) :   0.2704
B(  9-Au, 10-Au) :   0.1539 B(  9-Au, 12-Au) :   0.2143 B(  9-Au, 16-Fe) :   0.4144
B( 10-Au, 12-Au) :   0.2537 B( 10-Au, 13-Au) :   0.2554 B( 10-Au, 14-Au) :   0.1520
B( 10-Au, 16-Fe) :   0.3476 B( 12-Au, 16-Fe) :   0.1886 B( 13-Au, 14-Au) :   0.2123
B( 13-Au, 15-Au) :   0.1422 B( 13-Au, 16-Fe) :   0.1863 B( 14-Au, 15-Au) :   0.1496
B( 14-Au, 16-Fe) :   0.4174 B( 15-Au, 16-Fe) :   0.3826

MP2 TOTAL ENERGY:    -3432.927947185 Eh
FINAL SINGLE POINT ENERGY     -3432.927947184765

DIPOLE MOMENT
-------------
                                X             Y             Z
Electronic contribution:     25.00522      25.45139      -4.49991
Nuclear contribution   :    -25.46122     -25.91602       4.61373
                        -----------------------------------------
Total Dipole Moment    :     -0.45600      -0.46463       0.11382
                        -----------------------------------------
Magnitude (a.u.)       :      0.66089
Magnitude (Debye)      :      1.67984

Rotational constants in cm-1:     0.000915     0.000814     0.000771
Rotational constants in MHz :    27.417372    24.395996    23.103738

                             ****ORCA TERMINATED NORMALLY****
TOTAL RUN TIME: 0 days 0 hours 40 minutes 53 seconds 491 msec
