                         Program Version 5.0.3 -  RELEASE  -
|  1> !PBE def2-TZVP VERYSLOWCONV
|  2>
|  3> %scf
|  4>   AutoTRAHIter 200
|  5>   maxiter 400
|  6> end
|  7>
|  8>
|  9> %pal nprocs 6 end
| 10>
| 11> *xyzfile 0 5 pbe.xyz
| 12>
| 13> $new_job
| 14>
| 15> !PBE def2-TZVP VERYSLOWCONV
| 16>
| 17> %scf
| 18>   AutoTRAHIter 200
| 19>   maxiter 400
| 20> end
| 21>
| 22>
| 23> %pal nprocs 6 end
| 24>
| 25> *xyzfile 0 3 pbe.xyz
| 26>
| 27>
| 28>
| 29>
| 30>
| 31>                          ****END OF INPUT****
 Total Charge           Charge          ....    0
 Multiplicity           Mult            ....    5
 Number of Electrons    NEL             ....  330
FINAL SINGLE POINT ENERGY     -3436.755569789880

CARTESIAN COORDINATES (ANGSTROEM)
---------------------------------
  Au    10.120799    7.446568    6.506265
  Au     6.778053   10.759364    6.631331
  Au     7.129701    7.645777   10.188649
  Au     7.645507   10.161784    9.205528
  Au     9.604390    8.209208    9.133390
  Au     7.705922    8.395290    5.469389
  Au     5.147029    9.273708    8.416062
  Au     6.441336    5.000269    9.687123
  Au     4.476156    6.937079    9.758649
  Au     3.716748    7.073618    7.121207
  Au     5.607667    6.287966    5.174204
  Au     9.453115   10.097226    7.019235
  Au     5.004680    8.964132    5.565240
  Au     8.301009    5.698873    5.437212
  Au     6.485148    4.334054    7.019616
  Au     8.718579    5.733999    8.278584
  Fe     6.355750    6.949060    7.658776

 Multiplicity           Mult            ....    3
 Number of Electrons    NEL             ....  330
 Basis Dimension        Dim             ....  685

ORBITAL ENERGIES
----------------
                 SPIN UP ORBITALS
  NO   OCC          E(Eh)            E(eV)
   0   1.0000    -254.738741     -6931.7936
   1   1.0000     -29.564146      -804.4813
   2   1.0000     -25.502612      -693.9614
   3   1.0000     -25.502235      -693.9511
   4   1.0000     -25.499523      -693.8773
   5   1.0000      -4.038560      -109.8948
   6   1.0000      -4.037392      -109.8630
   7   1.0000      -4.035042      -109.7991
   8   1.0000      -4.035029      -109.7987
   9   1.0000      -4.033767      -109.7644
  10   1.0000      -4.030951      -109.6878
  11   1.0000      -4.030928      -109.6871
  12   1.0000      -4.029906      -109.6593
  13   1.0000      -4.029687      -109.6534
  14   1.0000      -4.028743      -109.6277
  15   1.0000      -4.028614      -109.6242
  16   1.0000      -4.025703      -109.5449
  17   1.0000      -4.025663      -109.5439
  18   1.0000      -4.021291      -109.4249
  19   1.0000      -4.021141      -109.4208
  20   1.0000      -4.016273      -109.2883
  21   1.0000      -3.336656       -90.7950
  22   1.0000      -2.253917       -61.3322
  23   1.0000      -2.253654       -61.3250
  24   1.0000      -2.252394       -61.2908
  25   1.0000      -2.250622       -61.2425
  26   1.0000      -2.250578       -61.2413
  27   1.0000      -2.250532       -61.2401
  28   1.0000      -2.249417       -61.2097
  29   1.0000      -2.249371       -61.2085
  30   1.0000      -2.248178       -61.1760
  31   1.0000      -2.247693       -61.1628
  32   1.0000      -2.247325       -61.1528
  33   1.0000      -2.247065       -61.1458
  34   1.0000      -2.246760       -61.1374
  35   1.0000      -2.246686       -61.1354
  36   1.0000      -2.246510       -61.1307
  37   1.0000      -2.246377       -61.1270
  38   1.0000      -2.245270       -61.0969
  39   1.0000      -2.244631       -61.0795
  40   1.0000      -2.243996       -61.0622
  41   1.0000      -2.243565       -61.0505
  42   1.0000      -2.243434       -61.0469
  43   1.0000      -2.243395       -61.0459
  44   1.0000      -2.243126       -61.0386
  45   1.0000      -2.242939       -61.0335
  46   1.0000      -2.242745       -61.0282
  47   1.0000      -2.242224       -61.0140
  48   1.0000      -2.241457       -60.9932
  49   1.0000      -2.241048       -60.9820
  50   1.0000      -2.240958       -60.9796
  51   1.0000      -2.240458       -60.9660
  52   1.0000      -2.240423       -60.9650
  53   1.0000      -2.240247       -60.9602
  54   1.0000      -2.239215       -60.9321
  55   1.0000      -2.238824       -60.9215
  56   1.0000      -2.238707       -60.9183
  57   1.0000      -2.238577       -60.9148
  58   1.0000      -2.238432       -60.9108
  59   1.0000      -2.237650       -60.8896
  60   1.0000      -2.236543       -60.8594
  61   1.0000      -2.236039       -60.8457
  62   1.0000      -2.235329       -60.8264
  63   1.0000      -2.235155       -60.8217
  64   1.0000      -2.234682       -60.8088
  65   1.0000      -2.231485       -60.7218
  66   1.0000      -2.230664       -60.6995
  67   1.0000      -2.229218       -60.6601
  68   1.0000      -2.228821       -60.6493
  69   1.0000      -2.225958       -60.5714
  70   1.0000      -2.153086       -58.5884
  71   1.0000      -2.152789       -58.5804
  72   1.0000      -2.148667       -58.4682
  73   1.0000      -0.432900       -11.7798
  74   1.0000      -0.396205       -10.7813
  75   1.0000      -0.392439       -10.6788
  76   1.0000      -0.389074       -10.5872
  77   1.0000      -0.378530       -10.3003
  78   1.0000      -0.376629       -10.2486
  79   1.0000      -0.373396       -10.1606
  80   1.0000      -0.369512       -10.0549
  81   1.0000      -0.367478        -9.9996
  82   1.0000      -0.363751        -9.8982
  83   1.0000      -0.362048        -9.8518
  84   1.0000      -0.361991        -9.8503
  85   1.0000      -0.358854        -9.7649
  86   1.0000      -0.356171        -9.6919
  87   1.0000      -0.355028        -9.6608
  88   1.0000      -0.353213        -9.6114
  89   1.0000      -0.352192        -9.5836
  90   1.0000      -0.350516        -9.5380
  91   1.0000      -0.349387        -9.5073
  92   1.0000      -0.346778        -9.4363
  93   1.0000      -0.345364        -9.3978
  94   1.0000      -0.345194        -9.3932
  95   1.0000      -0.344365        -9.3707
  96   1.0000      -0.343016        -9.3339
  97   1.0000      -0.341819        -9.3014
  98   1.0000      -0.339363        -9.2345
  99   1.0000      -0.339288        -9.2325
 100   1.0000      -0.332969        -9.0605
 101   1.0000      -0.331758        -9.0276
 102   1.0000      -0.329301        -8.9607
 103   1.0000      -0.328532        -8.9398
 104   1.0000      -0.326629        -8.8880
 105   1.0000      -0.322140        -8.7659
 106   1.0000      -0.319463        -8.6930
 107   1.0000      -0.316972        -8.6252
 108   1.0000      -0.316552        -8.6138
 109   1.0000      -0.311234        -8.4691
 110   1.0000      -0.309055        -8.4098
 111   1.0000      -0.307178        -8.3587
 112   1.0000      -0.302473        -8.2307
 113   1.0000      -0.301381        -8.2010
 114   1.0000      -0.300976        -8.1900
 115   1.0000      -0.298467        -8.1217
 116   1.0000      -0.297140        -8.0856
 117   1.0000      -0.293108        -7.9759
 118   1.0000      -0.289136        -7.8678
 119   1.0000      -0.287971        -7.8361
 120   1.0000      -0.287403        -7.8206
 121   1.0000      -0.286861        -7.8059
 122   1.0000      -0.285596        -7.7715
 123   1.0000      -0.281401        -7.6573
 124   1.0000      -0.280850        -7.6423
 125   1.0000      -0.279439        -7.6039
 126   1.0000      -0.277186        -7.5426
 127   1.0000      -0.275665        -7.5012
 128   1.0000      -0.274506        -7.4697
 129   1.0000      -0.273860        -7.4521
 130   1.0000      -0.272540        -7.4162
 131   1.0000      -0.270733        -7.3670
 132   1.0000      -0.270397        -7.3579
 133   1.0000      -0.270128        -7.3506
 134   1.0000      -0.268047        -7.2939
 135   1.0000      -0.266318        -7.2469
 136   1.0000      -0.265989        -7.2379
 137   1.0000      -0.263838        -7.1794
 138   1.0000      -0.260756        -7.0955
 139   1.0000      -0.260190        -7.0801
 140   1.0000      -0.259633        -7.0650
 141   1.0000      -0.259580        -7.0635
 142   1.0000      -0.257866        -7.0169
 143   1.0000      -0.256245        -6.9728
 144   1.0000      -0.253455        -6.8969
 145   1.0000      -0.253152        -6.8886
 146   1.0000      -0.251139        -6.8339
 147   1.0000      -0.249956        -6.8017
 148   1.0000      -0.249699        -6.7947
 149   1.0000      -0.249226        -6.7818
 150   1.0000      -0.248529        -6.7628
 151   1.0000      -0.248047        -6.7497
 152   1.0000      -0.247196        -6.7265
 153   1.0000      -0.246055        -6.6955
 154   1.0000      -0.245327        -6.6757
 155   1.0000      -0.241376        -6.5682
 156   1.0000      -0.240660        -6.5487
 157   1.0000      -0.239709        -6.5228
 158   1.0000      -0.236493        -6.4353
 159   1.0000      -0.235637        -6.4120
 160   1.0000      -0.229510        -6.2453
 161   1.0000      -0.225945        -6.1483
 162   1.0000      -0.212909        -5.7935
 163   1.0000      -0.211617        -5.7584
 164   1.0000      -0.208934        -5.6854
 165   1.0000      -0.207194        -5.6380
 166   0.0000      -0.193238        -5.2583
 167   0.0000      -0.151879        -4.1328
 168   0.0000      -0.143371        -3.9013
 169   0.0000      -0.142091        -3.8665
 170   0.0000      -0.134004        -3.6464

                 SPIN DOWN ORBITALS
  NO   OCC          E(Eh)            E(eV)
   0   1.0000    -254.738248     -6931.7801
   1   1.0000     -29.520052      -803.2815
   2   1.0000     -25.472210      -693.1341
   3   1.0000     -25.468792      -693.0411
   4   1.0000     -25.463568      -692.8989
   5   1.0000      -4.038920      -109.9046
   6   1.0000      -4.037634      -109.8696
   7   1.0000      -4.035070      -109.7998
   8   1.0000      -4.035046      -109.7992
   9   1.0000      -4.033672      -109.7618
  10   1.0000      -4.031258      -109.6961
  11   1.0000      -4.031236      -109.6955
  12   1.0000      -4.029542      -109.6494
  13   1.0000      -4.029337      -109.6438
  14   1.0000      -4.028608      -109.6240
  15   1.0000      -4.028470      -109.6202
  16   1.0000      -4.026043      -109.5542
  17   1.0000      -4.026001      -109.5531
  18   1.0000      -4.021377      -109.4272
  19   1.0000      -4.021228      -109.4232
  20   1.0000      -4.016334      -109.2900
  21   1.0000      -3.234919       -88.0266
  22   1.0000      -2.254357       -61.3442
  23   1.0000      -2.253702       -61.3264
  24   1.0000      -2.252893       -61.3043
  25   1.0000      -2.250771       -61.2466
  26   1.0000      -2.250683       -61.2442
  27   1.0000      -2.250633       -61.2428
  28   1.0000      -2.249842       -61.2213
  29   1.0000      -2.249595       -61.2146
  30   1.0000      -2.248182       -61.1762
  31   1.0000      -2.247687       -61.1627
  32   1.0000      -2.247249       -61.1508
  33   1.0000      -2.247075       -61.1460
  34   1.0000      -2.246795       -61.1384
  35   1.0000      -2.246678       -61.1352
  36   1.0000      -2.246552       -61.1318
  37   1.0000      -2.246411       -61.1279
  38   1.0000      -2.245134       -61.0932
  39   1.0000      -2.244433       -61.0741
  40   1.0000      -2.243910       -61.0599
  41   1.0000      -2.243771       -61.0561
  42   1.0000      -2.243399       -61.0460
  43   1.0000      -2.243243       -61.0417
  44   1.0000      -2.243033       -61.0360
  45   1.0000      -2.242847       -61.0310
  46   1.0000      -2.242289       -61.0158
  47   1.0000      -2.242007       -61.0081
  48   1.0000      -2.241456       -60.9931
  49   1.0000      -2.241156       -60.9850
  50   1.0000      -2.240938       -60.9790
  51   1.0000      -2.240677       -60.9719
  52   1.0000      -2.240658       -60.9714
  53   1.0000      -2.239918       -60.9513
  54   1.0000      -2.239212       -60.9321
  55   1.0000      -2.239159       -60.9306
  56   1.0000      -2.238862       -60.9225
  57   1.0000      -2.238616       -60.9158
  58   1.0000      -2.238450       -60.9113
  59   1.0000      -2.237898       -60.8963
  60   1.0000      -2.236877       -60.8685
  61   1.0000      -2.236233       -60.8510
  62   1.0000      -2.235571       -60.8330
  63   1.0000      -2.235332       -60.8265
  64   1.0000      -2.234860       -60.8136
  65   1.0000      -2.231663       -60.7266
  66   1.0000      -2.230704       -60.7005
  67   1.0000      -2.229216       -60.6600
  68   1.0000      -2.228894       -60.6513
  69   1.0000      -2.225913       -60.5702
  70   1.0000      -2.061227       -56.0888
  71   1.0000      -2.052250       -55.8446
  72   1.0000      -2.041292       -55.5464
  73   1.0000      -0.430101       -11.7037
  74   1.0000      -0.396306       -10.7840
  75   1.0000      -0.392598       -10.6831
  76   1.0000      -0.388087       -10.5604
  77   1.0000      -0.376294       -10.2395
  78   1.0000      -0.373742       -10.1700
  79   1.0000      -0.372911       -10.1474
  80   1.0000      -0.369423       -10.0525
  81   1.0000      -0.367022        -9.9872
  82   1.0000      -0.362913        -9.8754
  83   1.0000      -0.362303        -9.8588
  84   1.0000      -0.362215        -9.8564
  85   1.0000      -0.359277        -9.7764
  86   1.0000      -0.356036        -9.6882
  87   1.0000      -0.354288        -9.6407
  88   1.0000      -0.352088        -9.5808
  89   1.0000      -0.351027        -9.5519
  90   1.0000      -0.350110        -9.5270
  91   1.0000      -0.349115        -9.4999
  92   1.0000      -0.346570        -9.4306
  93   1.0000      -0.345143        -9.3918
  94   1.0000      -0.345035        -9.3889
  95   1.0000      -0.344544        -9.3755
  96   1.0000      -0.341474        -9.2920
  97   1.0000      -0.340669        -9.2701
  98   1.0000      -0.339444        -9.2367
  99   1.0000      -0.337339        -9.1795
 100   1.0000      -0.332465        -9.0468
 101   1.0000      -0.332076        -9.0362
 102   1.0000      -0.329463        -8.9652
 103   1.0000      -0.328266        -8.9326
 104   1.0000      -0.326992        -8.8979
 105   1.0000      -0.322557        -8.7772
 106   1.0000      -0.319847        -8.7035
 107   1.0000      -0.316577        -8.6145
 108   1.0000      -0.316148        -8.6028
 109   1.0000      -0.309235        -8.4147
 110   1.0000      -0.307146        -8.3579
 111   1.0000      -0.304132        -8.2758
 112   1.0000      -0.302047        -8.2191
 113   1.0000      -0.300906        -8.1881
 114   1.0000      -0.299603        -8.1526
 115   1.0000      -0.298529        -8.1234
 116   1.0000      -0.295428        -8.0390
 117   1.0000      -0.292775        -7.9668
 118   1.0000      -0.288127        -7.8403
 119   1.0000      -0.287563        -7.8250
 120   1.0000      -0.286225        -7.7886
 121   1.0000      -0.285380        -7.7656
 122   1.0000      -0.284652        -7.7458
 123   1.0000      -0.281195        -7.6517
 124   1.0000      -0.280202        -7.6247
 125   1.0000      -0.279504        -7.6057
 126   1.0000      -0.277377        -7.5478
 127   1.0000      -0.275634        -7.5004
 128   1.0000      -0.274198        -7.4613
 129   1.0000      -0.273760        -7.4494
 130   1.0000      -0.272657        -7.4194
 131   1.0000      -0.270776        -7.3682
 132   1.0000      -0.269521        -7.3340
 133   1.0000      -0.269118        -7.3231
 134   1.0000      -0.267912        -7.2903
 135   1.0000      -0.266425        -7.2498
 136   1.0000      -0.266131        -7.2418
 137   1.0000      -0.263486        -7.1698
 138   1.0000      -0.261120        -7.1054
 139   1.0000      -0.260026        -7.0757
 140   1.0000      -0.259825        -7.0702
 141   1.0000      -0.259065        -7.0495
 142   1.0000      -0.257377        -7.0036
 143   1.0000      -0.256469        -6.9789
 144   1.0000      -0.252520        -6.8714
 145   1.0000      -0.251349        -6.8396
 146   1.0000      -0.250200        -6.8083
 147   1.0000      -0.250138        -6.8066
 148   1.0000      -0.248827        -6.7709
 149   1.0000      -0.248265        -6.7556
 150   1.0000      -0.247697        -6.7402
 151   1.0000      -0.247012        -6.7215
 152   1.0000      -0.245163        -6.6712
 153   1.0000      -0.241663        -6.5760
 154   1.0000      -0.240749        -6.5511
 155   1.0000      -0.236675        -6.4402
 156   1.0000      -0.235635        -6.4120
 157   1.0000      -0.227597        -6.1932
 158   1.0000      -0.220087        -5.9889
 159   1.0000      -0.215913        -5.8753
 160   1.0000      -0.215666        -5.8686
 161   1.0000      -0.210237        -5.7208
 162   1.0000      -0.181099        -4.9280
 163   1.0000      -0.174851        -4.7579
 164   0.0000      -0.152149        -4.1402
 165   0.0000      -0.151957        -4.1350
 166   0.0000      -0.150484        -4.0949
 167   0.0000      -0.147410        -4.0112
 168   0.0000      -0.140813        -3.8317

MULLIKEN ATOMIC CHARGES AND SPIN POPULATIONS
--------------------------------------------
   0 Au:    0.210627   -0.073060
   1 Au:    0.210497   -0.074042
   2 Au:   -0.082170   -0.130390
   3 Au:    0.167775    0.021064
   4 Au:    0.165837    0.021471
   5 Au:   -0.586114   -0.066453
   6 Au:   -0.143619   -0.076380
   7 Au:    0.357698    0.024123
   8 Au:    0.357758    0.023509
   9 Au:    0.340924   -0.009384
  10 Au:    0.335331   -0.078654
  11 Au:    0.180666    0.017467
  12 Au:    0.187535   -0.005928
  13 Au:    0.188219   -0.006074
  14 Au:    0.341566   -0.010283
  15 Au:   -0.143185   -0.074749
  16 Fe:   -2.089345    2.497764
Sum of atomic charges         :   -0.0000000

LOEWDIN ATOMIC CHARGES AND SPIN POPULATIONS
-------------------------------------------
   0 Au:    0.020356   -0.053888
   1 Au:    0.020505   -0.054141
   2 Au:    0.005178   -0.057432
   3 Au:   -0.005534   -0.016571
   4 Au:   -0.005986   -0.016275
   5 Au:   -0.050017   -0.021174
   6 Au:   -0.000648   -0.047611
   7 Au:    0.088820    0.000994
   8 Au:    0.088706    0.000084
   9 Au:    0.093990   -0.017719
  10 Au:    0.059486   -0.059496
  11 Au:    0.000255   -0.002110
  12 Au:    0.035199   -0.040679
  13 Au:    0.035251   -0.040774
  14 Au:    0.094618   -0.018363
  15 Au:   -0.000754   -0.045602
  16 Fe:   -0.479427    2.490758

  Mayer bond orders larger than 0.100000
B(  0-Au,  4-Au) :   0.2327 B(  0-Au,  5-Au) :   0.3599 B(  0-Au, 11-Au) :   0.3158
B(  0-Au, 13-Au) :   0.3131 B(  0-Au, 15-Au) :   0.2460 B(  1-Au,  3-Au) :   0.2345
B(  1-Au,  5-Au) :   0.3613 B(  1-Au,  6-Au) :   0.2455 B(  1-Au, 11-Au) :   0.3125
B(  1-Au, 12-Au) :   0.3137 B(  2-Au,  3-Au) :   0.2919 B(  2-Au,  4-Au) :   0.2912
B(  2-Au,  6-Au) :   0.1526 B(  2-Au,  7-Au) :   0.2509 B(  2-Au,  8-Au) :   0.2517
B(  2-Au, 15-Au) :   0.1496 B(  2-Au, 16-Fe) :   0.4328 B(  3-Au,  4-Au) :   0.2674
B(  3-Au,  6-Au) :   0.3183 B(  3-Au, 11-Au) :   0.2477 B(  3-Au, 16-Fe) :   0.1160
B(  4-Au, 11-Au) :   0.2478 B(  4-Au, 15-Au) :   0.3191 B(  4-Au, 16-Fe) :   0.1165
B(  5-Au, 10-Au) :   0.1938 B(  5-Au, 11-Au) :   0.2950 B(  5-Au, 12-Au) :   0.3238
B(  5-Au, 13-Au) :   0.3251 B(  5-Au, 16-Fe) :   0.3508 B(  6-Au,  8-Au) :   0.2533
B(  6-Au,  9-Au) :   0.1645 B(  6-Au, 12-Au) :   0.1814 B(  6-Au, 16-Fe) :   0.4637
B(  7-Au,  8-Au) :   0.2142 B(  7-Au, 14-Au) :   0.2208 B(  7-Au, 15-Au) :   0.2522
B(  7-Au, 16-Fe) :   0.3423 B(  8-Au,  9-Au) :   0.2220 B(  8-Au, 16-Fe) :   0.3392
B(  9-Au, 10-Au) :   0.1656 B(  9-Au, 12-Au) :   0.2426 B(  9-Au, 16-Fe) :   0.4528
B( 10-Au, 12-Au) :   0.2338 B( 10-Au, 13-Au) :   0.2347 B( 10-Au, 14-Au) :   0.1652
B( 10-Au, 16-Fe) :   0.4429 B( 12-Au, 16-Fe) :   0.2423 B( 13-Au, 14-Au) :   0.2419
B( 13-Au, 15-Au) :   0.1811 B( 13-Au, 16-Fe) :   0.2411 B( 14-Au, 15-Au) :   0.1660
B( 14-Au, 16-Fe) :   0.4518 B( 15-Au, 16-Fe) :   0.4643

FINAL SINGLE POINT ENERGY     -3436.728815595645

DIPOLE MOMENT
-------------
                                X             Y             Z
Electronic contribution:     24.98651      25.43834      -4.64610
Nuclear contribution   :    -25.46122     -25.91602       4.61373
                        -----------------------------------------
Total Dipole Moment    :     -0.47471      -0.47767      -0.03237
                        -----------------------------------------
Magnitude (a.u.)       :      0.67422
Magnitude (Debye)      :      1.71372

Rotational constants in cm-1:     0.000915     0.000814     0.000771
Rotational constants in MHz :    27.417372    24.395996    23.103738

                             ****ORCA TERMINATED NORMALLY****
TOTAL RUN TIME: 0 days 0 hours 9 minutes 41 seconds 116 msec
