                         Program Version 5.0.3 -  RELEASE  -
|  1> !R2SCAN def2-TZVP VERYSLOWCONV
|  2>
|  3> %scf
|  4>   AutoTRAHIter 200
|  5>   maxiter 400
|  6> end
|  7>
|  8> %pal nprocs 6 end
|  9>
| 10> *xyzfile 0 5 pbe.xyz
| 11>
| 12> $new_job
| 13>
| 14> !R2SCAN def2-TZVP VERYSLOWCONV
| 15> %scf
| 16>   AutoTRAHIter 200
| 17>   maxiter 400
| 18> end
| 19>
| 20>
| 21> %pal nprocs 6 end
| 22>
| 23> *xyzfile 0 3 pbe.xyz
| 24>
| 25>
| 26>
| 27>
| 28>
| 29>                          ****END OF INPUT****
 Total Charge           Charge          ....    0
 Multiplicity           Mult            ....    5
 Number of Electrons    NEL             ....  330
FINAL SINGLE POINT ENERGY     -3437.301802610648

CARTESIAN COORDINATES (ANGSTROEM)
---------------------------------
  Au    10.120799    7.446568    6.506265
  Au     6.778053   10.759364    6.631331
  Au     7.129701    7.645777   10.188649
  Au     7.645507   10.161784    9.205528
  Au     9.604390    8.209208    9.133390
  Au     7.705922    8.395290    5.469389
  Au     5.147029    9.273708    8.416062
  Au     6.441336    5.000269    9.687123
  Au     4.476156    6.937079    9.758649
  Au     3.716748    7.073618    7.121207
  Au     5.607667    6.287966    5.174204
  Au     9.453115   10.097226    7.019235
  Au     5.004680    8.964132    5.565240
  Au     8.301009    5.698873    5.437212
  Au     6.485148    4.334054    7.019616
  Au     8.718579    5.733999    8.278584
  Fe     6.355750    6.949060    7.658776

 Multiplicity           Mult            ....    3
 Number of Electrons    NEL             ....  330
 Basis Dimension        Dim             ....  685

ORBITAL ENERGIES
----------------
                 SPIN UP ORBITALS
  NO   OCC          E(Eh)            E(eV)
   0   1.0000    -255.614785     -6955.6319
   1   1.0000     -29.896960      -813.5376
   2   1.0000     -25.730936      -700.1744
   3   1.0000     -25.730141      -700.1527
   4   1.0000     -25.728589      -700.1105
   5   1.0000      -4.129370      -112.3659
   6   1.0000      -4.128223      -112.3347
   7   1.0000      -4.125492      -112.2603
   8   1.0000      -4.125466      -112.2596
   9   1.0000      -4.124437      -112.2316
  10   1.0000      -4.121391      -112.1488
  11   1.0000      -4.121353      -112.1477
  12   1.0000      -4.120549      -112.1258
  13   1.0000      -4.120326      -112.1198
  14   1.0000      -4.119384      -112.0941
  15   1.0000      -4.119267      -112.0910
  16   1.0000      -4.116328      -112.0110
  17   1.0000      -4.116271      -112.0094
  18   1.0000      -4.111830      -111.8886
  19   1.0000      -4.111664      -111.8841
  20   1.0000      -4.106275      -111.7374
  21   1.0000      -3.467279       -94.3495
  22   1.0000      -2.317407       -63.0598
  23   1.0000      -2.317158       -63.0531
  24   1.0000      -2.316060       -63.0232
  25   1.0000      -2.313956       -62.9660
  26   1.0000      -2.313895       -62.9643
  27   1.0000      -2.313841       -62.9628
  28   1.0000      -2.313112       -62.9430
  29   1.0000      -2.313012       -62.9403
  30   1.0000      -2.311813       -62.9076
  31   1.0000      -2.311029       -62.8863
  32   1.0000      -2.310638       -62.8757
  33   1.0000      -2.310417       -62.8696
  34   1.0000      -2.310099       -62.8610
  35   1.0000      -2.310013       -62.8586
  36   1.0000      -2.309898       -62.8555
  37   1.0000      -2.309617       -62.8479
  38   1.0000      -2.308638       -62.8212
  39   1.0000      -2.308012       -62.8042
  40   1.0000      -2.307455       -62.7891
  41   1.0000      -2.307145       -62.7806
  42   1.0000      -2.306897       -62.7739
  43   1.0000      -2.306641       -62.7669
  44   1.0000      -2.306444       -62.7615
  45   1.0000      -2.306117       -62.7526
  46   1.0000      -2.306072       -62.7514
  47   1.0000      -2.305629       -62.7393
  48   1.0000      -2.304747       -62.7153
  49   1.0000      -2.304310       -62.7035
  50   1.0000      -2.304127       -62.6985
  51   1.0000      -2.303738       -62.6879
  52   1.0000      -2.303686       -62.6865
  53   1.0000      -2.303582       -62.6836
  54   1.0000      -2.302625       -62.6576
  55   1.0000      -2.302122       -62.6439
  56   1.0000      -2.302043       -62.6418
  57   1.0000      -2.302001       -62.6406
  58   1.0000      -2.301915       -62.6383
  59   1.0000      -2.300875       -62.6100
  60   1.0000      -2.299995       -62.5861
  61   1.0000      -2.299449       -62.5712
  62   1.0000      -2.298688       -62.5505
  63   1.0000      -2.298415       -62.5431
  64   1.0000      -2.297752       -62.5250
  65   1.0000      -2.294229       -62.4292
  66   1.0000      -2.294155       -62.4271
  67   1.0000      -2.292709       -62.3878
  68   1.0000      -2.291504       -62.3550
  69   1.0000      -2.288996       -62.2868
  70   1.0000      -2.235290       -60.8253
  71   1.0000      -2.234618       -60.8071
  72   1.0000      -2.231552       -60.7236
  73   1.0000      -0.437310       -11.8998
  74   1.0000      -0.401602       -10.9281
  75   1.0000      -0.397313       -10.8114
  76   1.0000      -0.394874       -10.7451
  77   1.0000      -0.387981       -10.5575
  78   1.0000      -0.384569       -10.4646
  79   1.0000      -0.381632       -10.3847
  80   1.0000      -0.377436       -10.2705
  81   1.0000      -0.374885       -10.2011
  82   1.0000      -0.372648       -10.1403
  83   1.0000      -0.370919       -10.0932
  84   1.0000      -0.370799       -10.0900
  85   1.0000      -0.367666       -10.0047
  86   1.0000      -0.364320        -9.9137
  87   1.0000      -0.364183        -9.9099
  88   1.0000      -0.362299        -9.8587
  89   1.0000      -0.361465        -9.8360
  90   1.0000      -0.359418        -9.7803
  91   1.0000      -0.358655        -9.7595
  92   1.0000      -0.355887        -9.6842
  93   1.0000      -0.354414        -9.6441
  94   1.0000      -0.353952        -9.6315
  95   1.0000      -0.353628        -9.6227
  96   1.0000      -0.352643        -9.5959
  97   1.0000      -0.350635        -9.5413
  98   1.0000      -0.348655        -9.4874
  99   1.0000      -0.348496        -9.4831
 100   1.0000      -0.341775        -9.3002
 101   1.0000      -0.340661        -9.2698
 102   1.0000      -0.338366        -9.2074
 103   1.0000      -0.337390        -9.1809
 104   1.0000      -0.335205        -9.1214
 105   1.0000      -0.330486        -8.9930
 106   1.0000      -0.328399        -8.9362
 107   1.0000      -0.325598        -8.8600
 108   1.0000      -0.325341        -8.8530
 109   1.0000      -0.320488        -8.7209
 110   1.0000      -0.317535        -8.6406
 111   1.0000      -0.316728        -8.6186
 112   1.0000      -0.311350        -8.4723
 113   1.0000      -0.309879        -8.4322
 114   1.0000      -0.309204        -8.4139
 115   1.0000      -0.306795        -8.3483
 116   1.0000      -0.305296        -8.3075
 117   1.0000      -0.302154        -8.2220
 118   1.0000      -0.298121        -8.1123
 119   1.0000      -0.296548        -8.0695
 120   1.0000      -0.295708        -8.0466
 121   1.0000      -0.295182        -8.0323
 122   1.0000      -0.294227        -8.0063
 123   1.0000      -0.289789        -7.8856
 124   1.0000      -0.289399        -7.8750
 125   1.0000      -0.287650        -7.8274
 126   1.0000      -0.285317        -7.7639
 127   1.0000      -0.284183        -7.7330
 128   1.0000      -0.282965        -7.6999
 129   1.0000      -0.281738        -7.6665
 130   1.0000      -0.280829        -7.6417
 131   1.0000      -0.279119        -7.5952
 132   1.0000      -0.278970        -7.5912
 133   1.0000      -0.278548        -7.5797
 134   1.0000      -0.276281        -7.5180
 135   1.0000      -0.274364        -7.4658
 136   1.0000      -0.273767        -7.4496
 137   1.0000      -0.272032        -7.4024
 138   1.0000      -0.269429        -7.3315
 139   1.0000      -0.268470        -7.3054
 140   1.0000      -0.267481        -7.2785
 141   1.0000      -0.267122        -7.2688
 142   1.0000      -0.265602        -7.2274
 143   1.0000      -0.264707        -7.2031
 144   1.0000      -0.263576        -7.1723
 145   1.0000      -0.262868        -7.1530
 146   1.0000      -0.258854        -7.0438
 147   1.0000      -0.258407        -7.0316
 148   1.0000      -0.256924        -6.9913
 149   1.0000      -0.256815        -6.9883
 150   1.0000      -0.255939        -6.9645
 151   1.0000      -0.255500        -6.9525
 152   1.0000      -0.254194        -6.9170
 153   1.0000      -0.253546        -6.8993
 154   1.0000      -0.252922        -6.8824
 155   1.0000      -0.250580        -6.8186
 156   1.0000      -0.248075        -6.7505
 157   1.0000      -0.246509        -6.7078
 158   1.0000      -0.243093        -6.6149
 159   1.0000      -0.241867        -6.5815
 160   1.0000      -0.235086        -6.3970
 161   1.0000      -0.228172        -6.2089
 162   1.0000      -0.217085        -5.9072
 163   1.0000      -0.214097        -5.8259
 164   1.0000      -0.210117        -5.7176
 165   1.0000      -0.209727        -5.7070
 166   0.0000      -0.191429        -5.2090
 167   0.0000      -0.147452        -4.0124
 168   0.0000      -0.140152        -3.8137
 169   0.0000      -0.139120        -3.7856
 170   0.0000      -0.129984        -3.5370

                 SPIN DOWN ORBITALS
  NO   OCC          E(Eh)            E(eV)
   0   1.0000    -255.614063     -6955.6123
   1   1.0000     -29.839050      -811.9618
   2   1.0000     -25.690430      -699.0721
   3   1.0000     -25.685806      -698.9463
   4   1.0000     -25.680891      -698.8126
   5   1.0000      -4.129879      -112.3797
   6   1.0000      -4.128628      -112.3457
   7   1.0000      -4.125674      -112.2653
   8   1.0000      -4.125605      -112.2634
   9   1.0000      -4.124487      -112.2330
  10   1.0000      -4.121719      -112.1577
  11   1.0000      -4.121685      -112.1567
  12   1.0000      -4.120187      -112.1160
  13   1.0000      -4.119975      -112.1102
  14   1.0000      -4.119320      -112.0924
  15   1.0000      -4.119185      -112.0887
  16   1.0000      -4.116744      -112.0223
  17   1.0000      -4.116681      -112.0206
  18   1.0000      -4.111888      -111.8902
  19   1.0000      -4.111724      -111.8857
  20   1.0000      -4.106327      -111.7388
  21   1.0000      -3.330165       -90.6184
  22   1.0000      -2.317802       -63.0706
  23   1.0000      -2.317246       -63.0555
  24   1.0000      -2.316849       -63.0447
  25   1.0000      -2.314397       -62.9779
  26   1.0000      -2.314026       -62.9679
  27   1.0000      -2.313935       -62.9654
  28   1.0000      -2.313527       -62.9543
  29   1.0000      -2.313474       -62.9528
  30   1.0000      -2.311881       -62.9095
  31   1.0000      -2.311057       -62.8871
  32   1.0000      -2.310594       -62.8745
  33   1.0000      -2.310435       -62.8701
  34   1.0000      -2.310207       -62.8639
  35   1.0000      -2.310111       -62.8613
  36   1.0000      -2.310001       -62.8583
  37   1.0000      -2.309685       -62.8497
  38   1.0000      -2.308497       -62.8174
  39   1.0000      -2.307808       -62.7987
  40   1.0000      -2.307108       -62.7796
  41   1.0000      -2.306978       -62.7761
  42   1.0000      -2.306828       -62.7720
  43   1.0000      -2.306802       -62.7713
  44   1.0000      -2.306443       -62.7615
  45   1.0000      -2.306405       -62.7605
  46   1.0000      -2.305625       -62.7393
  47   1.0000      -2.305416       -62.7336
  48   1.0000      -2.304753       -62.7155
  49   1.0000      -2.304407       -62.7061
  50   1.0000      -2.304131       -62.6986
  51   1.0000      -2.303952       -62.6937
  52   1.0000      -2.303908       -62.6925
  53   1.0000      -2.303272       -62.6752
  54   1.0000      -2.302557       -62.6558
  55   1.0000      -2.302511       -62.6545
  56   1.0000      -2.302278       -62.6482
  57   1.0000      -2.302081       -62.6428
  58   1.0000      -2.301899       -62.6379
  59   1.0000      -2.301179       -62.6183
  60   1.0000      -2.300422       -62.5977
  61   1.0000      -2.299737       -62.5790
  62   1.0000      -2.298839       -62.5546
  63   1.0000      -2.298551       -62.5467
  64   1.0000      -2.297929       -62.5298
  65   1.0000      -2.294326       -62.4318
  66   1.0000      -2.294259       -62.4300
  67   1.0000      -2.292702       -62.3876
  68   1.0000      -2.291610       -62.3579
  69   1.0000      -2.288943       -62.2853
  70   1.0000      -2.111008       -57.4435
  71   1.0000      -2.100783       -57.1652
  72   1.0000      -2.090056       -56.8733
  73   1.0000      -0.434678       -11.8282
  74   1.0000      -0.401995       -10.9388
  75   1.0000      -0.397675       -10.8213
  76   1.0000      -0.393861       -10.7175
  77   1.0000      -0.384467       -10.4619
  78   1.0000      -0.381445       -10.3796
  79   1.0000      -0.381236       -10.3740
  80   1.0000      -0.377504       -10.2724
  81   1.0000      -0.374569       -10.1926
  82   1.0000      -0.371538       -10.1101
  83   1.0000      -0.371159       -10.0998
  84   1.0000      -0.370992       -10.0952
  85   1.0000      -0.368090       -10.0162
  86   1.0000      -0.364189        -9.9101
  87   1.0000      -0.363273        -9.8852
  88   1.0000      -0.361150        -9.8274
  89   1.0000      -0.359934        -9.7943
  90   1.0000      -0.358894        -9.7660
  91   1.0000      -0.358347        -9.7511
  92   1.0000      -0.355664        -9.6781
  93   1.0000      -0.354511        -9.6467
  94   1.0000      -0.353812        -9.6277
  95   1.0000      -0.353714        -9.6250
  96   1.0000      -0.350245        -9.5306
  97   1.0000      -0.349570        -9.5123
  98   1.0000      -0.348519        -9.4837
  99   1.0000      -0.346252        -9.4220
 100   1.0000      -0.341293        -9.2871
 101   1.0000      -0.340983        -9.2786
 102   1.0000      -0.338554        -9.2125
 103   1.0000      -0.337086        -9.1726
 104   1.0000      -0.335663        -9.1339
 105   1.0000      -0.330985        -9.0066
 106   1.0000      -0.328821        -8.9477
 107   1.0000      -0.325359        -8.8535
 108   1.0000      -0.325076        -8.8458
 109   1.0000      -0.317775        -8.6471
 110   1.0000      -0.316113        -8.6019
 111   1.0000      -0.312924        -8.5151
 112   1.0000      -0.310625        -8.4525
 113   1.0000      -0.309345        -8.4177
 114   1.0000      -0.308127        -8.3846
 115   1.0000      -0.307029        -8.3547
 116   1.0000      -0.303413        -8.2563
 117   1.0000      -0.301149        -8.1947
 118   1.0000      -0.296619        -8.0714
 119   1.0000      -0.295914        -8.0522
 120   1.0000      -0.294607        -8.0167
 121   1.0000      -0.293370        -7.9830
 122   1.0000      -0.293012        -7.9732
 123   1.0000      -0.289688        -7.8828
 124   1.0000      -0.288694        -7.8558
 125   1.0000      -0.287837        -7.8324
 126   1.0000      -0.285869        -7.7789
 127   1.0000      -0.283936        -7.7263
 128   1.0000      -0.282505        -7.6873
 129   1.0000      -0.281627        -7.6634
 130   1.0000      -0.280725        -7.6389
 131   1.0000      -0.279026        -7.5927
 132   1.0000      -0.277153        -7.5417
 133   1.0000      -0.277087        -7.5399
 134   1.0000      -0.275948        -7.5089
 135   1.0000      -0.274441        -7.4679
 136   1.0000      -0.273816        -7.4509
 137   1.0000      -0.271168        -7.3788
 138   1.0000      -0.268838        -7.3155
 139   1.0000      -0.267699        -7.2844
 140   1.0000      -0.267475        -7.2784
 141   1.0000      -0.266768        -7.2591
 142   1.0000      -0.264567        -7.1992
 143   1.0000      -0.264060        -7.1854
 144   1.0000      -0.259349        -7.0572
 145   1.0000      -0.258701        -7.0396
 146   1.0000      -0.257471        -7.0062
 147   1.0000      -0.257243        -6.9999
 148   1.0000      -0.256286        -6.9739
 149   1.0000      -0.255012        -6.9392
 150   1.0000      -0.254530        -6.9261
 151   1.0000      -0.253960        -6.9106
 152   1.0000      -0.251972        -6.8565
 153   1.0000      -0.248475        -6.7614
 154   1.0000      -0.247426        -6.7328
 155   1.0000      -0.243229        -6.6186
 156   1.0000      -0.241753        -6.5784
 157   1.0000      -0.231595        -6.3020
 158   1.0000      -0.223290        -6.0760
 159   1.0000      -0.217717        -5.9244
 160   1.0000      -0.217348        -5.9144
 161   1.0000      -0.211447        -5.7538
 162   1.0000      -0.184820        -5.0292
 163   1.0000      -0.179229        -4.8771
 164   0.0000      -0.146104        -3.9757
 165   0.0000      -0.143808        -3.9132
 166   0.0000      -0.138982        -3.7819
 167   0.0000      -0.138199        -3.7606
 168   0.0000      -0.133749        -3.6395

MULLIKEN ATOMIC CHARGES AND SPIN POPULATIONS
--------------------------------------------
   0 Au:    0.198905   -0.073266
   1 Au:    0.199117   -0.073931
   2 Au:   -0.077400   -0.148319
   3 Au:    0.157871    0.022591
   4 Au:    0.156243    0.023063
   5 Au:   -0.540750   -0.073951
   6 Au:   -0.132412   -0.090616
   7 Au:    0.322426    0.018769
   8 Au:    0.322502    0.018664
   9 Au:    0.307473   -0.014192
  10 Au:    0.313849   -0.089899
  11 Au:    0.148054    0.021087
  12 Au:    0.168219   -0.006187
  13 Au:    0.168870   -0.006486
  14 Au:    0.308565   -0.015683
  15 Au:   -0.132403   -0.088044
  16 Fe:   -1.889129    2.576399
Sum of atomic charges         :   -0.0000000

LOEWDIN ATOMIC CHARGES AND SPIN POPULATIONS
-------------------------------------------
   0 Au:    0.020355   -0.053213
   1 Au:    0.020515   -0.053594
   2 Au:    0.002196   -0.064832
   3 Au:   -0.006366   -0.017118
   4 Au:   -0.006781   -0.016649
   5 Au:   -0.051090   -0.027348
   6 Au:   -0.003907   -0.054803
   7 Au:    0.083334   -0.003954
   8 Au:    0.083280   -0.004530
   9 Au:    0.088730   -0.020802
  10 Au:    0.055298   -0.064654
  11 Au:   -0.003057    0.000603
  12 Au:    0.031379   -0.043153
  13 Au:    0.031411   -0.043354
  14 Au:    0.089397   -0.021867
  15 Au:   -0.004169   -0.052606
  16 Fe:   -0.430525    2.541877

  Mayer bond orders larger than 0.100000
B(  0-Au,  4-Au) :   0.2160 B(  0-Au,  5-Au) :   0.3496 B(  0-Au, 11-Au) :   0.2996
B(  0-Au, 13-Au) :   0.3023 B(  0-Au, 15-Au) :   0.2360 B(  1-Au,  3-Au) :   0.2177
B(  1-Au,  5-Au) :   0.3511 B(  1-Au,  6-Au) :   0.2354 B(  1-Au, 11-Au) :   0.2967
B(  1-Au, 12-Au) :   0.3029 B(  2-Au,  3-Au) :   0.2828 B(  2-Au,  4-Au) :   0.2822
B(  2-Au,  6-Au) :   0.1354 B(  2-Au,  7-Au) :   0.2398 B(  2-Au,  8-Au) :   0.2407
B(  2-Au, 15-Au) :   0.1321 B(  2-Au, 16-Fe) :   0.4288 B(  3-Au,  4-Au) :   0.2520
B(  3-Au,  6-Au) :   0.3110 B(  3-Au, 11-Au) :   0.2331 B(  3-Au, 16-Fe) :   0.1090
B(  4-Au, 11-Au) :   0.2329 B(  4-Au, 15-Au) :   0.3123 B(  4-Au, 16-Fe) :   0.1097
B(  5-Au, 10-Au) :   0.1798 B(  5-Au, 11-Au) :   0.2849 B(  5-Au, 12-Au) :   0.3157
B(  5-Au, 13-Au) :   0.3170 B(  5-Au, 16-Fe) :   0.3314 B(  6-Au,  8-Au) :   0.2455
B(  6-Au,  9-Au) :   0.1534 B(  6-Au, 12-Au) :   0.1605 B(  6-Au, 16-Fe) :   0.4435
B(  7-Au,  8-Au) :   0.2037 B(  7-Au, 14-Au) :   0.2111 B(  7-Au, 15-Au) :   0.2445
B(  7-Au, 16-Fe) :   0.3309 B(  8-Au,  9-Au) :   0.2120 B(  8-Au, 16-Fe) :   0.3276
B(  9-Au, 10-Au) :   0.1610 B(  9-Au, 12-Au) :   0.2300 B(  9-Au, 16-Fe) :   0.4420
B( 10-Au, 12-Au) :   0.2207 B( 10-Au, 13-Au) :   0.2220 B( 10-Au, 14-Au) :   0.1605
B( 10-Au, 16-Fe) :   0.4406 B( 12-Au, 16-Fe) :   0.2301 B( 13-Au, 14-Au) :   0.2292
B( 13-Au, 15-Au) :   0.1599 B( 13-Au, 16-Fe) :   0.2287 B( 14-Au, 15-Au) :   0.1549
B( 14-Au, 16-Fe) :   0.4415 B( 15-Au, 16-Fe) :   0.4438

FINAL SINGLE POINT ENERGY     -3437.270350574766

DIPOLE MOMENT
-------------
                                X             Y             Z
Electronic contribution:     24.98455      25.43722      -4.64524
Nuclear contribution   :    -25.46122     -25.91602       4.61373
                        -----------------------------------------
Total Dipole Moment    :     -0.47667      -0.47880      -0.03151
                        -----------------------------------------
Magnitude (a.u.)       :      0.67635
Magnitude (Debye)      :      1.71916

Rotational constants in cm-1:     0.000915     0.000814     0.000771
Rotational constants in MHz :    27.417372    24.395996    23.103738

                             ****ORCA TERMINATED NORMALLY****
TOTAL RUN TIME: 0 days 0 hours 14 minutes 38 seconds 228 msec
