                         Program Version 5.0.3 -  RELEASE  -
|  1> !RI-B2PLYP def2-TZVP def2-TZVP/C
|  2> !RIJCOSX VERYSLOWCONV
|  3>
|  4> %scf
|  5>   AutoTRAHIter 200
|  6>   maxiter 400
|  7> end
|  8>
|  9>
| 10> %pal nprocs 6 end
| 11>
| 12> *xyzfile 0 6 pbe.xyz
| 13>
| 14> $new_job
| 15>
| 16> !RI-B2PLYP def2-TZVP def2-TZVP/C
| 17> !RIJCOSX VERYSLOWCONV
| 18>
| 19> %scf
| 20>   AutoTRAHIter 200
| 21>   maxiter 400
| 22> end
| 23>
| 24>
| 25> %pal nprocs 6 end
| 26>
| 27> *xyzfile 0 4 pbe.xyz
| 28>
| 29>
| 30>
| 31>
| 32>
| 33>                          ****END OF INPUT****
 Total Charge           Charge          ....    0
 Multiplicity           Mult            ....    6
 Number of Electrons    NEL             ....  311
MP2 TOTAL ENERGY:    -3297.352968796 Eh
FINAL SINGLE POINT ENERGY     -3297.352968795559

CARTESIAN COORDINATES (ANGSTROEM)
---------------------------------
  Au     5.776039    7.440422    5.889958
  Au     8.439488    7.838301    5.213179
  Au     9.839849    9.859324    6.593181
  Au     7.043765    9.941455    6.543059
  Au    10.388895    6.920572    7.033627
  Au     7.808423    5.843279    7.148165
  Au     5.464789    6.243692    8.440093
  Au     3.364656    7.543327    9.597908
  Au     7.877815    6.250697    9.864126
  Au     4.925662    9.115078    8.010264
  Au     7.100527   10.360394    9.258753
  Au     9.943071   10.189643    9.303970
  Au     5.840642    8.149843   10.612756
  Au    10.463670    7.431987    9.716797
  Au     8.431099    8.725643   11.188691
  Fe     8.378078    8.270623    8.191806

 Multiplicity           Mult            ....    4
 Number of Electrons    NEL             ....  311
 Basis Dimension        Dim             ....  645

ORBITAL ENERGIES
----------------
                 SPIN UP ORBITALS
  NO   OCC          E(Eh)            E(eV)
   0   1.0000    -258.353800     -7030.1643
   1   1.0000     -30.913834      -841.2082
   2   1.0000     -26.633124      -724.7242
   3   1.0000     -26.601729      -723.8698
   4   1.0000     -26.601042      -723.8512
   5   1.0000      -4.409091      -119.9775
   6   1.0000      -4.409042      -119.9761
   7   1.0000      -4.404763      -119.8597
   8   1.0000      -4.404710      -119.8583
   9   1.0000      -4.399251      -119.7097
  10   1.0000      -4.399187      -119.7080
  11   1.0000      -4.397240      -119.6550
  12   1.0000      -4.396763      -119.6420
  13   1.0000      -4.396683      -119.6398
  14   1.0000      -4.396209      -119.6269
  15   1.0000      -4.396096      -119.6238
  16   1.0000      -4.395711      -119.6134
  17   1.0000      -4.394970      -119.5932
  18   1.0000      -4.394298      -119.5749
  19   1.0000      -4.383790      -119.2890
  20   1.0000      -3.928158      -106.8906
  21   1.0000      -2.680288       -72.9344
  22   1.0000      -2.615466       -71.1704
  23   1.0000      -2.614542       -71.1453
  24   1.0000      -2.529150       -68.8217
  25   1.0000      -2.529089       -68.8200
  26   1.0000      -2.527715       -68.7826
  27   1.0000      -2.527672       -68.7814
  28   1.0000      -2.525204       -68.7143
  29   1.0000      -2.525118       -68.7120
  30   1.0000      -2.523833       -68.6770
  31   1.0000      -2.523750       -68.6747
  32   1.0000      -2.521948       -68.6257
  33   1.0000      -2.521905       -68.6245
  34   1.0000      -2.520778       -68.5939
  35   1.0000      -2.520111       -68.5757
  36   1.0000      -2.519980       -68.5721
  37   1.0000      -2.519466       -68.5581
  38   1.0000      -2.519446       -68.5576
  39   1.0000      -2.518370       -68.5283
  40   1.0000      -2.517799       -68.5128
  41   1.0000      -2.517463       -68.5036
  42   1.0000      -2.516549       -68.4788
  43   1.0000      -2.516276       -68.4713
  44   1.0000      -2.514723       -68.4291
  45   1.0000      -2.514364       -68.4193
  46   1.0000      -2.514234       -68.4158
  47   1.0000      -2.513657       -68.4001
  48   1.0000      -2.513222       -68.3882
  49   1.0000      -2.513042       -68.3834
  50   1.0000      -2.512792       -68.3765
  51   1.0000      -2.512780       -68.3762
  52   1.0000      -2.512386       -68.3655
  53   1.0000      -2.512350       -68.3645
  54   1.0000      -2.512169       -68.3596
  55   1.0000      -2.511634       -68.3450
  56   1.0000      -2.511254       -68.3347
  57   1.0000      -2.511138       -68.3315
  58   1.0000      -2.510694       -68.3195
  59   1.0000      -2.510438       -68.3125
  60   1.0000      -2.510351       -68.3101
  61   1.0000      -2.509864       -68.2969
  62   1.0000      -2.509563       -68.2887
  63   1.0000      -2.509283       -68.2811
  64   1.0000      -2.509214       -68.2792
  65   1.0000      -2.509000       -68.2734
  66   1.0000      -2.501602       -68.0721
  67   1.0000      -2.500497       -68.0420
  68   1.0000      -2.500245       -68.0351
  69   1.0000      -0.573472       -15.6050
  70   1.0000      -0.570638       -15.5279
  71   1.0000      -0.567902       -15.4534
  72   1.0000      -0.548332       -14.9209
  73   1.0000      -0.516639       -14.0585
  74   1.0000      -0.515205       -14.0194
  75   1.0000      -0.482300       -13.1240
  76   1.0000      -0.473348       -12.8805
  77   1.0000      -0.470636       -12.8067
  78   1.0000      -0.468745       -12.7552
  79   1.0000      -0.465692       -12.6721
  80   1.0000      -0.460846       -12.5403
  81   1.0000      -0.459231       -12.4963
  82   1.0000      -0.458841       -12.4857
  83   1.0000      -0.456539       -12.4231
  84   1.0000      -0.455890       -12.4054
  85   1.0000      -0.452418       -12.3109
  86   1.0000      -0.451848       -12.2954
  87   1.0000      -0.450336       -12.2543
  88   1.0000      -0.448153       -12.1949
  89   1.0000      -0.447322       -12.1722
  90   1.0000      -0.444864       -12.1054
  91   1.0000      -0.443401       -12.0655
  92   1.0000      -0.442509       -12.0413
  93   1.0000      -0.439347       -11.9553
  94   1.0000      -0.438758       -11.9392
  95   1.0000      -0.436203       -11.8697
  96   1.0000      -0.434493       -11.8232
  97   1.0000      -0.433733       -11.8025
  98   1.0000      -0.433187       -11.7876
  99   1.0000      -0.427926       -11.6445
 100   1.0000      -0.427568       -11.6347
 101   1.0000      -0.421247       -11.4627
 102   1.0000      -0.418699       -11.3934
 103   1.0000      -0.416400       -11.3308
 104   1.0000      -0.415504       -11.3064
 105   1.0000      -0.414831       -11.2881
 106   1.0000      -0.410652       -11.1744
 107   1.0000      -0.407563       -11.0904
 108   1.0000      -0.405097       -11.0232
 109   1.0000      -0.403352       -10.9758
 110   1.0000      -0.399679       -10.8758
 111   1.0000      -0.393376       -10.7043
 112   1.0000      -0.392840       -10.6897
 113   1.0000      -0.392781       -10.6881
 114   1.0000      -0.390811       -10.6345
 115   1.0000      -0.388352       -10.5676
 116   1.0000      -0.382191       -10.4000
 117   1.0000      -0.378999       -10.3131
 118   1.0000      -0.378017       -10.2864
 119   1.0000      -0.375091       -10.2067
 120   1.0000      -0.373795       -10.1715
 121   1.0000      -0.371595       -10.1116
 122   1.0000      -0.369610       -10.0576
 123   1.0000      -0.367901       -10.0111
 124   1.0000      -0.367641       -10.0040
 125   1.0000      -0.366181        -9.9643
 126   1.0000      -0.365832        -9.9548
 127   1.0000      -0.365789        -9.9536
 128   1.0000      -0.361672        -9.8416
 129   1.0000      -0.360548        -9.8110
 130   1.0000      -0.359500        -9.7825
 131   1.0000      -0.359070        -9.7708
 132   1.0000      -0.357762        -9.7352
 133   1.0000      -0.355823        -9.6824
 134   1.0000      -0.354795        -9.6545
 135   1.0000      -0.353766        -9.6265
 136   1.0000      -0.353076        -9.6077
 137   1.0000      -0.349897        -9.5212
 138   1.0000      -0.348961        -9.4957
 139   1.0000      -0.348017        -9.4700
 140   1.0000      -0.343118        -9.3367
 141   1.0000      -0.342618        -9.3231
 142   1.0000      -0.341961        -9.3052
 143   1.0000      -0.339333        -9.2337
 144   1.0000      -0.337798        -9.1920
 145   1.0000      -0.334692        -9.1074
 146   1.0000      -0.334510        -9.1025
 147   1.0000      -0.327127        -8.9016
 148   1.0000      -0.326008        -8.8711
 149   1.0000      -0.324078        -8.8186
 150   1.0000      -0.315616        -8.5884
 151   1.0000      -0.311558        -8.4779
 152   1.0000      -0.299567        -8.1516
 153   1.0000      -0.261867        -7.1258
 154   1.0000      -0.228952        -6.2301
 155   1.0000      -0.222819        -6.0632
 156   1.0000      -0.218232        -5.9384
 157   0.0000      -0.128877        -3.5069
 158   0.0000      -0.090924        -2.4742
 159   0.0000      -0.074887        -2.0378
 160   0.0000      -0.065400        -1.7796
 161   0.0000      -0.062564        -1.7025

                 SPIN DOWN ORBITALS
  NO   OCC          E(Eh)            E(eV)
   0   1.0000    -258.351765     -7030.1089
   1   1.0000     -30.820583      -838.6707
   2   1.0000     -26.532288      -721.9803
   3   1.0000     -26.524163      -721.7592
   4   1.0000     -26.524059      -721.7563
   5   1.0000      -4.409161      -119.9794
   6   1.0000      -4.409109      -119.9779
   7   1.0000      -4.404940      -119.8645
   8   1.0000      -4.404904      -119.8635
   9   1.0000      -4.399155      -119.7071
  10   1.0000      -4.399089      -119.7053
  11   1.0000      -4.397445      -119.6606
  12   1.0000      -4.396619      -119.6381
  13   1.0000      -4.396538      -119.6359
  14   1.0000      -4.396258      -119.6283
  15   1.0000      -4.396147      -119.6252
  16   1.0000      -4.395762      -119.6148
  17   1.0000      -4.394933      -119.5922
  18   1.0000      -4.394594      -119.5830
  19   1.0000      -4.384005      -119.2948
  20   1.0000      -3.682009      -100.1926
  21   1.0000      -2.528753       -68.8109
  22   1.0000      -2.528710       -68.8097
  23   1.0000      -2.527076       -68.7652
  24   1.0000      -2.527024       -68.7638
  25   1.0000      -2.524710       -68.7009
  26   1.0000      -2.524628       -68.6986
  27   1.0000      -2.523100       -68.6571
  28   1.0000      -2.523045       -68.6555
  29   1.0000      -2.521862       -68.6233
  30   1.0000      -2.521838       -68.6227
  31   1.0000      -2.520800       -68.5944
  32   1.0000      -2.520142       -68.5766
  33   1.0000      -2.519484       -68.5586
  34   1.0000      -2.518611       -68.5349
  35   1.0000      -2.518332       -68.5273
  36   1.0000      -2.518291       -68.5262
  37   1.0000      -2.517539       -68.5057
  38   1.0000      -2.517451       -68.5033
  39   1.0000      -2.516469       -68.4766
  40   1.0000      -2.515997       -68.4638
  41   1.0000      -2.514378       -68.4197
  42   1.0000      -2.514363       -68.4193
  43   1.0000      -2.513743       -68.4024
  44   1.0000      -2.513628       -68.3993
  45   1.0000      -2.513220       -68.3882
  46   1.0000      -2.513041       -68.3833
  47   1.0000      -2.512898       -68.3794
  48   1.0000      -2.512619       -68.3718
  49   1.0000      -2.512492       -68.3684
  50   1.0000      -2.512292       -68.3629
  51   1.0000      -2.512172       -68.3597
  52   1.0000      -2.511855       -68.3511
  53   1.0000      -2.511751       -68.3482
  54   1.0000      -2.511364       -68.3377
  55   1.0000      -2.510793       -68.3221
  56   1.0000      -2.510680       -68.3191
  57   1.0000      -2.510479       -68.3136
  58   1.0000      -2.510101       -68.3033
  59   1.0000      -2.509762       -68.2941
  60   1.0000      -2.509626       -68.2904
  61   1.0000      -2.509314       -68.2819
  62   1.0000      -2.509104       -68.2762
  63   1.0000      -2.501928       -68.0809
  64   1.0000      -2.501010       -68.0559
  65   1.0000      -2.500566       -68.0438
  66   1.0000      -2.361057       -64.2476
  67   1.0000      -2.360159       -64.2232
  68   1.0000      -2.346047       -63.8392
  69   1.0000      -0.512276       -13.9397
  70   1.0000      -0.482139       -13.1197
  71   1.0000      -0.475171       -12.9301
  72   1.0000      -0.473466       -12.8837
  73   1.0000      -0.471362       -12.8264
  74   1.0000      -0.470783       -12.8107
  75   1.0000      -0.467197       -12.7131
  76   1.0000      -0.464511       -12.6400
  77   1.0000      -0.463647       -12.6165
  78   1.0000      -0.461145       -12.5484
  79   1.0000      -0.460948       -12.5430
  80   1.0000      -0.457820       -12.4579
  81   1.0000      -0.457440       -12.4476
  82   1.0000      -0.455547       -12.3961
  83   1.0000      -0.454027       -12.3547
  84   1.0000      -0.453544       -12.3416
  85   1.0000      -0.451081       -12.2745
  86   1.0000      -0.448064       -12.1924
  87   1.0000      -0.447387       -12.1740
  88   1.0000      -0.445255       -12.1160
  89   1.0000      -0.442651       -12.0451
  90   1.0000      -0.439738       -11.9659
  91   1.0000      -0.437073       -11.8934
  92   1.0000      -0.436758       -11.8848
  93   1.0000      -0.436022       -11.8648
  94   1.0000      -0.432377       -11.7656
  95   1.0000      -0.429538       -11.6883
  96   1.0000      -0.427383       -11.6297
  97   1.0000      -0.423857       -11.5337
  98   1.0000      -0.421061       -11.4576
  99   1.0000      -0.420136       -11.4325
 100   1.0000      -0.416585       -11.3359
 101   1.0000      -0.415929       -11.3180
 102   1.0000      -0.411293       -11.1919
 103   1.0000      -0.409200       -11.1349
 104   1.0000      -0.406577       -11.0635
 105   1.0000      -0.404975       -11.0199
 106   1.0000      -0.400725       -10.9043
 107   1.0000      -0.396390       -10.7863
 108   1.0000      -0.394053       -10.7227
 109   1.0000      -0.392940       -10.6924
 110   1.0000      -0.392517       -10.6809
 111   1.0000      -0.387996       -10.5579
 112   1.0000      -0.384678       -10.4676
 113   1.0000      -0.384558       -10.4644
 114   1.0000      -0.379456       -10.3255
 115   1.0000      -0.375841       -10.2272
 116   1.0000      -0.374380       -10.1874
 117   1.0000      -0.372249       -10.1294
 118   1.0000      -0.370144       -10.0721
 119   1.0000      -0.369543       -10.0558
 120   1.0000      -0.367813       -10.0087
 121   1.0000      -0.367419        -9.9980
 122   1.0000      -0.365528        -9.9465
 123   1.0000      -0.364610        -9.9215
 124   1.0000      -0.361974        -9.8498
 125   1.0000      -0.360312        -9.8046
 126   1.0000      -0.359585        -9.7848
 127   1.0000      -0.358121        -9.7450
 128   1.0000      -0.357323        -9.7233
 129   1.0000      -0.356625        -9.7043
 130   1.0000      -0.355221        -9.6661
 131   1.0000      -0.353913        -9.6305
 132   1.0000      -0.350445        -9.5361
 133   1.0000      -0.349971        -9.5232
 134   1.0000      -0.349574        -9.5124
 135   1.0000      -0.346760        -9.4358
 136   1.0000      -0.343247        -9.3402
 137   1.0000      -0.342809        -9.3283
 138   1.0000      -0.340597        -9.2681
 139   1.0000      -0.338975        -9.2240
 140   1.0000      -0.335596        -9.1320
 141   1.0000      -0.335360        -9.1256
 142   1.0000      -0.331351        -9.0165
 143   1.0000      -0.326809        -8.8929
 144   1.0000      -0.326407        -8.8820
 145   1.0000      -0.324535        -8.8310
 146   1.0000      -0.320556        -8.7228
 147   1.0000      -0.313329        -8.5261
 148   1.0000      -0.307631        -8.3711
 149   1.0000      -0.263424        -7.1681
 150   1.0000      -0.235965        -6.4209
 151   1.0000      -0.235167        -6.3992
 152   1.0000      -0.223080        -6.0703
 153   1.0000      -0.208179        -5.6648
 154   0.0000      -0.098345        -2.6761
 155   0.0000      -0.072557        -1.9744
 156   0.0000      -0.067296        -1.8312
 157   0.0000      -0.065677        -1.7872
 158   0.0000      -0.054579        -1.4852

MULLIKEN ATOMIC CHARGES AND SPIN POPULATIONS
--------------------------------------------
   0 Au:    0.132228    0.046822
   1 Au:    0.131386   -0.004854
   2 Au:    0.244185   -0.032024
   3 Au:    0.178900   -0.181963
   4 Au:    0.243040   -0.032526
   5 Au:    0.178300   -0.183245
   6 Au:   -0.215215    0.055721
   7 Au:    0.570011    0.021556
   8 Au:    0.119397   -0.197036
   9 Au:   -0.217418    0.055321
  10 Au:    0.120103   -0.199329
  11 Au:    0.225754   -0.028415
  12 Au:   -0.272040    0.026452
  13 Au:    0.226243   -0.029091
  14 Au:    0.223016   -0.015485
  15 Fe:   -1.887889    3.698095
Sum of atomic charges         :    0.0000000

LOEWDIN ATOMIC CHARGES AND SPIN POPULATIONS
-------------------------------------------
   0 Au:    0.014720   -0.005490
   1 Au:    0.000721   -0.068892
   2 Au:    0.067093   -0.046504
   3 Au:    0.008023   -0.081428
   4 Au:    0.066920   -0.046820
   5 Au:    0.007374   -0.081151
   6 Au:   -0.094042    0.013285
   7 Au:    0.196704    0.019171
   8 Au:    0.028582   -0.093380
   9 Au:   -0.094224    0.012916
  10 Au:    0.028126   -0.093843
  11 Au:    0.038298   -0.046527
  12 Au:   -0.083018   -0.023727
  13 Au:    0.038400   -0.047030
  14 Au:    0.014056   -0.072502
  15 Fe:   -0.237734    3.661923

  Mayer bond orders larger than 0.100000
B(  0-Au,  1-Au) :   0.3243 B(  0-Au,  3-Au) :   0.1718 B(  0-Au,  5-Au) :   0.1746
B(  0-Au,  6-Au) :   0.1827 B(  0-Au,  9-Au) :   0.1841 B(  0-Au, 15-Fe) :   0.1770
B(  1-Au,  2-Au) :   0.2025 B(  1-Au,  3-Au) :   0.1453 B(  1-Au,  4-Au) :   0.2023
B(  1-Au,  5-Au) :   0.1470 B(  1-Au, 15-Fe) :   0.2999 B(  2-Au,  3-Au) :   0.2074
B(  2-Au, 11-Au) :   0.2504 B(  2-Au, 15-Fe) :   0.4338 B(  3-Au,  9-Au) :   0.3859
B(  3-Au, 10-Au) :   0.1818 B(  3-Au, 15-Fe) :   0.3960 B(  4-Au,  5-Au) :   0.2070
B(  4-Au, 13-Au) :   0.2504 B(  4-Au, 15-Fe) :   0.4349 B(  5-Au,  6-Au) :   0.3847
B(  5-Au,  8-Au) :   0.1821 B(  5-Au, 15-Fe) :   0.3942 B(  6-Au,  7-Au) :   0.2893
B(  6-Au,  8-Au) :   0.2790 B(  6-Au,  9-Au) :   0.2725 B(  6-Au, 12-Au) :   0.2673
B(  6-Au, 15-Fe) :   0.2057 B(  7-Au,  9-Au) :   0.2907 B(  7-Au, 12-Au) :   0.3007
B(  8-Au, 12-Au) :   0.1907 B(  8-Au, 13-Au) :   0.1406 B(  8-Au, 14-Au) :   0.1260
B(  8-Au, 15-Fe) :   0.4448 B(  9-Au, 10-Au) :   0.2778 B(  9-Au, 12-Au) :   0.2663
B(  9-Au, 15-Fe) :   0.2055 B( 10-Au, 11-Au) :   0.1403 B( 10-Au, 12-Au) :   0.1898
B( 10-Au, 14-Au) :   0.1281 B( 10-Au, 15-Fe) :   0.4427 B( 11-Au, 13-Au) :   0.1460
B( 11-Au, 14-Au) :   0.1885 B( 11-Au, 15-Fe) :   0.4333 B( 12-Au, 14-Au) :   0.4459
B( 12-Au, 15-Fe) :   0.1885 B( 13-Au, 14-Au) :   0.1894 B( 13-Au, 15-Fe) :   0.4310
B( 14-Au, 15-Fe) :   0.2524

MP2 TOTAL ENERGY:    -3297.344613225 Eh
FINAL SINGLE POINT ENERGY     -3297.344613224812

DIPOLE MOMENT
-------------
                                X             Y             Z
Electronic contribution:    -33.11376      -5.61420       4.06284
Nuclear contribution   :     33.03728       5.62148      -3.91837
                        -----------------------------------------
Total Dipole Moment    :     -0.07647       0.00728       0.14448
                        -----------------------------------------
Magnitude (a.u.)       :      0.16363
Magnitude (Debye)      :      0.41591

Rotational constants in cm-1:     0.001126     0.000877     0.000763
Rotational constants in MHz :    33.743519    26.297830    22.888199

                             ****ORCA TERMINATED NORMALLY****
TOTAL RUN TIME: 0 days 0 hours 50 minutes 13 seconds 249 msec
