                         Program Version 5.0.3 -  RELEASE  -
|  1> !R2SCAN def2-TZVP VERYSLOWCONV
|  2>
|  3> %scf
|  4>   AutoTRAHIter 200
|  5>   maxiter 400
|  6> end
|  7>
|  8> %pal nprocs 6 end
|  9>
| 10> *xyzfile 0 6 pbe.xyz
| 11>
| 12> $new_job
| 13>
| 14> !R2SCAN def2-TZVP VERYSLOWCONV
| 15> %scf
| 16>   AutoTRAHIter 200
| 17>   maxiter 400
| 18> end
| 19>
| 20>
| 21> %pal nprocs 6 end
| 22>
| 23> *xyzfile 0 4 pbe.xyz
| 24>
| 25>
| 26>
| 27>
| 28>
| 29>                          ****END OF INPUT****
 Total Charge           Charge          ....    0
 Multiplicity           Mult            ....    6
 Number of Electrons    NEL             ....  311
FINAL SINGLE POINT ENERGY     -3301.434197581563

CARTESIAN COORDINATES (ANGSTROEM)
---------------------------------
  Au     5.776039    7.440422    5.889958
  Au     8.439488    7.838301    5.213179
  Au     9.839849    9.859324    6.593181
  Au     7.043765    9.941455    6.543059
  Au    10.388895    6.920572    7.033627
  Au     7.808423    5.843279    7.148165
  Au     5.464789    6.243692    8.440093
  Au     3.364656    7.543327    9.597908
  Au     7.877815    6.250697    9.864126
  Au     4.925662    9.115078    8.010264
  Au     7.100527   10.360394    9.258753
  Au     9.943071   10.189643    9.303970
  Au     5.840642    8.149843   10.612756
  Au    10.463670    7.431987    9.716797
  Au     8.431099    8.725643   11.188691
  Fe     8.378078    8.270623    8.191806

 Multiplicity           Mult            ....    4
 Number of Electrons    NEL             ....  311
 Basis Dimension        Dim             ....  645

ORBITAL ENERGIES
----------------
                 SPIN UP ORBITALS
  NO   OCC          E(Eh)            E(eV)
   0   1.0000    -255.642585     -6956.3884
   1   1.0000     -29.940035      -814.7098
   2   1.0000     -25.777290      -701.4357
   3   1.0000     -25.774987      -701.3730
   4   1.0000     -25.758493      -700.9242
   5   1.0000      -4.129774      -112.3769
   6   1.0000      -4.129769      -112.3767
   7   1.0000      -4.124947      -112.2455
   8   1.0000      -4.124892      -112.2440
   9   1.0000      -4.119793      -112.1053
  10   1.0000      -4.118109      -112.0595
  11   1.0000      -4.116149      -112.0061
  12   1.0000      -4.116121      -112.0054
  13   1.0000      -4.116086      -112.0044
  14   1.0000      -4.116078      -112.0042
  15   1.0000      -4.115740      -111.9950
  16   1.0000      -4.115633      -111.9921
  17   1.0000      -4.114199      -111.9530
  18   1.0000      -4.111707      -111.8852
  19   1.0000      -4.105081      -111.7049
  20   1.0000      -3.520934       -95.8095
  21   1.0000      -2.317849       -63.0719
  22   1.0000      -2.317812       -63.0709
  23   1.0000      -2.316962       -63.0478
  24   1.0000      -2.316871       -63.0453
  25   1.0000      -2.313552       -62.9549
  26   1.0000      -2.313440       -62.9519
  27   1.0000      -2.312612       -62.9294
  28   1.0000      -2.312539       -62.9274
  29   1.0000      -2.310864       -62.8818
  30   1.0000      -2.310821       -62.8806
  31   1.0000      -2.309305       -62.8394
  32   1.0000      -2.308520       -62.8180
  33   1.0000      -2.307789       -62.7981
  34   1.0000      -2.307050       -62.7780
  35   1.0000      -2.305852       -62.7454
  36   1.0000      -2.305754       -62.7428
  37   1.0000      -2.305037       -62.7233
  38   1.0000      -2.304925       -62.7202
  39   1.0000      -2.304877       -62.7189
  40   1.0000      -2.304451       -62.7073
  41   1.0000      -2.304194       -62.7003
  42   1.0000      -2.303625       -62.6848
  43   1.0000      -2.303391       -62.6785
  44   1.0000      -2.302669       -62.6588
  45   1.0000      -2.302607       -62.6571
  46   1.0000      -2.302155       -62.6448
  47   1.0000      -2.302033       -62.6415
  48   1.0000      -2.301490       -62.6267
  49   1.0000      -2.301057       -62.6149
  50   1.0000      -2.300157       -62.5905
  51   1.0000      -2.300030       -62.5870
  52   1.0000      -2.299748       -62.5793
  53   1.0000      -2.299545       -62.5738
  54   1.0000      -2.299442       -62.5710
  55   1.0000      -2.298947       -62.5575
  56   1.0000      -2.298238       -62.5382
  57   1.0000      -2.298189       -62.5369
  58   1.0000      -2.298101       -62.5345
  59   1.0000      -2.297413       -62.5158
  60   1.0000      -2.296564       -62.4927
  61   1.0000      -2.296443       -62.4894
  62   1.0000      -2.295506       -62.4639
  63   1.0000      -2.295004       -62.4502
  64   1.0000      -2.294897       -62.4473
  65   1.0000      -2.292080       -62.3707
  66   1.0000      -2.290736       -62.3341
  67   1.0000      -2.289227       -62.2930
  68   1.0000      -2.261665       -61.5430
  69   1.0000      -0.438861       -11.9420
  70   1.0000      -0.402988       -10.9659
  71   1.0000      -0.395318       -10.7571
  72   1.0000      -0.393463       -10.7067
  73   1.0000      -0.391320       -10.6484
  74   1.0000      -0.383780       -10.4432
  75   1.0000      -0.383073       -10.4239
  76   1.0000      -0.379239       -10.3196
  77   1.0000      -0.376727       -10.2513
  78   1.0000      -0.375767       -10.2251
  79   1.0000      -0.370532       -10.0827
  80   1.0000      -0.368750       -10.0342
  81   1.0000      -0.366984        -9.9861
  82   1.0000      -0.363495        -9.8912
  83   1.0000      -0.363100        -9.8804
  84   1.0000      -0.360504        -9.8098
  85   1.0000      -0.359459        -9.7814
  86   1.0000      -0.355642        -9.6775
  87   1.0000      -0.355338        -9.6692
  88   1.0000      -0.353422        -9.6171
  89   1.0000      -0.352950        -9.6042
  90   1.0000      -0.348864        -9.4931
  91   1.0000      -0.345695        -9.4068
  92   1.0000      -0.344815        -9.3829
  93   1.0000      -0.343659        -9.3514
  94   1.0000      -0.342738        -9.3264
  95   1.0000      -0.338794        -9.2191
  96   1.0000      -0.336671        -9.1613
  97   1.0000      -0.333578        -9.0771
  98   1.0000      -0.332835        -9.0569
  99   1.0000      -0.329773        -8.9736
 100   1.0000      -0.328349        -8.9348
 101   1.0000      -0.325653        -8.8615
 102   1.0000      -0.324092        -8.8190
 103   1.0000      -0.322442        -8.7741
 104   1.0000      -0.318594        -8.6694
 105   1.0000      -0.315675        -8.5900
 106   1.0000      -0.313308        -8.5256
 107   1.0000      -0.310130        -8.4391
 108   1.0000      -0.308736        -8.4011
 109   1.0000      -0.307503        -8.3676
 110   1.0000      -0.302147        -8.2218
 111   1.0000      -0.301705        -8.2098
 112   1.0000      -0.301333        -8.1997
 113   1.0000      -0.298758        -8.1296
 114   1.0000      -0.297138        -8.0855
 115   1.0000      -0.291500        -7.9321
 116   1.0000      -0.289028        -7.8649
 117   1.0000      -0.287494        -7.8231
 118   1.0000      -0.286138        -7.7862
 119   1.0000      -0.285361        -7.7651
 120   1.0000      -0.282742        -7.6938
 121   1.0000      -0.282485        -7.6868
 122   1.0000      -0.279816        -7.6142
 123   1.0000      -0.279387        -7.6025
 124   1.0000      -0.277997        -7.5647
 125   1.0000      -0.276849        -7.5334
 126   1.0000      -0.276389        -7.5209
 127   1.0000      -0.274699        -7.4749
 128   1.0000      -0.272369        -7.4115
 129   1.0000      -0.271257        -7.3813
 130   1.0000      -0.270444        -7.3592
 131   1.0000      -0.270387        -7.3576
 132   1.0000      -0.268647        -7.3103
 133   1.0000      -0.268144        -7.2966
 134   1.0000      -0.267525        -7.2797
 135   1.0000      -0.266333        -7.2473
 136   1.0000      -0.264253        -7.1907
 137   1.0000      -0.263837        -7.1794
 138   1.0000      -0.262524        -7.1437
 139   1.0000      -0.262391        -7.1400
 140   1.0000      -0.259767        -7.0686
 141   1.0000      -0.258585        -7.0365
 142   1.0000      -0.257994        -7.0204
 143   1.0000      -0.257520        -7.0075
 144   1.0000      -0.255832        -6.9615
 145   1.0000      -0.254660        -6.9296
 146   1.0000      -0.252771        -6.8783
 147   1.0000      -0.250796        -6.8245
 148   1.0000      -0.249025        -6.7763
 149   1.0000      -0.247396        -6.7320
 150   1.0000      -0.245444        -6.6789
 151   1.0000      -0.244818        -6.6618
 152   1.0000      -0.235346        -6.4041
 153   1.0000      -0.230418        -6.2700
 154   1.0000      -0.211325        -5.7504
 155   1.0000      -0.204790        -5.5726
 156   1.0000      -0.202250        -5.5035
 157   0.0000      -0.189541        -5.1577
 158   0.0000      -0.148151        -4.0314
 159   0.0000      -0.127499        -3.4694
 160   0.0000      -0.125603        -3.4178
 161   0.0000      -0.125470        -3.4142

                 SPIN DOWN ORBITALS
  NO   OCC          E(Eh)            E(eV)
   0   1.0000    -255.641586     -6956.3612
   1   1.0000     -29.861271      -812.5665
   2   1.0000     -25.713306      -699.6946
   3   1.0000     -25.712723      -699.6788
   4   1.0000     -25.704507      -699.4552
   5   1.0000      -4.129400      -112.3667
   6   1.0000      -4.129383      -112.3662
   7   1.0000      -4.124581      -112.2356
   8   1.0000      -4.124539      -112.2344
   9   1.0000      -4.120160      -112.1153
  10   1.0000      -4.118453      -112.0688
  11   1.0000      -4.116362      -112.0119
  12   1.0000      -4.116299      -112.0102
  13   1.0000      -4.116161      -112.0064
  14   1.0000      -4.116120      -112.0053
  15   1.0000      -4.115630      -111.9920
  16   1.0000      -4.115518      -111.9890
  17   1.0000      -4.114676      -111.9660
  18   1.0000      -4.111904      -111.8906
  19   1.0000      -4.105413      -111.7140
  20   1.0000      -3.346408       -91.0604
  21   1.0000      -2.317576       -63.0645
  22   1.0000      -2.317561       -63.0640
  23   1.0000      -2.315863       -63.0178
  24   1.0000      -2.315852       -63.0175
  25   1.0000      -2.312930       -62.9380
  26   1.0000      -2.312866       -62.9363
  27   1.0000      -2.311503       -62.8992
  28   1.0000      -2.311436       -62.8974
  29   1.0000      -2.310679       -62.8768
  30   1.0000      -2.310628       -62.8754
  31   1.0000      -2.309408       -62.8422
  32   1.0000      -2.308388       -62.8144
  33   1.0000      -2.307723       -62.7963
  34   1.0000      -2.307400       -62.7876
  35   1.0000      -2.306216       -62.7553
  36   1.0000      -2.305884       -62.7463
  37   1.0000      -2.305193       -62.7275
  38   1.0000      -2.305069       -62.7241
  39   1.0000      -2.304694       -62.7139
  40   1.0000      -2.304201       -62.7005
  41   1.0000      -2.303929       -62.6931
  42   1.0000      -2.303788       -62.6893
  43   1.0000      -2.303384       -62.6783
  44   1.0000      -2.302916       -62.6655
  45   1.0000      -2.302498       -62.6542
  46   1.0000      -2.302082       -62.6428
  47   1.0000      -2.301689       -62.6321
  48   1.0000      -2.301675       -62.6318
  49   1.0000      -2.301251       -62.6202
  50   1.0000      -2.300372       -62.5963
  51   1.0000      -2.299890       -62.5832
  52   1.0000      -2.299742       -62.5792
  53   1.0000      -2.299717       -62.5785
  54   1.0000      -2.299252       -62.5658
  55   1.0000      -2.298911       -62.5565
  56   1.0000      -2.298385       -62.5422
  57   1.0000      -2.298332       -62.5408
  58   1.0000      -2.297624       -62.5215
  59   1.0000      -2.296782       -62.4986
  60   1.0000      -2.296712       -62.4967
  61   1.0000      -2.295787       -62.4715
  62   1.0000      -2.294951       -62.4488
  63   1.0000      -2.292437       -62.3804
  64   1.0000      -2.291372       -62.3514
  65   1.0000      -2.289513       -62.3008
  66   1.0000      -2.119599       -57.6772
  67   1.0000      -2.118450       -57.6459
  68   1.0000      -2.104453       -57.2651
  69   1.0000      -0.436262       -11.8713
  70   1.0000      -0.401929       -10.9371
  71   1.0000      -0.395049       -10.7498
  72   1.0000      -0.393458       -10.7065
  73   1.0000      -0.382694       -10.4136
  74   1.0000      -0.376490       -10.2448
  75   1.0000      -0.374918       -10.2020
  76   1.0000      -0.373779       -10.1710
  77   1.0000      -0.371456       -10.1078
  78   1.0000      -0.370859       -10.0916
  79   1.0000      -0.366471        -9.9722
  80   1.0000      -0.366398        -9.9702
  81   1.0000      -0.363862        -9.9012
  82   1.0000      -0.363360        -9.8875
  83   1.0000      -0.362441        -9.8625
  84   1.0000      -0.359355        -9.7785
  85   1.0000      -0.359278        -9.7764
  86   1.0000      -0.355045        -9.6613
  87   1.0000      -0.354359        -9.6426
  88   1.0000      -0.351885        -9.5753
  89   1.0000      -0.349760        -9.5174
  90   1.0000      -0.345242        -9.3945
  91   1.0000      -0.345103        -9.3907
  92   1.0000      -0.344490        -9.3741
  93   1.0000      -0.342958        -9.3324
  94   1.0000      -0.339322        -9.2334
  95   1.0000      -0.337275        -9.1777
  96   1.0000      -0.332375        -9.0444
  97   1.0000      -0.331786        -9.0284
  98   1.0000      -0.327945        -8.9238
  99   1.0000      -0.326163        -8.8753
 100   1.0000      -0.324294        -8.8245
 101   1.0000      -0.323458        -8.8017
 102   1.0000      -0.319872        -8.7042
 103   1.0000      -0.316315        -8.6074
 104   1.0000      -0.316094        -8.6013
 105   1.0000      -0.313668        -8.5353
 106   1.0000      -0.310625        -8.4525
 107   1.0000      -0.306265        -8.3339
 108   1.0000      -0.302791        -8.2394
 109   1.0000      -0.302225        -8.2239
 110   1.0000      -0.301791        -8.2122
 111   1.0000      -0.297018        -8.0823
 112   1.0000      -0.296455        -8.0670
 113   1.0000      -0.296443        -8.0666
 114   1.0000      -0.291877        -7.9424
 115   1.0000      -0.289663        -7.8821
 116   1.0000      -0.286817        -7.8047
 117   1.0000      -0.285008        -7.7555
 118   1.0000      -0.284974        -7.7545
 119   1.0000      -0.281039        -7.6475
 120   1.0000      -0.279863        -7.6155
 121   1.0000      -0.279776        -7.6131
 122   1.0000      -0.279249        -7.5988
 123   1.0000      -0.277170        -7.5422
 124   1.0000      -0.277127        -7.5410
 125   1.0000      -0.275569        -7.4986
 126   1.0000      -0.273763        -7.4495
 127   1.0000      -0.271390        -7.3849
 128   1.0000      -0.271101        -7.3770
 129   1.0000      -0.270134        -7.3507
 130   1.0000      -0.268460        -7.3052
 131   1.0000      -0.267920        -7.2905
 132   1.0000      -0.267410        -7.2766
 133   1.0000      -0.264824        -7.2062
 134   1.0000      -0.263466        -7.1693
 135   1.0000      -0.263286        -7.1644
 136   1.0000      -0.260204        -7.0805
 137   1.0000      -0.259659        -7.0657
 138   1.0000      -0.259401        -7.0587
 139   1.0000      -0.256227        -6.9723
 140   1.0000      -0.255089        -6.9413
 141   1.0000      -0.253274        -6.8919
 142   1.0000      -0.251044        -6.8313
 143   1.0000      -0.249177        -6.7805
 144   1.0000      -0.248415        -6.7597
 145   1.0000      -0.246606        -6.7105
 146   1.0000      -0.245786        -6.6882
 147   1.0000      -0.236382        -6.4323
 148   1.0000      -0.233710        -6.3596
 149   1.0000      -0.216042        -5.8788
 150   1.0000      -0.213052        -5.7974
 151   1.0000      -0.208789        -5.6814
 152   1.0000      -0.208044        -5.6612
 153   1.0000      -0.188422        -5.1272
 154   0.0000      -0.155860        -4.2412
 155   0.0000      -0.155678        -4.2362
 156   0.0000      -0.145827        -3.9682
 157   0.0000      -0.136837        -3.7235
 158   0.0000      -0.136667        -3.7189

MULLIKEN ATOMIC CHARGES AND SPIN POPULATIONS
--------------------------------------------
   0 Au:    0.120065    0.033730
   1 Au:    0.156473    0.020647
   2 Au:    0.259704   -0.015089
   3 Au:    0.192501   -0.065058
   4 Au:    0.258867   -0.015503
   5 Au:    0.192554   -0.066550
   6 Au:   -0.176262    0.044955
   7 Au:    0.518584   -0.046217
   8 Au:    0.147791   -0.077278
   9 Au:   -0.177814    0.044850
  10 Au:    0.149308   -0.079764
  11 Au:    0.241686    0.012593
  12 Au:   -0.244414    0.004882
  13 Au:    0.242490    0.011776
  14 Au:    0.244431    0.013620
  15 Fe:   -2.125964    3.178406
Sum of atomic charges         :   -0.0000000

LOEWDIN ATOMIC CHARGES AND SPIN POPULATIONS
-------------------------------------------
   0 Au:    0.022263    0.010018
   1 Au:    0.020653   -0.030081
   2 Au:    0.079710   -0.028924
   3 Au:    0.039773   -0.019794
   4 Au:    0.079684   -0.029042
   5 Au:    0.039136   -0.019987
   6 Au:   -0.081657    0.009206
   7 Au:    0.156457   -0.022775
   8 Au:    0.059483   -0.029002
   9 Au:   -0.081797    0.008862
  10 Au:    0.059141   -0.029710
  11 Au:    0.057621   -0.008998
  12 Au:   -0.066849   -0.024334
  13 Au:    0.057656   -0.009486
  14 Au:    0.031758   -0.032677
  15 Fe:   -0.473032    3.256724

  Mayer bond orders larger than 0.100000
B(  0-Au,  1-Au) :   0.3383 B(  0-Au,  3-Au) :   0.1714 B(  0-Au,  5-Au) :   0.1745
B(  0-Au,  6-Au) :   0.2193 B(  0-Au,  9-Au) :   0.2207 B(  0-Au, 15-Fe) :   0.1962
B(  1-Au,  2-Au) :   0.2107 B(  1-Au,  3-Au) :   0.1473 B(  1-Au,  4-Au) :   0.2105
B(  1-Au,  5-Au) :   0.1492 B(  1-Au, 15-Fe) :   0.3158 B(  2-Au,  3-Au) :   0.2191
B(  2-Au, 11-Au) :   0.2814 B(  2-Au, 15-Fe) :   0.4447 B(  3-Au,  9-Au) :   0.4049
B(  3-Au, 10-Au) :   0.2142 B(  3-Au, 15-Fe) :   0.4673 B(  4-Au,  5-Au) :   0.2188
B(  4-Au, 13-Au) :   0.2815 B(  4-Au, 15-Fe) :   0.4463 B(  5-Au,  6-Au) :   0.4043
B(  5-Au,  8-Au) :   0.2145 B(  5-Au, 15-Fe) :   0.4649 B(  6-Au,  7-Au) :   0.3196
B(  6-Au,  8-Au) :   0.2812 B(  6-Au,  9-Au) :   0.2354 B(  6-Au, 12-Au) :   0.2431
B(  6-Au, 15-Fe) :   0.1917 B(  7-Au,  9-Au) :   0.3210 B(  7-Au, 12-Au) :   0.3428
B(  8-Au, 12-Au) :   0.2090 B(  8-Au, 13-Au) :   0.1562 B(  8-Au, 14-Au) :   0.1245
B(  8-Au, 15-Fe) :   0.5105 B(  9-Au, 10-Au) :   0.2806 B(  9-Au, 12-Au) :   0.2418
B(  9-Au, 15-Fe) :   0.1914 B( 10-Au, 11-Au) :   0.1557 B( 10-Au, 12-Au) :   0.2089
B( 10-Au, 14-Au) :   0.1268 B( 10-Au, 15-Fe) :   0.5080 B( 11-Au, 13-Au) :   0.1557
B( 11-Au, 14-Au) :   0.2002 B( 11-Au, 15-Fe) :   0.4539 B( 12-Au, 14-Au) :   0.4760
B( 12-Au, 15-Fe) :   0.1907 B( 13-Au, 14-Au) :   0.2011 B( 13-Au, 15-Fe) :   0.4520
B( 14-Au, 15-Fe) :   0.2704

FINAL SINGLE POINT ENERGY     -3301.429232381260

DIPOLE MOMENT
-------------
                                X             Y             Z
Electronic contribution:    -32.99158      -5.60074       3.99879
Nuclear contribution   :     33.03728       5.62148      -3.91837
                        -----------------------------------------
Total Dipole Moment    :      0.04570       0.02073       0.08043
                        -----------------------------------------
Magnitude (a.u.)       :      0.09480
Magnitude (Debye)      :      0.24096

Rotational constants in cm-1:     0.001126     0.000877     0.000763
Rotational constants in MHz :    33.743519    26.297830    22.888199

                             ****ORCA TERMINATED NORMALLY****
TOTAL RUN TIME: 0 days 0 hours 10 minutes 52 seconds 116 msec
