                         Program Version 5.0.3 -  RELEASE  -
|  1> !SC-NEVPT2 def2-TZVP def2-TZVP/C
|  2> !MOREAD RIJCOSX def2/J
|  3> %maxcore 4000
|  4> %moinp "casscf.gbw"
|  5> %pal nprocs 8 end
|  6>
|  7> %casscf
|  8>  mult 5,3
|  9>  bweight 1,1
| 10>  nroots 5,45
| 11>  nel 6
| 12>  norb 5
| 13>  ptsettings
| 14>   d4tpre 1e-14 # default = 1e-10
| 15>   d3tpre 1e-14
| 16>  end
| 17>  rel
| 18>    dosoc true
| 19>    gtensor true
| 20>  end
| 21> end
| 22>
| 23>
| 24> *xyzfile 0 5 pbe.xyz
| 25>
| 26>
| 27>                          ****END OF INPUT****

CARTESIAN COORDINATES (ANGSTROEM)
---------------------------------
  Au     5.568225   10.654325    6.908268
  Au     6.707828   10.017025   10.874113
  Au     9.771579    8.185229    7.450001
  Au     7.393595    7.085246    5.725351
  Au     9.599364    8.229084    4.693930
  Au     4.963516    7.957749    6.648424
  Au     8.154734   10.093442    6.121497
  Au     9.161243    9.121290    9.848369
  Au     7.689785   11.230085    8.595430
  Au     4.577492    9.247494    9.096527
  Au     6.083491    7.262682   10.377872
  Au     6.420726    5.980095    8.029376
  Cr     7.104557    8.593466    8.236307

 Total Charge           Charge          ....    0
 Multiplicity           Mult            ....    5
 Number of Electrons    NEL             ....  252
 Basis Dimension        Dim             ....  525

ORBITAL ENERGIES
----------------

  NO   OCC          E(Eh)            E(eV)
   0   2.0000    -220.500134     -6000.1137
   1   2.0000     -26.339407      -716.7317
   2   2.0000     -22.275022      -606.1342
   3   2.0000     -22.270883      -606.0215
   4   2.0000     -22.259181      -605.7031
   5   2.0000      -4.718231      -128.3896
   6   2.0000      -4.716772      -128.3499
   7   2.0000      -4.715254      -128.3086
   8   2.0000      -4.711969      -128.2192
   9   2.0000      -4.711380      -128.2032
  10   2.0000      -4.709341      -128.1477
  11   2.0000      -4.707847      -128.1070
  12   2.0000      -4.704304      -128.0106
  13   2.0000      -4.700702      -127.9126
  14   2.0000      -4.699049      -127.8676
  15   2.0000      -4.697249      -127.8187
  16   2.0000      -4.693596      -127.7192
  17   2.0000      -3.393354       -92.3379
  18   2.0000      -2.759774       -75.0973
  19   2.0000      -2.756315       -75.0032
  20   2.0000      -2.754977       -74.9667
  21   2.0000      -2.754241       -74.9467
  22   2.0000      -2.754021       -74.9407
  23   2.0000      -2.753921       -74.9380
  24   2.0000      -2.752231       -74.8920
  25   2.0000      -2.751469       -74.8713
  26   2.0000      -2.751217       -74.8644
  27   2.0000      -2.750387       -74.8418
  28   2.0000      -2.749800       -74.8259
  29   2.0000      -2.748769       -74.7978
  30   2.0000      -2.747368       -74.7597
  31   2.0000      -2.747153       -74.7538
  32   2.0000      -2.746486       -74.7357
  33   2.0000      -2.745177       -74.7001
  34   2.0000      -2.744527       -74.6824
  35   2.0000      -2.744137       -74.6718
  36   2.0000      -2.743077       -74.6429
  37   2.0000      -2.742678       -74.6320
  38   2.0000      -2.742530       -74.6280
  39   2.0000      -2.741480       -74.5995
  40   2.0000      -2.740350       -74.5687
  41   2.0000      -2.738800       -74.5265
  42   2.0000      -2.737763       -74.4983
  43   2.0000      -2.736531       -74.4648
  44   2.0000      -2.735649       -74.4408
  45   2.0000      -2.734164       -74.4004
  46   2.0000      -2.734021       -74.3965
  47   2.0000      -2.732418       -74.3529
  48   2.0000      -2.732120       -74.3448
  49   2.0000      -2.731973       -74.3408
  50   2.0000      -2.731173       -74.3190
  51   2.0000      -2.729155       -74.2641
  52   2.0000      -2.727263       -74.2126
  53   2.0000      -2.725933       -74.1764
  54   2.0000      -2.159733       -58.7693
  55   2.0000      -2.156305       -58.6760
  56   2.0000      -2.146218       -58.4016
  57   2.0000      -0.556112       -15.1326
  58   2.0000      -0.555732       -15.1222
  59   2.0000      -0.550247       -14.9730
  60   2.0000      -0.545575       -14.8458
  61   2.0000      -0.542955       -14.7746
  62   2.0000      -0.535713       -14.5775
  63   2.0000      -0.533477       -14.5166
  64   2.0000      -0.531514       -14.4632
  65   2.0000      -0.529932       -14.4202
  66   2.0000      -0.527018       -14.3409
  67   2.0000      -0.525465       -14.2986
  68   2.0000      -0.523805       -14.2535
  69   2.0000      -0.522403       -14.2153
  70   2.0000      -0.520292       -14.1579
  71   2.0000      -0.517529       -14.0827
  72   2.0000      -0.515203       -14.0194
  73   2.0000      -0.511434       -13.9168
  74   2.0000      -0.508756       -13.8440
  75   2.0000      -0.504771       -13.7355
  76   2.0000      -0.502436       -13.6720
  77   2.0000      -0.499039       -13.5795
  78   2.0000      -0.496486       -13.5101
  79   2.0000      -0.495652       -13.4874
  80   2.0000      -0.493211       -13.4209
  81   2.0000      -0.492465       -13.4007
  82   2.0000      -0.485413       -13.2088
  83   2.0000      -0.482759       -13.1365
  84   2.0000      -0.481653       -13.1065
  85   2.0000      -0.477199       -12.9853
  86   2.0000      -0.473170       -12.8756
  87   2.0000      -0.470578       -12.8051
  88   2.0000      -0.468548       -12.7498
  89   2.0000      -0.465163       -12.6577
  90   2.0000      -0.463609       -12.6154
  91   2.0000      -0.460326       -12.5261
  92   2.0000      -0.459403       -12.5010
  93   2.0000      -0.454288       -12.3618
  94   2.0000      -0.453739       -12.3469
  95   2.0000      -0.452758       -12.3202
  96   2.0000      -0.450583       -12.2610
  97   2.0000      -0.448570       -12.2062
  98   2.0000      -0.445776       -12.1302
  99   2.0000      -0.442991       -12.0544
 100   2.0000      -0.442156       -12.0317
 101   2.0000      -0.437377       -11.9016
 102   2.0000      -0.436838       -11.8870
 103   2.0000      -0.434150       -11.8138
 104   2.0000      -0.433137       -11.7863
 105   2.0000      -0.431227       -11.7343
 106   2.0000      -0.429606       -11.6902
 107   2.0000      -0.425354       -11.5745
 108   2.0000      -0.423246       -11.5171
 109   2.0000      -0.422816       -11.5054
 110   2.0000      -0.420542       -11.4435
 111   2.0000      -0.418264       -11.3815
 112   2.0000      -0.416956       -11.3459
 113   2.0000      -0.412421       -11.2225
 114   2.0000      -0.408283       -11.1099
 115   2.0000      -0.402121       -10.9423
 116   2.0000      -0.394604       -10.7377
 117   2.0000      -0.381747       -10.3879
 118   2.0000      -0.354720        -9.6524
 119   2.0000      -0.336179        -9.1479
 120   2.0000      -0.305962        -8.3256
 121   2.0000      -0.252277        -6.8648
 122   2.0000      -0.219510        -5.9732
 123   1.2000      -0.103986        -2.8296
 124   1.2000      -0.122345        -3.3292
 125   1.2000      -0.108609        -2.9554
 126   1.2000      -0.105138        -2.8609
 127   1.2000      -0.085205        -2.3185
 128   0.0000      -0.012873        -0.3503
 129   0.0000      -0.008249        -0.2245
 130   0.0000      -0.005058        -0.1376
 131   0.0000       0.008807         0.2397
 132   0.0000       0.024128         0.6566

MULLIKEN ATOMIC CHARGES AND SPIN DENSITIES
------------------------------------------
   0 Au:    0.396436    0.027002
   1 Au:    0.413510    0.034604
   2 Au:    0.168520    0.008986
   3 Au:    0.164540    0.026580
   4 Au:    0.325492    0.013403
   5 Au:    0.614078    0.028507
   6 Au:    0.154888    0.043669
   7 Au:    0.379199    0.011058
   8 Au:    0.530180    0.021480
   9 Au:    0.434819    0.027260
  10 Au:    0.379550    0.074144
  11 Au:    0.441372    0.044032
  12 Cr:   -4.402585    2.639276
Sum of atomic charges       :    0.0000000

LOEWDIN ATOMIC CHARGES AND SPIN DENSITIES
-----------------------------------------
   0 Au:    0.146225    0.054123
   1 Au:    0.095455    0.045476
   2 Au:    0.015613    0.026483
   3 Au:   -0.004858    0.039636
   4 Au:    0.178497    0.018219
   5 Au:    0.097530    0.050926
   6 Au:    0.025302    0.052871
   7 Au:    0.097961    0.038107
   8 Au:    0.091538    0.050450
   9 Au:    0.078964    0.045495
  10 Au:    0.153904    0.102155
  11 Au:    0.154249    0.086115
  12 Cr:   -1.130379    2.389944

  Mayer bond orders larger than 0.100000
B(  0-Au,  5-Au) :   0.1632 B(  0-Au,  6-Au) :   0.2284 B(  0-Au,  8-Au) :   0.1458
B(  0-Au,  9-Au) :   0.1934 B(  0-Au, 12-Cr) :   0.3827 B(  1-Au,  7-Au) :   0.1524
B(  1-Au,  8-Au) :   0.1910 B(  1-Au,  9-Au) :   0.1343 B(  1-Au, 10-Au) :   0.1400
B(  1-Au, 12-Cr) :   0.3809 B(  2-Au,  3-Au) :   0.1036 B(  2-Au,  4-Au) :   0.2319
B(  2-Au,  6-Au) :   0.1468 B(  2-Au,  7-Au) :   0.4048 B(  2-Au, 12-Cr) :   0.4704
B(  3-Au,  4-Au) :   0.2910 B(  3-Au,  5-Au) :   0.1560 B(  3-Au,  6-Au) :   0.1289
B(  3-Au, 11-Au) :   0.2463 B(  3-Au, 12-Cr) :   0.4589 B(  4-Au,  6-Au) :   0.3286
B(  4-Au, 12-Cr) :   0.3298 B(  5-Au,  7-Au) :   0.1464 B(  5-Au,  9-Au) :   0.1505
B(  5-Au, 12-Cr) :   0.2716 B(  6-Au,  8-Au) :   0.1885 B(  6-Au, 10-Au) :   0.1054
B(  6-Au, 12-Cr) :   0.4286 B(  7-Au, 12-Cr) :   0.3841 B(  8-Au, 11-Au) :   0.1504
B(  8-Au, 12-Cr) :   0.2937 B(  9-Au, 10-Au) :   0.1332 B(  9-Au, 12-Cr) :   0.4000
B( 10-Au, 11-Au) :   0.2179 B( 10-Au, 12-Cr) :   0.3409 B( 11-Au, 12-Cr) :   0.3323

FINAL SINGLE POINT ENERGY     -2667.637484267359

DIPOLE MOMENT
-------------
                                X             Y             Z
Electronic contribution:      2.12484       5.74887     -13.20144
Nuclear contribution   :     -2.44804      -5.68115      13.06540
                        -----------------------------------------
Total Dipole Moment    :     -0.32321       0.06771      -0.13604
                        -----------------------------------------
Magnitude (a.u.)       :      0.35715
Magnitude (Debye)      :      0.90780

Rotational constants in cm-1:     0.001583     0.001177     0.001076
Rotational constants in MHz :    47.458984    35.294942    32.260521

                             ****ORCA TERMINATED NORMALLY****
TOTAL RUN TIME: 0 days 0 hours 45 minutes 26 seconds 377 msec
