                         Program Version 5.0.3 -  RELEASE  -
|  1> !SC-NEVPT2 def2-TZVP def2-TZVP/C
|  2> !MOREAD RIJCOSX def2/J
|  3> %maxcore 4000
|  4> %moinp "casscf.gbw"
|  5> %pal nprocs 8 end
|  6>
|  7> %casscf
|  8>  mult 5,3
|  9>  bweight 1,1
| 10>  nroots 5,45
| 11>  nel 6
| 12>  norb 5
| 13>  ptsettings
| 14>   d4tpre 1e-14 # default = 1e-10
| 15>   d3tpre 1e-14
| 16>  end
| 17>  rel
| 18>    dosoc true
| 19>    gtensor true
| 20>  end
| 21> end
| 22>
| 23>
| 24> *xyzfile 0 5 pbe.xyz
| 25>
| 26>
| 27>                          ****END OF INPUT****

CARTESIAN COORDINATES (ANGSTROEM)
---------------------------------
  Au     6.936422    5.441489    8.102389
  Au     9.413759    5.408465    9.238192
  Au     5.545139    7.596150    7.093305
  Au     8.370745    9.699361   10.651653
  Au    10.241532    7.721885   10.542859
  Au     6.014834    9.321355    9.188003
  Au     7.381741    7.106148   10.260792
  Au    10.312030    9.661058    8.446402
  Au    11.335754    7.037710    8.085769
  Au     9.331356    5.982915    6.432396
  Au     7.971457   11.320400    8.484440
  Au     6.797917    5.802356    5.331829
  Au     7.958842    8.274251    5.040505
  Au     6.384650   10.145715    6.478642
  Au    10.665189    8.390565    5.824000
  Au     9.113613   10.622697    6.068825
  Cr     8.160016    8.148074    7.808882

 Total Charge           Charge          ....    0
 Multiplicity           Mult            ....    5
 Number of Electrons    NEL             ....  328
 Basis Dimension        Dim             ....  685

ORBITAL ENERGIES
----------------

  NO   OCC          E(Eh)            E(eV)
   0   2.0000    -220.481747     -5999.6133
   1   2.0000     -26.311372      -715.9688
   2   2.0000     -22.250213      -605.4591
   3   2.0000     -22.239752      -605.1744
   4   2.0000     -22.232905      -604.9881
   5   2.0000      -4.727372      -128.6383
   6   2.0000      -4.722199      -128.4976
   7   2.0000      -4.719446      -128.4227
   8   2.0000      -4.719013      -128.4109
   9   2.0000      -4.718245      -128.3900
  10   2.0000      -4.717503      -128.3698
  11   2.0000      -4.715212      -128.3074
  12   2.0000      -4.713159      -128.2516
  13   2.0000      -4.713047      -128.2485
  14   2.0000      -4.712729      -128.2399
  15   2.0000      -4.712699      -128.2391
  16   2.0000      -4.711036      -128.1938
  17   2.0000      -4.710982      -128.1923
  18   2.0000      -4.709167      -128.1429
  19   2.0000      -4.707899      -128.1084
  20   2.0000      -4.705207      -128.0352
  21   2.0000      -3.372071       -91.7587
  22   2.0000      -2.764861       -75.2357
  23   2.0000      -2.764006       -75.2124
  24   2.0000      -2.763392       -75.1957
  25   2.0000      -2.761907       -75.1553
  26   2.0000      -2.760135       -75.1071
  27   2.0000      -2.759603       -75.0926
  28   2.0000      -2.758623       -75.0659
  29   2.0000      -2.757645       -75.0393
  30   2.0000      -2.757527       -75.0361
  31   2.0000      -2.756415       -75.0059
  32   2.0000      -2.756195       -74.9999
  33   2.0000      -2.755130       -74.9709
  34   2.0000      -2.754375       -74.9504
  35   2.0000      -2.753783       -74.9342
  36   2.0000      -2.753710       -74.9323
  37   2.0000      -2.753116       -74.9161
  38   2.0000      -2.752824       -74.9082
  39   2.0000      -2.752357       -74.8955
  40   2.0000      -2.752127       -74.8892
  41   2.0000      -2.752037       -74.8867
  42   2.0000      -2.751502       -74.8722
  43   2.0000      -2.751259       -74.8656
  44   2.0000      -2.750921       -74.8564
  45   2.0000      -2.749839       -74.8269
  46   2.0000      -2.749465       -74.8167
  47   2.0000      -2.749180       -74.8090
  48   2.0000      -2.749046       -74.8053
  49   2.0000      -2.748949       -74.8027
  50   2.0000      -2.747941       -74.7753
  51   2.0000      -2.747579       -74.7654
  52   2.0000      -2.747400       -74.7606
  53   2.0000      -2.747021       -74.7502
  54   2.0000      -2.746594       -74.7386
  55   2.0000      -2.746421       -74.7339
  56   2.0000      -2.746182       -74.7274
  57   2.0000      -2.745798       -74.7170
  58   2.0000      -2.745458       -74.7077
  59   2.0000      -2.744986       -74.6949
  60   2.0000      -2.744879       -74.6920
  61   2.0000      -2.744548       -74.6830
  62   2.0000      -2.743482       -74.6539
  63   2.0000      -2.742846       -74.6366
  64   2.0000      -2.742710       -74.6329
  65   2.0000      -2.742094       -74.6162
  66   2.0000      -2.741424       -74.5979
  67   2.0000      -2.740095       -74.5618
  68   2.0000      -2.739646       -74.5496
  69   2.0000      -2.738726       -74.5245
  70   2.0000      -2.143555       -58.3291
  71   2.0000      -2.135295       -58.1043
  72   2.0000      -2.128903       -57.9304
  73   2.0000      -0.558743       -15.2042
  74   2.0000      -0.557489       -15.1700
  75   2.0000      -0.555232       -15.1086
  76   2.0000      -0.553938       -15.0734
  77   2.0000      -0.552548       -15.0356
  78   2.0000      -0.551146       -14.9974
  79   2.0000      -0.548861       -14.9353
  80   2.0000      -0.548462       -14.9244
  81   2.0000      -0.546920       -14.8824
  82   2.0000      -0.546086       -14.8598
  83   2.0000      -0.544363       -14.8129
  84   2.0000      -0.544249       -14.8098
  85   2.0000      -0.541615       -14.7381
  86   2.0000      -0.540441       -14.7062
  87   2.0000      -0.538886       -14.6638
  88   2.0000      -0.538460       -14.6523
  89   2.0000      -0.536875       -14.6091
  90   2.0000      -0.536430       -14.5970
  91   2.0000      -0.535152       -14.5622
  92   2.0000      -0.533845       -14.5267
  93   2.0000      -0.533158       -14.5080
  94   2.0000      -0.531405       -14.4603
  95   2.0000      -0.529848       -14.4179
  96   2.0000      -0.528323       -14.3764
  97   2.0000      -0.525584       -14.3019
  98   2.0000      -0.524380       -14.2691
  99   2.0000      -0.521792       -14.1987
 100   2.0000      -0.519034       -14.1236
 101   2.0000      -0.517181       -14.0732
 102   2.0000      -0.509555       -13.8657
 103   2.0000      -0.508499       -13.8370
 104   2.0000      -0.505399       -13.7526
 105   2.0000      -0.501788       -13.6543
 106   2.0000      -0.500851       -13.6288
 107   2.0000      -0.498905       -13.5759
 108   2.0000      -0.497506       -13.5378
 109   2.0000      -0.494478       -13.4554
 110   2.0000      -0.493791       -13.4367
 111   2.0000      -0.487995       -13.2790
 112   2.0000      -0.485742       -13.2177
 113   2.0000      -0.481134       -13.0923
 114   2.0000      -0.473880       -12.8949
 115   2.0000      -0.472939       -12.8693
 116   2.0000      -0.472196       -12.8491
 117   2.0000      -0.469476       -12.7751
 118   2.0000      -0.466631       -12.6977
 119   2.0000      -0.460806       -12.5392
 120   2.0000      -0.459009       -12.4903
 121   2.0000      -0.458362       -12.4727
 122   2.0000      -0.457975       -12.4621
 123   2.0000      -0.456177       -12.4132
 124   2.0000      -0.454575       -12.3696
 125   2.0000      -0.453743       -12.3470
 126   2.0000      -0.450566       -12.2605
 127   2.0000      -0.448793       -12.2123
 128   2.0000      -0.447208       -12.1691
 129   2.0000      -0.446251       -12.1431
 130   2.0000      -0.444535       -12.0964
 131   2.0000      -0.443796       -12.0763
 132   2.0000      -0.442429       -12.0391
 133   2.0000      -0.441287       -12.0080
 134   2.0000      -0.437573       -11.9070
 135   2.0000      -0.436493       -11.8776
 136   2.0000      -0.435313       -11.8455
 137   2.0000      -0.432859       -11.7787
 138   2.0000      -0.430764       -11.7217
 139   2.0000      -0.430188       -11.7060
 140   2.0000      -0.429291       -11.6816
 141   2.0000      -0.427733       -11.6392
 142   2.0000      -0.425574       -11.5804
 143   2.0000      -0.423100       -11.5131
 144   2.0000      -0.419747       -11.4219
 145   2.0000      -0.417656       -11.3650
 146   2.0000      -0.415478       -11.3057
 147   2.0000      -0.414648       -11.2831
 148   2.0000      -0.413315       -11.2469
 149   2.0000      -0.407085       -11.0773
 150   2.0000      -0.406160       -11.0522
 151   2.0000      -0.404645       -11.0110
 152   2.0000      -0.397043       -10.8041
 153   2.0000      -0.387605       -10.5473
 154   2.0000      -0.370965       -10.0945
 155   2.0000      -0.370306       -10.0765
 156   2.0000      -0.359003        -9.7690
 157   2.0000      -0.261022        -7.1028
 158   2.0000      -0.251079        -6.8322
 159   2.0000      -0.238847        -6.4994
 160   2.0000      -0.236845        -6.4449
 161   1.2000      -0.094917        -2.5828
 162   1.2000      -0.067045        -1.8244
 163   1.2000      -0.111855        -3.0437
 164   1.2000      -0.142811        -3.8861
 165   1.2000      -0.060109        -1.6356
 166   0.0000      -0.027414        -0.7460
 167   0.0000      -0.008809        -0.2397
 168   0.0000      -0.007800        -0.2122
 169   0.0000      -0.002800        -0.0762
 170   0.0000      -0.002338        -0.0636

MULLIKEN ATOMIC CHARGES AND SPIN DENSITIES
------------------------------------------
   0 Au:    0.395689    0.034455
   1 Au:    0.425657    0.021437
   2 Au:    0.424573    0.026532
   3 Au:    0.488990    0.018176
   4 Au:    0.269254    0.014101
   5 Au:    0.498138    0.010444
   6 Au:    0.400975    0.006598
   7 Au:    0.167822    0.041711
   8 Au:    0.386931    0.015724
   9 Au:    0.228467    0.036222
  10 Au:    0.401618    0.018192
  11 Au:    0.471029    0.021755
  12 Au:    0.352807    0.031543
  13 Au:    0.459399    0.016583
  14 Au:    0.444616    0.024400
  15 Au:    0.522040    0.016932
  16 Cr:   -6.338004    2.645196
Sum of atomic charges       :    0.0000000

LOEWDIN ATOMIC CHARGES AND SPIN DENSITIES
-----------------------------------------
   0 Au:    0.089734    0.051634
   1 Au:    0.084912    0.025012
   2 Au:    0.097337    0.054076
   3 Au:    0.100412    0.024812
   4 Au:    0.078164    0.024419
   5 Au:    0.100018    0.033308
   6 Au:    0.077877    0.031474
   7 Au:    0.065467    0.053793
   8 Au:    0.083815    0.040423
   9 Au:    0.040841    0.040430
  10 Au:    0.094650    0.030046
  11 Au:    0.198663    0.039369
  12 Au:    0.063840    0.036393
  13 Au:    0.105488    0.025594
  14 Au:    0.113944    0.048797
  15 Au:    0.102196    0.040004
  16 Cr:   -1.497358    2.400416

  Mayer bond orders larger than 0.100000
B(  0-Au,  1-Au) :   0.1751 B(  0-Au,  2-Au) :   0.1298 B(  0-Au,  6-Au) :   0.1763
B(  0-Au,  9-Au) :   0.1558 B(  0-Au, 11-Au) :   0.1480 B(  0-Au, 16-Cr) :   0.3336
B(  1-Au,  4-Au) :   0.1351 B(  1-Au,  6-Au) :   0.1473 B(  1-Au,  8-Au) :   0.1356
B(  1-Au,  9-Au) :   0.1365 B(  1-Au, 16-Cr) :   0.3539 B(  2-Au,  5-Au) :   0.1782
B(  2-Au,  7-Au) :   0.1290 B(  2-Au, 11-Au) :   0.1277 B(  2-Au, 12-Au) :   0.1082
B(  2-Au, 13-Au) :   0.1886 B(  2-Au, 16-Cr) :   0.3339 B(  3-Au,  4-Au) :   0.1415
B(  3-Au,  5-Au) :   0.1380 B(  3-Au,  6-Au) :   0.1356 B(  3-Au,  7-Au) :   0.1212
B(  3-Au, 10-Au) :   0.1395 B(  3-Au, 16-Cr) :   0.3815 B(  4-Au,  7-Au) :   0.1853
B(  4-Au,  8-Au) :   0.1616 B(  4-Au, 16-Cr) :   0.5126 B(  5-Au,  6-Au) :   0.1661
B(  5-Au,  9-Au) :   0.1125 B(  5-Au, 13-Au) :   0.1380 B(  5-Au, 16-Cr) :   0.2658
B(  6-Au, 12-Au) :   0.1411 B(  6-Au, 16-Cr) :   0.2699 B(  7-Au,  8-Au) :   0.1194
B(  7-Au, 10-Au) :   0.1864 B(  7-Au, 14-Au) :   0.1118 B(  7-Au, 15-Au) :   0.1630
B(  7-Au, 16-Cr) :   0.3188 B(  8-Au,  9-Au) :   0.1742 B(  8-Au, 14-Au) :   0.1352
B(  8-Au, 16-Cr) :   0.5043 B(  9-Au, 11-Au) :   0.1942 B(  9-Au, 12-Au) :   0.1219
B(  9-Au, 14-Au) :   0.1126 B(  9-Au, 16-Cr) :   0.2634 B( 10-Au, 13-Au) :   0.1288
B( 10-Au, 15-Au) :   0.1511 B( 10-Au, 16-Cr) :   0.4044 B( 11-Au, 12-Au) :   0.1686
B( 11-Au, 16-Cr) :   0.4174 B( 12-Au, 13-Au) :   0.1534 B( 12-Au, 14-Au) :   0.1039
B( 12-Au, 15-Au) :   0.1363 B( 12-Au, 16-Cr) :   0.2498 B( 13-Au, 15-Au) :   0.1213
B( 13-Au, 16-Cr) :   0.2687 B( 14-Au, 15-Au) :   0.1307 B( 14-Au, 16-Cr) :   0.5369
B( 15-Au, 16-Cr) :   0.3563

FINAL SINGLE POINT ENERGY     -3208.269354406858

DIPOLE MOMENT
-------------
                                X             Y             Z
Electronic contribution:      6.89664      -2.00422       0.33187
Nuclear contribution   :     -7.09090       1.84549      -0.72325
                        -----------------------------------------
Total Dipole Moment    :     -0.19426      -0.15873      -0.39138
                        -----------------------------------------
Magnitude (a.u.)       :      0.46488
Magnitude (Debye)      :      1.18163

Rotational constants in cm-1:     0.000877     0.000866     0.000783
Rotational constants in MHz :    26.304032    25.969922    23.486064

                             ****ORCA TERMINATED NORMALLY****
TOTAL RUN TIME: 0 days 2 hours 4 minutes 21 seconds 386 msec
