                         Program Version 5.0.3 -  RELEASE  -
|  1> !RI-B2PLYP def2-TZVP def2-TZVP/C
|  2> !RIJCOSX VERYSLOWCONV
|  3>
|  4> %scf
|  5>   AutoTRAHIter 200
|  6>   maxiter 400
|  7> end
|  8>
|  9>
| 10> %pal nprocs 6 end
| 11>
| 12> *xyzfile 0 5 pbe.xyz
| 13>
| 14> $new_job
| 15>
| 16> !RI-B2PLYP def2-TZVP def2-TZVP/C
| 17> !RIJCOSX VERYSLOWCONV
| 18>
| 19> %scf
| 20>   AutoTRAHIter 200
| 21>   maxiter 400
| 22> end
| 23>
| 24>
| 25> %pal nprocs 6 end
| 26>
| 27> *xyzfile 0 3 pbe.xyz
| 28>
| 29>
| 30>
| 31>
| 32>
| 33>                          ****END OF INPUT****
 Total Charge           Charge          ....    0
 Multiplicity           Mult            ....    5
 Number of Electrons    NEL             ....  254
MP2 TOTAL ENERGY:    -2890.525253859 Eh
FINAL SINGLE POINT ENERGY     -2890.525253858683

CARTESIAN COORDINATES (ANGSTROEM)
---------------------------------
  Au     7.870552    7.660447    6.616725
  Au     6.530426    5.274785    6.810537
  Au     9.224945    5.225703    7.795816
  Au    11.727857    8.770919    8.831076
  Au     9.400320    9.779146    7.395573
  Au    10.741287    7.212910    6.763118
  Au    10.780754    7.541372   11.146405
  Au     9.616068   10.028993   10.162712
  Au     7.875538    8.129260   11.177177
  Au     9.028726    5.510302   10.657801
  Au     7.250332    3.957279    9.260531
  Au     6.750565    6.778674    9.121643
  Fe     9.277243    7.632082    8.957268

 Multiplicity           Mult            ....    3
 Number of Electrons    NEL             ....  254
 Basis Dimension        Dim             ....  525

ORBITAL ENERGIES
----------------
                 SPIN UP ORBITALS
  NO   OCC          E(Eh)            E(eV)
   0   1.0000    -258.331780     -7029.5651
   1   1.0000     -30.892464      -840.6267
   2   1.0000     -26.607336      -724.0224
   3   1.0000     -26.592391      -723.6158
   4   1.0000     -26.572231      -723.0672
   5   1.0000      -4.403689      -119.8305
   6   1.0000      -4.403635      -119.8290
   7   1.0000      -4.399060      -119.7045
   8   1.0000      -4.399032      -119.7038
   9   1.0000      -4.397577      -119.6642
  10   1.0000      -4.397564      -119.6638
  11   1.0000      -4.393515      -119.5536
  12   1.0000      -4.393344      -119.5490
  13   1.0000      -4.392138      -119.5161
  14   1.0000      -4.392022      -119.5130
  15   1.0000      -4.387407      -119.3874
  16   1.0000      -4.387299      -119.3845
  17   1.0000      -3.903753      -106.2265
  18   1.0000      -2.647624       -72.0455
  19   1.0000      -2.616768       -71.2059
  20   1.0000      -2.572136       -69.9914
  21   1.0000      -2.525715       -68.7282
  22   1.0000      -2.525568       -68.7242
  23   1.0000      -2.522809       -68.6491
  24   1.0000      -2.522076       -68.6292
  25   1.0000      -2.520189       -68.5778
  26   1.0000      -2.520168       -68.5773
  27   1.0000      -2.518599       -68.5346
  28   1.0000      -2.518273       -68.5257
  29   1.0000      -2.518001       -68.5183
  30   1.0000      -2.517783       -68.5124
  31   1.0000      -2.517346       -68.5005
  32   1.0000      -2.516198       -68.4692
  33   1.0000      -2.516135       -68.4675
  34   1.0000      -2.515244       -68.4433
  35   1.0000      -2.515028       -68.4374
  36   1.0000      -2.513486       -68.3954
  37   1.0000      -2.512876       -68.3788
  38   1.0000      -2.512852       -68.3782
  39   1.0000      -2.512213       -68.3608
  40   1.0000      -2.512097       -68.3576
  41   1.0000      -2.511618       -68.3446
  42   1.0000      -2.511142       -68.3317
  43   1.0000      -2.510233       -68.3069
  44   1.0000      -2.510050       -68.3019
  45   1.0000      -2.509092       -68.2759
  46   1.0000      -2.507880       -68.2429
  47   1.0000      -2.507459       -68.2314
  48   1.0000      -2.506428       -68.2034
  49   1.0000      -2.506158       -68.1960
  50   1.0000      -2.505966       -68.1908
  51   1.0000      -2.505358       -68.1742
  52   1.0000      -2.505292       -68.1725
  53   1.0000      -2.504920       -68.1623
  54   1.0000      -2.502739       -68.1030
  55   1.0000      -2.502095       -68.0855
  56   1.0000      -2.501920       -68.0807
  57   1.0000      -0.561234       -15.2720
  58   1.0000      -0.560007       -15.2386
  59   1.0000      -0.538043       -14.6409
  60   1.0000      -0.527638       -14.3578
  61   1.0000      -0.519217       -14.1286
  62   1.0000      -0.478991       -13.0340
  63   1.0000      -0.476606       -12.9691
  64   1.0000      -0.467771       -12.7287
  65   1.0000      -0.462935       -12.5971
  66   1.0000      -0.459046       -12.4913
  67   1.0000      -0.457124       -12.4390
  68   1.0000      -0.453727       -12.3466
  69   1.0000      -0.453584       -12.3427
  70   1.0000      -0.446682       -12.1548
  71   1.0000      -0.443960       -12.0808
  72   1.0000      -0.442502       -12.0411
  73   1.0000      -0.441874       -12.0240
  74   1.0000      -0.440757       -11.9936
  75   1.0000      -0.434600       -11.8261
  76   1.0000      -0.433125       -11.7859
  77   1.0000      -0.430723       -11.7206
  78   1.0000      -0.425883       -11.5889
  79   1.0000      -0.425544       -11.5797
  80   1.0000      -0.425513       -11.5788
  81   1.0000      -0.421035       -11.4569
  82   1.0000      -0.420303       -11.4370
  83   1.0000      -0.418712       -11.3937
  84   1.0000      -0.413275       -11.2458
  85   1.0000      -0.411365       -11.1938
  86   1.0000      -0.407623       -11.0920
  87   1.0000      -0.404706       -11.0126
  88   1.0000      -0.396103       -10.7785
  89   1.0000      -0.394357       -10.7310
  90   1.0000      -0.391681       -10.6582
  91   1.0000      -0.386483       -10.5167
  92   1.0000      -0.386374       -10.5138
  93   1.0000      -0.383397       -10.4328
  94   1.0000      -0.380148       -10.3444
  95   1.0000      -0.377677       -10.2771
  96   1.0000      -0.377317       -10.2673
  97   1.0000      -0.376931       -10.2568
  98   1.0000      -0.371743       -10.1157
  99   1.0000      -0.370345       -10.0776
 100   1.0000      -0.368925       -10.0390
 101   1.0000      -0.368877       -10.0377
 102   1.0000      -0.366754        -9.9799
 103   1.0000      -0.365422        -9.9437
 104   1.0000      -0.363975        -9.9043
 105   1.0000      -0.363956        -9.9038
 106   1.0000      -0.362197        -9.8559
 107   1.0000      -0.359302        -9.7771
 108   1.0000      -0.358481        -9.7548
 109   1.0000      -0.357072        -9.7164
 110   1.0000      -0.355444        -9.6721
 111   1.0000      -0.354084        -9.6351
 112   1.0000      -0.351570        -9.5667
 113   1.0000      -0.347542        -9.4571
 114   1.0000      -0.346117        -9.4183
 115   1.0000      -0.346025        -9.4158
 116   1.0000      -0.342289        -9.3142
 117   1.0000      -0.341034        -9.2800
 118   1.0000      -0.336245        -9.1497
 119   1.0000      -0.333777        -9.0825
 120   1.0000      -0.331040        -9.0081
 121   1.0000      -0.329658        -8.9704
 122   1.0000      -0.325829        -8.8663
 123   1.0000      -0.317768        -8.6469
 124   1.0000      -0.300658        -8.1813
 125   1.0000      -0.246933        -6.7194
 126   1.0000      -0.234094        -6.3700
 127   1.0000      -0.218086        -5.9344
 128   0.0000      -0.110138        -2.9970
 129   0.0000      -0.109018        -2.9665
 130   0.0000      -0.092028        -2.5042
 131   0.0000      -0.063176        -1.7191
 132   0.0000      -0.052931        -1.4403

                 SPIN DOWN ORBITALS
  NO   OCC          E(Eh)            E(eV)
   0   1.0000    -258.329736     -7029.5095
   1   1.0000     -30.800605      -838.1271
   2   1.0000     -26.511027      -721.4017
   3   1.0000     -26.507224      -721.2982
   4   1.0000     -26.502052      -721.1575
   5   1.0000      -4.403608      -119.8283
   6   1.0000      -4.403560      -119.8270
   7   1.0000      -4.399619      -119.7197
   8   1.0000      -4.399595      -119.7191
   9   1.0000      -4.398355      -119.6853
  10   1.0000      -4.398335      -119.6848
  11   1.0000      -4.394462      -119.5794
  12   1.0000      -4.394293      -119.5748
  13   1.0000      -4.392748      -119.5328
  14   1.0000      -4.392625      -119.5294
  15   1.0000      -4.387669      -119.3945
  16   1.0000      -4.387560      -119.3916
  17   1.0000      -3.661935       -99.6463
  18   1.0000      -2.524466       -68.6942
  19   1.0000      -2.524397       -68.6923
  20   1.0000      -2.521516       -68.6139
  21   1.0000      -2.520942       -68.5983
  22   1.0000      -2.519808       -68.5675
  23   1.0000      -2.519687       -68.5642
  24   1.0000      -2.518172       -68.5229
  25   1.0000      -2.518103       -68.5211
  26   1.0000      -2.517543       -68.5058
  27   1.0000      -2.517518       -68.5052
  28   1.0000      -2.516846       -68.4869
  29   1.0000      -2.516190       -68.4690
  30   1.0000      -2.515670       -68.4549
  31   1.0000      -2.515636       -68.4539
  32   1.0000      -2.515505       -68.4504
  33   1.0000      -2.513842       -68.4051
  34   1.0000      -2.513810       -68.4042
  35   1.0000      -2.512877       -68.3789
  36   1.0000      -2.512555       -68.3701
  37   1.0000      -2.512481       -68.3681
  38   1.0000      -2.511708       -68.3470
  39   1.0000      -2.510785       -68.3219
  40   1.0000      -2.510478       -68.3136
  41   1.0000      -2.510310       -68.3090
  42   1.0000      -2.509855       -68.2966
  43   1.0000      -2.508420       -68.2576
  44   1.0000      -2.508375       -68.2563
  45   1.0000      -2.507139       -68.2227
  46   1.0000      -2.506792       -68.2133
  47   1.0000      -2.506644       -68.2092
  48   1.0000      -2.506414       -68.2030
  49   1.0000      -2.506156       -68.1960
  50   1.0000      -2.505321       -68.1733
  51   1.0000      -2.503177       -68.1149
  52   1.0000      -2.503071       -68.1120
  53   1.0000      -2.502634       -68.1001
  54   1.0000      -2.342785       -63.7504
  55   1.0000      -2.336198       -63.5712
  56   1.0000      -2.329611       -63.3919
  57   1.0000      -0.511613       -13.9217
  58   1.0000      -0.479955       -13.0602
  59   1.0000      -0.469352       -12.7717
  60   1.0000      -0.467678       -12.7262
  61   1.0000      -0.466102       -12.6833
  62   1.0000      -0.462474       -12.5845
  63   1.0000      -0.462276       -12.5792
  64   1.0000      -0.457835       -12.4583
  65   1.0000      -0.456114       -12.4115
  66   1.0000      -0.453745       -12.3470
  67   1.0000      -0.449692       -12.2368
  68   1.0000      -0.447320       -12.1722
  69   1.0000      -0.444334       -12.0910
  70   1.0000      -0.443136       -12.0583
  71   1.0000      -0.442917       -12.0524
  72   1.0000      -0.437503       -11.9051
  73   1.0000      -0.433269       -11.7898
  74   1.0000      -0.430759       -11.7215
  75   1.0000      -0.428429       -11.6581
  76   1.0000      -0.427369       -11.6293
  77   1.0000      -0.423286       -11.5182
  78   1.0000      -0.423090       -11.5129
  79   1.0000      -0.420916       -11.4537
  80   1.0000      -0.417253       -11.3540
  81   1.0000      -0.412952       -11.2370
  82   1.0000      -0.412618       -11.2279
  83   1.0000      -0.410313       -11.1652
  84   1.0000      -0.406091       -11.0503
  85   1.0000      -0.396138       -10.7795
  86   1.0000      -0.392527       -10.6812
  87   1.0000      -0.390309       -10.6209
  88   1.0000      -0.387039       -10.5319
  89   1.0000      -0.386115       -10.5067
  90   1.0000      -0.384858       -10.4725
  91   1.0000      -0.379378       -10.3234
  92   1.0000      -0.379299       -10.3213
  93   1.0000      -0.376462       -10.2441
  94   1.0000      -0.373920       -10.1749
  95   1.0000      -0.372684       -10.1412
  96   1.0000      -0.371857       -10.1187
  97   1.0000      -0.370644       -10.0857
  98   1.0000      -0.370325       -10.0770
  99   1.0000      -0.365500        -9.9458
 100   1.0000      -0.365373        -9.9423
 101   1.0000      -0.365276        -9.9397
 102   1.0000      -0.362908        -9.8752
 103   1.0000      -0.359974        -9.7954
 104   1.0000      -0.359805        -9.7908
 105   1.0000      -0.357488        -9.7277
 106   1.0000      -0.357074        -9.7165
 107   1.0000      -0.354049        -9.6342
 108   1.0000      -0.351138        -9.5549
 109   1.0000      -0.349121        -9.5001
 110   1.0000      -0.348389        -9.4801
 111   1.0000      -0.346146        -9.4191
 112   1.0000      -0.344293        -9.3687
 113   1.0000      -0.340384        -9.2623
 114   1.0000      -0.339044        -9.2259
 115   1.0000      -0.335381        -9.1262
 116   1.0000      -0.334284        -9.0963
 117   1.0000      -0.333551        -9.0764
 118   1.0000      -0.328341        -8.9346
 119   1.0000      -0.320736        -8.7277
 120   1.0000      -0.313362        -8.5270
 121   1.0000      -0.275323        -7.4919
 122   1.0000      -0.242639        -6.6025
 123   1.0000      -0.228596        -6.2204
 124   1.0000      -0.212950        -5.7947
 125   1.0000      -0.210328        -5.7233
 126   0.0000      -0.096720        -2.6319
 127   0.0000      -0.069055        -1.8791
 128   0.0000      -0.057273        -1.5585
 129   0.0000      -0.049359        -1.3431
 130   0.0000      -0.045139        -1.2283

MULLIKEN ATOMIC CHARGES AND SPIN POPULATIONS
--------------------------------------------
   0 Au:   -0.004094   -0.161639
   1 Au:    0.294521    0.081768
   2 Au:   -0.045670   -0.202962
   3 Au:    0.213473   -0.234369
   4 Au:    0.207324   -0.094140
   5 Au:    0.301074   -0.152447
   6 Au:    0.206998   -0.093261
   7 Au:    0.213399   -0.235486
   8 Au:    0.301524   -0.152065
   9 Au:   -0.003532   -0.161550
  10 Au:    0.294033    0.081578
  11 Au:   -0.046399   -0.202492
  12 Fe:   -1.932651    3.527065
Sum of atomic charges         :   -0.0000000

LOEWDIN ATOMIC CHARGES AND SPIN POPULATIONS
-------------------------------------------
   0 Au:   -0.005211   -0.121716
   1 Au:    0.070495    0.015246
   2 Au:   -0.052688   -0.106746
   3 Au:    0.021843   -0.171947
   4 Au:    0.048993   -0.138044
   5 Au:    0.091340   -0.185507
   6 Au:    0.049122   -0.137365
   7 Au:    0.021931   -0.172391
   8 Au:    0.091313   -0.185448
   9 Au:   -0.005165   -0.121603
  10 Au:    0.070429    0.015070
  11 Au:   -0.052889   -0.106472
  12 Fe:   -0.349511    3.416924

  Mayer bond orders larger than 0.100000
B(  0-Au,  1-Au) :   0.3624 B(  0-Au,  2-Au) :   0.1122 B(  0-Au,  4-Au) :   0.2702
B(  0-Au, 11-Au) :   0.1758 B(  0-Au, 12-Fe) :   0.4843 B(  1-Au,  2-Au) :   0.1923
B(  1-Au, 10-Au) :   0.1349 B(  1-Au, 11-Au) :   0.3417 B(  2-Au,  5-Au) :   0.3327
B(  2-Au,  9-Au) :   0.1754 B(  2-Au, 10-Au) :   0.3413 B(  2-Au, 11-Au) :   0.1063
B(  2-Au, 12-Fe) :   0.4196 B(  3-Au,  4-Au) :   0.1131 B(  3-Au,  5-Au) :   0.1833
B(  3-Au,  6-Au) :   0.1935 B(  3-Au,  7-Au) :   0.1685 B(  3-Au, 12-Fe) :   0.4330
B(  4-Au,  7-Au) :   0.1933 B(  4-Au, 12-Fe) :   0.4640 B(  5-Au, 12-Fe) :   0.4930
B(  6-Au,  7-Au) :   0.1117 B(  6-Au,  9-Au) :   0.2702 B(  6-Au, 12-Fe) :   0.4648
B(  7-Au,  8-Au) :   0.1835 B(  7-Au, 12-Fe) :   0.4329 B(  8-Au, 11-Au) :   0.3327
B(  8-Au, 12-Fe) :   0.4923 B(  9-Au, 10-Au) :   0.3624 B(  9-Au, 11-Au) :   0.1121
B(  9-Au, 12-Fe) :   0.4844 B( 10-Au, 11-Au) :   0.1925 B( 11-Au, 12-Fe) :   0.4198

MP2 TOTAL ENERGY:    -2890.531382506 Eh
FINAL SINGLE POINT ENERGY     -2890.531382505537

DIPOLE MOMENT
-------------
                                X             Y             Z
Electronic contribution:    -14.42673     -18.20355      -5.56788
Nuclear contribution   :     14.36351      18.12331       5.54335
                        -----------------------------------------
Total Dipole Moment    :     -0.06321      -0.08024      -0.02453
                        -----------------------------------------
Magnitude (a.u.)       :      0.10505
Magnitude (Debye)      :      0.26702

Rotational constants in cm-1:     0.001744     0.001196     0.001001
Rotational constants in MHz :    52.269040    35.858322    30.016440

                             ****ORCA TERMINATED NORMALLY****
TOTAL RUN TIME: 0 days 1 hours 30 minutes 37 seconds 984 msec
