                         Program Version 5.0.3 -  RELEASE  -
|  1> !R2SCAN def2-TZVP VERYSLOWCONV
|  2> !KDIIS
|  3> %scf
|  4>   AutoTRAHIter 200
|  5>   maxiter 400
|  6> end
|  7>
|  8> %pal nprocs 6 end
|  9>
| 10> *xyzfile 0 5 pbe.xyz
| 11>
| 12> $new_job
| 13>
| 14> !R2SCAN def2-TZVP VERYSLOWCONV
| 15> !KDIIS
| 16> %scf
| 17>   AutoTRAHIter 200
| 18>   maxiter 400
| 19> end
| 20>
| 21>
| 22> %pal nprocs 6 end
| 23>
| 24> *xyzfile 0 3 pbe.xyz
| 25>
| 26>
| 27>
| 28>
| 29>
| 30>                          ****END OF INPUT****
 Total Charge           Charge          ....    0
 Multiplicity           Mult            ....    5
 Number of Electrons    NEL             ....  254
FINAL SINGLE POINT ENERGY     -2893.815421176616

CARTESIAN COORDINATES (ANGSTROEM)
---------------------------------
  Au     7.870552    7.660447    6.616725
  Au     6.530426    5.274785    6.810537
  Au     9.224945    5.225703    7.795816
  Au    11.727857    8.770919    8.831076
  Au     9.400320    9.779146    7.395573
  Au    10.741287    7.212910    6.763118
  Au    10.780754    7.541372   11.146405
  Au     9.616068   10.028993   10.162712
  Au     7.875538    8.129260   11.177177
  Au     9.028726    5.510302   10.657801
  Au     7.250332    3.957279    9.260531
  Au     6.750565    6.778674    9.121643
  Fe     9.277243    7.632082    8.957268

 Multiplicity           Mult            ....    3
 Number of Electrons    NEL             ....  254
 Basis Dimension        Dim             ....  525

ORBITAL ENERGIES
----------------
                 SPIN UP ORBITALS
  NO   OCC          E(Eh)            E(eV)
   0   1.0000    -255.635323     -6956.1908
   1   1.0000     -29.934373      -814.5557
   2   1.0000     -25.777552      -701.4428
   3   1.0000     -25.760345      -700.9746
   4   1.0000     -25.756643      -700.8739
   5   1.0000      -4.122348      -112.1748
   6   1.0000      -4.122325      -112.1742
   7   1.0000      -4.117711      -112.0486
   8   1.0000      -4.117657      -112.0471
   9   1.0000      -4.114470      -111.9604
  10   1.0000      -4.114435      -111.9595
  11   1.0000      -4.112716      -111.9127
  12   1.0000      -4.112534      -111.9077
  13   1.0000      -4.112126      -111.8966
  14   1.0000      -4.112059      -111.8948
  15   1.0000      -4.106790      -111.7514
  16   1.0000      -4.106700      -111.7490
  17   1.0000      -3.512042       -95.5675
  18   1.0000      -2.313079       -62.9421
  19   1.0000      -2.312759       -62.9334
  20   1.0000      -2.309350       -62.8406
  21   1.0000      -2.308507       -62.8177
  22   1.0000      -2.307533       -62.7912
  23   1.0000      -2.307466       -62.7893
  24   1.0000      -2.305376       -62.7325
  25   1.0000      -2.305029       -62.7230
  26   1.0000      -2.304462       -62.7076
  27   1.0000      -2.304240       -62.7016
  28   1.0000      -2.303354       -62.6774
  29   1.0000      -2.303301       -62.6760
  30   1.0000      -2.303002       -62.6679
  31   1.0000      -2.301728       -62.6332
  32   1.0000      -2.301676       -62.6318
  33   1.0000      -2.301163       -62.6178
  34   1.0000      -2.301043       -62.6146
  35   1.0000      -2.299889       -62.5832
  36   1.0000      -2.299836       -62.5817
  37   1.0000      -2.299264       -62.5661
  38   1.0000      -2.298917       -62.5567
  39   1.0000      -2.298819       -62.5540
  40   1.0000      -2.298150       -62.5358
  41   1.0000      -2.297717       -62.5241
  42   1.0000      -2.296977       -62.5039
  43   1.0000      -2.296705       -62.4965
  44   1.0000      -2.296393       -62.4880
  45   1.0000      -2.295944       -62.4758
  46   1.0000      -2.294701       -62.4420
  47   1.0000      -2.294457       -62.4353
  48   1.0000      -2.294343       -62.4322
  49   1.0000      -2.293562       -62.4110
  50   1.0000      -2.293276       -62.4032
  51   1.0000      -2.293213       -62.4015
  52   1.0000      -2.291115       -62.3444
  53   1.0000      -2.289936       -62.3123
  54   1.0000      -2.289908       -62.3116
  55   1.0000      -2.266186       -61.6661
  56   1.0000      -2.260436       -61.5096
  57   1.0000      -0.434638       -11.8271
  58   1.0000      -0.397535       -10.8175
  59   1.0000      -0.388963       -10.5842
  60   1.0000      -0.388349       -10.5675
  61   1.0000      -0.383747       -10.4423
  62   1.0000      -0.379491       -10.3265
  63   1.0000      -0.374412       -10.1883
  64   1.0000      -0.369921       -10.0661
  65   1.0000      -0.365957        -9.9582
  66   1.0000      -0.361208        -9.8290
  67   1.0000      -0.356564        -9.7026
  68   1.0000      -0.354968        -9.6592
  69   1.0000      -0.351671        -9.5695
  70   1.0000      -0.351174        -9.5559
  71   1.0000      -0.346284        -9.4229
  72   1.0000      -0.344047        -9.3620
  73   1.0000      -0.343903        -9.3581
  74   1.0000      -0.339826        -9.2471
  75   1.0000      -0.336145        -9.1470
  76   1.0000      -0.334323        -9.0974
  77   1.0000      -0.332246        -9.0409
  78   1.0000      -0.331071        -9.0089
  79   1.0000      -0.329461        -8.9651
  80   1.0000      -0.328406        -8.9364
  81   1.0000      -0.326259        -8.8780
  82   1.0000      -0.325088        -8.8461
  83   1.0000      -0.322209        -8.7677
  84   1.0000      -0.315606        -8.5881
  85   1.0000      -0.315286        -8.5794
  86   1.0000      -0.311295        -8.4708
  87   1.0000      -0.303054        -8.2465
  88   1.0000      -0.300036        -8.1644
  89   1.0000      -0.299032        -8.1371
  90   1.0000      -0.295203        -8.0329
  91   1.0000      -0.293942        -7.9986
  92   1.0000      -0.293138        -7.9767
  93   1.0000      -0.289220        -7.8701
  94   1.0000      -0.288824        -7.8593
  95   1.0000      -0.284277        -7.7356
  96   1.0000      -0.283252        -7.7077
  97   1.0000      -0.282123        -7.6769
  98   1.0000      -0.280914        -7.6440
  99   1.0000      -0.280452        -7.6315
 100   1.0000      -0.278299        -7.5729
 101   1.0000      -0.277010        -7.5378
 102   1.0000      -0.275663        -7.5012
 103   1.0000      -0.275288        -7.4910
 104   1.0000      -0.274191        -7.4611
 105   1.0000      -0.274070        -7.4578
 106   1.0000      -0.269861        -7.3433
 107   1.0000      -0.266376        -7.2485
 108   1.0000      -0.265943        -7.2367
 109   1.0000      -0.265538        -7.2257
 110   1.0000      -0.263943        -7.1822
 111   1.0000      -0.263058        -7.1582
 112   1.0000      -0.260704        -7.0941
 113   1.0000      -0.258079        -7.0227
 114   1.0000      -0.257458        -7.0058
 115   1.0000      -0.257435        -7.0052
 116   1.0000      -0.256165        -6.9706
 117   1.0000      -0.254451        -6.9240
 118   1.0000      -0.252925        -6.8824
 119   1.0000      -0.250557        -6.8180
 120   1.0000      -0.250249        -6.8096
 121   1.0000      -0.247979        -6.7479
 122   1.0000      -0.246424        -6.7055
 123   1.0000      -0.243437        -6.6243
 124   1.0000      -0.238020        -6.4769
 125   1.0000      -0.223658        -6.0860
 126   1.0000      -0.211559        -5.7568
 127   1.0000      -0.201837        -5.4923
 128   0.0000      -0.172587        -4.6963
 129   0.0000      -0.171695        -4.6721
 130   0.0000      -0.147909        -4.0248
 131   0.0000      -0.123389        -3.3576
 132   0.0000      -0.113787        -3.0963

                 SPIN DOWN ORBITALS
  NO   OCC          E(Eh)            E(eV)
   0   1.0000    -255.634336     -6956.1639
   1   1.0000     -29.857774      -812.4713
   2   1.0000     -25.711567      -699.6473
   3   1.0000     -25.704941      -699.4670
   4   1.0000     -25.702747      -699.4073
   5   1.0000      -4.122093      -112.1678
   6   1.0000      -4.122072      -112.1673
   7   1.0000      -4.118090      -112.0589
   8   1.0000      -4.118041      -112.0576
   9   1.0000      -4.115270      -111.9822
  10   1.0000      -4.115227      -111.9810
  11   1.0000      -4.113135      -111.9241
  12   1.0000      -4.112958      -111.9193
  13   1.0000      -4.112353      -111.9028
  14   1.0000      -4.112283      -111.9009
  15   1.0000      -4.107298      -111.7653
  16   1.0000      -4.107209      -111.7628
  17   1.0000      -3.344322       -91.0036
  18   1.0000      -2.312098       -62.9154
  19   1.0000      -2.312013       -62.9131
  20   1.0000      -2.308506       -62.8176
  21   1.0000      -2.308108       -62.8068
  22   1.0000      -2.307447       -62.7888
  23   1.0000      -2.307395       -62.7874
  24   1.0000      -2.304724       -62.7147
  25   1.0000      -2.304470       -62.7078
  26   1.0000      -2.303979       -62.6945
  27   1.0000      -2.303331       -62.6768
  28   1.0000      -2.303244       -62.6744
  29   1.0000      -2.303214       -62.6736
  30   1.0000      -2.302854       -62.6638
  31   1.0000      -2.302214       -62.6464
  32   1.0000      -2.302146       -62.6446
  33   1.0000      -2.300590       -62.6022
  34   1.0000      -2.299955       -62.5850
  35   1.0000      -2.299889       -62.5832
  36   1.0000      -2.299447       -62.5711
  37   1.0000      -2.299373       -62.5691
  38   1.0000      -2.299306       -62.5673
  39   1.0000      -2.298484       -62.5449
  40   1.0000      -2.298348       -62.5412
  41   1.0000      -2.297924       -62.5297
  42   1.0000      -2.297569       -62.5200
  43   1.0000      -2.297017       -62.5050
  44   1.0000      -2.296631       -62.4945
  45   1.0000      -2.295379       -62.4604
  46   1.0000      -2.295192       -62.4553
  47   1.0000      -2.295040       -62.4512
  48   1.0000      -2.294433       -62.4347
  49   1.0000      -2.294101       -62.4257
  50   1.0000      -2.293555       -62.4108
  51   1.0000      -2.291502       -62.3549
  52   1.0000      -2.290755       -62.3346
  53   1.0000      -2.290732       -62.3340
  54   1.0000      -2.117467       -57.6192
  55   1.0000      -2.108947       -57.3874
  56   1.0000      -2.108299       -57.3697
  57   1.0000      -0.431775       -11.7492
  58   1.0000      -0.397988       -10.8298
  59   1.0000      -0.386189       -10.5087
  60   1.0000      -0.381052       -10.3690
  61   1.0000      -0.377340       -10.2679
  62   1.0000      -0.371500       -10.1090
  63   1.0000      -0.370408       -10.0793
  64   1.0000      -0.366382        -9.9698
  65   1.0000      -0.359918        -9.7939
  66   1.0000      -0.357153        -9.7186
  67   1.0000      -0.355692        -9.6789
  68   1.0000      -0.353905        -9.6302
  69   1.0000      -0.350704        -9.5431
  70   1.0000      -0.347230        -9.4486
  71   1.0000      -0.346122        -9.4185
  72   1.0000      -0.342643        -9.3238
  73   1.0000      -0.341760        -9.2998
  74   1.0000      -0.336383        -9.1535
  75   1.0000      -0.335010        -9.1161
  76   1.0000      -0.334374        -9.0988
  77   1.0000      -0.332368        -9.0442
  78   1.0000      -0.329178        -8.9574
  79   1.0000      -0.327530        -8.9126
  80   1.0000      -0.325456        -8.8561
  81   1.0000      -0.324787        -8.8379
  82   1.0000      -0.321982        -8.7616
  83   1.0000      -0.319264        -8.6876
  84   1.0000      -0.317693        -8.6449
  85   1.0000      -0.306082        -8.3289
  86   1.0000      -0.301350        -8.2001
  87   1.0000      -0.301299        -8.1988
  88   1.0000      -0.299472        -8.1491
  89   1.0000      -0.298250        -8.1158
  90   1.0000      -0.296147        -8.0586
  91   1.0000      -0.291678        -7.9370
  92   1.0000      -0.290218        -7.8972
  93   1.0000      -0.288092        -7.8394
  94   1.0000      -0.285866        -7.7788
  95   1.0000      -0.283887        -7.7250
  96   1.0000      -0.282761        -7.6943
  97   1.0000      -0.281866        -7.6700
  98   1.0000      -0.281806        -7.6683
  99   1.0000      -0.279218        -7.5979
 100   1.0000      -0.277583        -7.5534
 101   1.0000      -0.276618        -7.5272
 102   1.0000      -0.275672        -7.5014
 103   1.0000      -0.274216        -7.4618
 104   1.0000      -0.273466        -7.4414
 105   1.0000      -0.269732        -7.3398
 106   1.0000      -0.269506        -7.3336
 107   1.0000      -0.267214        -7.2713
 108   1.0000      -0.266126        -7.2417
 109   1.0000      -0.264709        -7.2031
 110   1.0000      -0.262623        -7.1463
 111   1.0000      -0.259862        -7.0712
 112   1.0000      -0.258771        -7.0415
 113   1.0000      -0.258446        -7.0327
 114   1.0000      -0.256557        -6.9813
 115   1.0000      -0.252860        -6.8807
 116   1.0000      -0.251567        -6.8455
 117   1.0000      -0.249902        -6.8002
 118   1.0000      -0.248138        -6.7522
 119   1.0000      -0.240581        -6.5465
 120   1.0000      -0.231347        -6.2953
 121   1.0000      -0.218469        -5.9448
 122   1.0000      -0.209473        -5.7000
 123   1.0000      -0.196885        -5.3575
 124   1.0000      -0.194711        -5.2983
 125   1.0000      -0.181674        -4.9436
 126   0.0000      -0.156491        -4.2583
 127   0.0000      -0.149950        -4.0804
 128   0.0000      -0.144475        -3.9314
 129   0.0000      -0.138435        -3.7670
 130   0.0000      -0.118575        -3.2266

MULLIKEN ATOMIC CHARGES AND SPIN POPULATIONS
--------------------------------------------
   0 Au:    0.022467   -0.104280
   1 Au:    0.261986    0.029793
   2 Au:    0.019084   -0.112852
   3 Au:    0.239319   -0.134348
   4 Au:    0.236522   -0.063507
   5 Au:    0.301709   -0.137769
   6 Au:    0.236328   -0.062995
   7 Au:    0.239582   -0.133971
   8 Au:    0.301825   -0.137638
   9 Au:    0.022807   -0.104144
  10 Au:    0.262225    0.030800
  11 Au:    0.018532   -0.112597
  12 Fe:   -2.162386    3.043508
Sum of atomic charges         :   -0.0000000

LOEWDIN ATOMIC CHARGES AND SPIN POPULATIONS
-------------------------------------------
   0 Au:    0.019500   -0.091809
   1 Au:    0.053138   -0.004167
   2 Au:   -0.013470   -0.066821
   3 Au:    0.046179   -0.110044
   4 Au:    0.067557   -0.094217
   5 Au:    0.104665   -0.152988
   6 Au:    0.067700   -0.093767
   7 Au:    0.046506   -0.109744
   8 Au:    0.104574   -0.152952
   9 Au:    0.019544   -0.091540
  10 Au:    0.053222   -0.003741
  11 Au:   -0.013675   -0.066856
  12 Fe:   -0.555439    3.038645

  Mayer bond orders larger than 0.100000
B(  0-Au,  1-Au) :   0.3843 B(  0-Au,  2-Au) :   0.1122 B(  0-Au,  4-Au) :   0.2794
B(  0-Au,  5-Au) :   0.1133 B(  0-Au, 11-Au) :   0.1725 B(  0-Au, 12-Fe) :   0.5284
B(  1-Au,  2-Au) :   0.2279 B(  1-Au, 10-Au) :   0.1798 B(  1-Au, 11-Au) :   0.3342
B(  1-Au, 12-Fe) :   0.1069 B(  2-Au,  5-Au) :   0.3418 B(  2-Au,  9-Au) :   0.1725
B(  2-Au, 10-Au) :   0.3338 B(  2-Au, 12-Fe) :   0.5162 B(  3-Au,  4-Au) :   0.1236
B(  3-Au,  5-Au) :   0.2050 B(  3-Au,  6-Au) :   0.2172 B(  3-Au,  7-Au) :   0.2022
B(  3-Au, 12-Fe) :   0.4860 B(  4-Au,  6-Au) :   0.1127 B(  4-Au,  7-Au) :   0.2173
B(  4-Au, 12-Fe) :   0.4990 B(  5-Au, 12-Fe) :   0.5129 B(  6-Au,  7-Au) :   0.1224
B(  6-Au,  9-Au) :   0.2795 B(  6-Au, 12-Fe) :   0.4993 B(  7-Au,  8-Au) :   0.2053
B(  7-Au, 12-Fe) :   0.4871 B(  8-Au,  9-Au) :   0.1134 B(  8-Au, 11-Au) :   0.3422
B(  8-Au, 12-Fe) :   0.5121 B(  9-Au, 10-Au) :   0.3842 B(  9-Au, 11-Au) :   0.1120
B(  9-Au, 12-Fe) :   0.5288 B( 10-Au, 11-Au) :   0.2284 B( 10-Au, 12-Fe) :   0.1068
B( 11-Au, 12-Fe) :   0.5155

FINAL SINGLE POINT ENERGY     -2893.835257760685

DIPOLE MOMENT
-------------
                                X             Y             Z
Electronic contribution:    -14.35152     -18.10717      -5.53761
Nuclear contribution   :     14.36351      18.12331       5.54335
                        -----------------------------------------
Total Dipole Moment    :      0.01199       0.01614       0.00574
                        -----------------------------------------
Magnitude (a.u.)       :      0.02091
Magnitude (Debye)      :      0.05315

Rotational constants in cm-1:     0.001744     0.001196     0.001001
Rotational constants in MHz :    52.269040    35.858322    30.016440

                             ****ORCA TERMINATED NORMALLY****
TOTAL RUN TIME: 0 days 0 hours 12 minutes 29 seconds 922 msec
