                         Program Version 5.0.3 -  RELEASE  -
|  1> !CASSCF def2-TZVP def2-TZVP/C
|  2> !MOREAD RIJCOSX
|  3> %maxcore 6000
|  4> %moinp "pbe.qro"
|  5> %pal nprocs 2 end
|  6>
|  7> %casscf
|  8>  mult 5,3
|  9>  bweight 1,1
| 10>  nroots 5,45
| 11>  nel 6
| 12>  norb 5
| 13> end
| 14>
| 15>
| 16> *xyzfile 0 5 pbe.xyz
| 17>
| 18>
| 19>                          ****END OF INPUT****

CARTESIAN COORDINATES (ANGSTROEM)
---------------------------------
  Au     8.961145    9.195280    6.100246
  Au     5.599826   10.362498    6.877522
  Au     8.158222    7.602688    3.981937
  Au     5.314843    6.119159    7.301285
  Au     5.738330    8.150999    5.374466
  Au     5.007280    7.557717    9.539031
  Au     7.457790    4.251306    7.153596
  Au     6.392195    5.512146    4.816383
  Au     8.300849    6.101691    9.033570
  Au     7.580552    8.276803   10.580036
  Au     8.776551    6.461819    6.346844
  Au     8.113199   10.797251    8.188386
  Au     5.851630   10.243738    9.683384
  Au     9.634918    8.587897    8.781980
  Cr     6.974726    8.278805    7.862427

 Total Charge           Charge          ....    0
 Multiplicity           Mult            ....    5
 Number of Electrons    NEL             ....  290
 Basis Dimension        Dim             ....  605

ORBITAL ENERGIES
----------------

  NO   OCC          E(Eh)            E(eV)
   0   2.0000    -220.494159     -5999.9511
   1   2.0000     -26.332009      -716.5304
   2   2.0000     -22.266186      -605.8937
   3   2.0000     -22.265277      -605.8690
   4   2.0000     -22.251614      -605.4972
   5   2.0000      -4.717574      -128.3717
   6   2.0000      -4.717425      -128.3677
   7   2.0000      -4.714193      -128.2797
   8   2.0000      -4.712705      -128.2392
   9   2.0000      -4.712680      -128.2385
  10   2.0000      -4.712583      -128.2359
  11   2.0000      -4.705932      -128.0549
  12   2.0000      -4.705766      -128.0504
  13   2.0000      -4.705367      -128.0395
  14   2.0000      -4.705295      -128.0376
  15   2.0000      -4.704441      -128.0144
  16   2.0000      -4.704323      -128.0111
  17   2.0000      -4.703847      -127.9982
  18   2.0000      -4.694082      -127.7325
  19   2.0000      -3.387045       -92.1662
  20   2.0000      -2.758193       -75.0543
  21   2.0000      -2.757123       -75.0251
  22   2.0000      -2.757049       -75.0231
  23   2.0000      -2.755870       -74.9910
  24   2.0000      -2.753129       -74.9164
  25   2.0000      -2.752356       -74.8954
  26   2.0000      -2.752048       -74.8870
  27   2.0000      -2.750969       -74.8577
  28   2.0000      -2.750601       -74.8477
  29   2.0000      -2.750212       -74.8371
  30   2.0000      -2.750040       -74.8324
  31   2.0000      -2.749280       -74.8117
  32   2.0000      -2.748427       -74.7885
  33   2.0000      -2.747998       -74.7768
  34   2.0000      -2.747670       -74.7679
  35   2.0000      -2.747618       -74.7665
  36   2.0000      -2.747308       -74.7580
  37   2.0000      -2.746124       -74.7258
  38   2.0000      -2.746060       -74.7241
  39   2.0000      -2.745669       -74.7134
  40   2.0000      -2.744500       -74.6816
  41   2.0000      -2.743167       -74.6454
  42   2.0000      -2.742917       -74.6386
  43   2.0000      -2.741837       -74.6092
  44   2.0000      -2.741756       -74.6070
  45   2.0000      -2.740612       -74.5758
  46   2.0000      -2.740525       -74.5735
  47   2.0000      -2.740265       -74.5664
  48   2.0000      -2.740040       -74.5603
  49   2.0000      -2.739675       -74.5503
  50   2.0000      -2.739563       -74.5473
  51   2.0000      -2.739468       -74.5447
  52   2.0000      -2.738985       -74.5316
  53   2.0000      -2.738491       -74.5181
  54   2.0000      -2.738256       -74.5117
  55   2.0000      -2.737499       -74.4911
  56   2.0000      -2.737253       -74.4844
  57   2.0000      -2.737010       -74.4778
  58   2.0000      -2.736694       -74.4692
  59   2.0000      -2.729653       -74.2776
  60   2.0000      -2.729546       -74.2747
  61   2.0000      -2.727633       -74.2227
  62   2.0000      -2.152780       -58.5801
  63   2.0000      -2.151787       -58.5531
  64   2.0000      -2.140201       -58.2378
  65   2.0000      -0.560726       -15.2581
  66   2.0000      -0.553533       -15.0624
  67   2.0000      -0.551459       -15.0060
  68   2.0000      -0.548361       -14.9216
  69   2.0000      -0.543526       -14.7901
  70   2.0000      -0.543009       -14.7760
  71   2.0000      -0.540390       -14.7048
  72   2.0000      -0.537609       -14.6291
  73   2.0000      -0.535966       -14.5844
  74   2.0000      -0.535496       -14.5716
  75   2.0000      -0.533282       -14.5113
  76   2.0000      -0.531986       -14.4761
  77   2.0000      -0.529792       -14.4164
  78   2.0000      -0.528528       -14.3820
  79   2.0000      -0.527003       -14.3405
  80   2.0000      -0.521505       -14.1909
  81   2.0000      -0.520953       -14.1759
  82   2.0000      -0.518825       -14.1179
  83   2.0000      -0.517351       -14.0778
  84   2.0000      -0.516462       -14.0536
  85   2.0000      -0.515323       -14.0226
  86   2.0000      -0.509811       -13.8727
  87   2.0000      -0.507155       -13.8004
  88   2.0000      -0.505315       -13.7503
  89   2.0000      -0.505197       -13.7471
  90   2.0000      -0.500279       -13.6133
  91   2.0000      -0.498544       -13.5661
  92   2.0000      -0.495814       -13.4918
  93   2.0000      -0.492358       -13.3978
  94   2.0000      -0.488879       -13.3031
  95   2.0000      -0.485118       -13.2007
  96   2.0000      -0.481021       -13.0892
  97   2.0000      -0.479801       -13.0561
  98   2.0000      -0.476625       -12.9696
  99   2.0000      -0.475872       -12.9491
 100   2.0000      -0.470424       -12.8009
 101   2.0000      -0.468190       -12.7401
 102   2.0000      -0.465633       -12.6705
 103   2.0000      -0.462868       -12.5953
 104   2.0000      -0.461900       -12.5689
 105   2.0000      -0.458726       -12.4826
 106   2.0000      -0.457856       -12.4589
 107   2.0000      -0.456505       -12.4221
 108   2.0000      -0.454990       -12.3809
 109   2.0000      -0.451923       -12.2975
 110   2.0000      -0.450763       -12.2659
 111   2.0000      -0.449434       -12.2297
 112   2.0000      -0.447603       -12.1799
 113   2.0000      -0.447296       -12.1715
 114   2.0000      -0.444210       -12.0876
 115   2.0000      -0.442080       -12.0296
 116   2.0000      -0.440345       -11.9824
 117   2.0000      -0.438839       -11.9414
 118   2.0000      -0.438540       -11.9333
 119   2.0000      -0.434723       -11.8294
 120   2.0000      -0.431304       -11.7364
 121   2.0000      -0.430756       -11.7215
 122   2.0000      -0.429195       -11.6790
 123   2.0000      -0.427825       -11.6417
 124   2.0000      -0.426090       -11.5945
 125   2.0000      -0.423049       -11.5118
 126   2.0000      -0.421567       -11.4714
 127   2.0000      -0.419559       -11.4168
 128   2.0000      -0.418374       -11.3845
 129   2.0000      -0.416847       -11.3430
 130   2.0000      -0.410992       -11.1837
 131   2.0000      -0.410560       -11.1719
 132   2.0000      -0.406649       -11.0655
 133   2.0000      -0.396496       -10.7892
 134   2.0000      -0.393863       -10.7176
 135   2.0000      -0.388002       -10.5581
 136   2.0000      -0.378661       -10.3039
 137   2.0000      -0.333895        -9.0857
 138   2.0000      -0.326429        -8.8826
 139   2.0000      -0.257486        -7.0065
 140   2.0000      -0.237395        -6.4599
 141   2.0000      -0.226898        -6.1742
 142   1.2000      -0.080188        -2.1820
 143   1.2000      -0.081521        -2.2183
 144   1.2000      -0.092971        -2.5299
 145   1.2000      -0.128026        -3.4838
 146   1.2000      -0.128370        -3.4931
 147   0.0000      -0.021942        -0.5971
 148   0.0000      -0.007665        -0.2086
 149   0.0000      -0.004736        -0.1289
 150   0.0000       0.002323         0.0632
 151   0.0000       0.006324         0.1721

MULLIKEN ATOMIC CHARGES AND SPIN DENSITIES
------------------------------------------
   0 Au:    0.378124    0.037590
   1 Au:    0.374632    0.037812
   2 Au:    0.307518    0.014645
   3 Au:    0.176176    0.031333
   4 Au:    0.174111    0.031232
   5 Au:    0.374425    0.037854
   6 Au:    0.309511    0.014625
   7 Au:    0.202147    0.007082
   8 Au:    0.375218    0.037574
   9 Au:    0.567275    0.018575
  10 Au:   -0.208268    0.012459
  11 Au:    0.566976    0.018564
  12 Au:    0.465071    0.008103
  13 Au:    0.454036    0.025277
  14 Cr:   -4.516951    2.667275
Sum of atomic charges       :    0.0000000

LOEWDIN ATOMIC CHARGES AND SPIN DENSITIES
-----------------------------------------
   0 Au:    0.090510    0.051676
   1 Au:    0.153938    0.063406
   2 Au:    0.134425    0.019595
   3 Au:    0.025676    0.062677
   4 Au:    0.025791    0.062739
   5 Au:    0.153864    0.063268
   6 Au:    0.135270    0.019586
   7 Au:    0.013662    0.015364
   8 Au:    0.090057    0.051917
   9 Au:    0.098377    0.042397
  10 Au:   -0.077527    0.027656
  11 Au:    0.098151    0.042419
  12 Au:    0.102299    0.018704
  13 Au:    0.125992    0.054852
  14 Cr:   -1.170485    2.403746

  Mayer bond orders larger than 0.100000
B(  0-Au,  2-Au) :   0.2045 B(  0-Au, 10-Au) :   0.2546 B(  0-Au, 11-Au) :   0.1488
B(  0-Au, 13-Au) :   0.1545 B(  0-Au, 14-Cr) :   0.4243 B(  1-Au,  4-Au) :   0.2489
B(  1-Au, 11-Au) :   0.1573 B(  1-Au, 12-Au) :   0.1804 B(  1-Au, 14-Cr) :   0.3972
B(  2-Au,  4-Au) :   0.1023 B(  2-Au,  7-Au) :   0.1416 B(  2-Au, 10-Au) :   0.3725
B(  2-Au, 14-Cr) :   0.3791 B(  3-Au,  4-Au) :   0.2906 B(  3-Au,  5-Au) :   0.2479
B(  3-Au,  6-Au) :   0.1029 B(  3-Au,  7-Au) :   0.2565 B(  3-Au, 11-Au) :   0.1176
B(  3-Au, 14-Cr) :   0.3258 B(  4-Au,  7-Au) :   0.2573 B(  4-Au,  9-Au) :   0.1172
B(  4-Au, 14-Cr) :   0.3257 B(  5-Au,  9-Au) :   0.1580 B(  5-Au, 12-Au) :   0.1812
B(  5-Au, 14-Cr) :   0.3956 B(  6-Au,  7-Au) :   0.1405 B(  6-Au,  8-Au) :   0.2053
B(  6-Au, 10-Au) :   0.3722 B(  6-Au, 14-Cr) :   0.3781 B(  7-Au, 14-Cr) :   0.2904
B(  8-Au,  9-Au) :   0.1497 B(  8-Au, 10-Au) :   0.2533 B(  8-Au, 13-Au) :   0.1543
B(  8-Au, 14-Cr) :   0.4279 B(  9-Au, 12-Au) :   0.1613 B(  9-Au, 13-Au) :   0.1270
B(  9-Au, 14-Cr) :   0.2597 B( 10-Au, 14-Cr) :   0.4688 B( 11-Au, 12-Au) :   0.1614
B( 11-Au, 13-Au) :   0.1275 B( 11-Au, 14-Cr) :   0.2593 B( 12-Au, 14-Cr) :   0.2510
B( 13-Au, 14-Cr) :   0.4181

FINAL SINGLE POINT ENERGY     -2930.502700980794

DIPOLE MOMENT
-------------
                                X             Y             Z
Electronic contribution:      8.30386     -16.56596     -15.59183
Nuclear contribution   :     -8.15161      16.80614      15.88321
                        -----------------------------------------
Total Dipole Moment    :      0.15224       0.24017       0.29138
                        -----------------------------------------
Magnitude (a.u.)       :      0.40714
Magnitude (Debye)      :      1.03488

Rotational constants in cm-1:     0.001258     0.000921     0.000848
Rotational constants in MHz :    37.724285    27.625388    25.420588

                             ****ORCA TERMINATED NORMALLY****
TOTAL RUN TIME: 0 days 1 hours 39 minutes 43 seconds 354 msec
