                         Program Version 5.0.3 -  RELEASE  -
|  1> !RI-B2PLYP def2-TZVP def2-TZVP/C
|  2> !RIJCOSX VERYSLOWCONV
|  3>
|  4> %scf
|  5>   AutoTRAHIter 200
|  6>   maxiter 400
|  7> end
|  8>
|  9>
| 10> %pal nprocs 6 end
| 11>
| 12> *xyzfile 0 5 pbe.xyz
| 13>
| 14> $new_job
| 15>
| 16> !RI-B2PLYP def2-TZVP def2-TZVP/C
| 17> !RIJCOSX VERYSLOWCONV
| 18>
| 19> %scf
| 20>   AutoTRAHIter 200
| 21>   maxiter 400
| 22> end
| 23>
| 24>
| 25> %pal nprocs 6 end
| 26>
| 27> *xyzfile 0 3 pbe.xyz
| 28>
| 29>
| 30>
| 31>
| 32>
| 33>                          ****END OF INPUT****
 Total Charge           Charge          ....    0
 Multiplicity           Mult            ....    5
 Number of Electrons    NEL             ....  330
MP2 TOTAL ENERGY:    -3432.977394199 Eh
FINAL SINGLE POINT ENERGY     -3432.977394199289

CARTESIAN COORDINATES (ANGSTROEM)
---------------------------------
  Au     8.757245    7.215933    9.705132
  Au     8.599395    5.250916    7.683042
  Au     6.203545    8.366468   10.065624
  Au     4.424372    7.069683    8.297387
  Au     5.310491    9.658294    7.709652
  Au     5.195190    7.622967    5.620011
  Au     5.877405    5.155306    6.795759
  Au     9.698205   10.472123    6.415092
  Au     7.160616   11.495522    6.794634
  Au     8.030861   10.882855    4.191048
  Au     5.383989   10.347029    4.998123
  Au     9.716988    7.757970    7.083410
  Au     6.855569    8.434049    3.541116
  Au     7.828078    6.502203    5.275027
  Au     9.536012    8.516414    4.410748
  Au     8.214947    9.763483    8.668807
  Fe     7.003416    7.405863    7.733700

 Multiplicity           Mult            ....    3
 Number of Electrons    NEL             ....  330
 Basis Dimension        Dim             ....  685

ORBITAL ENERGIES
----------------
                 SPIN UP ORBITALS
  NO   OCC          E(Eh)            E(eV)
   0   1.0000    -258.345006     -7029.9250
   1   1.0000     -30.903962      -840.9395
   2   1.0000     -26.619024      -724.3405
   3   1.0000     -26.601075      -723.8521
   4   1.0000     -26.586650      -723.4595
   5   1.0000      -4.409493      -119.9884
   6   1.0000      -4.408732      -119.9677
   7   1.0000      -4.408608      -119.9643
   8   1.0000      -4.408265      -119.9550
   9   1.0000      -4.408143      -119.9517
  10   1.0000      -4.407258      -119.9276
  11   1.0000      -4.405958      -119.8922
  12   1.0000      -4.404569      -119.8544
  13   1.0000      -4.404123      -119.8423
  14   1.0000      -4.401468      -119.7700
  15   1.0000      -4.390885      -119.4820
  16   1.0000      -4.389320      -119.4395
  17   1.0000      -4.387201      -119.3818
  18   1.0000      -4.387053      -119.3778
  19   1.0000      -4.386624      -119.3661
  20   1.0000      -4.380613      -119.2025
  21   1.0000      -3.916146      -106.5638
  22   1.0000      -2.659856       -72.3784
  23   1.0000      -2.622400       -71.3591
  24   1.0000      -2.592546       -70.5468
  25   1.0000      -2.530817       -68.8670
  26   1.0000      -2.530359       -68.8546
  27   1.0000      -2.530024       -68.8455
  28   1.0000      -2.528977       -68.8170
  29   1.0000      -2.528721       -68.8100
  30   1.0000      -2.527612       -68.7798
  31   1.0000      -2.527381       -68.7735
  32   1.0000      -2.526861       -68.7594
  33   1.0000      -2.526245       -68.7426
  34   1.0000      -2.525751       -68.7292
  35   1.0000      -2.525481       -68.7218
  36   1.0000      -2.525110       -68.7117
  37   1.0000      -2.524546       -68.6964
  38   1.0000      -2.524449       -68.6938
  39   1.0000      -2.524333       -68.6906
  40   1.0000      -2.523591       -68.6704
  41   1.0000      -2.523018       -68.6548
  42   1.0000      -2.522848       -68.6502
  43   1.0000      -2.522457       -68.6395
  44   1.0000      -2.521978       -68.6265
  45   1.0000      -2.521785       -68.6213
  46   1.0000      -2.521352       -68.6095
  47   1.0000      -2.521034       -68.6008
  48   1.0000      -2.520535       -68.5872
  49   1.0000      -2.520107       -68.5756
  50   1.0000      -2.519489       -68.5588
  51   1.0000      -2.519200       -68.5509
  52   1.0000      -2.518520       -68.5324
  53   1.0000      -2.516546       -68.4787
  54   1.0000      -2.515705       -68.4558
  55   1.0000      -2.510613       -68.3172
  56   1.0000      -2.509703       -68.2925
  57   1.0000      -2.508430       -68.2579
  58   1.0000      -2.507680       -68.2375
  59   1.0000      -2.507112       -68.2220
  60   1.0000      -2.506347       -68.2012
  61   1.0000      -2.505958       -68.1906
  62   1.0000      -2.505134       -68.1682
  63   1.0000      -2.504839       -68.1601
  64   1.0000      -2.504594       -68.1535
  65   1.0000      -2.504240       -68.1438
  66   1.0000      -2.503165       -68.1146
  67   1.0000      -2.503002       -68.1101
  68   1.0000      -2.501874       -68.0794
  69   1.0000      -2.501035       -68.0566
  70   1.0000      -2.497658       -67.9647
  71   1.0000      -2.497461       -67.9594
  72   1.0000      -2.496114       -67.9227
  73   1.0000      -0.567653       -15.4466
  74   1.0000      -0.565199       -15.3798
  75   1.0000      -0.554330       -15.0841
  76   1.0000      -0.544787       -14.8244
  77   1.0000      -0.513821       -13.9818
  78   1.0000      -0.497221       -13.5301
  79   1.0000      -0.478525       -13.0213
  80   1.0000      -0.476556       -12.9677
  81   1.0000      -0.470533       -12.8039
  82   1.0000      -0.470498       -12.8029
  83   1.0000      -0.468386       -12.7454
  84   1.0000      -0.466145       -12.6845
  85   1.0000      -0.462906       -12.5963
  86   1.0000      -0.461351       -12.5540
  87   1.0000      -0.457150       -12.4397
  88   1.0000      -0.456839       -12.4312
  89   1.0000      -0.454673       -12.3723
  90   1.0000      -0.451608       -12.2889
  91   1.0000      -0.450261       -12.2522
  92   1.0000      -0.448432       -12.2025
  93   1.0000      -0.448073       -12.1927
  94   1.0000      -0.444613       -12.0985
  95   1.0000      -0.443523       -12.0689
  96   1.0000      -0.442562       -12.0427
  97   1.0000      -0.441089       -12.0026
  98   1.0000      -0.440715       -11.9925
  99   1.0000      -0.438784       -11.9399
 100   1.0000      -0.438007       -11.9188
 101   1.0000      -0.436969       -11.8905
 102   1.0000      -0.435865       -11.8605
 103   1.0000      -0.433912       -11.8073
 104   1.0000      -0.431618       -11.7449
 105   1.0000      -0.428841       -11.6694
 106   1.0000      -0.426466       -11.6047
 107   1.0000      -0.424922       -11.5627
 108   1.0000      -0.422329       -11.4921
 109   1.0000      -0.421482       -11.4691
 110   1.0000      -0.420928       -11.4540
 111   1.0000      -0.419562       -11.4169
 112   1.0000      -0.409669       -11.1477
 113   1.0000      -0.405511       -11.0345
 114   1.0000      -0.405225       -11.0267
 115   1.0000      -0.404679       -11.0119
 116   1.0000      -0.400459       -10.8970
 117   1.0000      -0.397953       -10.8288
 118   1.0000      -0.396066       -10.7775
 119   1.0000      -0.392323       -10.6756
 120   1.0000      -0.390975       -10.6390
 121   1.0000      -0.388483       -10.5712
 122   1.0000      -0.386223       -10.5097
 123   1.0000      -0.381916       -10.3925
 124   1.0000      -0.380681       -10.3589
 125   1.0000      -0.378221       -10.2919
 126   1.0000      -0.377561       -10.2740
 127   1.0000      -0.377055       -10.2602
 128   1.0000      -0.374481       -10.1901
 129   1.0000      -0.373883       -10.1739
 130   1.0000      -0.373468       -10.1626
 131   1.0000      -0.372845       -10.1456
 132   1.0000      -0.372766       -10.1435
 133   1.0000      -0.370642       -10.0857
 134   1.0000      -0.369025       -10.0417
 135   1.0000      -0.366111        -9.9624
 136   1.0000      -0.363314        -9.8863
 137   1.0000      -0.362460        -9.8630
 138   1.0000      -0.362122        -9.8538
 139   1.0000      -0.360406        -9.8071
 140   1.0000      -0.360159        -9.8004
 141   1.0000      -0.353725        -9.6253
 142   1.0000      -0.352587        -9.5944
 143   1.0000      -0.351707        -9.5704
 144   1.0000      -0.351365        -9.5611
 145   1.0000      -0.349641        -9.5142
 146   1.0000      -0.348206        -9.4752
 147   1.0000      -0.347648        -9.4600
 148   1.0000      -0.347107        -9.4453
 149   1.0000      -0.339438        -9.2366
 150   1.0000      -0.338516        -9.2115
 151   1.0000      -0.338052        -9.1989
 152   1.0000      -0.337104        -9.1731
 153   1.0000      -0.335530        -9.1302
 154   1.0000      -0.331473        -9.0198
 155   1.0000      -0.331020        -9.0075
 156   1.0000      -0.328746        -8.9456
 157   1.0000      -0.321967        -8.7612
 158   1.0000      -0.321261        -8.7419
 159   1.0000      -0.313378        -8.5274
 160   1.0000      -0.312338        -8.4992
 161   1.0000      -0.311804        -8.4846
 162   1.0000      -0.249394        -6.7863
 163   1.0000      -0.247517        -6.7353
 164   1.0000      -0.226652        -6.1675
 165   1.0000      -0.218516        -5.9461
 166   0.0000      -0.141777        -3.8580
 167   0.0000      -0.086823        -2.3626
 168   0.0000      -0.082317        -2.2400
 169   0.0000      -0.078359        -2.1323
 170   0.0000      -0.076755        -2.0886

                 SPIN DOWN ORBITALS
  NO   OCC          E(Eh)            E(eV)
   0   1.0000    -258.343012     -7029.8707
   1   1.0000     -30.811933      -838.4353
   2   1.0000     -26.522761      -721.7210
   3   1.0000     -26.517773      -721.5853
   4   1.0000     -26.514102      -721.4854
   5   1.0000      -4.411391      -120.0400
   6   1.0000      -4.409840      -119.9979
   7   1.0000      -4.408366      -119.9577
   8   1.0000      -4.408305      -119.9561
   9   1.0000      -4.408121      -119.9511
  10   1.0000      -4.407672      -119.9389
  11   1.0000      -4.405277      -119.8737
  12   1.0000      -4.403894      -119.8360
  13   1.0000      -4.403732      -119.8316
  14   1.0000      -4.401437      -119.7692
  15   1.0000      -4.391434      -119.4970
  16   1.0000      -4.390002      -119.4580
  17   1.0000      -4.387660      -119.3943
  18   1.0000      -4.387519      -119.3905
  19   1.0000      -4.387393      -119.3870
  20   1.0000      -4.381527      -119.2274
  21   1.0000      -3.673745       -99.9677
  22   1.0000      -2.531965       -68.8983
  23   1.0000      -2.530489       -68.8581
  24   1.0000      -2.529455       -68.8300
  25   1.0000      -2.529190       -68.8228
  26   1.0000      -2.528870       -68.8140
  27   1.0000      -2.528254       -68.7973
  28   1.0000      -2.527779       -68.7844
  29   1.0000      -2.526871       -68.7597
  30   1.0000      -2.525905       -68.7334
  31   1.0000      -2.525498       -68.7223
  32   1.0000      -2.525452       -68.7211
  33   1.0000      -2.524843       -68.7045
  34   1.0000      -2.524602       -68.6979
  35   1.0000      -2.524532       -68.6960
  36   1.0000      -2.523854       -68.6776
  37   1.0000      -2.523395       -68.6651
  38   1.0000      -2.522805       -68.6490
  39   1.0000      -2.522445       -68.6392
  40   1.0000      -2.522197       -68.6325
  41   1.0000      -2.521557       -68.6151
  42   1.0000      -2.520906       -68.5974
  43   1.0000      -2.520769       -68.5936
  44   1.0000      -2.520475       -68.5856
  45   1.0000      -2.520212       -68.5784
  46   1.0000      -2.519394       -68.5562
  47   1.0000      -2.519119       -68.5487
  48   1.0000      -2.518561       -68.5335
  49   1.0000      -2.517759       -68.5117
  50   1.0000      -2.516415       -68.4751
  51   1.0000      -2.514839       -68.4323
  52   1.0000      -2.511159       -68.3321
  53   1.0000      -2.510112       -68.3036
  54   1.0000      -2.508738       -68.2662
  55   1.0000      -2.508171       -68.2508
  56   1.0000      -2.507373       -68.2291
  57   1.0000      -2.506832       -68.2144
  58   1.0000      -2.506034       -68.1926
  59   1.0000      -2.505613       -68.1812
  60   1.0000      -2.505114       -68.1676
  61   1.0000      -2.505043       -68.1657
  62   1.0000      -2.504735       -68.1573
  63   1.0000      -2.503707       -68.1293
  64   1.0000      -2.503366       -68.1200
  65   1.0000      -2.502155       -68.0871
  66   1.0000      -2.501191       -68.0609
  67   1.0000      -2.499022       -68.0019
  68   1.0000      -2.498879       -67.9980
  69   1.0000      -2.496273       -67.9271
  70   1.0000      -2.354553       -64.0707
  71   1.0000      -2.349018       -63.9200
  72   1.0000      -2.340901       -63.6992
  73   1.0000      -0.517866       -14.0919
  74   1.0000      -0.481118       -13.0919
  75   1.0000      -0.480586       -13.0774
  76   1.0000      -0.479439       -13.0462
  77   1.0000      -0.478486       -13.0203
  78   1.0000      -0.472346       -12.8532
  79   1.0000      -0.471459       -12.8290
  80   1.0000      -0.466825       -12.7030
  81   1.0000      -0.466468       -12.6932
  82   1.0000      -0.463219       -12.6048
  83   1.0000      -0.459993       -12.5170
  84   1.0000      -0.459598       -12.5063
  85   1.0000      -0.457742       -12.4558
  86   1.0000      -0.454264       -12.3611
  87   1.0000      -0.453828       -12.3493
  88   1.0000      -0.452856       -12.3228
  89   1.0000      -0.452083       -12.3018
  90   1.0000      -0.448529       -12.2051
  91   1.0000      -0.445670       -12.1273
  92   1.0000      -0.444672       -12.1001
  93   1.0000      -0.443912       -12.0795
  94   1.0000      -0.442232       -12.0337
  95   1.0000      -0.440722       -11.9927
  96   1.0000      -0.440194       -11.9783
  97   1.0000      -0.440001       -11.9730
  98   1.0000      -0.438602       -11.9350
  99   1.0000      -0.437229       -11.8976
 100   1.0000      -0.431746       -11.7484
 101   1.0000      -0.429805       -11.6956
 102   1.0000      -0.428348       -11.6559
 103   1.0000      -0.425940       -11.5904
 104   1.0000      -0.424968       -11.5640
 105   1.0000      -0.424260       -11.5447
 106   1.0000      -0.422407       -11.4943
 107   1.0000      -0.420215       -11.4346
 108   1.0000      -0.414061       -11.2672
 109   1.0000      -0.410951       -11.1825
 110   1.0000      -0.408441       -11.1142
 111   1.0000      -0.404413       -11.0046
 112   1.0000      -0.403446       -10.9783
 113   1.0000      -0.402239       -10.9455
 114   1.0000      -0.401151       -10.9159
 115   1.0000      -0.395559       -10.7637
 116   1.0000      -0.392211       -10.6726
 117   1.0000      -0.391570       -10.6552
 118   1.0000      -0.386394       -10.5143
 119   1.0000      -0.384687       -10.4679
 120   1.0000      -0.380755       -10.3609
 121   1.0000      -0.380240       -10.3469
 122   1.0000      -0.378347       -10.2953
 123   1.0000      -0.378149       -10.2900
 124   1.0000      -0.375674       -10.2226
 125   1.0000      -0.373393       -10.1605
 126   1.0000      -0.373150       -10.1539
 127   1.0000      -0.372832       -10.1453
 128   1.0000      -0.372104       -10.1255
 129   1.0000      -0.371046       -10.0967
 130   1.0000      -0.367215        -9.9924
 131   1.0000      -0.366849        -9.9825
 132   1.0000      -0.366723        -9.9791
 133   1.0000      -0.365128        -9.9356
 134   1.0000      -0.362803        -9.8724
 135   1.0000      -0.361465        -9.8360
 136   1.0000      -0.358948        -9.7675
 137   1.0000      -0.356328        -9.6962
 138   1.0000      -0.354227        -9.6390
 139   1.0000      -0.353151        -9.6097
 140   1.0000      -0.352267        -9.5857
 141   1.0000      -0.351049        -9.5525
 142   1.0000      -0.350055        -9.5255
 143   1.0000      -0.349280        -9.5044
 144   1.0000      -0.341560        -9.2943
 145   1.0000      -0.340087        -9.2542
 146   1.0000      -0.339760        -9.2454
 147   1.0000      -0.338728        -9.2172
 148   1.0000      -0.338452        -9.2097
 149   1.0000      -0.334512        -9.1025
 150   1.0000      -0.334317        -9.0972
 151   1.0000      -0.331049        -9.0083
 152   1.0000      -0.329294        -8.9606
 153   1.0000      -0.324902        -8.8410
 154   1.0000      -0.323804        -8.8111
 155   1.0000      -0.321686        -8.7535
 156   1.0000      -0.320729        -8.7275
 157   1.0000      -0.312851        -8.5131
 158   1.0000      -0.264243        -7.1904
 159   1.0000      -0.258150        -7.0246
 160   1.0000      -0.239719        -6.5231
 161   1.0000      -0.231312        -6.2943
 162   1.0000      -0.229010        -6.2317
 163   1.0000      -0.161143        -4.3849
 164   0.0000      -0.090176        -2.4538
 165   0.0000      -0.089294        -2.4298
 166   0.0000      -0.088230        -2.4009
 167   0.0000      -0.080577        -2.1926
 168   0.0000      -0.066512        -1.8099

MULLIKEN ATOMIC CHARGES AND SPIN POPULATIONS
--------------------------------------------
   0 Au:    0.406519   -0.103616
   1 Au:    0.349508   -0.086673
   2 Au:    0.418653   -0.123311
   3 Au:    0.393636   -0.068969
   4 Au:   -0.290275   -0.055152
   5 Au:   -0.237412   -0.122351
   6 Au:    0.309470   -0.131408
   7 Au:    0.251941   -0.104367
   8 Au:    0.231945   -0.109597
   9 Au:    0.011592    0.031109
  10 Au:    0.224976   -0.167259
  11 Au:   -0.260064   -0.128059
  12 Au:    0.196670   -0.112202
  13 Au:   -0.253629   -0.138905
  14 Au:    0.220594   -0.117485
  15 Au:   -0.302974   -0.036094
  16 Fe:   -1.671150    3.574340
Sum of atomic charges         :   -0.0000000

LOEWDIN ATOMIC CHARGES AND SPIN POPULATIONS
-------------------------------------------
   0 Au:    0.095602   -0.100422
   1 Au:    0.089934   -0.099827
   2 Au:    0.098630   -0.105498
   3 Au:    0.098741   -0.083089
   4 Au:   -0.046719   -0.093228
   5 Au:   -0.046686   -0.101300
   6 Au:    0.079515   -0.118223
   7 Au:   -0.001645   -0.115998
   8 Au:   -0.017475   -0.124980
   9 Au:   -0.017899   -0.011869
  10 Au:   -0.004777   -0.133963
  11 Au:   -0.048375   -0.104045
  12 Au:    0.009234   -0.080078
  13 Au:   -0.055262   -0.106399
  14 Au:    0.003357   -0.098463
  15 Au:   -0.045216   -0.088293
  16 Fe:   -0.190959    3.565676

  Mayer bond orders larger than 0.100000
B(  0-Au,  1-Au) :   0.1064 B(  0-Au,  2-Au) :   0.1549 B(  0-Au, 11-Au) :   0.1865
B(  0-Au, 15-Au) :   0.2488 B(  0-Au, 16-Fe) :   0.4273 B(  1-Au, 11-Au) :   0.2573
B(  1-Au, 13-Au) :   0.2034 B(  1-Au, 16-Fe) :   0.4777 B(  2-Au,  3-Au) :   0.1312
B(  2-Au,  4-Au) :   0.1939 B(  2-Au, 15-Au) :   0.2165 B(  2-Au, 16-Fe) :   0.4080
B(  3-Au,  4-Au) :   0.2708 B(  3-Au,  5-Au) :   0.1921 B(  3-Au, 16-Fe) :   0.4458
B(  4-Au,  5-Au) :   0.1547 B(  4-Au,  8-Au) :   0.2825 B(  4-Au, 10-Au) :   0.4043
B(  4-Au, 16-Fe) :   0.3947 B(  5-Au,  6-Au) :   0.2331 B(  5-Au, 10-Au) :   0.2146
B(  5-Au, 12-Au) :   0.3695 B(  5-Au, 13-Au) :   0.2598 B(  5-Au, 16-Fe) :   0.3605
B(  6-Au, 13-Au) :   0.2191 B(  6-Au, 16-Fe) :   0.4834 B(  7-Au,  8-Au) :   0.2530
B(  7-Au,  9-Au) :   0.2618 B(  7-Au, 11-Au) :   0.2216 B(  7-Au, 14-Au) :   0.1529
B(  7-Au, 15-Au) :   0.3714 B(  8-Au,  9-Au) :   0.2569 B(  8-Au, 10-Au) :   0.2186
B(  8-Au, 15-Au) :   0.3283 B(  9-Au, 10-Au) :   0.2403 B(  9-Au, 12-Au) :   0.2795
B(  9-Au, 14-Au) :   0.2452 B( 10-Au, 12-Au) :   0.1165 B( 11-Au, 13-Au) :   0.2296
B( 11-Au, 14-Au) :   0.4149 B( 11-Au, 15-Au) :   0.1090 B( 11-Au, 16-Fe) :   0.3729
B( 12-Au, 13-Au) :   0.3203 B( 12-Au, 14-Au) :   0.1163 B( 13-Au, 14-Au) :   0.2755
B( 13-Au, 16-Fe) :   0.3506 B( 15-Au, 16-Fe) :   0.3974

MP2 TOTAL ENERGY:    -3432.922922550 Eh
FINAL SINGLE POINT ENERGY     -3432.922922550291

DIPOLE MOMENT
-------------
                                X             Y             Z
Electronic contribution:     11.08970      37.37029     -38.68990
Nuclear contribution   :    -11.33441     -38.31542      39.43295
                        -----------------------------------------
Total Dipole Moment    :     -0.24472      -0.94514       0.74306
                        -----------------------------------------
Magnitude (a.u.)       :      1.22691
Magnitude (Debye)      :      3.11856

Rotational constants in cm-1:     0.000965     0.000752     0.000746
Rotational constants in MHz :    28.920943    22.556033    22.374083

                             ****ORCA TERMINATED NORMALLY****
TOTAL RUN TIME: 0 days 0 hours 52 minutes 2 seconds 394 msec
