                         Program Version 5.0.3 -  RELEASE  -
|  1> !PBE def2-TZVP VERYSLOWCONV
|  2>
|  3> %scf
|  4>   AutoTRAHIter 200
|  5>   maxiter 400
|  6> end
|  7>
|  8>
|  9> %pal nprocs 6 end
| 10>
| 11> *xyzfile 0 5 pbe.xyz
| 12>
| 13> $new_job
| 14>
| 15> !PBE def2-TZVP VERYSLOWCONV
| 16>
| 17> %scf
| 18>   AutoTRAHIter 200
| 19>   maxiter 400
| 20> end
| 21>
| 22>
| 23> %pal nprocs 6 end
| 24>
| 25> *xyzfile 0 3 pbe.xyz
| 26>
| 27>
| 28>
| 29>
| 30>
| 31>                          ****END OF INPUT****
 Total Charge           Charge          ....    0
 Multiplicity           Mult            ....    5
 Number of Electrons    NEL             ....  330
FINAL SINGLE POINT ENERGY     -3436.757514714977

CARTESIAN COORDINATES (ANGSTROEM)
---------------------------------
  Au     8.757245    7.215933    9.705132
  Au     8.599395    5.250916    7.683042
  Au     6.203545    8.366468   10.065624
  Au     4.424372    7.069683    8.297387
  Au     5.310491    9.658294    7.709652
  Au     5.195190    7.622967    5.620011
  Au     5.877405    5.155306    6.795759
  Au     9.698205   10.472123    6.415092
  Au     7.160616   11.495522    6.794634
  Au     8.030861   10.882855    4.191048
  Au     5.383989   10.347029    4.998123
  Au     9.716988    7.757970    7.083410
  Au     6.855569    8.434049    3.541116
  Au     7.828078    6.502203    5.275027
  Au     9.536012    8.516414    4.410748
  Au     8.214947    9.763483    8.668807
  Fe     7.003416    7.405863    7.733700

 Multiplicity           Mult            ....    3
 Number of Electrons    NEL             ....  330
 Basis Dimension        Dim             ....  685

ORBITAL ENERGIES
----------------
                 SPIN UP ORBITALS
  NO   OCC          E(Eh)            E(eV)
   0   1.0000    -254.737171     -6931.7508
   1   1.0000     -29.566906      -804.5564
   2   1.0000     -25.506207      -694.0592
   3   1.0000     -25.505169      -694.0309
   4   1.0000     -25.499421      -693.8745
   5   1.0000      -4.037554      -109.8674
   6   1.0000      -4.033786      -109.7649
   7   1.0000      -4.032181      -109.7212
   8   1.0000      -4.032169      -109.7209
   9   1.0000      -4.031658      -109.7070
  10   1.0000      -4.031064      -109.6908
  11   1.0000      -4.030733      -109.6818
  12   1.0000      -4.030034      -109.6628
  13   1.0000      -4.028182      -109.6124
  14   1.0000      -4.027118      -109.5834
  15   1.0000      -4.022522      -109.4584
  16   1.0000      -4.020129      -109.3933
  17   1.0000      -4.019844      -109.3855
  18   1.0000      -4.019738      -109.3826
  19   1.0000      -4.019191      -109.3677
  20   1.0000      -4.014842      -109.2494
  21   1.0000      -3.341204       -90.9188
  22   1.0000      -2.253964       -61.3335
  23   1.0000      -2.250245       -61.2323
  24   1.0000      -2.249967       -61.2247
  25   1.0000      -2.249455       -61.2108
  26   1.0000      -2.249042       -61.1995
  27   1.0000      -2.248522       -61.1854
  28   1.0000      -2.247937       -61.1695
  29   1.0000      -2.247127       -61.1474
  30   1.0000      -2.246397       -61.1276
  31   1.0000      -2.246262       -61.1239
  32   1.0000      -2.245804       -61.1114
  33   1.0000      -2.245184       -61.0946
  34   1.0000      -2.244522       -61.0765
  35   1.0000      -2.244298       -61.0705
  36   1.0000      -2.244141       -61.0662
  37   1.0000      -2.243543       -61.0499
  38   1.0000      -2.243383       -61.0456
  39   1.0000      -2.242943       -61.0336
  40   1.0000      -2.242520       -61.0221
  41   1.0000      -2.242369       -61.0180
  42   1.0000      -2.242125       -61.0113
  43   1.0000      -2.241587       -60.9967
  44   1.0000      -2.241348       -60.9902
  45   1.0000      -2.241006       -60.9809
  46   1.0000      -2.240905       -60.9781
  47   1.0000      -2.240628       -60.9706
  48   1.0000      -2.239933       -60.9517
  49   1.0000      -2.239359       -60.9361
  50   1.0000      -2.238461       -60.9116
  51   1.0000      -2.238301       -60.9073
  52   1.0000      -2.237142       -60.8757
  53   1.0000      -2.237087       -60.8742
  54   1.0000      -2.236224       -60.8508
  55   1.0000      -2.235322       -60.8262
  56   1.0000      -2.234839       -60.8131
  57   1.0000      -2.234474       -60.8031
  58   1.0000      -2.234045       -60.7915
  59   1.0000      -2.233906       -60.7877
  60   1.0000      -2.233363       -60.7729
  61   1.0000      -2.232954       -60.7618
  62   1.0000      -2.231558       -60.7238
  63   1.0000      -2.230566       -60.6968
  64   1.0000      -2.230300       -60.6895
  65   1.0000      -2.229121       -60.6575
  66   1.0000      -2.228486       -60.6402
  67   1.0000      -2.228355       -60.6366
  68   1.0000      -2.228094       -60.6295
  69   1.0000      -2.223157       -60.4952
  70   1.0000      -2.161063       -58.8055
  71   1.0000      -2.158959       -58.7483
  72   1.0000      -2.147439       -58.4348
  73   1.0000      -0.432613       -11.7720
  74   1.0000      -0.392796       -10.6885
  75   1.0000      -0.392169       -10.6714
  76   1.0000      -0.386544       -10.5184
  77   1.0000      -0.382774       -10.4158
  78   1.0000      -0.379386       -10.3236
  79   1.0000      -0.365283        -9.9398
  80   1.0000      -0.361474        -9.8362
  81   1.0000      -0.360713        -9.8155
  82   1.0000      -0.360004        -9.7962
  83   1.0000      -0.359585        -9.7848
  84   1.0000      -0.358574        -9.7573
  85   1.0000      -0.353822        -9.6280
  86   1.0000      -0.353396        -9.6164
  87   1.0000      -0.351989        -9.5781
  88   1.0000      -0.350086        -9.5263
  89   1.0000      -0.347381        -9.4527
  90   1.0000      -0.346269        -9.4225
  91   1.0000      -0.343228        -9.3397
  92   1.0000      -0.342560        -9.3215
  93   1.0000      -0.342362        -9.3161
  94   1.0000      -0.341547        -9.2940
  95   1.0000      -0.340375        -9.2621
  96   1.0000      -0.338436        -9.2093
  97   1.0000      -0.337672        -9.1885
  98   1.0000      -0.337300        -9.1784
  99   1.0000      -0.334075        -9.0906
 100   1.0000      -0.326868        -8.8945
 101   1.0000      -0.326621        -8.8878
 102   1.0000      -0.324060        -8.8181
 103   1.0000      -0.321661        -8.7528
 104   1.0000      -0.320676        -8.7260
 105   1.0000      -0.319508        -8.6942
 106   1.0000      -0.319060        -8.6821
 107   1.0000      -0.317051        -8.6274
 108   1.0000      -0.316780        -8.6200
 109   1.0000      -0.313349        -8.5266
 110   1.0000      -0.309405        -8.4193
 111   1.0000      -0.306550        -8.3417
 112   1.0000      -0.305280        -8.3071
 113   1.0000      -0.304890        -8.2965
 114   1.0000      -0.304489        -8.2856
 115   1.0000      -0.298381        -8.1194
 116   1.0000      -0.298266        -8.1162
 117   1.0000      -0.291730        -7.9384
 118   1.0000      -0.284945        -7.7538
 119   1.0000      -0.284619        -7.7449
 120   1.0000      -0.284106        -7.7309
 121   1.0000      -0.283832        -7.7235
 122   1.0000      -0.279356        -7.6017
 123   1.0000      -0.279312        -7.6005
 124   1.0000      -0.278139        -7.5685
 125   1.0000      -0.276715        -7.5298
 126   1.0000      -0.275396        -7.4939
 127   1.0000      -0.275045        -7.4844
 128   1.0000      -0.274523        -7.4702
 129   1.0000      -0.272874        -7.4253
 130   1.0000      -0.272120        -7.4048
 131   1.0000      -0.271492        -7.3877
 132   1.0000      -0.270208        -7.3527
 133   1.0000      -0.267608        -7.2820
 134   1.0000      -0.267282        -7.2731
 135   1.0000      -0.264817        -7.2060
 136   1.0000      -0.262502        -7.1430
 137   1.0000      -0.261494        -7.1156
 138   1.0000      -0.260783        -7.0963
 139   1.0000      -0.259555        -7.0628
 140   1.0000      -0.258161        -7.0249
 141   1.0000      -0.257664        -7.0114
 142   1.0000      -0.257233        -6.9997
 143   1.0000      -0.256644        -6.9836
 144   1.0000      -0.255227        -6.9451
 145   1.0000      -0.252950        -6.8831
 146   1.0000      -0.251567        -6.8455
 147   1.0000      -0.251464        -6.8427
 148   1.0000      -0.248252        -6.7553
 149   1.0000      -0.247520        -6.7354
 150   1.0000      -0.247148        -6.7252
 151   1.0000      -0.246791        -6.7155
 152   1.0000      -0.245226        -6.6730
 153   1.0000      -0.243315        -6.6209
 154   1.0000      -0.240492        -6.5441
 155   1.0000      -0.240148        -6.5348
 156   1.0000      -0.239184        -6.5085
 157   1.0000      -0.235963        -6.4209
 158   1.0000      -0.235316        -6.4033
 159   1.0000      -0.228261        -6.2113
 160   1.0000      -0.226550        -6.1647
 161   1.0000      -0.225081        -6.1248
 162   1.0000      -0.215534        -5.8650
 163   1.0000      -0.214361        -5.8331
 164   1.0000      -0.207770        -5.6537
 165   1.0000      -0.200424        -5.4538
 166   0.0000      -0.194889        -5.3032
 167   0.0000      -0.145983        -3.9724
 168   0.0000      -0.144058        -3.9200
 169   0.0000      -0.142337        -3.8732
 170   0.0000      -0.138950        -3.7810

                 SPIN DOWN ORBITALS
  NO   OCC          E(Eh)            E(eV)
   0   1.0000    -254.736617     -6931.7357
   1   1.0000     -29.518663      -803.2436
   2   1.0000     -25.469648      -693.0644
   3   1.0000     -25.468510      -693.0334
   4   1.0000     -25.463411      -692.8946
   5   1.0000      -4.037977      -109.8789
   6   1.0000      -4.034043      -109.7719
   7   1.0000      -4.032732      -109.7362
   8   1.0000      -4.032241      -109.7228
   9   1.0000      -4.031569      -109.7046
  10   1.0000      -4.030872      -109.6856
  11   1.0000      -4.030438      -109.6738
  12   1.0000      -4.029856      -109.6579
  13   1.0000      -4.027763      -109.6010
  14   1.0000      -4.026714      -109.5725
  15   1.0000      -4.022988      -109.4711
  16   1.0000      -4.020656      -109.4076
  17   1.0000      -4.020094      -109.3923
  18   1.0000      -4.019959      -109.3886
  19   1.0000      -4.019692      -109.3814
  20   1.0000      -4.014847      -109.2495
  21   1.0000      -3.230627       -87.9098
  22   1.0000      -2.254674       -61.3528
  23   1.0000      -2.250594       -61.2418
  24   1.0000      -2.250102       -61.2284
  25   1.0000      -2.249510       -61.2123
  26   1.0000      -2.249086       -61.2008
  27   1.0000      -2.248379       -61.1815
  28   1.0000      -2.248339       -61.1804
  29   1.0000      -2.247144       -61.1479
  30   1.0000      -2.246294       -61.1248
  31   1.0000      -2.246104       -61.1196
  32   1.0000      -2.245427       -61.1012
  33   1.0000      -2.245320       -61.0983
  34   1.0000      -2.244471       -61.0752
  35   1.0000      -2.244403       -61.0733
  36   1.0000      -2.244194       -61.0676
  37   1.0000      -2.243595       -61.0513
  38   1.0000      -2.242975       -61.0345
  39   1.0000      -2.242697       -61.0269
  40   1.0000      -2.242596       -61.0241
  41   1.0000      -2.242301       -61.0161
  42   1.0000      -2.241852       -61.0039
  43   1.0000      -2.241747       -61.0010
  44   1.0000      -2.241309       -60.9891
  45   1.0000      -2.240918       -60.9785
  46   1.0000      -2.240725       -60.9732
  47   1.0000      -2.240488       -60.9668
  48   1.0000      -2.239787       -60.9477
  49   1.0000      -2.239174       -60.9310
  50   1.0000      -2.238743       -60.9193
  51   1.0000      -2.237897       -60.8963
  52   1.0000      -2.237795       -60.8935
  53   1.0000      -2.236677       -60.8631
  54   1.0000      -2.236603       -60.8611
  55   1.0000      -2.235685       -60.8361
  56   1.0000      -2.235301       -60.8256
  57   1.0000      -2.234931       -60.8156
  58   1.0000      -2.234541       -60.8049
  59   1.0000      -2.234296       -60.7983
  60   1.0000      -2.233924       -60.7882
  61   1.0000      -2.233342       -60.7723
  62   1.0000      -2.231871       -60.7323
  63   1.0000      -2.230778       -60.7026
  64   1.0000      -2.230547       -60.6963
  65   1.0000      -2.229342       -60.6635
  66   1.0000      -2.228705       -60.6462
  67   1.0000      -2.228472       -60.6398
  68   1.0000      -2.228316       -60.6356
  69   1.0000      -2.223162       -60.4953
  70   1.0000      -2.052272       -55.8452
  71   1.0000      -2.049546       -55.7710
  72   1.0000      -2.040244       -55.5179
  73   1.0000      -0.429156       -11.6779
  74   1.0000      -0.393146       -10.6980
  75   1.0000      -0.392594       -10.6830
  76   1.0000      -0.385153       -10.4805
  77   1.0000      -0.378184       -10.2909
  78   1.0000      -0.376855       -10.2548
  79   1.0000      -0.365615        -9.9489
  80   1.0000      -0.361605        -9.8398
  81   1.0000      -0.361363        -9.8332
  82   1.0000      -0.360165        -9.8006
  83   1.0000      -0.359692        -9.7877
  84   1.0000      -0.358980        -9.7683
  85   1.0000      -0.352441        -9.5904
  86   1.0000      -0.352145        -9.5824
  87   1.0000      -0.350371        -9.5341
  88   1.0000      -0.348614        -9.4863
  89   1.0000      -0.346307        -9.4235
  90   1.0000      -0.345651        -9.4056
  91   1.0000      -0.343805        -9.3554
  92   1.0000      -0.342911        -9.3311
  93   1.0000      -0.342549        -9.3212
  94   1.0000      -0.341667        -9.2972
  95   1.0000      -0.340581        -9.2677
  96   1.0000      -0.338577        -9.2132
  97   1.0000      -0.337647        -9.1879
  98   1.0000      -0.336525        -9.1573
  99   1.0000      -0.332208        -9.0399
 100   1.0000      -0.326542        -8.8856
 101   1.0000      -0.326155        -8.8751
 102   1.0000      -0.324586        -8.8324
 103   1.0000      -0.322091        -8.7645
 104   1.0000      -0.321150        -8.7389
 105   1.0000      -0.320102        -8.7104
 106   1.0000      -0.319512        -8.6944
 107   1.0000      -0.313959        -8.5433
 108   1.0000      -0.313120        -8.5204
 109   1.0000      -0.312532        -8.5044
 110   1.0000      -0.308110        -8.3841
 111   1.0000      -0.305498        -8.3130
 112   1.0000      -0.305011        -8.2998
 113   1.0000      -0.304556        -8.2874
 114   1.0000      -0.302424        -8.2294
 115   1.0000      -0.296553        -8.0696
 116   1.0000      -0.292627        -7.9628
 117   1.0000      -0.291858        -7.9419
 118   1.0000      -0.285612        -7.7719
 119   1.0000      -0.284909        -7.7528
 120   1.0000      -0.282602        -7.6900
 121   1.0000      -0.281902        -7.6710
 122   1.0000      -0.279730        -7.6118
 123   1.0000      -0.279654        -7.6098
 124   1.0000      -0.278209        -7.5704
 125   1.0000      -0.277217        -7.5435
 126   1.0000      -0.275650        -7.5008
 127   1.0000      -0.274286        -7.4637
 128   1.0000      -0.274108        -7.4589
 129   1.0000      -0.272529        -7.4159
 130   1.0000      -0.272014        -7.4019
 131   1.0000      -0.269718        -7.3394
 132   1.0000      -0.269598        -7.3361
 133   1.0000      -0.267583        -7.2813
 134   1.0000      -0.267220        -7.2714
 135   1.0000      -0.265191        -7.2162
 136   1.0000      -0.262946        -7.1551
 137   1.0000      -0.261355        -7.1118
 138   1.0000      -0.260583        -7.0908
 139   1.0000      -0.259935        -7.0732
 140   1.0000      -0.259255        -7.0547
 141   1.0000      -0.258287        -7.0283
 142   1.0000      -0.257559        -7.0085
 143   1.0000      -0.256146        -6.9701
 144   1.0000      -0.253775        -6.9056
 145   1.0000      -0.252105        -6.8601
 146   1.0000      -0.251578        -6.8458
 147   1.0000      -0.248708        -6.7677
 148   1.0000      -0.248106        -6.7513
 149   1.0000      -0.247373        -6.7314
 150   1.0000      -0.247143        -6.7251
 151   1.0000      -0.241051        -6.5593
 152   1.0000      -0.240450        -6.5430
 153   1.0000      -0.239869        -6.5272
 154   1.0000      -0.238993        -6.5033
 155   1.0000      -0.238346        -6.4857
 156   1.0000      -0.228656        -6.2220
 157   1.0000      -0.223838        -6.0909
 158   1.0000      -0.222934        -6.0663
 159   1.0000      -0.210896        -5.7388
 160   1.0000      -0.210773        -5.7354
 161   1.0000      -0.208474        -5.6729
 162   1.0000      -0.176076        -4.7913
 163   1.0000      -0.174423        -4.7463
 164   0.0000      -0.157082        -4.2744
 165   0.0000      -0.156223        -4.2510
 166   0.0000      -0.149136        -4.0582
 167   0.0000      -0.141072        -3.8388
 168   0.0000      -0.138842        -3.7781

MULLIKEN ATOMIC CHARGES AND SPIN POPULATIONS
--------------------------------------------
   0 Au:    0.433529   -0.045074
   1 Au:    0.420302    0.008354
   2 Au:    0.445228   -0.087376
   3 Au:    0.425519   -0.020977
   4 Au:   -0.257187   -0.000648
   5 Au:   -0.264800   -0.103748
   6 Au:    0.419512    0.017452
   7 Au:    0.226845   -0.099310
   8 Au:    0.212077   -0.024270
   9 Au:    0.028497    0.001356
  10 Au:    0.247421   -0.092267
  11 Au:   -0.260138   -0.062667
  12 Au:    0.269997   -0.008353
  13 Au:   -0.276420   -0.139837
  14 Au:    0.270946   -0.033802
  15 Au:   -0.256831    0.021272
  16 Fe:   -2.084496    2.669895
Sum of atomic charges         :   -0.0000000

LOEWDIN ATOMIC CHARGES AND SPIN POPULATIONS
-------------------------------------------
   0 Au:    0.122801   -0.040267
   1 Au:    0.117814   -0.014608
   2 Au:    0.126138   -0.073236
   3 Au:    0.120856   -0.026539
   4 Au:   -0.020960   -0.027587
   5 Au:   -0.023474   -0.057801
   6 Au:    0.118034   -0.013763
   7 Au:    0.011708   -0.059744
   8 Au:    0.004712   -0.035366
   9 Au:   -0.027928   -0.017941
  10 Au:    0.016881   -0.059397
  11 Au:   -0.021352   -0.044080
  12 Au:    0.017336   -0.044992
  13 Au:   -0.023886   -0.074389
  14 Au:    0.019261   -0.051533
  15 Au:   -0.021206   -0.026407
  16 Fe:   -0.536735    2.667649

  Mayer bond orders larger than 0.100000
B(  0-Au,  1-Au) :   0.1516 B(  0-Au,  2-Au) :   0.1693 B(  0-Au, 11-Au) :   0.2019
B(  0-Au, 15-Au) :   0.2498 B(  0-Au, 16-Fe) :   0.4650 B(  1-Au,  6-Au) :   0.1312
B(  1-Au, 11-Au) :   0.2638 B(  1-Au, 13-Au) :   0.2405 B(  1-Au, 16-Fe) :   0.4408
B(  2-Au,  3-Au) :   0.1635 B(  2-Au,  4-Au) :   0.2119 B(  2-Au, 15-Au) :   0.2246
B(  2-Au, 16-Fe) :   0.4449 B(  3-Au,  4-Au) :   0.2665 B(  3-Au,  5-Au) :   0.2089
B(  3-Au,  6-Au) :   0.1436 B(  3-Au, 16-Fe) :   0.4558 B(  4-Au,  5-Au) :   0.1759
B(  4-Au,  8-Au) :   0.3260 B(  4-Au, 10-Au) :   0.3252 B(  4-Au, 15-Au) :   0.1227
B(  4-Au, 16-Fe) :   0.4053 B(  5-Au,  6-Au) :   0.2548 B(  5-Au, 10-Au) :   0.2993
B(  5-Au, 12-Au) :   0.3253 B(  5-Au, 13-Au) :   0.2498 B(  5-Au, 16-Fe) :   0.4111
B(  6-Au, 13-Au) :   0.2523 B(  6-Au, 16-Fe) :   0.4410 B(  7-Au,  8-Au) :   0.2497
B(  7-Au,  9-Au) :   0.3108 B(  7-Au, 11-Au) :   0.2957 B(  7-Au, 14-Au) :   0.2056
B(  7-Au, 15-Au) :   0.3239 B(  8-Au,  9-Au) :   0.3084 B(  8-Au, 10-Au) :   0.2323
B(  8-Au, 15-Au) :   0.3356 B(  9-Au, 10-Au) :   0.3008 B(  9-Au, 12-Au) :   0.3047
B(  9-Au, 14-Au) :   0.2923 B( 10-Au, 12-Au) :   0.1984 B( 11-Au, 13-Au) :   0.2252
B( 11-Au, 14-Au) :   0.3284 B( 11-Au, 15-Au) :   0.1454 B( 11-Au, 16-Fe) :   0.4094
B( 12-Au, 13-Au) :   0.3424 B( 12-Au, 14-Au) :   0.2034 B( 13-Au, 14-Au) :   0.3361
B( 13-Au, 16-Fe) :   0.3995 B( 15-Au, 16-Fe) :   0.4090

FINAL SINGLE POINT ENERGY     -3436.730660371651

DIPOLE MOMENT
-------------
                                X             Y             Z
Electronic contribution:     11.12330      37.62096     -38.72096
Nuclear contribution   :    -11.33441     -38.31542      39.43295
                        -----------------------------------------
Total Dipole Moment    :     -0.21111      -0.69446       0.71199
                        -----------------------------------------
Magnitude (a.u.)       :      1.01675
Magnitude (Debye)      :      2.58437

Rotational constants in cm-1:     0.000965     0.000752     0.000746
Rotational constants in MHz :    28.920943    22.556033    22.374083

                             ****ORCA TERMINATED NORMALLY****
TOTAL RUN TIME: 0 days 0 hours 20 minutes 45 seconds 677 msec
