                         Program Version 5.0.3 -  RELEASE  -
|  1> !R2SCAN def2-TZVP VERYSLOWCONV
|  2> !KDIIS
|  3> %scf
|  4>   AutoTRAHIter 200
|  5>   maxiter 400
|  6> end
|  7>
|  8> %pal nprocs 6 end
|  9>
| 10> *xyzfile 0 5 pbe.xyz
| 11>
| 12> $new_job
| 13>
| 14> !R2SCAN def2-TZVP VERYSLOWCONV
| 15> !KDIIS
| 16> %scf
| 17>   AutoTRAHIter 200
| 18>   maxiter 400
| 19> end
| 20>
| 21>
| 22> %pal nprocs 6 end
| 23>
| 24> *xyzfile 0 3 pbe.xyz
| 25>
| 26>
| 27>
| 28>
| 29>
| 30>                          ****END OF INPUT****
 Total Charge           Charge          ....    0
 Multiplicity           Mult            ....    5
 Number of Electrons    NEL             ....  330
FINAL SINGLE POINT ENERGY     -3437.300107029304

CARTESIAN COORDINATES (ANGSTROEM)
---------------------------------
  Au     8.757245    7.215933    9.705132
  Au     8.599395    5.250916    7.683042
  Au     6.203545    8.366468   10.065624
  Au     4.424372    7.069683    8.297387
  Au     5.310491    9.658294    7.709652
  Au     5.195190    7.622967    5.620011
  Au     5.877405    5.155306    6.795759
  Au     9.698205   10.472123    6.415092
  Au     7.160616   11.495522    6.794634
  Au     8.030861   10.882855    4.191048
  Au     5.383989   10.347029    4.998123
  Au     9.716988    7.757970    7.083410
  Au     6.855569    8.434049    3.541116
  Au     7.828078    6.502203    5.275027
  Au     9.536012    8.516414    4.410748
  Au     8.214947    9.763483    8.668807
  Fe     7.003416    7.405863    7.733700

 Multiplicity           Mult            ....    3
 Number of Electrons    NEL             ....  330
 Basis Dimension        Dim             ....  685

ORBITAL ENERGIES
----------------
                 SPIN UP ORBITALS
  NO   OCC          E(Eh)            E(eV)
   0   1.0000    -255.602691     -6955.3028
   1   1.0000     -29.890832      -813.3709
   2   1.0000     -25.724855      -700.0089
   3   1.0000     -25.724632      -700.0028
   4   1.0000     -25.718120      -699.8256
   5   1.0000      -4.129492      -112.3692
   6   1.0000      -4.127103      -112.3042
   7   1.0000      -4.125243      -112.2536
   8   1.0000      -4.124105      -112.2226
   9   1.0000      -4.123687      -112.2112
  10   1.0000      -4.123515      -112.2065
  11   1.0000      -4.122895      -112.1897
  12   1.0000      -4.122253      -112.1722
  13   1.0000      -4.120575      -112.1265
  14   1.0000      -4.119869      -112.1073
  15   1.0000      -4.113499      -111.9340
  16   1.0000      -4.112303      -111.9015
  17   1.0000      -4.111069      -111.8679
  18   1.0000      -4.110305      -111.8471
  19   1.0000      -4.109478      -111.8246
  20   1.0000      -4.103841      -111.6712
  21   1.0000      -3.468075       -94.3711
  22   1.0000      -2.318620       -63.0929
  23   1.0000      -2.316286       -63.0293
  24   1.0000      -2.314928       -62.9924
  25   1.0000      -2.314230       -62.9734
  26   1.0000      -2.314213       -62.9729
  27   1.0000      -2.313837       -62.9627
  28   1.0000      -2.313561       -62.9552
  29   1.0000      -2.311885       -62.9096
  30   1.0000      -2.311425       -62.8971
  31   1.0000      -2.311331       -62.8945
  32   1.0000      -2.311087       -62.8879
  33   1.0000      -2.310223       -62.8644
  34   1.0000      -2.309977       -62.8577
  35   1.0000      -2.309653       -62.8488
  36   1.0000      -2.309242       -62.8377
  37   1.0000      -2.308742       -62.8241
  38   1.0000      -2.308439       -62.8158
  39   1.0000      -2.308249       -62.8106
  40   1.0000      -2.307701       -62.7957
  41   1.0000      -2.307408       -62.7878
  42   1.0000      -2.307230       -62.7829
  43   1.0000      -2.306803       -62.7713
  44   1.0000      -2.306580       -62.7652
  45   1.0000      -2.306286       -62.7572
  46   1.0000      -2.306072       -62.7514
  47   1.0000      -2.305588       -62.7382
  48   1.0000      -2.305438       -62.7342
  49   1.0000      -2.304667       -62.7132
  50   1.0000      -2.303709       -62.6871
  51   1.0000      -2.302752       -62.6611
  52   1.0000      -2.302223       -62.6467
  53   1.0000      -2.301106       -62.6163
  54   1.0000      -2.300013       -62.5865
  55   1.0000      -2.299531       -62.5734
  56   1.0000      -2.298612       -62.5484
  57   1.0000      -2.298206       -62.5374
  58   1.0000      -2.298079       -62.5339
  59   1.0000      -2.297540       -62.5192
  60   1.0000      -2.296739       -62.4974
  61   1.0000      -2.296246       -62.4840
  62   1.0000      -2.295734       -62.4701
  63   1.0000      -2.294536       -62.4375
  64   1.0000      -2.293729       -62.4155
  65   1.0000      -2.292837       -62.3913
  66   1.0000      -2.291481       -62.3544
  67   1.0000      -2.290487       -62.3273
  68   1.0000      -2.290265       -62.3213
  69   1.0000      -2.285783       -62.1993
  70   1.0000      -2.239556       -60.9414
  71   1.0000      -2.239041       -60.9274
  72   1.0000      -2.224268       -60.5254
  73   1.0000      -0.437570       -11.9069
  74   1.0000      -0.399058       -10.8589
  75   1.0000      -0.398732       -10.8501
  76   1.0000      -0.391796       -10.6613
  77   1.0000      -0.390536       -10.6270
  78   1.0000      -0.390129       -10.6160
  79   1.0000      -0.374996       -10.2042
  80   1.0000      -0.371811       -10.1175
  81   1.0000      -0.370304       -10.0765
  82   1.0000      -0.367953       -10.0125
  83   1.0000      -0.367781       -10.0078
  84   1.0000      -0.366597        -9.9756
  85   1.0000      -0.364676        -9.9233
  86   1.0000      -0.364093        -9.9075
  87   1.0000      -0.360788        -9.8175
  88   1.0000      -0.360244        -9.8027
  89   1.0000      -0.358347        -9.7511
  90   1.0000      -0.356190        -9.6924
  91   1.0000      -0.352356        -9.5881
  92   1.0000      -0.351993        -9.5782
  93   1.0000      -0.351363        -9.5611
  94   1.0000      -0.350618        -9.5408
  95   1.0000      -0.349462        -9.5094
  96   1.0000      -0.348416        -9.4809
  97   1.0000      -0.347914        -9.4672
  98   1.0000      -0.346447        -9.4273
  99   1.0000      -0.342295        -9.3143
 100   1.0000      -0.337550        -9.1852
 101   1.0000      -0.337275        -9.1777
 102   1.0000      -0.334153        -9.0928
 103   1.0000      -0.331812        -9.0291
 104   1.0000      -0.330910        -9.0045
 105   1.0000      -0.329707        -8.9718
 106   1.0000      -0.329081        -8.9547
 107   1.0000      -0.328756        -8.9459
 108   1.0000      -0.327652        -8.9159
 109   1.0000      -0.322426        -8.7737
 110   1.0000      -0.318255        -8.6602
 111   1.0000      -0.315434        -8.5834
 112   1.0000      -0.314711        -8.5637
 113   1.0000      -0.314442        -8.5564
 114   1.0000      -0.313638        -8.5345
 115   1.0000      -0.308009        -8.3814
 116   1.0000      -0.305717        -8.3190
 117   1.0000      -0.300978        -8.1900
 118   1.0000      -0.294682        -8.0187
 119   1.0000      -0.294068        -8.0020
 120   1.0000      -0.293935        -7.9984
 121   1.0000      -0.293182        -7.9779
 122   1.0000      -0.288784        -7.8582
 123   1.0000      -0.288388        -7.8474
 124   1.0000      -0.286860        -7.8059
 125   1.0000      -0.285866        -7.7788
 126   1.0000      -0.284301        -7.7362
 127   1.0000      -0.284120        -7.7313
 128   1.0000      -0.283984        -7.7276
 129   1.0000      -0.281874        -7.6702
 130   1.0000      -0.280972        -7.6456
 131   1.0000      -0.280763        -7.6400
 132   1.0000      -0.280088        -7.6216
 133   1.0000      -0.276727        -7.5301
 134   1.0000      -0.276331        -7.5193
 135   1.0000      -0.274109        -7.4589
 136   1.0000      -0.271634        -7.3915
 137   1.0000      -0.270548        -7.3620
 138   1.0000      -0.268371        -7.3027
 139   1.0000      -0.267910        -7.2902
 140   1.0000      -0.266642        -7.2557
 141   1.0000      -0.266387        -7.2488
 142   1.0000      -0.265334        -7.2201
 143   1.0000      -0.263848        -7.1797
 144   1.0000      -0.260663        -7.0930
 145   1.0000      -0.259445        -7.0598
 146   1.0000      -0.258681        -7.0391
 147   1.0000      -0.255792        -6.9604
 148   1.0000      -0.255432        -6.9507
 149   1.0000      -0.254619        -6.9285
 150   1.0000      -0.254312        -6.9202
 151   1.0000      -0.252726        -6.8770
 152   1.0000      -0.250109        -6.8058
 153   1.0000      -0.249832        -6.7983
 154   1.0000      -0.247256        -6.7282
 155   1.0000      -0.247165        -6.7257
 156   1.0000      -0.243563        -6.6277
 157   1.0000      -0.243167        -6.6169
 158   1.0000      -0.242458        -6.5976
 159   1.0000      -0.238335        -6.4854
 160   1.0000      -0.235719        -6.4143
 161   1.0000      -0.232690        -6.3318
 162   1.0000      -0.222824        -6.0634
 163   1.0000      -0.221885        -6.0378
 164   1.0000      -0.209354        -5.6968
 165   1.0000      -0.198877        -5.4117
 166   0.0000      -0.196282        -5.3411
 167   0.0000      -0.142211        -3.8698
 168   0.0000      -0.139516        -3.7964
 169   0.0000      -0.139293        -3.7904
 170   0.0000      -0.137331        -3.7370

                 SPIN DOWN ORBITALS
  NO   OCC          E(Eh)            E(eV)
   0   1.0000    -255.601839     -6955.2796
   1   1.0000     -29.823282      -811.5328
   2   1.0000     -25.672419      -698.5820
   3   1.0000     -25.672348      -698.5801
   4   1.0000     -25.668246      -698.4685
   5   1.0000      -4.129893      -112.3801
   6   1.0000      -4.127365      -112.3113
   7   1.0000      -4.125130      -112.2505
   8   1.0000      -4.124134      -112.2234
   9   1.0000      -4.123577      -112.2082
  10   1.0000      -4.123082      -112.1948
  11   1.0000      -4.122189      -112.1705
  12   1.0000      -4.122044      -112.1665
  13   1.0000      -4.120231      -112.1172
  14   1.0000      -4.119402      -112.0946
  15   1.0000      -4.114089      -111.9501
  16   1.0000      -4.112861      -111.9166
  17   1.0000      -4.111544      -111.8808
  18   1.0000      -4.110614      -111.8555
  19   1.0000      -4.109754      -111.8321
  20   1.0000      -4.104242      -111.6821
  21   1.0000      -3.313115       -90.1544
  22   1.0000      -2.319026       -63.1039
  23   1.0000      -2.316498       -63.0351
  24   1.0000      -2.315062       -62.9960
  25   1.0000      -2.314515       -62.9812
  26   1.0000      -2.313670       -62.9582
  27   1.0000      -2.313528       -62.9543
  28   1.0000      -2.313066       -62.9417
  29   1.0000      -2.311940       -62.9111
  30   1.0000      -2.311283       -62.8932
  31   1.0000      -2.310756       -62.8789
  32   1.0000      -2.310643       -62.8758
  33   1.0000      -2.310068       -62.8602
  34   1.0000      -2.309701       -62.8502
  35   1.0000      -2.309584       -62.8470
  36   1.0000      -2.309035       -62.8320
  37   1.0000      -2.308274       -62.8113
  38   1.0000      -2.308106       -62.8068
  39   1.0000      -2.307713       -62.7961
  40   1.0000      -2.307434       -62.7885
  41   1.0000      -2.307210       -62.7824
  42   1.0000      -2.306863       -62.7729
  43   1.0000      -2.306689       -62.7682
  44   1.0000      -2.306144       -62.7534
  45   1.0000      -2.305941       -62.7478
  46   1.0000      -2.305555       -62.7373
  47   1.0000      -2.305170       -62.7269
  48   1.0000      -2.304609       -62.7116
  49   1.0000      -2.304339       -62.7043
  50   1.0000      -2.303094       -62.6704
  51   1.0000      -2.302742       -62.6608
  52   1.0000      -2.301957       -62.6394
  53   1.0000      -2.301748       -62.6338
  54   1.0000      -2.300490       -62.5995
  55   1.0000      -2.300182       -62.5911
  56   1.0000      -2.299010       -62.5592
  57   1.0000      -2.298746       -62.5521
  58   1.0000      -2.298466       -62.5444
  59   1.0000      -2.297857       -62.5279
  60   1.0000      -2.296968       -62.5037
  61   1.0000      -2.296641       -62.4948
  62   1.0000      -2.296119       -62.4806
  63   1.0000      -2.294940       -62.4485
  64   1.0000      -2.294102       -62.4257
  65   1.0000      -2.293184       -62.4007
  66   1.0000      -2.291860       -62.3647
  67   1.0000      -2.291019       -62.3418
  68   1.0000      -2.290667       -62.3322
  69   1.0000      -2.285899       -62.2025
  70   1.0000      -2.086850       -56.7861
  71   1.0000      -2.086761       -56.7837
  72   1.0000      -2.075074       -56.4656
  73   1.0000      -0.434946       -11.8355
  74   1.0000      -0.399807       -10.8793
  75   1.0000      -0.399495       -10.8708
  76   1.0000      -0.391182       -10.6446
  77   1.0000      -0.388024       -10.5587
  78   1.0000      -0.385486       -10.4896
  79   1.0000      -0.375840       -10.2271
  80   1.0000      -0.371597       -10.1117
  81   1.0000      -0.371297       -10.1035
  82   1.0000      -0.368563       -10.0291
  83   1.0000      -0.368109       -10.0168
  84   1.0000      -0.367094        -9.9891
  85   1.0000      -0.362137        -9.8542
  86   1.0000      -0.361467        -9.8360
  87   1.0000      -0.360535        -9.8107
  88   1.0000      -0.359133        -9.7725
  89   1.0000      -0.356723        -9.7069
  90   1.0000      -0.355224        -9.6661
  91   1.0000      -0.353023        -9.6062
  92   1.0000      -0.352392        -9.5891
  93   1.0000      -0.351735        -9.5712
  94   1.0000      -0.351326        -9.5601
  95   1.0000      -0.349727        -9.5165
  96   1.0000      -0.348013        -9.4699
  97   1.0000      -0.347198        -9.4477
  98   1.0000      -0.346172        -9.4198
  99   1.0000      -0.341985        -9.3059
 100   1.0000      -0.335838        -9.1386
 101   1.0000      -0.335379        -9.1261
 102   1.0000      -0.334548        -9.1035
 103   1.0000      -0.332312        -9.0427
 104   1.0000      -0.331466        -9.0197
 105   1.0000      -0.330325        -8.9886
 106   1.0000      -0.329606        -8.9690
 107   1.0000      -0.323046        -8.7905
 108   1.0000      -0.321003        -8.7349
 109   1.0000      -0.320770        -8.7286
 110   1.0000      -0.317835        -8.6487
 111   1.0000      -0.314465        -8.5570
 112   1.0000      -0.313843        -8.5401
 113   1.0000      -0.312802        -8.5118
 114   1.0000      -0.311463        -8.4753
 115   1.0000      -0.305177        -8.3043
 116   1.0000      -0.302363        -8.2277
 117   1.0000      -0.301333        -8.1997
 118   1.0000      -0.294738        -8.0202
 119   1.0000      -0.293870        -7.9966
 120   1.0000      -0.291651        -7.9362
 121   1.0000      -0.290761        -7.9120
 122   1.0000      -0.289069        -7.8660
 123   1.0000      -0.288862        -7.8603
 124   1.0000      -0.286917        -7.8074
 125   1.0000      -0.286111        -7.7855
 126   1.0000      -0.284791        -7.7496
 127   1.0000      -0.283459        -7.7133
 128   1.0000      -0.283267        -7.7081
 129   1.0000      -0.281799        -7.6681
 130   1.0000      -0.281290        -7.6543
 131   1.0000      -0.279494        -7.6054
 132   1.0000      -0.278635        -7.5820
 133   1.0000      -0.276243        -7.5170
 134   1.0000      -0.275942        -7.5088
 135   1.0000      -0.275107        -7.4860
 136   1.0000      -0.271802        -7.3961
 137   1.0000      -0.270259        -7.3541
 138   1.0000      -0.268786        -7.3141
 139   1.0000      -0.268326        -7.3015
 140   1.0000      -0.267777        -7.2866
 141   1.0000      -0.267099        -7.2681
 142   1.0000      -0.265817        -7.2332
 143   1.0000      -0.264473        -7.1967
 144   1.0000      -0.262197        -7.1347
 145   1.0000      -0.259937        -7.0732
 146   1.0000      -0.259717        -7.0673
 147   1.0000      -0.256482        -6.9792
 148   1.0000      -0.256152        -6.9702
 149   1.0000      -0.255665        -6.9570
 150   1.0000      -0.255401        -6.9498
 151   1.0000      -0.248981        -6.7751
 152   1.0000      -0.247710        -6.7405
 153   1.0000      -0.247516        -6.7352
 154   1.0000      -0.245991        -6.6938
 155   1.0000      -0.245445        -6.6789
 156   1.0000      -0.235909        -6.4194
 157   1.0000      -0.227596        -6.1932
 158   1.0000      -0.226635        -6.1671
 159   1.0000      -0.214514        -5.8372
 160   1.0000      -0.211349        -5.7511
 161   1.0000      -0.210354        -5.7240
 162   1.0000      -0.174105        -4.7376
 163   1.0000      -0.162116        -4.4114
 164   0.0000      -0.149852        -4.0777
 165   0.0000      -0.149360        -4.0643
 166   0.0000      -0.147412        -4.0113
 167   0.0000      -0.137544        -3.7428
 168   0.0000      -0.136964        -3.7270

MULLIKEN ATOMIC CHARGES AND SPIN POPULATIONS
--------------------------------------------
   0 Au:    0.410343   -0.063811
   1 Au:    0.390368    0.002638
   2 Au:    0.416836   -0.086776
   3 Au:    0.398666   -0.029008
   4 Au:   -0.259184   -0.036177
   5 Au:   -0.232088   -0.125286
   6 Au:    0.386282    0.026867
   7 Au:    0.258687   -0.055103
   8 Au:    0.220687   -0.067838
   9 Au:   -0.008581   -0.005947
  10 Au:    0.252754   -0.070895
  11 Au:   -0.242735   -0.093562
  12 Au:    0.207270   -0.078208
  13 Au:   -0.262037   -0.143240
  14 Au:    0.240490   -0.057692
  15 Au:   -0.278079   -0.019027
  16 Fe:   -1.899678    2.903065
Sum of atomic charges         :   -0.0000000

LOEWDIN ATOMIC CHARGES AND SPIN POPULATIONS
-------------------------------------------
   0 Au:    0.120388   -0.054266
   1 Au:    0.117088   -0.031155
   2 Au:    0.122282   -0.063727
   3 Au:    0.117242   -0.041553
   4 Au:   -0.022419   -0.051325
   5 Au:   -0.023690   -0.073574
   6 Au:    0.116979   -0.021527
   7 Au:    0.012067   -0.072205
   8 Au:    0.000221   -0.075774
   9 Au:   -0.025740   -0.013956
  10 Au:    0.015288   -0.074094
  11 Au:   -0.023048   -0.065742
  12 Au:    0.008814   -0.065269
  13 Au:   -0.029089   -0.075159
  14 Au:    0.013129   -0.063705
  15 Au:   -0.021869   -0.043066
  16 Fe:   -0.497642    2.886096

  Mayer bond orders larger than 0.100000
B(  0-Au,  1-Au) :   0.1404 B(  0-Au,  2-Au) :   0.1702 B(  0-Au, 11-Au) :   0.2042
B(  0-Au, 15-Au) :   0.2380 B(  0-Au, 16-Fe) :   0.4393 B(  1-Au,  6-Au) :   0.1086
B(  1-Au, 11-Au) :   0.2626 B(  1-Au, 13-Au) :   0.2268 B(  1-Au, 16-Fe) :   0.4357
B(  2-Au,  3-Au) :   0.1568 B(  2-Au,  4-Au) :   0.2081 B(  2-Au, 15-Au) :   0.2162
B(  2-Au, 16-Fe) :   0.4386 B(  3-Au,  4-Au) :   0.2580 B(  3-Au,  5-Au) :   0.2076
B(  3-Au,  6-Au) :   0.1246 B(  3-Au, 16-Fe) :   0.4392 B(  4-Au,  5-Au) :   0.1646
B(  4-Au,  8-Au) :   0.3038 B(  4-Au, 10-Au) :   0.3833 B(  4-Au, 16-Fe) :   0.3531
B(  5-Au,  6-Au) :   0.2552 B(  5-Au, 10-Au) :   0.2762 B(  5-Au, 12-Au) :   0.3627
B(  5-Au, 13-Au) :   0.2478 B(  5-Au, 16-Fe) :   0.3541 B(  6-Au, 13-Au) :   0.2417
B(  6-Au, 16-Fe) :   0.4336 B(  7-Au,  8-Au) :   0.2473 B(  7-Au,  9-Au) :   0.2843
B(  7-Au, 11-Au) :   0.2749 B(  7-Au, 14-Au) :   0.1919 B(  7-Au, 15-Au) :   0.3586
B(  8-Au,  9-Au) :   0.2835 B(  8-Au, 10-Au) :   0.2280 B(  8-Au, 15-Au) :   0.3421
B(  9-Au, 10-Au) :   0.2725 B(  9-Au, 12-Au) :   0.2841 B(  9-Au, 14-Au) :   0.2728
B( 10-Au, 12-Au) :   0.1526 B( 11-Au, 13-Au) :   0.2165 B( 11-Au, 14-Au) :   0.3904
B( 11-Au, 15-Au) :   0.1119 B( 11-Au, 16-Fe) :   0.3487 B( 12-Au, 13-Au) :   0.3447
B( 12-Au, 14-Au) :   0.1408 B( 13-Au, 14-Au) :   0.3056 B( 13-Au, 16-Fe) :   0.3638
B( 15-Au, 16-Fe) :   0.3626

FINAL SINGLE POINT ENERGY     -3437.261628717024

DIPOLE MOMENT
-------------
                                X             Y             Z
Electronic contribution:     11.12383      37.55102     -38.78128
Nuclear contribution   :    -11.33441     -38.31542      39.43295
                        -----------------------------------------
Total Dipole Moment    :     -0.21058      -0.76441       0.65168
                        -----------------------------------------
Magnitude (a.u.)       :      1.02633
Magnitude (Debye)      :      2.60871

Rotational constants in cm-1:     0.000965     0.000752     0.000746
Rotational constants in MHz :    28.920943    22.556033    22.374083

                             ****ORCA TERMINATED NORMALLY****
TOTAL RUN TIME: 0 days 0 hours 8 minutes 48 seconds 635 msec
