                         Program Version 5.0.3 -  RELEASE  -
|  1> !RI-B2PLYP def2-TZVP def2-TZVP/C
|  2> !RIJCOSX VERYSLOWCONV
|  3>
|  4> %scf
|  5>   AutoTRAHIter 200
|  6>   maxiter 400
|  7> end
|  8>
|  9>
| 10> %pal nprocs 6 end
| 11>
| 12> *xyzfile 0 6 pbe.xyz
| 13>
| 14> $new_job
| 15>
| 16> !RI-B2PLYP def2-TZVP def2-TZVP/C
| 17> !RIJCOSX VERYSLOWCONV
| 18>
| 19> %scf
| 20>   AutoTRAHIter 200
| 21>   maxiter 400
| 22> end
| 23>
| 24>
| 25> %pal nprocs 6 end
| 26>
| 27> *xyzfile 0 4 pbe.xyz
| 28>
| 29>
| 30>
| 31>
| 32>
| 33>                          ****END OF INPUT****
 Total Charge           Charge          ....    0
 Multiplicity           Mult            ....    6
 Number of Electrons    NEL             ....  311
MP2 TOTAL ENERGY:    -3297.363640524 Eh
FINAL SINGLE POINT ENERGY     -3297.363640524268

CARTESIAN COORDINATES (ANGSTROEM)
---------------------------------
  Au     9.872968    8.816973    7.869755
  Au     9.105033    7.541337   10.201664
  Au     6.074914    5.758055    8.363069
  Au     8.834550    6.218030    7.804319
  Au     8.353910   10.760352    9.122591
  Au     4.422554    7.924130    9.001828
  Au     7.565348    9.485074   11.466313
  Au     5.616288   10.331039    9.667917
  Au     6.377827    7.068061   10.762152
  Au     6.370866    8.566021    4.843778
  Au     7.003147    5.857912    5.746844
  Au     4.580200    7.060851    6.320192
  Au     8.958644    7.780941    5.417167
  Au     5.136731    9.766127    7.021041
  Au     7.901468   10.219295    6.463458
  Fe     7.143644    8.373851    8.450661

 Multiplicity           Mult            ....    4
 Number of Electrons    NEL             ....  311
 Basis Dimension        Dim             ....  645

ORBITAL ENERGIES
----------------
                 SPIN UP ORBITALS
  NO   OCC          E(Eh)            E(eV)
   0   1.0000    -258.348255     -7030.0134
   1   1.0000     -30.904931      -840.9659
   2   1.0000     -26.617537      -724.3000
   3   1.0000     -26.608269      -724.0478
   4   1.0000     -26.584202      -723.3929
   5   1.0000      -4.407669      -119.9388
   6   1.0000      -4.407381      -119.9309
   7   1.0000      -4.404468      -119.8517
   8   1.0000      -4.404403      -119.8499
   9   1.0000      -4.404296      -119.8470
  10   1.0000      -4.404122      -119.8422
  11   1.0000      -4.400001      -119.7301
  12   1.0000      -4.399982      -119.7296
  13   1.0000      -4.399646      -119.7204
  14   1.0000      -4.399586      -119.7188
  15   1.0000      -4.392981      -119.5391
  16   1.0000      -4.392484      -119.5256
  17   1.0000      -4.392379      -119.5227
  18   1.0000      -4.389834      -119.4534
  19   1.0000      -4.389750      -119.4512
  20   1.0000      -3.918593      -106.6303
  21   1.0000      -2.657851       -72.3238
  22   1.0000      -2.637777       -71.7776
  23   1.0000      -2.587342       -70.4052
  24   1.0000      -2.527707       -68.7824
  25   1.0000      -2.527459       -68.7757
  26   1.0000      -2.526605       -68.7524
  27   1.0000      -2.526345       -68.7453
  28   1.0000      -2.525160       -68.7131
  29   1.0000      -2.525023       -68.7094
  30   1.0000      -2.523697       -68.6733
  31   1.0000      -2.523370       -68.6644
  32   1.0000      -2.522786       -68.6485
  33   1.0000      -2.522632       -68.6443
  34   1.0000      -2.522524       -68.6414
  35   1.0000      -2.522489       -68.6404
  36   1.0000      -2.521160       -68.6042
  37   1.0000      -2.521003       -68.6000
  38   1.0000      -2.520223       -68.5788
  39   1.0000      -2.520084       -68.5750
  40   1.0000      -2.519263       -68.5526
  41   1.0000      -2.519225       -68.5516
  42   1.0000      -2.518324       -68.5271
  43   1.0000      -2.518079       -68.5204
  44   1.0000      -2.517726       -68.5108
  45   1.0000      -2.517675       -68.5094
  46   1.0000      -2.517419       -68.5025
  47   1.0000      -2.517368       -68.5011
  48   1.0000      -2.516437       -68.4757
  49   1.0000      -2.515665       -68.4547
  50   1.0000      -2.514530       -68.4238
  51   1.0000      -2.514474       -68.4223
  52   1.0000      -2.512812       -68.3771
  53   1.0000      -2.512634       -68.3723
  54   1.0000      -2.512505       -68.3687
  55   1.0000      -2.511656       -68.3456
  56   1.0000      -2.511197       -68.3332
  57   1.0000      -2.509927       -68.2986
  58   1.0000      -2.509631       -68.2905
  59   1.0000      -2.509328       -68.2823
  60   1.0000      -2.509223       -68.2794
  61   1.0000      -2.508626       -68.2632
  62   1.0000      -2.508228       -68.2523
  63   1.0000      -2.506798       -68.2134
  64   1.0000      -2.506497       -68.2053
  65   1.0000      -2.505858       -68.1879
  66   1.0000      -2.505763       -68.1853
  67   1.0000      -2.505544       -68.1793
  68   1.0000      -2.505446       -68.1767
  69   1.0000      -0.570175       -15.5152
  70   1.0000      -0.566036       -15.4026
  71   1.0000      -0.546576       -14.8731
  72   1.0000      -0.541033       -14.7223
  73   1.0000      -0.516436       -14.0529
  74   1.0000      -0.500895       -13.6301
  75   1.0000      -0.471781       -12.8378
  76   1.0000      -0.471732       -12.8365
  77   1.0000      -0.468978       -12.7615
  78   1.0000      -0.465842       -12.6762
  79   1.0000      -0.462625       -12.5887
  80   1.0000      -0.460932       -12.5426
  81   1.0000      -0.459522       -12.5042
  82   1.0000      -0.457888       -12.4598
  83   1.0000      -0.456450       -12.4206
  84   1.0000      -0.454732       -12.3739
  85   1.0000      -0.454271       -12.3613
  86   1.0000      -0.452539       -12.3142
  87   1.0000      -0.452285       -12.3073
  88   1.0000      -0.451113       -12.2754
  89   1.0000      -0.450100       -12.2478
  90   1.0000      -0.448251       -12.1975
  91   1.0000      -0.448120       -12.1940
  92   1.0000      -0.447877       -12.1874
  93   1.0000      -0.447174       -12.1682
  94   1.0000      -0.441487       -12.0135
  95   1.0000      -0.440247       -11.9797
  96   1.0000      -0.437759       -11.9120
  97   1.0000      -0.436008       -11.8644
  98   1.0000      -0.433842       -11.8054
  99   1.0000      -0.433449       -11.7947
 100   1.0000      -0.430240       -11.7074
 101   1.0000      -0.427640       -11.6367
 102   1.0000      -0.423325       -11.5193
 103   1.0000      -0.420084       -11.4311
 104   1.0000      -0.419120       -11.4048
 105   1.0000      -0.416930       -11.3452
 106   1.0000      -0.414334       -11.2746
 107   1.0000      -0.413669       -11.2565
 108   1.0000      -0.408917       -11.1272
 109   1.0000      -0.407489       -11.0883
 110   1.0000      -0.405287       -11.0284
 111   1.0000      -0.400242       -10.8911
 112   1.0000      -0.400119       -10.8878
 113   1.0000      -0.394775       -10.7424
 114   1.0000      -0.390485       -10.6256
 115   1.0000      -0.381816       -10.3897
 116   1.0000      -0.380048       -10.3416
 117   1.0000      -0.379652       -10.3309
 118   1.0000      -0.378523       -10.3001
 119   1.0000      -0.377826       -10.2812
 120   1.0000      -0.376781       -10.2527
 121   1.0000      -0.372231       -10.1289
 122   1.0000      -0.371485       -10.1086
 123   1.0000      -0.371351       -10.1050
 124   1.0000      -0.370525       -10.0825
 125   1.0000      -0.365316        -9.9407
 126   1.0000      -0.363447        -9.8899
 127   1.0000      -0.360538        -9.8107
 128   1.0000      -0.359394        -9.7796
 129   1.0000      -0.358336        -9.7508
 130   1.0000      -0.357808        -9.7364
 131   1.0000      -0.357612        -9.7311
 132   1.0000      -0.357117        -9.7176
 133   1.0000      -0.356039        -9.6883
 134   1.0000      -0.352705        -9.5976
 135   1.0000      -0.350479        -9.5370
 136   1.0000      -0.350303        -9.5322
 137   1.0000      -0.348521        -9.4837
 138   1.0000      -0.348430        -9.4813
 139   1.0000      -0.348148        -9.4736
 140   1.0000      -0.346219        -9.4211
 141   1.0000      -0.343531        -9.3480
 142   1.0000      -0.340584        -9.2678
 143   1.0000      -0.337962        -9.1964
 144   1.0000      -0.337057        -9.1718
 145   1.0000      -0.335758        -9.1364
 146   1.0000      -0.333897        -9.0858
 147   1.0000      -0.328643        -8.9428
 148   1.0000      -0.328051        -8.9267
 149   1.0000      -0.327882        -8.9221
 150   1.0000      -0.315516        -8.5856
 151   1.0000      -0.309466        -8.4210
 152   1.0000      -0.305288        -8.3073
 153   1.0000      -0.246857        -6.7173
 154   1.0000      -0.232856        -6.3363
 155   1.0000      -0.228957        -6.2302
 156   1.0000      -0.224799        -6.1171
 157   0.0000      -0.129731        -3.5302
 158   0.0000      -0.081868        -2.2277
 159   0.0000      -0.077666        -2.1134
 160   0.0000      -0.075748        -2.0612
 161   0.0000      -0.064391        -1.7522

                 SPIN DOWN ORBITALS
  NO   OCC          E(Eh)            E(eV)
   0   1.0000    -258.346347     -7029.9615
   1   1.0000     -30.811936      -838.4354
   2   1.0000     -26.522149      -721.7044
   3   1.0000     -26.519758      -721.6393
   4   1.0000     -26.513331      -721.4644
   5   1.0000      -4.408061      -119.9494
   6   1.0000      -4.407801      -119.9424
   7   1.0000      -4.404107      -119.8418
   8   1.0000      -4.404040      -119.8400
   9   1.0000      -4.403957      -119.8378
  10   1.0000      -4.403791      -119.8332
  11   1.0000      -4.399615      -119.7196
  12   1.0000      -4.399599      -119.7192
  13   1.0000      -4.399275      -119.7104
  14   1.0000      -4.399219      -119.7088
  15   1.0000      -4.393429      -119.5513
  16   1.0000      -4.392989      -119.5393
  17   1.0000      -4.392881      -119.5364
  18   1.0000      -4.390596      -119.4742
  19   1.0000      -4.390527      -119.4723
  20   1.0000      -3.673397       -99.9582
  21   1.0000      -2.526989       -68.7629
  22   1.0000      -2.526803       -68.7578
  23   1.0000      -2.526445       -68.7481
  24   1.0000      -2.526104       -68.7388
  25   1.0000      -2.525385       -68.7192
  26   1.0000      -2.525240       -68.7153
  27   1.0000      -2.522923       -68.6522
  28   1.0000      -2.522511       -68.6410
  29   1.0000      -2.522258       -68.6341
  30   1.0000      -2.521944       -68.6256
  31   1.0000      -2.521912       -68.6247
  32   1.0000      -2.521810       -68.6219
  33   1.0000      -2.520408       -68.5838
  34   1.0000      -2.520274       -68.5801
  35   1.0000      -2.520111       -68.5757
  36   1.0000      -2.519974       -68.5720
  37   1.0000      -2.518372       -68.5284
  38   1.0000      -2.518318       -68.5269
  39   1.0000      -2.517975       -68.5176
  40   1.0000      -2.517880       -68.5150
  41   1.0000      -2.517337       -68.5002
  42   1.0000      -2.517149       -68.4951
  43   1.0000      -2.516804       -68.4857
  44   1.0000      -2.516737       -68.4839
  45   1.0000      -2.515735       -68.4566
  46   1.0000      -2.514801       -68.4312
  47   1.0000      -2.514503       -68.4231
  48   1.0000      -2.514468       -68.4221
  49   1.0000      -2.513366       -68.3922
  50   1.0000      -2.512735       -68.3750
  51   1.0000      -2.512692       -68.3738
  52   1.0000      -2.512240       -68.3615
  53   1.0000      -2.511723       -68.3475
  54   1.0000      -2.510563       -68.3159
  55   1.0000      -2.510465       -68.3132
  56   1.0000      -2.510149       -68.3046
  57   1.0000      -2.509714       -68.2928
  58   1.0000      -2.509122       -68.2767
  59   1.0000      -2.508576       -68.2618
  60   1.0000      -2.507685       -68.2376
  61   1.0000      -2.507480       -68.2320
  62   1.0000      -2.506492       -68.2051
  63   1.0000      -2.506156       -68.1960
  64   1.0000      -2.505883       -68.1886
  65   1.0000      -2.505822       -68.1869
  66   1.0000      -2.354955       -64.0816
  67   1.0000      -2.345970       -63.8371
  68   1.0000      -2.342189       -63.7342
  69   1.0000      -0.511414       -13.9163
  70   1.0000      -0.474646       -12.9158
  71   1.0000      -0.473130       -12.8745
  72   1.0000      -0.473038       -12.8720
  73   1.0000      -0.470917       -12.8143
  74   1.0000      -0.470752       -12.8098
  75   1.0000      -0.466670       -12.6987
  76   1.0000      -0.463075       -12.6009
  77   1.0000      -0.462383       -12.5821
  78   1.0000      -0.460258       -12.5243
  79   1.0000      -0.458582       -12.4786
  80   1.0000      -0.456657       -12.4263
  81   1.0000      -0.456579       -12.4242
  82   1.0000      -0.456060       -12.4100
  83   1.0000      -0.453667       -12.3449
  84   1.0000      -0.453588       -12.3428
  85   1.0000      -0.453194       -12.3320
  86   1.0000      -0.452117       -12.3027
  87   1.0000      -0.451995       -12.2994
  88   1.0000      -0.450762       -12.2658
  89   1.0000      -0.449896       -12.2423
  90   1.0000      -0.446387       -12.1468
  91   1.0000      -0.443200       -12.0601
  92   1.0000      -0.439585       -11.9617
  93   1.0000      -0.436849       -11.8873
  94   1.0000      -0.435123       -11.8403
  95   1.0000      -0.434498       -11.8233
  96   1.0000      -0.428017       -11.6469
  97   1.0000      -0.423737       -11.5305
  98   1.0000      -0.422519       -11.4973
  99   1.0000      -0.420476       -11.4417
 100   1.0000      -0.417757       -11.3677
 101   1.0000      -0.417430       -11.3588
 102   1.0000      -0.413868       -11.2619
 103   1.0000      -0.410263       -11.1638
 104   1.0000      -0.410139       -11.1604
 105   1.0000      -0.409554       -11.1445
 106   1.0000      -0.402637       -10.9563
 107   1.0000      -0.400594       -10.9007
 108   1.0000      -0.398085       -10.8324
 109   1.0000      -0.393945       -10.7198
 110   1.0000      -0.391341       -10.6489
 111   1.0000      -0.384464       -10.4618
 112   1.0000      -0.382709       -10.4141
 113   1.0000      -0.382186       -10.3998
 114   1.0000      -0.380352       -10.3499
 115   1.0000      -0.377258       -10.2657
 116   1.0000      -0.374416       -10.1884
 117   1.0000      -0.371753       -10.1159
 118   1.0000      -0.370173       -10.0729
 119   1.0000      -0.369788       -10.0624
 120   1.0000      -0.368142       -10.0177
 121   1.0000      -0.365712        -9.9515
 122   1.0000      -0.363642        -9.8952
 123   1.0000      -0.362102        -9.8533
 124   1.0000      -0.358636        -9.7590
 125   1.0000      -0.358305        -9.7500
 126   1.0000      -0.357972        -9.7409
 127   1.0000      -0.357746        -9.7348
 128   1.0000      -0.357248        -9.7212
 129   1.0000      -0.356324        -9.6961
 130   1.0000      -0.353765        -9.6264
 131   1.0000      -0.351592        -9.5673
 132   1.0000      -0.350143        -9.5279
 133   1.0000      -0.349510        -9.5107
 134   1.0000      -0.349357        -9.5065
 135   1.0000      -0.349013        -9.4971
 136   1.0000      -0.348713        -9.4890
 137   1.0000      -0.345633        -9.4052
 138   1.0000      -0.341265        -9.2863
 139   1.0000      -0.340321        -9.2606
 140   1.0000      -0.338036        -9.1984
 141   1.0000      -0.335865        -9.1393
 142   1.0000      -0.333614        -9.0781
 143   1.0000      -0.329863        -8.9760
 144   1.0000      -0.329197        -8.9579
 145   1.0000      -0.328093        -8.9279
 146   1.0000      -0.319951        -8.7063
 147   1.0000      -0.314306        -8.5527
 148   1.0000      -0.308991        -8.4081
 149   1.0000      -0.248580        -6.7642
 150   1.0000      -0.240629        -6.5478
 151   1.0000      -0.236431        -6.4336
 152   1.0000      -0.235586        -6.4106
 153   1.0000      -0.217496        -5.9184
 154   0.0000      -0.081720        -2.2237
 155   0.0000      -0.079040        -2.1508
 156   0.0000      -0.074281        -2.0213
 157   0.0000      -0.068121        -1.8537
 158   0.0000      -0.058025        -1.5789

MULLIKEN ATOMIC CHARGES AND SPIN POPULATIONS
--------------------------------------------
   0 Au:    0.230789   -0.170641
   1 Au:    0.141349    0.024151
   2 Au:    0.024563   -0.042521
   3 Au:    0.022802   -0.042274
   4 Au:    0.141356    0.023916
   5 Au:    0.230656   -0.171201
   6 Au:    0.273871   -0.019646
   7 Au:    0.138641    0.023287
   8 Au:    0.138934    0.023468
   9 Au:    0.162648    0.033132
  10 Au:    0.163539    0.032925
  11 Au:    0.065441   -0.080611
  12 Au:    0.063876   -0.084285
  13 Au:    0.024034   -0.041757
  14 Au:    0.021618   -0.042376
  15 Fe:   -1.844117    3.534431
Sum of atomic charges         :   -0.0000000

LOEWDIN ATOMIC CHARGES AND SPIN POPULATIONS
-------------------------------------------
   0 Au:    0.019030   -0.081458
   1 Au:    0.027024   -0.016352
   2 Au:    0.004855   -0.058906
   3 Au:    0.005355   -0.058571
   4 Au:    0.026979   -0.016453
   5 Au:    0.018432   -0.081211
   6 Au:    0.061280   -0.020296
   7 Au:    0.027755   -0.017367
   8 Au:    0.027946   -0.017356
   9 Au:    0.001567   -0.011390
  10 Au:    0.001931   -0.011423
  11 Au:    0.000642   -0.048803
  12 Au:    0.000969   -0.050850
  13 Au:    0.004657   -0.058644
  14 Au:    0.005136   -0.058399
  15 Fe:   -0.233561    3.607481

  Mayer bond orders larger than 0.100000
B(  0-Au,  1-Au) :   0.2028 B(  0-Au,  3-Au) :   0.1774 B(  0-Au,  4-Au) :   0.2032
B(  0-Au, 12-Au) :   0.2161 B(  0-Au, 14-Au) :   0.1779 B(  0-Au, 15-Fe) :   0.3684
B(  1-Au,  3-Au) :   0.2649 B(  1-Au,  6-Au) :   0.2324 B(  1-Au,  8-Au) :   0.1820
B(  1-Au, 15-Fe) :   0.3927 B(  2-Au,  3-Au) :   0.1417 B(  2-Au,  5-Au) :   0.1770
B(  2-Au,  8-Au) :   0.2663 B(  2-Au, 10-Au) :   0.2789 B(  2-Au, 11-Au) :   0.2211
B(  2-Au, 15-Fe) :   0.4275 B(  3-Au, 10-Au) :   0.2798 B(  3-Au, 12-Au) :   0.2168
B(  3-Au, 15-Fe) :   0.4323 B(  4-Au,  6-Au) :   0.2327 B(  4-Au,  7-Au) :   0.1822
B(  4-Au, 14-Au) :   0.2653 B(  4-Au, 15-Fe) :   0.3921 B(  5-Au,  7-Au) :   0.2023
B(  5-Au,  8-Au) :   0.2025 B(  5-Au, 11-Au) :   0.2109 B(  5-Au, 13-Au) :   0.1776
B(  5-Au, 15-Fe) :   0.3748 B(  6-Au,  7-Au) :   0.2329 B(  6-Au,  8-Au) :   0.2329
B(  6-Au, 15-Fe) :   0.1796 B(  7-Au, 13-Au) :   0.2674 B(  7-Au, 15-Fe) :   0.3898
B(  8-Au, 15-Fe) :   0.3905 B(  9-Au, 10-Au) :   0.1521 B(  9-Au, 11-Au) :   0.2587
B(  9-Au, 12-Au) :   0.2607 B(  9-Au, 13-Au) :   0.2803 B(  9-Au, 14-Au) :   0.2816
B( 10-Au, 11-Au) :   0.2594 B( 10-Au, 12-Au) :   0.2620 B( 11-Au, 13-Au) :   0.2197
B( 11-Au, 15-Fe) :   0.1694 B( 12-Au, 14-Au) :   0.2169 B( 12-Au, 15-Fe) :   0.1681
B( 13-Au, 14-Au) :   0.1406 B( 13-Au, 15-Fe) :   0.4268 B( 14-Au, 15-Fe) :   0.4325

MP2 TOTAL ENERGY:    -3297.367299994 Eh
FINAL SINGLE POINT ENERGY     -3297.367299994084

DIPOLE MOMENT
-------------
                                X             Y             Z
Electronic contribution:     -2.44754      -6.12962     -16.70565
Nuclear contribution   :      2.49821       6.25321      17.04475
                        -----------------------------------------
Total Dipole Moment    :      0.05067       0.12359       0.33910
                        -----------------------------------------
Magnitude (a.u.)       :      0.36446
Magnitude (Debye)      :      0.92639

Rotational constants in cm-1:     0.001104     0.000891     0.000830
Rotational constants in MHz :    33.100872    26.703508    24.883836

                             ****ORCA TERMINATED NORMALLY****
TOTAL RUN TIME: 0 days 1 hours 19 minutes 25 seconds 161 msec
