                         Program Version 5.0.3 -  RELEASE  -
|  1> !PBE def2-TZVP VERYSLOWCONV
|  2>
|  3> %scf
|  4>   AutoTRAHIter 200
|  5>   maxiter 400
|  6> end
|  7>
|  8>
|  9> %pal nprocs 6 end
| 10>
| 11> *xyzfile 0 6 pbe.xyz
| 12>
| 13> $new_job
| 14>
| 15> !PBE def2-TZVP VERYSLOWCONV
| 16>
| 17> %scf
| 18>   AutoTRAHIter 200
| 19>   maxiter 400
| 20> end
| 21>
| 22>
| 23> %pal nprocs 6 end
| 24>
| 25> *xyzfile 0 4 pbe.xyz
| 26>
| 27>
| 28>
| 29>
| 30>
| 31>                          ****END OF INPUT****
 Total Charge           Charge          ....    0
 Multiplicity           Mult            ....    6
 Number of Electrons    NEL             ....  311
FINAL SINGLE POINT ENERGY     -3300.917931544294

CARTESIAN COORDINATES (ANGSTROEM)
---------------------------------
  Au     9.872968    8.816973    7.869755
  Au     9.105033    7.541337   10.201664
  Au     6.074914    5.758055    8.363069
  Au     8.834550    6.218030    7.804319
  Au     8.353910   10.760352    9.122591
  Au     4.422554    7.924130    9.001828
  Au     7.565348    9.485074   11.466313
  Au     5.616288   10.331039    9.667917
  Au     6.377827    7.068061   10.762152
  Au     6.370866    8.566021    4.843778
  Au     7.003147    5.857912    5.746844
  Au     4.580200    7.060851    6.320192
  Au     8.958644    7.780941    5.417167
  Au     5.136731    9.766127    7.021041
  Au     7.901468   10.219295    6.463458
  Fe     7.143644    8.373851    8.450661

 Multiplicity           Mult            ....    4
 Number of Electrons    NEL             ....  311
 Basis Dimension        Dim             ....  645

ORBITAL ENERGIES
----------------
                 SPIN UP ORBITALS
  NO   OCC          E(Eh)            E(eV)
   0   1.0000    -254.752874     -6932.1781
   1   1.0000     -29.586228      -805.0822
   2   1.0000     -25.531284      -694.7416
   3   1.0000     -25.524947      -694.5691
   4   1.0000     -25.508905      -694.1326
   5   1.0000      -4.038149      -109.8836
   6   1.0000      -4.037961      -109.8785
   7   1.0000      -4.034136      -109.7744
   8   1.0000      -4.034115      -109.7739
   9   1.0000      -4.034026      -109.7714
  10   1.0000      -4.033919      -109.7685
  11   1.0000      -4.029384      -109.6451
  12   1.0000      -4.029377      -109.6449
  13   1.0000      -4.029012      -109.6350
  14   1.0000      -4.028953      -109.6334
  15   1.0000      -4.023504      -109.4851
  16   1.0000      -4.023425      -109.4830
  17   1.0000      -4.022281      -109.4518
  18   1.0000      -4.022219      -109.4502
  19   1.0000      -4.022008      -109.4444
  20   1.0000      -3.367349       -91.6302
  21   1.0000      -2.252441       -61.2920
  22   1.0000      -2.252299       -61.2882
  23   1.0000      -2.251972       -61.2793
  24   1.0000      -2.251743       -61.2730
  25   1.0000      -2.251237       -61.2593
  26   1.0000      -2.251145       -61.2568
  27   1.0000      -2.249542       -61.2132
  28   1.0000      -2.249199       -61.2038
  29   1.0000      -2.249002       -61.1984
  30   1.0000      -2.248754       -61.1917
  31   1.0000      -2.246931       -61.1421
  32   1.0000      -2.246831       -61.1394
  33   1.0000      -2.245873       -61.1133
  34   1.0000      -2.245753       -61.1100
  35   1.0000      -2.245728       -61.1094
  36   1.0000      -2.245620       -61.1064
  37   1.0000      -2.244592       -61.0785
  38   1.0000      -2.244472       -61.0752
  39   1.0000      -2.244456       -61.0748
  40   1.0000      -2.244364       -61.0722
  41   1.0000      -2.243743       -61.0553
  42   1.0000      -2.243609       -61.0517
  43   1.0000      -2.243046       -61.0364
  44   1.0000      -2.242982       -61.0346
  45   1.0000      -2.241304       -60.9890
  46   1.0000      -2.241005       -60.9809
  47   1.0000      -2.240160       -60.9578
  48   1.0000      -2.239471       -60.9391
  49   1.0000      -2.239453       -60.9386
  50   1.0000      -2.239020       -60.9268
  51   1.0000      -2.238933       -60.9245
  52   1.0000      -2.238397       -60.9099
  53   1.0000      -2.238272       -60.9065
  54   1.0000      -2.237422       -60.8834
  55   1.0000      -2.237185       -60.8769
  56   1.0000      -2.236240       -60.8512
  57   1.0000      -2.235917       -60.8424
  58   1.0000      -2.235892       -60.8417
  59   1.0000      -2.235028       -60.8182
  60   1.0000      -2.234059       -60.7918
  61   1.0000      -2.233456       -60.7754
  62   1.0000      -2.233414       -60.7743
  63   1.0000      -2.232192       -60.7410
  64   1.0000      -2.231792       -60.7301
  65   1.0000      -2.231544       -60.7234
  66   1.0000      -2.201245       -59.8989
  67   1.0000      -2.187535       -59.5259
  68   1.0000      -2.155114       -58.6436
  69   1.0000      -0.433729       -11.8024
  70   1.0000      -0.391607       -10.6562
  71   1.0000      -0.386968       -10.5299
  72   1.0000      -0.386071       -10.5055
  73   1.0000      -0.381485       -10.3807
  74   1.0000      -0.374666       -10.1952
  75   1.0000      -0.371677       -10.1138
  76   1.0000      -0.368566       -10.0292
  77   1.0000      -0.365277        -9.9397
  78   1.0000      -0.364903        -9.9295
  79   1.0000      -0.360203        -9.8016
  80   1.0000      -0.358875        -9.7655
  81   1.0000      -0.357491        -9.7278
  82   1.0000      -0.355805        -9.6819
  83   1.0000      -0.355718        -9.6796
  84   1.0000      -0.355545        -9.6749
  85   1.0000      -0.353420        -9.6170
  86   1.0000      -0.351571        -9.5667
  87   1.0000      -0.349911        -9.5216
  88   1.0000      -0.348342        -9.4789
  89   1.0000      -0.348032        -9.4704
  90   1.0000      -0.344600        -9.3770
  91   1.0000      -0.341302        -9.2873
  92   1.0000      -0.341101        -9.2818
  93   1.0000      -0.335004        -9.1159
  94   1.0000      -0.334304        -9.0969
  95   1.0000      -0.333590        -9.0774
  96   1.0000      -0.329124        -8.9559
  97   1.0000      -0.327437        -8.9100
  98   1.0000      -0.327268        -8.9054
  99   1.0000      -0.323294        -8.7973
 100   1.0000      -0.321907        -8.7595
 101   1.0000      -0.319876        -8.7043
 102   1.0000      -0.318445        -8.6653
 103   1.0000      -0.314718        -8.5639
 104   1.0000      -0.313156        -8.5214
 105   1.0000      -0.312212        -8.4957
 106   1.0000      -0.308034        -8.3820
 107   1.0000      -0.307682        -8.3725
 108   1.0000      -0.303666        -8.2632
 109   1.0000      -0.302255        -8.2248
 110   1.0000      -0.297995        -8.1088
 111   1.0000      -0.297293        -8.0898
 112   1.0000      -0.296528        -8.0689
 113   1.0000      -0.287908        -7.8344
 114   1.0000      -0.284235        -7.7344
 115   1.0000      -0.281271        -7.6538
 116   1.0000      -0.279918        -7.6170
 117   1.0000      -0.279511        -7.6059
 118   1.0000      -0.277199        -7.5430
 119   1.0000      -0.276990        -7.5373
 120   1.0000      -0.274635        -7.4732
 121   1.0000      -0.274149        -7.4600
 122   1.0000      -0.270676        -7.3655
 123   1.0000      -0.267464        -7.2781
 124   1.0000      -0.265520        -7.2252
 125   1.0000      -0.265052        -7.2124
 126   1.0000      -0.264931        -7.2091
 127   1.0000      -0.264101        -7.1866
 128   1.0000      -0.262832        -7.1520
 129   1.0000      -0.262106        -7.1323
 130   1.0000      -0.261866        -7.1257
 131   1.0000      -0.261777        -7.1233
 132   1.0000      -0.259435        -7.0596
 133   1.0000      -0.259380        -7.0581
 134   1.0000      -0.259052        -7.0492
 135   1.0000      -0.257838        -7.0161
 136   1.0000      -0.256694        -6.9850
 137   1.0000      -0.255577        -6.9546
 138   1.0000      -0.255081        -6.9411
 139   1.0000      -0.254888        -6.9359
 140   1.0000      -0.254267        -6.9190
 141   1.0000      -0.251863        -6.8536
 142   1.0000      -0.250599        -6.8191
 143   1.0000      -0.248146        -6.7524
 144   1.0000      -0.247199        -6.7266
 145   1.0000      -0.246985        -6.7208
 146   1.0000      -0.245810        -6.6888
 147   1.0000      -0.244415        -6.6509
 148   1.0000      -0.244345        -6.6490
 149   1.0000      -0.243008        -6.6126
 150   1.0000      -0.242309        -6.5936
 151   1.0000      -0.240603        -6.5471
 152   1.0000      -0.228082        -6.2064
 153   1.0000      -0.220733        -6.0064
 154   1.0000      -0.210732        -5.7343
 155   1.0000      -0.210512        -5.7283
 156   1.0000      -0.204449        -5.5633
 157   0.0000      -0.192360        -5.2344
 158   0.0000      -0.141766        -3.8576
 159   0.0000      -0.139258        -3.7894
 160   0.0000      -0.136375        -3.7109
 161   0.0000      -0.129141        -3.5141

                 SPIN DOWN ORBITALS
  NO   OCC          E(Eh)            E(eV)
   0   1.0000    -254.752229     -6932.1606
   1   1.0000     -29.527821      -803.4929
   2   1.0000     -25.483084      -693.4300
   3   1.0000     -25.479879      -693.3427
   4   1.0000     -25.469938      -693.0722
   5   1.0000      -4.037980      -109.8790
   6   1.0000      -4.037817      -109.8746
   7   1.0000      -4.033778      -109.7647
   8   1.0000      -4.033752      -109.7640
   9   1.0000      -4.033682      -109.7621
  10   1.0000      -4.033584      -109.7594
  11   1.0000      -4.028965      -109.6337
  12   1.0000      -4.028960      -109.6336
  13   1.0000      -4.028608      -109.6240
  14   1.0000      -4.028552      -109.6225
  15   1.0000      -4.023904      -109.4960
  16   1.0000      -4.023825      -109.4938
  17   1.0000      -4.022702      -109.4633
  18   1.0000      -4.022649      -109.4618
  19   1.0000      -4.022386      -109.4547
  20   1.0000      -3.233953       -88.0003
  21   1.0000      -2.251973       -61.2793
  22   1.0000      -2.251907       -61.2775
  23   1.0000      -2.251814       -61.2750
  24   1.0000      -2.251587       -61.2688
  25   1.0000      -2.251149       -61.2569
  26   1.0000      -2.251014       -61.2532
  27   1.0000      -2.249048       -61.1997
  28   1.0000      -2.248670       -61.1894
  29   1.0000      -2.248624       -61.1882
  30   1.0000      -2.248335       -61.1803
  31   1.0000      -2.246611       -61.1334
  32   1.0000      -2.246502       -61.1304
  33   1.0000      -2.245538       -61.1042
  34   1.0000      -2.245438       -61.1015
  35   1.0000      -2.245308       -61.0979
  36   1.0000      -2.245193       -61.0948
  37   1.0000      -2.244328       -61.0713
  38   1.0000      -2.244251       -61.0692
  39   1.0000      -2.244212       -61.0681
  40   1.0000      -2.244083       -61.0646
  41   1.0000      -2.243385       -61.0456
  42   1.0000      -2.243271       -61.0425
  43   1.0000      -2.242232       -61.0142
  44   1.0000      -2.242178       -61.0128
  45   1.0000      -2.240664       -60.9716
  46   1.0000      -2.240366       -60.9635
  47   1.0000      -2.240064       -60.9552
  48   1.0000      -2.239560       -60.9415
  49   1.0000      -2.239351       -60.9358
  50   1.0000      -2.239325       -60.9351
  51   1.0000      -2.239285       -60.9341
  52   1.0000      -2.238382       -60.9095
  53   1.0000      -2.238234       -60.9054
  54   1.0000      -2.238119       -60.9023
  55   1.0000      -2.237977       -60.8984
  56   1.0000      -2.236594       -60.8608
  57   1.0000      -2.236462       -60.8572
  58   1.0000      -2.236156       -60.8489
  59   1.0000      -2.235310       -60.8259
  60   1.0000      -2.234579       -60.8060
  61   1.0000      -2.233791       -60.7845
  62   1.0000      -2.233633       -60.7802
  63   1.0000      -2.232476       -60.7488
  64   1.0000      -2.231985       -60.7354
  65   1.0000      -2.231792       -60.7301
  66   1.0000      -2.058832       -56.0237
  67   1.0000      -2.054535       -55.9068
  68   1.0000      -2.038640       -55.4742
  69   1.0000      -0.430125       -11.7043
  70   1.0000      -0.391324       -10.6485
  71   1.0000      -0.386520       -10.5177
  72   1.0000      -0.386294       -10.5116
  73   1.0000      -0.374849       -10.2001
  74   1.0000      -0.371983       -10.1222
  75   1.0000      -0.369068       -10.0429
  76   1.0000      -0.365103        -9.9350
  77   1.0000      -0.362897        -9.8749
  78   1.0000      -0.362818        -9.8728
  79   1.0000      -0.360361        -9.8059
  80   1.0000      -0.358275        -9.7492
  81   1.0000      -0.356728        -9.7071
  82   1.0000      -0.355072        -9.6620
  83   1.0000      -0.354655        -9.6507
  84   1.0000      -0.353190        -9.6108
  85   1.0000      -0.351374        -9.5614
  86   1.0000      -0.351142        -9.5551
  87   1.0000      -0.349321        -9.5055
  88   1.0000      -0.348446        -9.4817
  89   1.0000      -0.347616        -9.4591
  90   1.0000      -0.343943        -9.3592
  91   1.0000      -0.340989        -9.2788
  92   1.0000      -0.340279        -9.2595
  93   1.0000      -0.334621        -9.1055
  94   1.0000      -0.334572        -9.1042
  95   1.0000      -0.332874        -9.0580
  96   1.0000      -0.328987        -8.9522
  97   1.0000      -0.327306        -8.9064
  98   1.0000      -0.322849        -8.7852
  99   1.0000      -0.320078        -8.7098
 100   1.0000      -0.319018        -8.6809
 101   1.0000      -0.319001        -8.6805
 102   1.0000      -0.314812        -8.5665
 103   1.0000      -0.312262        -8.4971
 104   1.0000      -0.312153        -8.4941
 105   1.0000      -0.310283        -8.4432
 106   1.0000      -0.305150        -8.3035
 107   1.0000      -0.303033        -8.2459
 108   1.0000      -0.301732        -8.2105
 109   1.0000      -0.295961        -8.0535
 110   1.0000      -0.295796        -8.0490
 111   1.0000      -0.290475        -7.9042
 112   1.0000      -0.287813        -7.8318
 113   1.0000      -0.285328        -7.7642
 114   1.0000      -0.284557        -7.7432
 115   1.0000      -0.281133        -7.6500
 116   1.0000      -0.277722        -7.5572
 117   1.0000      -0.276432        -7.5221
 118   1.0000      -0.275603        -7.4995
 119   1.0000      -0.275508        -7.4969
 120   1.0000      -0.274269        -7.4632
 121   1.0000      -0.272139        -7.4053
 122   1.0000      -0.269022        -7.3205
 123   1.0000      -0.267333        -7.2745
 124   1.0000      -0.266034        -7.2392
 125   1.0000      -0.265149        -7.2151
 126   1.0000      -0.264993        -7.2108
 127   1.0000      -0.263966        -7.1829
 128   1.0000      -0.263382        -7.1670
 129   1.0000      -0.260484        -7.0881
 130   1.0000      -0.259939        -7.0733
 131   1.0000      -0.259740        -7.0679
 132   1.0000      -0.259290        -7.0557
 133   1.0000      -0.258403        -7.0315
 134   1.0000      -0.256815        -6.9883
 135   1.0000      -0.255140        -6.9427
 136   1.0000      -0.254879        -6.9356
 137   1.0000      -0.251925        -6.8552
 138   1.0000      -0.250877        -6.8267
 139   1.0000      -0.250588        -6.8188
 140   1.0000      -0.249659        -6.7936
 141   1.0000      -0.248800        -6.7702
 142   1.0000      -0.247223        -6.7273
 143   1.0000      -0.246623        -6.7109
 144   1.0000      -0.244777        -6.6607
 145   1.0000      -0.243524        -6.6266
 146   1.0000      -0.242845        -6.6082
 147   1.0000      -0.228168        -6.2088
 148   1.0000      -0.228161        -6.2086
 149   1.0000      -0.218062        -5.9338
 150   1.0000      -0.217440        -5.9168
 151   1.0000      -0.215496        -5.8640
 152   1.0000      -0.203917        -5.5489
 153   1.0000      -0.175016        -4.7624
 154   0.0000      -0.164052        -4.4641
 155   0.0000      -0.158700        -4.3184
 156   0.0000      -0.149907        -4.0792
 157   0.0000      -0.147274        -4.0075
 158   0.0000      -0.140842        -3.8325

MULLIKEN ATOMIC CHARGES AND SPIN POPULATIONS
--------------------------------------------
   0 Au:    0.251470   -0.086096
   1 Au:    0.178843    0.048801
   2 Au:    0.051020    0.001827
   3 Au:    0.049377    0.003790
   4 Au:    0.178596    0.048489
   5 Au:    0.252376   -0.085992
   6 Au:    0.302401   -0.037331
   7 Au:    0.175284    0.047717
   8 Au:    0.175688    0.047899
   9 Au:    0.182349    0.005802
  10 Au:    0.183071    0.005388
  11 Au:    0.098011   -0.048206
  12 Au:    0.096777   -0.051013
  13 Au:    0.050793    0.002460
  14 Au:    0.048488    0.003600
  15 Fe:   -2.274544    3.092863
Sum of atomic charges         :   -0.0000000

LOEWDIN ATOMIC CHARGES AND SPIN POPULATIONS
-------------------------------------------
   0 Au:    0.043521   -0.030742
   1 Au:    0.049454    0.013932
   2 Au:    0.029211   -0.014391
   3 Au:    0.030111   -0.013312
   4 Au:    0.049284    0.013742
   5 Au:    0.043670   -0.030151
   6 Au:    0.057621   -0.030175
   7 Au:    0.049588    0.012604
   8 Au:    0.049809    0.012684
   9 Au:    0.003979   -0.017632
  10 Au:    0.004234   -0.017881
  11 Au:    0.009390   -0.032503
  12 Au:    0.009400   -0.034434
  13 Au:    0.029005   -0.014208
  14 Au:    0.029875   -0.013225
  15 Fe:   -0.488153    3.195693

  Mayer bond orders larger than 0.100000
B(  0-Au,  1-Au) :   0.2341 B(  0-Au,  3-Au) :   0.2026 B(  0-Au,  4-Au) :   0.2344
B(  0-Au, 12-Au) :   0.2552 B(  0-Au, 14-Au) :   0.2033 B(  0-Au, 15-Fe) :   0.3920
B(  1-Au,  3-Au) :   0.2783 B(  1-Au,  6-Au) :   0.2639 B(  1-Au,  8-Au) :   0.2068
B(  1-Au, 15-Fe) :   0.4026 B(  2-Au,  3-Au) :   0.1584 B(  2-Au,  5-Au) :   0.2021
B(  2-Au,  8-Au) :   0.2798 B(  2-Au, 10-Au) :   0.2938 B(  2-Au, 11-Au) :   0.2507
B(  2-Au, 15-Fe) :   0.4420 B(  3-Au, 10-Au) :   0.2953 B(  3-Au, 12-Au) :   0.2460
B(  3-Au, 15-Fe) :   0.4476 B(  4-Au,  6-Au) :   0.2645 B(  4-Au,  7-Au) :   0.2068
B(  4-Au, 14-Au) :   0.2785 B(  4-Au, 15-Fe) :   0.4017 B(  5-Au,  7-Au) :   0.2330
B(  5-Au,  8-Au) :   0.2335 B(  5-Au, 11-Au) :   0.2497 B(  5-Au, 13-Au) :   0.2024
B(  5-Au, 15-Fe) :   0.3993 B(  6-Au,  7-Au) :   0.2650 B(  6-Au,  8-Au) :   0.2650
B(  6-Au, 15-Fe) :   0.1703 B(  7-Au, 13-Au) :   0.2810 B(  7-Au, 15-Fe) :   0.3987
B(  8-Au, 15-Fe) :   0.3994 B(  9-Au, 10-Au) :   0.1971 B(  9-Au, 11-Au) :   0.2932
B(  9-Au, 12-Au) :   0.2954 B(  9-Au, 13-Au) :   0.2952 B(  9-Au, 14-Au) :   0.2970
B( 10-Au, 11-Au) :   0.2938 B( 10-Au, 12-Au) :   0.2968 B( 11-Au, 13-Au) :   0.2493
B( 11-Au, 15-Fe) :   0.1893 B( 12-Au, 14-Au) :   0.2460 B( 12-Au, 15-Fe) :   0.1880
B( 13-Au, 14-Au) :   0.1571 B( 13-Au, 15-Fe) :   0.4413 B( 14-Au, 15-Fe) :   0.4477

FINAL SINGLE POINT ENERGY     -3300.909549419131

DIPOLE MOMENT
-------------
                                X             Y             Z
Electronic contribution:     -2.45952      -6.15535     -16.77420
Nuclear contribution   :      2.49821       6.25321      17.04475
                        -----------------------------------------
Total Dipole Moment    :      0.03869       0.09786       0.27055
                        -----------------------------------------
Magnitude (a.u.)       :      0.29030
Magnitude (Debye)      :      0.73787

Rotational constants in cm-1:     0.001104     0.000891     0.000830
Rotational constants in MHz :    33.100872    26.703508    24.883836

                             ****ORCA TERMINATED NORMALLY****
TOTAL RUN TIME: 0 days 0 hours 6 minutes 22 seconds 218 msec
