                         Program Version 5.0.3 -  RELEASE  -
|  1> !R2SCAN def2-TZVP VERYSLOWCONV
|  2>
|  3> %scf
|  4>   AutoTRAHIter 200
|  5>   maxiter 400
|  6> end
|  7>
|  8> %pal nprocs 6 end
|  9>
| 10> *xyzfile 0 6 pbe.xyz
| 11>
| 12> $new_job
| 13>
| 14> !R2SCAN def2-TZVP VERYSLOWCONV
| 15> %scf
| 16>   AutoTRAHIter 200
| 17>   maxiter 400
| 18> end
| 19>
| 20>
| 21> %pal nprocs 6 end
| 22>
| 23> *xyzfile 0 4 pbe.xyz
| 24>
| 25>
| 26>
| 27>
| 28>
| 29>                          ****END OF INPUT****
 Total Charge           Charge          ....    0
 Multiplicity           Mult            ....    6
 Number of Electrons    NEL             ....  311
FINAL SINGLE POINT ENERGY     -3301.437260715076

CARTESIAN COORDINATES (ANGSTROEM)
---------------------------------
  Au     9.872968    8.816973    7.869755
  Au     9.105033    7.541337   10.201664
  Au     6.074914    5.758055    8.363069
  Au     8.834550    6.218030    7.804319
  Au     8.353910   10.760352    9.122591
  Au     4.422554    7.924130    9.001828
  Au     7.565348    9.485074   11.466313
  Au     5.616288   10.331039    9.667917
  Au     6.377827    7.068061   10.762152
  Au     6.370866    8.566021    4.843778
  Au     7.003147    5.857912    5.746844
  Au     4.580200    7.060851    6.320192
  Au     8.958644    7.780941    5.417167
  Au     5.136731    9.766127    7.021041
  Au     7.901468   10.219295    6.463458
  Fe     7.143644    8.373851    8.450661

 Multiplicity           Mult            ....    4
 Number of Electrons    NEL             ....  311
 Basis Dimension        Dim             ....  645

ORBITAL ENERGIES
----------------
                 SPIN UP ORBITALS
  NO   OCC          E(Eh)            E(eV)
   0   1.0000    -255.643963     -6956.4259
   1   1.0000     -29.939230      -814.6879
   2   1.0000     -25.784495      -701.6318
   3   1.0000     -25.763500      -701.0605
   4   1.0000     -25.760236      -700.9716
   5   1.0000      -4.126686      -112.2928
   6   1.0000      -4.126532      -112.2886
   7   1.0000      -4.125580      -112.2627
   8   1.0000      -4.125562      -112.2623
   9   1.0000      -4.125340      -112.2562
  10   1.0000      -4.125195      -112.2523
  11   1.0000      -4.120355      -112.1206
  12   1.0000      -4.120331      -112.1199
  13   1.0000      -4.120152      -112.1150
  14   1.0000      -4.120107      -112.1138
  15   1.0000      -4.115115      -111.9780
  16   1.0000      -4.115038      -111.9759
  17   1.0000      -4.114554      -111.9627
  18   1.0000      -4.111534      -111.8805
  19   1.0000      -4.111460      -111.8785
  20   1.0000      -3.522576       -95.8542
  21   1.0000      -2.318595       -63.0922
  22   1.0000      -2.314972       -62.9936
  23   1.0000      -2.314846       -62.9901
  24   1.0000      -2.314744       -62.9874
  25   1.0000      -2.314581       -62.9830
  26   1.0000      -2.313202       -62.9454
  27   1.0000      -2.313043       -62.9411
  28   1.0000      -2.312394       -62.9234
  29   1.0000      -2.312237       -62.9192
  30   1.0000      -2.311984       -62.9123
  31   1.0000      -2.311819       -62.9078
  32   1.0000      -2.311434       -62.8973
  33   1.0000      -2.311192       -62.8907
  34   1.0000      -2.309835       -62.8538
  35   1.0000      -2.309716       -62.8506
  36   1.0000      -2.309519       -62.8452
  37   1.0000      -2.309293       -62.8391
  38   1.0000      -2.308438       -62.8158
  39   1.0000      -2.308284       -62.8116
  40   1.0000      -2.308097       -62.8065
  41   1.0000      -2.307996       -62.8038
  42   1.0000      -2.307325       -62.7855
  43   1.0000      -2.307150       -62.7807
  44   1.0000      -2.307075       -62.7787
  45   1.0000      -2.306826       -62.7719
  46   1.0000      -2.305260       -62.7293
  47   1.0000      -2.304878       -62.7189
  48   1.0000      -2.303620       -62.6847
  49   1.0000      -2.303329       -62.6768
  50   1.0000      -2.303286       -62.6756
  51   1.0000      -2.302747       -62.6609
  52   1.0000      -2.302669       -62.6588
  53   1.0000      -2.302148       -62.6446
  54   1.0000      -2.302008       -62.6408
  55   1.0000      -2.301556       -62.6285
  56   1.0000      -2.300849       -62.6093
  57   1.0000      -2.300154       -62.5904
  58   1.0000      -2.299226       -62.5651
  59   1.0000      -2.298955       -62.5577
  60   1.0000      -2.298228       -62.5380
  61   1.0000      -2.298201       -62.5372
  62   1.0000      -2.297416       -62.5159
  63   1.0000      -2.297031       -62.5054
  64   1.0000      -2.296386       -62.4878
  65   1.0000      -2.294492       -62.4363
  66   1.0000      -2.294332       -62.4319
  67   1.0000      -2.275859       -61.9293
  68   1.0000      -2.269105       -61.7455
  69   1.0000      -0.439736       -11.9658
  70   1.0000      -0.395754       -10.7690
  71   1.0000      -0.393549       -10.7090
  72   1.0000      -0.393379       -10.7044
  73   1.0000      -0.392894       -10.6912
  74   1.0000      -0.386846       -10.5266
  75   1.0000      -0.382656       -10.4126
  76   1.0000      -0.380367       -10.3503
  77   1.0000      -0.379528       -10.3275
  78   1.0000      -0.374499       -10.1906
  79   1.0000      -0.370064       -10.0700
  80   1.0000      -0.367392        -9.9972
  81   1.0000      -0.366638        -9.9767
  82   1.0000      -0.366080        -9.9615
  83   1.0000      -0.365682        -9.9507
  84   1.0000      -0.365369        -9.9422
  85   1.0000      -0.361478        -9.8363
  86   1.0000      -0.361391        -9.8339
  87   1.0000      -0.359124        -9.7723
  88   1.0000      -0.358775        -9.7628
  89   1.0000      -0.356510        -9.7011
  90   1.0000      -0.354237        -9.6393
  91   1.0000      -0.350224        -9.5301
  92   1.0000      -0.349090        -9.4992
  93   1.0000      -0.347989        -9.4693
  94   1.0000      -0.345019        -9.3884
  95   1.0000      -0.343765        -9.3543
  96   1.0000      -0.340500        -9.2655
  97   1.0000      -0.338126        -9.2009
  98   1.0000      -0.336708        -9.1623
  99   1.0000      -0.335555        -9.1309
 100   1.0000      -0.332789        -9.0556
 101   1.0000      -0.329296        -8.9606
 102   1.0000      -0.327738        -8.9182
 103   1.0000      -0.324006        -8.8167
 104   1.0000      -0.323197        -8.7946
 105   1.0000      -0.322503        -8.7758
 106   1.0000      -0.319705        -8.6996
 107   1.0000      -0.314159        -8.5487
 108   1.0000      -0.313915        -8.5421
 109   1.0000      -0.311923        -8.4879
 110   1.0000      -0.308715        -8.4006
 111   1.0000      -0.308388        -8.3917
 112   1.0000      -0.304512        -8.2862
 113   1.0000      -0.303220        -8.2510
 114   1.0000      -0.297773        -8.1028
 115   1.0000      -0.292888        -7.9699
 116   1.0000      -0.290241        -7.8979
 117   1.0000      -0.289275        -7.8716
 118   1.0000      -0.286681        -7.8010
 119   1.0000      -0.286537        -7.7971
 120   1.0000      -0.285732        -7.7752
 121   1.0000      -0.285068        -7.7571
 122   1.0000      -0.282911        -7.6984
 123   1.0000      -0.280401        -7.6301
 124   1.0000      -0.276636        -7.5276
 125   1.0000      -0.274998        -7.4831
 126   1.0000      -0.273723        -7.4484
 127   1.0000      -0.273141        -7.4326
 128   1.0000      -0.272810        -7.4235
 129   1.0000      -0.272533        -7.4160
 130   1.0000      -0.271908        -7.3990
 131   1.0000      -0.271262        -7.3814
 132   1.0000      -0.270463        -7.3597
 133   1.0000      -0.268284        -7.3004
 134   1.0000      -0.267724        -7.2852
 135   1.0000      -0.267146        -7.2694
 136   1.0000      -0.266790        -7.2597
 137   1.0000      -0.265298        -7.2191
 138   1.0000      -0.264428        -7.1955
 139   1.0000      -0.262518        -7.1435
 140   1.0000      -0.261889        -7.1264
 141   1.0000      -0.260438        -7.0869
 142   1.0000      -0.258296        -7.0286
 143   1.0000      -0.257610        -7.0099
 144   1.0000      -0.256828        -6.9886
 145   1.0000      -0.255674        -6.9572
 146   1.0000      -0.253087        -6.8868
 147   1.0000      -0.251599        -6.8464
 148   1.0000      -0.251409        -6.8412
 149   1.0000      -0.249759        -6.7963
 150   1.0000      -0.249603        -6.7921
 151   1.0000      -0.248684        -6.7670
 152   1.0000      -0.234436        -6.3793
 153   1.0000      -0.226875        -6.1736
 154   1.0000      -0.214566        -5.8386
 155   1.0000      -0.210842        -5.7373
 156   1.0000      -0.206797        -5.6272
 157   0.0000      -0.190345        -5.1796
 158   0.0000      -0.138641        -3.7726
 159   0.0000      -0.136625        -3.7178
 160   0.0000      -0.132959        -3.6180
 161   0.0000      -0.124735        -3.3942

                 SPIN DOWN ORBITALS
  NO   OCC          E(Eh)            E(eV)
   0   1.0000    -255.642981     -6956.3992
   1   1.0000     -29.859949      -812.5305
   2   1.0000     -25.715978      -699.7673
   3   1.0000     -25.705977      -699.4952
   4   1.0000     -25.704882      -699.4654
   5   1.0000      -4.126907      -112.2989
   6   1.0000      -4.126777      -112.2953
   7   1.0000      -4.125319      -112.2556
   8   1.0000      -4.125303      -112.2552
   9   1.0000      -4.125120      -112.2502
  10   1.0000      -4.124982      -112.2465
  11   1.0000      -4.120076      -112.1130
  12   1.0000      -4.120054      -112.1124
  13   1.0000      -4.119864      -112.1072
  14   1.0000      -4.119819      -112.1060
  15   1.0000      -4.115529      -111.9892
  16   1.0000      -4.115453      -111.9872
  17   1.0000      -4.114824      -111.9701
  18   1.0000      -4.112114      -111.8963
  19   1.0000      -4.112036      -111.8942
  20   1.0000      -3.344101       -90.9976
  21   1.0000      -2.314961       -62.9933
  22   1.0000      -2.314589       -62.9832
  23   1.0000      -2.314443       -62.9792
  24   1.0000      -2.314149       -62.9712
  25   1.0000      -2.313390       -62.9505
  26   1.0000      -2.313228       -62.9461
  27   1.0000      -2.312173       -62.9174
  28   1.0000      -2.311980       -62.9122
  29   1.0000      -2.311948       -62.9113
  30   1.0000      -2.311752       -62.9060
  31   1.0000      -2.311032       -62.8864
  32   1.0000      -2.310923       -62.8834
  33   1.0000      -2.309591       -62.8472
  34   1.0000      -2.309383       -62.8415
  35   1.0000      -2.309374       -62.8413
  36   1.0000      -2.309198       -62.8365
  37   1.0000      -2.308357       -62.8136
  38   1.0000      -2.308256       -62.8108
  39   1.0000      -2.308004       -62.8040
  40   1.0000      -2.307794       -62.7983
  41   1.0000      -2.307094       -62.7792
  42   1.0000      -2.306947       -62.7752
  43   1.0000      -2.306372       -62.7596
  44   1.0000      -2.306323       -62.7582
  45   1.0000      -2.304446       -62.7072
  46   1.0000      -2.304145       -62.6990
  47   1.0000      -2.304055       -62.6965
  48   1.0000      -2.303470       -62.6806
  49   1.0000      -2.303381       -62.6782
  50   1.0000      -2.303225       -62.6739
  51   1.0000      -2.303162       -62.6722
  52   1.0000      -2.302358       -62.6504
  53   1.0000      -2.302236       -62.6470
  54   1.0000      -2.302069       -62.6425
  55   1.0000      -2.301069       -62.6153
  56   1.0000      -2.300751       -62.6066
  57   1.0000      -2.299343       -62.5683
  58   1.0000      -2.299168       -62.5635
  59   1.0000      -2.298926       -62.5570
  60   1.0000      -2.298657       -62.5496
  61   1.0000      -2.297837       -62.5273
  62   1.0000      -2.297591       -62.5206
  63   1.0000      -2.296662       -62.4954
  64   1.0000      -2.294896       -62.4473
  65   1.0000      -2.294713       -62.4423
  66   1.0000      -2.122607       -57.7591
  67   1.0000      -2.107543       -57.3492
  68   1.0000      -2.107118       -57.3376
  69   1.0000      -0.436864       -11.8877
  70   1.0000      -0.396601       -10.7921
  71   1.0000      -0.393517       -10.7082
  72   1.0000      -0.392826       -10.6893
  73   1.0000      -0.382615       -10.4115
  74   1.0000      -0.381477       -10.3805
  75   1.0000      -0.376586       -10.2474
  76   1.0000      -0.373331       -10.1588
  77   1.0000      -0.371568       -10.1109
  78   1.0000      -0.371401       -10.1063
  79   1.0000      -0.369760       -10.0617
  80   1.0000      -0.367397        -9.9974
  81   1.0000      -0.366383        -9.9698
  82   1.0000      -0.364821        -9.9273
  83   1.0000      -0.364015        -9.9054
  84   1.0000      -0.361987        -9.8502
  85   1.0000      -0.361639        -9.8407
  86   1.0000      -0.360481        -9.8092
  87   1.0000      -0.358552        -9.7567
  88   1.0000      -0.357958        -9.7405
  89   1.0000      -0.356958        -9.7133
  90   1.0000      -0.353472        -9.6185
  91   1.0000      -0.350304        -9.5322
  92   1.0000      -0.349174        -9.5015
  93   1.0000      -0.344144        -9.3646
  94   1.0000      -0.344111        -9.3637
  95   1.0000      -0.342358        -9.3160
  96   1.0000      -0.338000        -9.1975
  97   1.0000      -0.336735        -9.1630
  98   1.0000      -0.332974        -9.0607
  99   1.0000      -0.329482        -8.9657
 100   1.0000      -0.328794        -8.9469
 101   1.0000      -0.328314        -8.9339
 102   1.0000      -0.324192        -8.8217
 103   1.0000      -0.321462        -8.7474
 104   1.0000      -0.321140        -8.7387
 105   1.0000      -0.320109        -8.7106
 106   1.0000      -0.313692        -8.5360
 107   1.0000      -0.311567        -8.4782
 108   1.0000      -0.309518        -8.4224
 109   1.0000      -0.305420        -8.3109
 110   1.0000      -0.304797        -8.2940
 111   1.0000      -0.299396        -8.1470
 112   1.0000      -0.297427        -8.0934
 113   1.0000      -0.293911        -7.9977
 114   1.0000      -0.293469        -7.9857
 115   1.0000      -0.289424        -7.8756
 116   1.0000      -0.286627        -7.7995
 117   1.0000      -0.284497        -7.7416
 118   1.0000      -0.284370        -7.7381
 119   1.0000      -0.284241        -7.7346
 120   1.0000      -0.282878        -7.6975
 121   1.0000      -0.281046        -7.6476
 122   1.0000      -0.276427        -7.5220
 123   1.0000      -0.276006        -7.5105
 124   1.0000      -0.273858        -7.4520
 125   1.0000      -0.273397        -7.4395
 126   1.0000      -0.273139        -7.4325
 127   1.0000      -0.272425        -7.4131
 128   1.0000      -0.271517        -7.3884
 129   1.0000      -0.268363        -7.3025
 130   1.0000      -0.267818        -7.2877
 131   1.0000      -0.267611        -7.2821
 132   1.0000      -0.267213        -7.2712
 133   1.0000      -0.266211        -7.2440
 134   1.0000      -0.265104        -7.2138
 135   1.0000      -0.262968        -7.1557
 136   1.0000      -0.262641        -7.1468
 137   1.0000      -0.259459        -7.0602
 138   1.0000      -0.259018        -7.0482
 139   1.0000      -0.257621        -7.0102
 140   1.0000      -0.256717        -6.9856
 141   1.0000      -0.256315        -6.9747
 142   1.0000      -0.254412        -6.9229
 143   1.0000      -0.253494        -6.8979
 144   1.0000      -0.251416        -6.8414
 145   1.0000      -0.250453        -6.8152
 146   1.0000      -0.249715        -6.7951
 147   1.0000      -0.234672        -6.3858
 148   1.0000      -0.229853        -6.2546
 149   1.0000      -0.221610        -6.0303
 150   1.0000      -0.220532        -6.0010
 151   1.0000      -0.218409        -5.9432
 152   1.0000      -0.204010        -5.5514
 153   1.0000      -0.184219        -5.0129
 154   0.0000      -0.160260        -4.3609
 155   0.0000      -0.154905        -4.2152
 156   0.0000      -0.146766        -3.9937
 157   0.0000      -0.139325        -3.7912
 158   0.0000      -0.132363        -3.6018

MULLIKEN ATOMIC CHARGES AND SPIN POPULATIONS
--------------------------------------------
   0 Au:    0.236035   -0.138822
   1 Au:    0.155833    0.046654
   2 Au:    0.048738   -0.002697
   3 Au:    0.047192   -0.000475
   4 Au:    0.155647    0.046679
   5 Au:    0.235968   -0.139092
   6 Au:    0.275073   -0.010825
   7 Au:    0.153219    0.047937
   8 Au:    0.153713    0.048005
   9 Au:    0.177798    0.032179
  10 Au:    0.178517    0.032123
  11 Au:    0.062522   -0.102420
  12 Au:    0.060478   -0.102082
  13 Au:    0.048472   -0.002231
  14 Au:    0.046332   -0.000721
  15 Fe:   -2.035536    3.245787
Sum of atomic charges         :   -0.0000000

LOEWDIN ATOMIC CHARGES AND SPIN POPULATIONS
-------------------------------------------
   0 Au:    0.036117   -0.059741
   1 Au:    0.040634    0.005473
   2 Au:    0.022956   -0.027692
   3 Au:    0.024019   -0.026028
   4 Au:    0.040541    0.005578
   5 Au:    0.036331   -0.058978
   6 Au:    0.058626   -0.005298
   7 Au:    0.041290    0.005914
   8 Au:    0.041484    0.005874
   9 Au:    0.004784   -0.008170
  10 Au:    0.005099   -0.008175
  11 Au:    0.000121   -0.056197
  12 Au:    0.000599   -0.055655
  13 Au:    0.022703   -0.027680
  14 Au:    0.023802   -0.025953
  15 Fe:   -0.399106    3.336729

  Mayer bond orders larger than 0.100000
B(  0-Au,  1-Au) :   0.2280 B(  0-Au,  3-Au) :   0.1872 B(  0-Au,  4-Au) :   0.2282
B(  0-Au, 12-Au) :   0.2297 B(  0-Au, 14-Au) :   0.1879 B(  0-Au, 15-Fe) :   0.3655
B(  1-Au,  3-Au) :   0.2800 B(  1-Au,  6-Au) :   0.2508 B(  1-Au,  8-Au) :   0.1887
B(  1-Au, 15-Fe) :   0.3974 B(  2-Au,  3-Au) :   0.1429 B(  2-Au,  5-Au) :   0.1869
B(  2-Au,  8-Au) :   0.2808 B(  2-Au, 10-Au) :   0.2894 B(  2-Au, 11-Au) :   0.2362
B(  2-Au, 15-Fe) :   0.4373 B(  3-Au, 10-Au) :   0.2908 B(  3-Au, 12-Au) :   0.2319
B(  3-Au, 15-Fe) :   0.4440 B(  4-Au,  6-Au) :   0.2514 B(  4-Au,  7-Au) :   0.1887
B(  4-Au, 14-Au) :   0.2803 B(  4-Au, 15-Fe) :   0.3969 B(  5-Au,  7-Au) :   0.2269
B(  5-Au,  8-Au) :   0.2274 B(  5-Au, 11-Au) :   0.2240 B(  5-Au, 13-Au) :   0.1872
B(  5-Au, 15-Fe) :   0.3730 B(  6-Au,  7-Au) :   0.2517 B(  6-Au,  8-Au) :   0.2517
B(  6-Au, 15-Fe) :   0.2001 B(  7-Au, 13-Au) :   0.2820 B(  7-Au, 15-Fe) :   0.3963
B(  8-Au, 15-Fe) :   0.3967 B(  9-Au, 10-Au) :   0.1694 B(  9-Au, 11-Au) :   0.2790
B(  9-Au, 12-Au) :   0.2798 B(  9-Au, 13-Au) :   0.2908 B(  9-Au, 14-Au) :   0.2924
B(  9-Au, 15-Fe) :   0.1020 B( 10-Au, 11-Au) :   0.2796 B( 10-Au, 12-Au) :   0.2813
B( 10-Au, 15-Fe) :   0.1018 B( 11-Au, 13-Au) :   0.2348 B( 11-Au, 15-Fe) :   0.1700
B( 12-Au, 14-Au) :   0.2321 B( 12-Au, 15-Fe) :   0.1718 B( 13-Au, 14-Au) :   0.1416
B( 13-Au, 15-Fe) :   0.4363 B( 14-Au, 15-Fe) :   0.4441

FINAL SINGLE POINT ENERGY     -3301.430317356460

DIPOLE MOMENT
-------------
                                X             Y             Z
Electronic contribution:     -2.45232      -6.14178     -16.73843
Nuclear contribution   :      2.49821       6.25321      17.04475
                        -----------------------------------------
Total Dipole Moment    :      0.04589       0.11143       0.30632
                        -----------------------------------------
Magnitude (a.u.)       :      0.32917
Magnitude (Debye)      :      0.83668

Rotational constants in cm-1:     0.001104     0.000891     0.000830
Rotational constants in MHz :    33.100872    26.703508    24.883836

                             ****ORCA TERMINATED NORMALLY****
TOTAL RUN TIME: 0 days 0 hours 27 minutes 17 seconds 182 msec
