                         Program Version 5.0.3 -  RELEASE  -
|  1> !RI-B2PLYP def2-TZVP def2-TZVP/C
|  2> !RIJCOSX VERYSLOWCONV
|  3>
|  4> %scf
|  5>   AutoTRAHIter 200
|  6>   maxiter 400
|  7> end
|  8>
|  9>
| 10> %pal nprocs 6 end
| 11>
| 12> *xyzfile 0 5 pbe.xyz
| 13>
| 14> $new_job
| 15>
| 16> !RI-B2PLYP def2-TZVP def2-TZVP/C
| 17> !RIJCOSX VERYSLOWCONV
| 18>
| 19> %scf
| 20>   AutoTRAHIter 200
| 21>   maxiter 400
| 22> end
| 23>
| 24>
| 25> %pal nprocs 6 end
| 26>
| 27> *xyzfile 0 3 pbe.xyz
| 28>
| 29>
| 30>
| 31>
| 32>
| 33>                          ****END OF INPUT****
 Total Charge           Charge          ....    0
 Multiplicity           Mult            ....    5
 Number of Electrons    NEL             ....  214
MP2 TOTAL ENERGY:    -2400.101270958 Eh
FINAL SINGLE POINT ENERGY     -2400.101270958393

CARTESIAN COORDINATES (ANGSTROEM)
---------------------------------
  Au     5.833928    7.533483    6.396372
  Au    11.706410    4.768450    7.171446
  Au     7.569939    5.678485    5.220674
  Au     9.064966    4.049150    6.908227
  Au    10.114002    6.758393    6.225575
  Au     6.895252    4.161562    8.481402
  Au     5.544647    6.596798    8.979679
  Au     7.943040    6.715585   10.360621
  Au    10.034318    5.655405    9.147782
  Au     8.389132    8.764757    6.530337
  Cr     7.892093    6.462183    7.722071

 Multiplicity           Mult            ....    3
 Number of Electrons    NEL             ....  214
 Basis Dimension        Dim             ....  445

ORBITAL ENERGIES
----------------
                 SPIN UP ORBITALS
  NO   OCC          E(Eh)            E(eV)
   0   1.0000    -217.769129     -5925.7993
   1   1.0000     -25.460708      -692.8211
   2   1.0000     -21.601868      -587.8167
   3   1.0000     -21.597014      -587.6846
   4   1.0000     -21.594771      -587.6236
   5   1.0000      -4.401072      -119.7593
   6   1.0000      -4.400433      -119.7419
   7   1.0000      -4.397563      -119.6638
   8   1.0000      -4.393030      -119.5404
   9   1.0000      -4.387434      -119.3882
  10   1.0000      -4.385333      -119.3310
  11   1.0000      -4.384657      -119.3126
  12   1.0000      -4.384509      -119.3085
  13   1.0000      -4.384224      -119.3008
  14   1.0000      -4.383917      -119.2924
  15   1.0000      -3.244277       -88.2813
  16   1.0000      -2.522654       -68.6449
  17   1.0000      -2.521193       -68.6052
  18   1.0000      -2.520789       -68.5942
  19   1.0000      -2.519702       -68.5646
  20   1.0000      -2.518103       -68.5211
  21   1.0000      -2.516736       -68.4839
  22   1.0000      -2.515212       -68.4424
  23   1.0000      -2.514153       -68.4136
  24   1.0000      -2.511309       -68.3362
  25   1.0000      -2.509647       -68.2910
  26   1.0000      -2.509134       -68.2770
  27   1.0000      -2.508393       -68.2569
  28   1.0000      -2.507961       -68.2451
  29   1.0000      -2.506905       -68.2164
  30   1.0000      -2.506472       -68.2046
  31   1.0000      -2.506251       -68.1985
  32   1.0000      -2.505765       -68.1853
  33   1.0000      -2.505334       -68.1736
  34   1.0000      -2.504290       -68.1452
  35   1.0000      -2.503425       -68.1217
  36   1.0000      -2.502157       -68.0871
  37   1.0000      -2.501263       -68.0628
  38   1.0000      -2.500492       -68.0419
  39   1.0000      -2.500169       -68.0331
  40   1.0000      -2.498726       -67.9938
  41   1.0000      -2.498471       -67.9869
  42   1.0000      -2.498122       -67.9774
  43   1.0000      -2.497751       -67.9673
  44   1.0000      -2.497546       -67.9617
  45   1.0000      -2.496747       -67.9399
  46   1.0000      -2.132327       -58.0236
  47   1.0000      -2.129206       -57.9386
  48   1.0000      -2.120843       -57.7111
  49   1.0000      -0.486967       -13.2510
  50   1.0000      -0.478253       -13.0139
  51   1.0000      -0.476003       -12.9527
  52   1.0000      -0.470176       -12.7941
  53   1.0000      -0.458536       -12.4774
  54   1.0000      -0.458048       -12.4641
  55   1.0000      -0.450797       -12.2668
  56   1.0000      -0.446178       -12.1411
  57   1.0000      -0.443911       -12.0794
  58   1.0000      -0.440488       -11.9863
  59   1.0000      -0.435112       -11.8400
  60   1.0000      -0.430741       -11.7211
  61   1.0000      -0.428218       -11.6524
  62   1.0000      -0.426421       -11.6035
  63   1.0000      -0.423416       -11.5217
  64   1.0000      -0.421403       -11.4670
  65   1.0000      -0.418191       -11.3796
  66   1.0000      -0.416411       -11.3311
  67   1.0000      -0.413060       -11.2399
  68   1.0000      -0.407601       -11.0914
  69   1.0000      -0.406852       -11.0710
  70   1.0000      -0.401213       -10.9176
  71   1.0000      -0.398128       -10.8336
  72   1.0000      -0.392907       -10.6915
  73   1.0000      -0.389520       -10.5994
  74   1.0000      -0.387028       -10.5316
  75   1.0000      -0.384499       -10.4628
  76   1.0000      -0.382698       -10.4138
  77   1.0000      -0.380277       -10.3479
  78   1.0000      -0.379193       -10.3184
  79   1.0000      -0.377640       -10.2761
  80   1.0000      -0.374443       -10.1891
  81   1.0000      -0.370888       -10.0924
  82   1.0000      -0.367648       -10.0042
  83   1.0000      -0.364542        -9.9197
  84   1.0000      -0.364089        -9.9074
  85   1.0000      -0.361780        -9.8445
  86   1.0000      -0.360159        -9.8004
  87   1.0000      -0.358825        -9.7641
  88   1.0000      -0.357306        -9.7228
  89   1.0000      -0.356983        -9.7140
  90   1.0000      -0.355362        -9.6699
  91   1.0000      -0.352957        -9.6044
  92   1.0000      -0.351535        -9.5658
  93   1.0000      -0.349512        -9.5107
  94   1.0000      -0.347122        -9.4457
  95   1.0000      -0.345148        -9.3920
  96   1.0000      -0.341183        -9.2841
  97   1.0000      -0.339398        -9.2355
  98   1.0000      -0.336644        -9.1605
  99   1.0000      -0.333146        -9.0654
 100   1.0000      -0.330866        -9.0033
 101   1.0000      -0.324529        -8.8309
 102   1.0000      -0.318906        -8.6779
 103   1.0000      -0.305916        -8.3244
 104   1.0000      -0.304230        -8.2785
 105   1.0000      -0.282426        -7.6852
 106   1.0000      -0.249115        -6.7788
 107   1.0000      -0.231229        -6.2921
 108   0.0000      -0.105776        -2.8783
 109   0.0000      -0.095451        -2.5973
 110   0.0000      -0.082705        -2.2505
 111   0.0000      -0.072090        -1.9617
 112   0.0000      -0.045393        -1.2352

                 SPIN DOWN ORBITALS
  NO   OCC          E(Eh)            E(eV)
   0   1.0000    -217.767713     -5925.7607
   1   1.0000     -25.392420      -690.9629
   2   1.0000     -21.548261      -586.3580
   3   1.0000     -21.530979      -585.8877
   4   1.0000     -21.525130      -585.7286
   5   1.0000      -4.402106      -119.7874
   6   1.0000      -4.400195      -119.7354
   7   1.0000      -4.398311      -119.6841
   8   1.0000      -4.394356      -119.5765
   9   1.0000      -4.388036      -119.4045
  10   1.0000      -4.385362      -119.3318
  11   1.0000      -4.385124      -119.3253
  12   1.0000      -4.384885      -119.3188
  13   1.0000      -4.384766      -119.3156
  14   1.0000      -4.384595      -119.3109
  15   1.0000      -3.036225       -82.6199
  16   1.0000      -2.523494       -68.6678
  17   1.0000      -2.521107       -68.6028
  18   1.0000      -2.520284       -68.5804
  19   1.0000      -2.519897       -68.5699
  20   1.0000      -2.517663       -68.5091
  21   1.0000      -2.516876       -68.4877
  22   1.0000      -2.515371       -68.4467
  23   1.0000      -2.514747       -68.4298
  24   1.0000      -2.512772       -68.3760
  25   1.0000      -2.510025       -68.3013
  26   1.0000      -2.509817       -68.2956
  27   1.0000      -2.508778       -68.2673
  28   1.0000      -2.508307       -68.2545
  29   1.0000      -2.506231       -68.1980
  30   1.0000      -2.505563       -68.1798
  31   1.0000      -2.505019       -68.1650
  32   1.0000      -2.504927       -68.1625
  33   1.0000      -2.504773       -68.1583
  34   1.0000      -2.504080       -68.1395
  35   1.0000      -2.503580       -68.1259
  36   1.0000      -2.502427       -68.0945
  37   1.0000      -2.501691       -68.0745
  38   1.0000      -2.500694       -68.0473
  39   1.0000      -2.500317       -68.0371
  40   1.0000      -2.499149       -68.0053
  41   1.0000      -2.498749       -67.9944
  42   1.0000      -2.498345       -67.9834
  43   1.0000      -2.497359       -67.9566
  44   1.0000      -2.496960       -67.9457
  45   1.0000      -2.496882       -67.9436
  46   1.0000      -1.919828       -52.2412
  47   1.0000      -1.879277       -51.1377
  48   1.0000      -1.866269       -50.7838
  49   1.0000      -0.481522       -13.1029
  50   1.0000      -0.472161       -12.8481
  51   1.0000      -0.460979       -12.5439
  52   1.0000      -0.456475       -12.4213
  53   1.0000      -0.451165       -12.2768
  54   1.0000      -0.446498       -12.1498
  55   1.0000      -0.443343       -12.0640
  56   1.0000      -0.441562       -12.0155
  57   1.0000      -0.437830       -11.9140
  58   1.0000      -0.435139       -11.8407
  59   1.0000      -0.433703       -11.8017
  60   1.0000      -0.427154       -11.6234
  61   1.0000      -0.426051       -11.5934
  62   1.0000      -0.424703       -11.5567
  63   1.0000      -0.422954       -11.5092
  64   1.0000      -0.420313       -11.4373
  65   1.0000      -0.416406       -11.3310
  66   1.0000      -0.415178       -11.2976
  67   1.0000      -0.412539       -11.2258
  68   1.0000      -0.406712       -11.0672
  69   1.0000      -0.400822       -10.9069
  70   1.0000      -0.395890       -10.7727
  71   1.0000      -0.393452       -10.7064
  72   1.0000      -0.392824       -10.6893
  73   1.0000      -0.386035       -10.5045
  74   1.0000      -0.385752       -10.4968
  75   1.0000      -0.385363       -10.4863
  76   1.0000      -0.381887       -10.3917
  77   1.0000      -0.380372       -10.3505
  78   1.0000      -0.377133       -10.2623
  79   1.0000      -0.372927       -10.1478
  80   1.0000      -0.371526       -10.1097
  81   1.0000      -0.368251       -10.0206
  82   1.0000      -0.365614        -9.9489
  83   1.0000      -0.365403        -9.9431
  84   1.0000      -0.363259        -9.8848
  85   1.0000      -0.362774        -9.8716
  86   1.0000      -0.361086        -9.8256
  87   1.0000      -0.359991        -9.7958
  88   1.0000      -0.357265        -9.7217
  89   1.0000      -0.356815        -9.7094
  90   1.0000      -0.354599        -9.6491
  91   1.0000      -0.351399        -9.5621
  92   1.0000      -0.348577        -9.4853
  93   1.0000      -0.346196        -9.4205
  94   1.0000      -0.344375        -9.3709
  95   1.0000      -0.340924        -9.2770
  96   1.0000      -0.335480        -9.1289
  97   1.0000      -0.334365        -9.0985
  98   1.0000      -0.329140        -8.9564
  99   1.0000      -0.327226        -8.9043
 100   1.0000      -0.314157        -8.5487
 101   1.0000      -0.304672        -8.2905
 102   1.0000      -0.265342        -7.2203
 103   1.0000      -0.229703        -6.2505
 104   1.0000      -0.215105        -5.8533
 105   1.0000      -0.201496        -5.4830
 106   0.0000      -0.087663        -2.3854
 107   0.0000      -0.078490        -2.1358
 108   0.0000      -0.046579        -1.2675
 109   0.0000      -0.038572        -1.0496
 110   0.0000      -0.036323        -0.9884

MULLIKEN ATOMIC CHARGES AND SPIN POPULATIONS
--------------------------------------------
   0 Au:    0.284449   -0.173702
   1 Au:    0.304212   -0.095195
   2 Au:    0.389764   -0.289287
   3 Au:    0.218740   -0.000508
   4 Au:    0.232503   -0.161865
   5 Au:    0.364220   -0.180880
   6 Au:    0.305612   -0.119682
   7 Au:    0.216515   -0.092213
   8 Au:    0.127778   -0.158359
   9 Au:    0.203603   -0.167162
  10 Cr:   -2.647396    3.438854
Sum of atomic charges         :   -0.0000000

LOEWDIN ATOMIC CHARGES AND SPIN POPULATIONS
-------------------------------------------
   0 Au:    0.071524   -0.145260
   1 Au:    0.160208   -0.106568
   2 Au:    0.101673   -0.198913
   3 Au:   -0.004933   -0.081527
   4 Au:   -0.002695   -0.141612
   5 Au:    0.113182   -0.133070
   6 Au:    0.073156   -0.120174
   7 Au:    0.115442   -0.141863
   8 Au:    0.019906   -0.126025
   9 Au:    0.136298   -0.163515
  10 Cr:   -0.783761    3.358528

  Mayer bond orders larger than 0.100000
B(  0-Au,  2-Au) :   0.1622 B(  0-Au,  6-Au) :   0.2750 B(  0-Au,  9-Au) :   0.1828
B(  0-Au, 10-Cr) :   0.6006 B(  1-Au,  3-Au) :   0.2524 B(  1-Au,  4-Au) :   0.2986
B(  1-Au,  8-Au) :   0.3292 B(  1-Au, 10-Cr) :   0.3415 B(  2-Au,  3-Au) :   0.2598
B(  2-Au, 10-Cr) :   0.6230 B(  3-Au,  4-Au) :   0.1173 B(  3-Au,  5-Au) :   0.3933
B(  3-Au,  8-Au) :   0.1191 B(  3-Au, 10-Cr) :   0.4160 B(  4-Au,  8-Au) :   0.1075
B(  4-Au,  9-Au) :   0.4457 B(  4-Au, 10-Cr) :   0.6003 B(  5-Au,  6-Au) :   0.1531
B(  5-Au, 10-Cr) :   0.6415 B(  6-Au,  7-Au) :   0.1914 B(  6-Au, 10-Cr) :   0.6011
B(  7-Au,  8-Au) :   0.5005 B(  7-Au, 10-Cr) :   0.6098 B(  8-Au, 10-Cr) :   0.6190
B(  9-Au, 10-Cr) :   0.6330

MP2 TOTAL ENERGY:    -2400.089863863 Eh
FINAL SINGLE POINT ENERGY     -2400.089863863321

DIPOLE MOMENT
-------------
                                X             Y             Z
Electronic contribution:     14.87941     -13.93418      -6.35422
Nuclear contribution   :    -14.59131      13.77011       6.28639
                        -----------------------------------------
Total Dipole Moment    :      0.28810      -0.16407      -0.06783
                        -----------------------------------------
Magnitude (a.u.)       :      0.33841
Magnitude (Debye)      :      0.86018

Rotational constants in cm-1:     0.002123     0.001589     0.001354
Rotational constants in MHz :    63.635357    47.647443    40.604619

                             ****ORCA TERMINATED NORMALLY****
TOTAL RUN TIME: 0 days 0 hours 54 minutes 37 seconds 398 msec
