                         Program Version 5.0.3 -  RELEASE  -
|  1> !PBE def2-TZVP VERYSLOWCONV
|  2>
|  3> %scf
|  4>   AutoTRAHIter 200
|  5>   maxiter 400
|  6> end
|  7>
|  8>
|  9> %pal nprocs 6 end
| 10>
| 11> *xyzfile 0 5 pbe.xyz
| 12>
| 13> $new_job
| 14>
| 15> !PBE def2-TZVP VERYSLOWCONV
| 16>
| 17> %scf
| 18>   AutoTRAHIter 200
| 19>   maxiter 400
| 20> end
| 21>
| 22>
| 23> %pal nprocs 6 end
| 24>
| 25> *xyzfile 0 3 pbe.xyz
| 26>
| 27>
| 28>
| 29>
| 30>
| 31>                          ****END OF INPUT****
 Total Charge           Charge          ....    0
 Multiplicity           Mult            ....    5
 Number of Electrons    NEL             ....  214
FINAL SINGLE POINT ENERGY     -2402.478616541610

CARTESIAN COORDINATES (ANGSTROEM)
---------------------------------
  Au     5.833928    7.533483    6.396372
  Au    11.706410    4.768450    7.171446
  Au     7.569939    5.678485    5.220674
  Au     9.064966    4.049150    6.908227
  Au    10.114002    6.758393    6.225575
  Au     6.895252    4.161562    8.481402
  Au     5.544647    6.596798    8.979679
  Au     7.943040    6.715585   10.360621
  Au    10.034318    5.655405    9.147782
  Au     8.389132    8.764757    6.530337
  Cr     7.892093    6.462183    7.722071

 Multiplicity           Mult            ....    3
 Number of Electrons    NEL             ....  214
 Basis Dimension        Dim             ....  445

ORBITAL ENERGIES
----------------
                 SPIN UP ORBITALS
  NO   OCC          E(Eh)            E(eV)
   0   1.0000    -214.506015     -5837.0054
   1   1.0000     -24.309946      -661.5073
   2   1.0000     -20.676592      -562.6387
   3   1.0000     -20.672368      -562.5237
   4   1.0000     -20.671962      -562.5127
   5   1.0000      -4.028230      -109.6137
   6   1.0000      -4.026630      -109.5702
   7   1.0000      -4.024330      -109.5076
   8   1.0000      -4.022715      -109.4636
   9   1.0000      -4.017691      -109.3269
  10   1.0000      -4.013257      -109.2063
  11   1.0000      -4.012618      -109.1889
  12   1.0000      -4.011365      -109.1548
  13   1.0000      -4.011339      -109.1541
  14   1.0000      -4.011279      -109.1524
  15   1.0000      -2.804703       -76.3198
  16   1.0000      -2.246433       -61.1286
  17   1.0000      -2.244038       -61.0634
  18   1.0000      -2.243245       -61.0418
  19   1.0000      -2.242736       -61.0279
  20   1.0000      -2.240167       -60.9580
  21   1.0000      -2.238774       -60.9201
  22   1.0000      -2.237750       -60.8923
  23   1.0000      -2.236682       -60.8632
  24   1.0000      -2.235953       -60.8434
  25   1.0000      -2.234711       -60.8096
  26   1.0000      -2.233845       -60.7860
  27   1.0000      -2.233651       -60.7807
  28   1.0000      -2.231245       -60.7153
  29   1.0000      -2.230813       -60.7035
  30   1.0000      -2.229829       -60.6767
  31   1.0000      -2.229690       -60.6729
  32   1.0000      -2.229568       -60.6696
  33   1.0000      -2.229516       -60.6682
  34   1.0000      -2.229069       -60.6561
  35   1.0000      -2.227676       -60.6182
  36   1.0000      -2.226346       -60.5819
  37   1.0000      -2.225013       -60.5457
  38   1.0000      -2.224863       -60.5416
  39   1.0000      -2.224717       -60.5376
  40   1.0000      -2.222875       -60.4875
  41   1.0000      -2.221731       -60.4564
  42   1.0000      -2.219411       -60.3932
  43   1.0000      -2.219055       -60.3836
  44   1.0000      -2.217901       -60.3522
  45   1.0000      -2.217265       -60.3348
  46   1.0000      -1.798401       -48.9370
  47   1.0000      -1.791982       -48.7623
  48   1.0000      -1.790868       -48.7320
  49   1.0000      -0.406914       -11.0727
  50   1.0000      -0.376978       -10.2581
  51   1.0000      -0.364281        -9.9126
  52   1.0000      -0.361616        -9.8401
  53   1.0000      -0.353044        -9.6068
  54   1.0000      -0.350035        -9.5249
  55   1.0000      -0.347067        -9.4442
  56   1.0000      -0.342473        -9.3192
  57   1.0000      -0.338251        -9.2043
  58   1.0000      -0.336269        -9.1503
  59   1.0000      -0.332667        -9.0523
  60   1.0000      -0.328208        -8.9310
  61   1.0000      -0.326114        -8.8740
  62   1.0000      -0.325256        -8.8507
  63   1.0000      -0.319992        -8.7074
  64   1.0000      -0.318651        -8.6709
  65   1.0000      -0.315574        -8.5872
  66   1.0000      -0.313631        -8.5343
  67   1.0000      -0.309951        -8.4342
  68   1.0000      -0.304731        -8.2922
  69   1.0000      -0.301879        -8.2145
  70   1.0000      -0.299491        -8.1496
  71   1.0000      -0.295603        -8.0438
  72   1.0000      -0.295218        -8.0333
  73   1.0000      -0.292225        -7.9518
  74   1.0000      -0.286350        -7.7920
  75   1.0000      -0.285350        -7.7648
  76   1.0000      -0.282283        -7.6813
  77   1.0000      -0.281332        -7.6554
  78   1.0000      -0.279666        -7.6101
  79   1.0000      -0.276210        -7.5161
  80   1.0000      -0.273532        -7.4432
  81   1.0000      -0.270581        -7.3629
  82   1.0000      -0.268463        -7.3052
  83   1.0000      -0.267171        -7.2701
  84   1.0000      -0.265106        -7.2139
  85   1.0000      -0.264612        -7.2005
  86   1.0000      -0.263234        -7.1630
  87   1.0000      -0.261985        -7.1290
  88   1.0000      -0.261730        -7.1220
  89   1.0000      -0.258736        -7.0406
  90   1.0000      -0.256373        -6.9763
  91   1.0000      -0.254485        -6.9249
  92   1.0000      -0.252256        -6.8642
  93   1.0000      -0.251540        -6.8448
  94   1.0000      -0.248604        -6.7649
  95   1.0000      -0.246959        -6.7201
  96   1.0000      -0.244987        -6.6664
  97   1.0000      -0.242886        -6.6093
  98   1.0000      -0.240147        -6.5347
  99   1.0000      -0.239584        -6.5194
 100   1.0000      -0.235643        -6.4122
 101   1.0000      -0.234525        -6.3817
 102   1.0000      -0.222533        -6.0554
 103   1.0000      -0.214234        -5.8296
 104   1.0000      -0.210815        -5.7366
 105   1.0000      -0.207381        -5.6431
 106   1.0000      -0.205109        -5.5813
 107   1.0000      -0.199773        -5.4361
 108   0.0000      -0.182520        -4.9666
 109   0.0000      -0.162868        -4.4319
 110   0.0000      -0.152357        -4.1458
 111   0.0000      -0.140365        -3.8195
 112   0.0000      -0.129500        -3.5239

                 SPIN DOWN ORBITALS
  NO   OCC          E(Eh)            E(eV)
   0   1.0000    -214.505601     -5836.9941
   1   1.0000     -24.268296      -660.3739
   2   1.0000     -20.646426      -561.8178
   3   1.0000     -20.640582      -561.6588
   4   1.0000     -20.638404      -561.5995
   5   1.0000      -4.028677      -109.6259
   6   1.0000      -4.026428      -109.5647
   7   1.0000      -4.024424      -109.5101
   8   1.0000      -4.023504      -109.4851
   9   1.0000      -4.017694      -109.3270
  10   1.0000      -4.013074      -109.2013
  11   1.0000      -4.012514      -109.1861
  12   1.0000      -4.011344      -109.1542
  13   1.0000      -4.011217      -109.1508
  14   1.0000      -4.010831      -109.1403
  15   1.0000      -2.692856       -73.2763
  16   1.0000      -2.247184       -61.1490
  17   1.0000      -2.244331       -61.0714
  18   1.0000      -2.243344       -61.0445
  19   1.0000      -2.242911       -61.0327
  20   1.0000      -2.240067       -60.9553
  21   1.0000      -2.238499       -60.9127
  22   1.0000      -2.238343       -60.9084
  23   1.0000      -2.236754       -60.8652
  24   1.0000      -2.235535       -60.8320
  25   1.0000      -2.235143       -60.8213
  26   1.0000      -2.234733       -60.8102
  27   1.0000      -2.234238       -60.7967
  28   1.0000      -2.230837       -60.7042
  29   1.0000      -2.230396       -60.6922
  30   1.0000      -2.229779       -60.6754
  31   1.0000      -2.229531       -60.6686
  32   1.0000      -2.229294       -60.6622
  33   1.0000      -2.228847       -60.6500
  34   1.0000      -2.228546       -60.6418
  35   1.0000      -2.227743       -60.6200
  36   1.0000      -2.226472       -60.5854
  37   1.0000      -2.225085       -60.5476
  38   1.0000      -2.225068       -60.5472
  39   1.0000      -2.224811       -60.5402
  40   1.0000      -2.223100       -60.4936
  41   1.0000      -2.221854       -60.4597
  42   1.0000      -2.219116       -60.3852
  43   1.0000      -2.219030       -60.3829
  44   1.0000      -2.217773       -60.3487
  45   1.0000      -2.216827       -60.3229
  46   1.0000      -1.693705       -46.0881
  47   1.0000      -1.682093       -45.7721
  48   1.0000      -1.675136       -45.5828
  49   1.0000      -0.402729       -10.9588
  50   1.0000      -0.374428       -10.1887
  51   1.0000      -0.364740        -9.9251
  52   1.0000      -0.359160        -9.7732
  53   1.0000      -0.351710        -9.5705
  54   1.0000      -0.347886        -9.4664
  55   1.0000      -0.342814        -9.3284
  56   1.0000      -0.340995        -9.2789
  57   1.0000      -0.335042        -9.1169
  58   1.0000      -0.334481        -9.1017
  59   1.0000      -0.331673        -9.0253
  60   1.0000      -0.327077        -8.9002
  61   1.0000      -0.325625        -8.8607
  62   1.0000      -0.324020        -8.8170
  63   1.0000      -0.319274        -8.6879
  64   1.0000      -0.317065        -8.6278
  65   1.0000      -0.315361        -8.5814
  66   1.0000      -0.313480        -8.5302
  67   1.0000      -0.309411        -8.4195
  68   1.0000      -0.305010        -8.2997
  69   1.0000      -0.300019        -8.1639
  70   1.0000      -0.298424        -8.1205
  71   1.0000      -0.295637        -8.0447
  72   1.0000      -0.294275        -8.0076
  73   1.0000      -0.289220        -7.8701
  74   1.0000      -0.287116        -7.8128
  75   1.0000      -0.286349        -7.7920
  76   1.0000      -0.283049        -7.7021
  77   1.0000      -0.281853        -7.6696
  78   1.0000      -0.280458        -7.6316
  79   1.0000      -0.277102        -7.5403
  80   1.0000      -0.274024        -7.4566
  81   1.0000      -0.270330        -7.3561
  82   1.0000      -0.268605        -7.3091
  83   1.0000      -0.267909        -7.2902
  84   1.0000      -0.265634        -7.2283
  85   1.0000      -0.265597        -7.2273
  86   1.0000      -0.263964        -7.1828
  87   1.0000      -0.262906        -7.1540
  88   1.0000      -0.262577        -7.1451
  89   1.0000      -0.259516        -7.0618
  90   1.0000      -0.256929        -6.9914
  91   1.0000      -0.255020        -6.9394
  92   1.0000      -0.252731        -6.8772
  93   1.0000      -0.252335        -6.8664
  94   1.0000      -0.249603        -6.7920
  95   1.0000      -0.247646        -6.7388
  96   1.0000      -0.245740        -6.6869
  97   1.0000      -0.243253        -6.6193
  98   1.0000      -0.241409        -6.5691
  99   1.0000      -0.240367        -6.5407
 100   1.0000      -0.237627        -6.4662
 101   1.0000      -0.235865        -6.4182
 102   1.0000      -0.222003        -6.0410
 103   1.0000      -0.205733        -5.5983
 104   1.0000      -0.191731        -5.2173
 105   1.0000      -0.183547        -4.9946
 106   0.0000      -0.152619        -4.1530
 107   0.0000      -0.146806        -3.9948
 108   0.0000      -0.119909        -3.2629
 109   0.0000      -0.117807        -3.2057
 110   0.0000      -0.112610        -3.0643

MULLIKEN ATOMIC CHARGES AND SPIN POPULATIONS
--------------------------------------------
   0 Au:    0.338682   -0.118971
   1 Au:    0.350025   -0.141691
   2 Au:    0.416832   -0.102987
   3 Au:    0.248641   -0.020890
   4 Au:    0.256130   -0.111939
   5 Au:    0.382383   -0.060074
   6 Au:    0.369885   -0.118067
   7 Au:    0.228423   -0.050314
   8 Au:    0.149583   -0.098800
   9 Au:    0.213341   -0.071061
  10 Cr:   -2.953926    2.894795
Sum of atomic charges         :   -0.0000000

LOEWDIN ATOMIC CHARGES AND SPIN POPULATIONS
-------------------------------------------
   0 Au:    0.097519   -0.099640
   1 Au:    0.148048   -0.133752
   2 Au:    0.126192   -0.088287
   3 Au:    0.015714   -0.051213
   4 Au:    0.030480   -0.102947
   5 Au:    0.140213   -0.055572
   6 Au:    0.104105   -0.105767
   7 Au:    0.136092   -0.072528
   8 Au:    0.057109   -0.082997
   9 Au:    0.157614   -0.077912
  10 Cr:   -1.013087    2.870615

  Mayer bond orders larger than 0.100000
B(  0-Au,  2-Au) :   0.2086 B(  0-Au,  6-Au) :   0.2903 B(  0-Au,  9-Au) :   0.2016
B(  0-Au, 10-Cr) :   0.7018 B(  1-Au,  3-Au) :   0.3066 B(  1-Au,  4-Au) :   0.3487
B(  1-Au,  8-Au) :   0.3581 B(  1-Au, 10-Cr) :   0.2829 B(  2-Au,  3-Au) :   0.3056
B(  2-Au, 10-Cr) :   0.8494 B(  3-Au,  4-Au) :   0.1322 B(  3-Au,  5-Au) :   0.3979
B(  3-Au,  8-Au) :   0.1417 B(  3-Au, 10-Cr) :   0.4014 B(  4-Au,  8-Au) :   0.1200
B(  4-Au,  9-Au) :   0.4705 B(  4-Au, 10-Cr) :   0.6947 B(  5-Au,  6-Au) :   0.1970
B(  5-Au, 10-Cr) :   0.8699 B(  6-Au,  7-Au) :   0.2160 B(  6-Au, 10-Cr) :   0.6731
B(  7-Au,  8-Au) :   0.5140 B(  7-Au, 10-Cr) :   0.7452 B(  8-Au, 10-Cr) :   0.7170
B(  9-Au, 10-Cr) :   0.7627

FINAL SINGLE POINT ENERGY     -2402.479149019593

DIPOLE MOMENT
-------------
                                X             Y             Z
Electronic contribution:     14.81153     -13.92210      -6.34022
Nuclear contribution   :    -14.59131      13.77011       6.28639
                        -----------------------------------------
Total Dipole Moment    :      0.22022      -0.15199      -0.05383
                        -----------------------------------------
Magnitude (a.u.)       :      0.27294
Magnitude (Debye)      :      0.69376

Rotational constants in cm-1:     0.002123     0.001589     0.001354
Rotational constants in MHz :    63.635357    47.647443    40.604619

                             ****ORCA TERMINATED NORMALLY****
TOTAL RUN TIME: 0 days 1 hours 56 minutes 10 seconds 521 msec
