                         Program Version 5.0.3 -  RELEASE  -
|  1> !R2SCAN def2-TZVP VERYSLOWCONV
|  2> !KDIIS
|  3> %scf
|  4>   AutoTRAHIter 200
|  5>   maxiter 400
|  6> end
|  7>
|  8> %pal nprocs 6 end
|  9>
| 10> *xyzfile 0 5 pbe.xyz
| 11>
| 12> $new_job
| 13>
| 14> !R2SCAN def2-TZVP VERYSLOWCONV
| 15> !KDIIS
| 16> %scf
| 17>   AutoTRAHIter 200
| 18>   maxiter 400
| 19> end
| 20>
| 21>
| 22> %pal nprocs 6 end
| 23>
| 24> *xyzfile 0 3 pbe.xyz
| 25>
| 26>
| 27>
| 28>
| 29>
| 30>                          ****END OF INPUT****
 Total Charge           Charge          ....    0
 Multiplicity           Mult            ....    5
 Number of Electrons    NEL             ....  214
FINAL SINGLE POINT ENERGY     -2402.868533827582

CARTESIAN COORDINATES (ANGSTROEM)
---------------------------------
  Au     5.833928    7.533483    6.396372
  Au    11.706410    4.768450    7.171446
  Au     7.569939    5.678485    5.220674
  Au     9.064966    4.049150    6.908227
  Au    10.114002    6.758393    6.225575
  Au     6.895252    4.161562    8.481402
  Au     5.544647    6.596798    8.979679
  Au     7.943040    6.715585   10.360621
  Au    10.034318    5.655405    9.147782
  Au     8.389132    8.764757    6.530337
  Cr     7.892093    6.462183    7.722071

 Multiplicity           Mult            ....    3
 Number of Electrons    NEL             ....  214
 Basis Dimension        Dim             ....  445

ORBITAL ENERGIES
----------------
                 SPIN UP ORBITALS
  NO   OCC          E(Eh)            E(eV)
   0   1.0000    -215.302352     -5858.6749
   1   1.0000     -24.606540      -669.5780
   2   1.0000     -20.875290      -568.0455
   3   1.0000     -20.872420      -567.9674
   4   1.0000     -20.871454      -567.9411
   5   1.0000      -4.118423      -112.0680
   6   1.0000      -4.117138      -112.0330
   7   1.0000      -4.114611      -111.9643
   8   1.0000      -4.114325      -111.9565
   9   1.0000      -4.107928      -111.7824
  10   1.0000      -4.103825      -111.6708
  11   1.0000      -4.102536      -111.6357
  12   1.0000      -4.101802      -111.6157
  13   1.0000      -4.101768      -111.6148
  14   1.0000      -4.101316      -111.6025
  15   1.0000      -2.918559       -79.4180
  16   1.0000      -2.309362       -62.8409
  17   1.0000      -2.307385       -62.7871
  18   1.0000      -2.306347       -62.7589
  19   1.0000      -2.305760       -62.7429
  20   1.0000      -2.303491       -62.6812
  21   1.0000      -2.302156       -62.6449
  22   1.0000      -2.301288       -62.6212
  23   1.0000      -2.300226       -62.5923
  24   1.0000      -2.298685       -62.5504
  25   1.0000      -2.298534       -62.5463
  26   1.0000      -2.298018       -62.5322
  27   1.0000      -2.297834       -62.5272
  28   1.0000      -2.294162       -62.4273
  29   1.0000      -2.293731       -62.4156
  30   1.0000      -2.293124       -62.3991
  31   1.0000      -2.292896       -62.3929
  32   1.0000      -2.292689       -62.3872
  33   1.0000      -2.292444       -62.3806
  34   1.0000      -2.291730       -62.3611
  35   1.0000      -2.290996       -62.3412
  36   1.0000      -2.289479       -62.2999
  37   1.0000      -2.288131       -62.2632
  38   1.0000      -2.287856       -62.2557
  39   1.0000      -2.287788       -62.2539
  40   1.0000      -2.285759       -62.1987
  41   1.0000      -2.284652       -62.1686
  42   1.0000      -2.283140       -62.1274
  43   1.0000      -2.282109       -62.0993
  44   1.0000      -2.281401       -62.0801
  45   1.0000      -2.280928       -62.0672
  46   1.0000      -1.867575       -50.8193
  47   1.0000      -1.863970       -50.7212
  48   1.0000      -1.862806       -50.6895
  49   1.0000      -0.411599       -11.2002
  50   1.0000      -0.384013       -10.4495
  51   1.0000      -0.371736       -10.1155
  52   1.0000      -0.369800       -10.0628
  53   1.0000      -0.361640        -9.8407
  54   1.0000      -0.357246        -9.7212
  55   1.0000      -0.355599        -9.6763
  56   1.0000      -0.349981        -9.5235
  57   1.0000      -0.347313        -9.4509
  58   1.0000      -0.345102        -9.3907
  59   1.0000      -0.341223        -9.2852
  60   1.0000      -0.336673        -9.1614
  61   1.0000      -0.334334        -9.0977
  62   1.0000      -0.333807        -9.0834
  63   1.0000      -0.328582        -8.9412
  64   1.0000      -0.327003        -8.8982
  65   1.0000      -0.323989        -8.8162
  66   1.0000      -0.322130        -8.7656
  67   1.0000      -0.318735        -8.6732
  68   1.0000      -0.313380        -8.5275
  69   1.0000      -0.309904        -8.4329
  70   1.0000      -0.307659        -8.3718
  71   1.0000      -0.304112        -8.2753
  72   1.0000      -0.303028        -8.2458
  73   1.0000      -0.299942        -8.1618
  74   1.0000      -0.294622        -8.0171
  75   1.0000      -0.293900        -7.9974
  76   1.0000      -0.290454        -7.9037
  77   1.0000      -0.290008        -7.8915
  78   1.0000      -0.288073        -7.8389
  79   1.0000      -0.283957        -7.7269
  80   1.0000      -0.281029        -7.6472
  81   1.0000      -0.278545        -7.5796
  82   1.0000      -0.276486        -7.5236
  83   1.0000      -0.275073        -7.4851
  84   1.0000      -0.272719        -7.4211
  85   1.0000      -0.272205        -7.4071
  86   1.0000      -0.270972        -7.3735
  87   1.0000      -0.270064        -7.3488
  88   1.0000      -0.268525        -7.3069
  89   1.0000      -0.266332        -7.2472
  90   1.0000      -0.264018        -7.1843
  91   1.0000      -0.262290        -7.1373
  92   1.0000      -0.259723        -7.0674
  93   1.0000      -0.258967        -7.0468
  94   1.0000      -0.255969        -6.9653
  95   1.0000      -0.254278        -6.9192
  96   1.0000      -0.251238        -6.8365
  97   1.0000      -0.249877        -6.7995
  98   1.0000      -0.246437        -6.7059
  99   1.0000      -0.246038        -6.6950
 100   1.0000      -0.241099        -6.5606
 101   1.0000      -0.239904        -6.5281
 102   1.0000      -0.229687        -6.2501
 103   1.0000      -0.226372        -6.1599
 104   1.0000      -0.216404        -5.8887
 105   1.0000      -0.214120        -5.8265
 106   1.0000      -0.211786        -5.7630
 107   1.0000      -0.203783        -5.5452
 108   0.0000      -0.180149        -4.9021
 109   0.0000      -0.160963        -4.3800
 110   0.0000      -0.148604        -4.0437
 111   0.0000      -0.136350        -3.7103
 112   0.0000      -0.122316        -3.3284

                 SPIN DOWN ORBITALS
  NO   OCC          E(Eh)            E(eV)
   0   1.0000    -215.301732     -5858.6580
   1   1.0000     -24.548709      -668.0043
   2   1.0000     -20.832705      -566.8867
   3   1.0000     -20.827169      -566.7361
   4   1.0000     -20.825599      -566.6934
   5   1.0000      -4.119218      -112.0896
   6   1.0000      -4.116996      -112.0292
   7   1.0000      -4.115548      -111.9897
   8   1.0000      -4.114924      -111.9728
   9   1.0000      -4.108257      -111.7914
  10   1.0000      -4.103854      -111.6716
  11   1.0000      -4.102747      -111.6414
  12   1.0000      -4.102108      -111.6240
  13   1.0000      -4.101549      -111.6088
  14   1.0000      -4.101524      -111.6081
  15   1.0000      -2.767775       -75.3150
  16   1.0000      -2.310540       -62.8730
  17   1.0000      -2.307917       -62.8016
  18   1.0000      -2.306548       -62.7644
  19   1.0000      -2.306141       -62.7533
  20   1.0000      -2.303787       -62.6892
  21   1.0000      -2.302251       -62.6474
  22   1.0000      -2.301690       -62.6322
  23   1.0000      -2.300278       -62.5938
  24   1.0000      -2.299594       -62.5751
  25   1.0000      -2.298895       -62.5561
  26   1.0000      -2.298665       -62.5499
  27   1.0000      -2.298380       -62.5421
  28   1.0000      -2.294067       -62.4247
  29   1.0000      -2.293573       -62.4113
  30   1.0000      -2.293199       -62.4011
  31   1.0000      -2.292953       -62.3944
  32   1.0000      -2.292394       -62.3792
  33   1.0000      -2.292118       -62.3717
  34   1.0000      -2.291407       -62.3523
  35   1.0000      -2.291035       -62.3422
  36   1.0000      -2.289596       -62.3031
  37   1.0000      -2.288304       -62.2679
  38   1.0000      -2.288098       -62.2623
  39   1.0000      -2.287907       -62.2571
  40   1.0000      -2.286088       -62.2076
  41   1.0000      -2.284824       -62.1732
  42   1.0000      -2.282809       -62.1184
  43   1.0000      -2.282262       -62.1035
  44   1.0000      -2.281411       -62.0803
  45   1.0000      -2.280539       -62.0566
  46   1.0000      -1.723526       -46.8995
  47   1.0000      -1.712127       -46.5893
  48   1.0000      -1.707017       -46.4503
  49   1.0000      -0.407702       -11.0941
  50   1.0000      -0.381849       -10.3906
  51   1.0000      -0.373015       -10.1502
  52   1.0000      -0.367134        -9.9902
  53   1.0000      -0.360132        -9.7997
  54   1.0000      -0.355807        -9.6820
  55   1.0000      -0.351188        -9.5563
  56   1.0000      -0.348876        -9.4934
  57   1.0000      -0.343817        -9.3557
  58   1.0000      -0.343182        -9.3384
  59   1.0000      -0.341019        -9.2796
  60   1.0000      -0.335901        -9.1403
  61   1.0000      -0.334344        -9.0980
  62   1.0000      -0.332763        -9.0550
  63   1.0000      -0.328250        -8.9321
  64   1.0000      -0.326053        -8.8724
  65   1.0000      -0.324060        -8.8181
  66   1.0000      -0.322527        -8.7764
  67   1.0000      -0.318508        -8.6670
  68   1.0000      -0.313984        -8.5439
  69   1.0000      -0.308641        -8.3985
  70   1.0000      -0.306534        -8.3412
  71   1.0000      -0.304402        -8.2832
  72   1.0000      -0.302702        -8.2369
  73   1.0000      -0.297194        -8.0871
  74   1.0000      -0.295915        -8.0523
  75   1.0000      -0.295148        -8.0314
  76   1.0000      -0.291712        -7.9379
  77   1.0000      -0.290719        -7.9109
  78   1.0000      -0.289381        -7.8744
  79   1.0000      -0.285260        -7.7623
  80   1.0000      -0.282153        -7.6778
  81   1.0000      -0.278869        -7.5884
  82   1.0000      -0.276920        -7.5354
  83   1.0000      -0.276423        -7.5219
  84   1.0000      -0.273932        -7.4541
  85   1.0000      -0.273531        -7.4432
  86   1.0000      -0.272434        -7.4133
  87   1.0000      -0.271358        -7.3840
  88   1.0000      -0.270548        -7.3620
  89   1.0000      -0.267708        -7.2847
  90   1.0000      -0.264994        -7.2108
  91   1.0000      -0.263102        -7.1594
  92   1.0000      -0.260451        -7.0872
  93   1.0000      -0.260195        -7.0803
  94   1.0000      -0.257283        -7.0010
  95   1.0000      -0.255248        -6.9457
  96   1.0000      -0.252548        -6.8722
  97   1.0000      -0.250685        -6.8215
  98   1.0000      -0.248708        -6.7677
  99   1.0000      -0.247320        -6.7299
 100   1.0000      -0.244309        -6.6480
 101   1.0000      -0.243023        -6.6130
 102   1.0000      -0.226221        -6.1558
 103   1.0000      -0.208094        -5.6625
 104   1.0000      -0.193001        -5.2518
 105   1.0000      -0.183715        -4.9991
 106   0.0000      -0.148340        -4.0365
 107   0.0000      -0.139953        -3.8083
 108   0.0000      -0.109205        -2.9716
 109   0.0000      -0.103181        -2.8077
 110   0.0000      -0.093636        -2.5480

MULLIKEN ATOMIC CHARGES AND SPIN POPULATIONS
--------------------------------------------
   0 Au:    0.300690   -0.174344
   1 Au:    0.324166   -0.178360
   2 Au:    0.368933   -0.154856
   3 Au:    0.232539   -0.016217
   4 Au:    0.226021   -0.140041
   5 Au:    0.344881   -0.093976
   6 Au:    0.329253   -0.166538
   7 Au:    0.210145   -0.074178
   8 Au:    0.123878   -0.125436
   9 Au:    0.195049   -0.105847
  10 Cr:   -2.655556    3.229793
Sum of atomic charges         :   -0.0000000

LOEWDIN ATOMIC CHARGES AND SPIN POPULATIONS
-------------------------------------------
   0 Au:    0.091544   -0.130222
   1 Au:    0.149807   -0.157571
   2 Au:    0.118512   -0.118860
   3 Au:    0.013484   -0.063137
   4 Au:    0.025283   -0.123300
   5 Au:    0.133591   -0.080091
   6 Au:    0.098478   -0.135369
   7 Au:    0.130698   -0.096923
   8 Au:    0.050435   -0.102736
   9 Au:    0.150933   -0.105609
  10 Cr:   -0.962765    3.113818

  Mayer bond orders larger than 0.100000
B(  0-Au,  2-Au) :   0.1957 B(  0-Au,  6-Au) :   0.2676 B(  0-Au,  9-Au) :   0.1873
B(  0-Au, 10-Cr) :   0.6769 B(  1-Au,  3-Au) :   0.2916 B(  1-Au,  4-Au) :   0.3367
B(  1-Au,  8-Au) :   0.3481 B(  1-Au, 10-Cr) :   0.2656 B(  2-Au,  3-Au) :   0.2992
B(  2-Au, 10-Cr) :   0.8240 B(  3-Au,  4-Au) :   0.1179 B(  3-Au,  5-Au) :   0.4091
B(  3-Au,  8-Au) :   0.1250 B(  3-Au, 10-Cr) :   0.3765 B(  4-Au,  8-Au) :   0.1035
B(  4-Au,  9-Au) :   0.4747 B(  4-Au, 10-Cr) :   0.6770 B(  5-Au,  6-Au) :   0.1821
B(  5-Au, 10-Cr) :   0.8358 B(  6-Au,  7-Au) :   0.2081 B(  6-Au, 10-Cr) :   0.6605
B(  7-Au,  8-Au) :   0.5208 B(  7-Au, 10-Cr) :   0.7197 B(  8-Au, 10-Cr) :   0.6911
B(  9-Au, 10-Cr) :   0.7366

FINAL SINGLE POINT ENERGY     -2402.866095967314

DIPOLE MOMENT
-------------
                                X             Y             Z
Electronic contribution:     14.82755     -13.93072      -6.33387
Nuclear contribution   :    -14.59131      13.77011       6.28639
                        -----------------------------------------
Total Dipole Moment    :      0.23624      -0.16061      -0.04748
                        -----------------------------------------
Magnitude (a.u.)       :      0.28958
Magnitude (Debye)      :      0.73607

Rotational constants in cm-1:     0.002123     0.001589     0.001354
Rotational constants in MHz :    63.635357    47.647443    40.604619

                             ****ORCA TERMINATED NORMALLY****
TOTAL RUN TIME: 0 days 0 hours 4 minutes 47 seconds 46 msec
