                         Program Version 5.0.3 -  RELEASE  -
|  1> %pal nprocs 1 end
|  2>
|  3> !PBE def2-TZVP OPT UNO
|  4> !SLOWCONV KDIIS
|  5>
|  6> %geom maxiter 300 end
|  7>
|  8> *xyzfile 0 3 0.xyz                           ****END OF INPUT****
 Total Charge           Charge          ....    0
 Multiplicity           Mult            ....    3
 Number of Electrons    NEL             ....  216
FINAL SINGLE POINT ENERGY     -2621.701798312748
FINAL SINGLE POINT ENERGY     -2621.702777214269
FINAL SINGLE POINT ENERGY     -2621.703938349336
FINAL SINGLE POINT ENERGY     -2621.704891695285
FINAL SINGLE POINT ENERGY     -2621.718329831821
FINAL SINGLE POINT ENERGY     -2621.719329901017
FINAL SINGLE POINT ENERGY     -2621.720666369589
FINAL SINGLE POINT ENERGY     -2621.721358857069
FINAL SINGLE POINT ENERGY     -2621.721549301014
                    ***********************HURRAY********************

CARTESIAN COORDINATES (ANGSTROEM)
---------------------------------
  Au     7.057391   10.411522    9.407118
  Au     5.472471    6.644333    9.761892
  Au     4.303109    9.113351    9.483203
  Au     4.932866   11.248723    7.741193
  Au     8.233911    7.945797    9.682002
  Au     7.663364    5.493806    8.398872
  Au     7.123689   10.098089    6.378071
  Au     4.362246    8.796688    6.458187
  Au     5.538959    6.331027    6.732806
  Au     8.293284    7.629195    6.656995
  Fe     6.298123    8.371264    8.070028

 Multiplicity           Mult            ....    3
 Number of Electrons    NEL             ....  216
 Basis Dimension        Dim             ....  445

ORBITAL ENERGIES
----------------
                 SPIN UP ORBITALS
  NO   OCC          E(Eh)            E(eV)
   0   1.0000    -254.759802     -6932.3666
   1   1.0000     -29.603087      -805.5409
   2   1.0000     -25.540091      -694.9812
   3   1.0000     -25.540018      -694.9792
   4   1.0000     -25.535677      -694.8611
   5   1.0000      -4.019093      -109.3651
   6   1.0000      -4.019065      -109.3643
   7   1.0000      -4.019058      -109.3641
   8   1.0000      -4.019032      -109.3634
   9   1.0000      -4.018920      -109.3604
  10   1.0000      -4.018897      -109.3598
  11   1.0000      -4.018881      -109.3593
  12   1.0000      -4.018859      -109.3587
  13   1.0000      -4.009205      -109.0960
  14   1.0000      -4.009203      -109.0960
  15   1.0000      -3.376129       -91.8691
  16   1.0000      -2.238444       -60.9112
  17   1.0000      -2.238430       -60.9108
  18   1.0000      -2.238350       -60.9086
  19   1.0000      -2.237715       -60.8913
  20   1.0000      -2.237007       -60.8721
  21   1.0000      -2.236214       -60.8505
  22   1.0000      -2.236201       -60.8501
  23   1.0000      -2.235714       -60.8369
  24   1.0000      -2.233502       -60.7767
  25   1.0000      -2.233095       -60.7656
  26   1.0000      -2.233083       -60.7653
  27   1.0000      -2.232440       -60.7478
  28   1.0000      -2.231059       -60.7102
  29   1.0000      -2.230806       -60.7033
  30   1.0000      -2.230797       -60.7031
  31   1.0000      -2.230316       -60.6900
  32   1.0000      -2.228306       -60.6353
  33   1.0000      -2.227968       -60.6261
  34   1.0000      -2.227678       -60.6182
  35   1.0000      -2.227659       -60.6177
  36   1.0000      -2.227347       -60.6092
  37   1.0000      -2.227329       -60.6087
  38   1.0000      -2.227109       -60.6027
  39   1.0000      -2.226792       -60.5941
  40   1.0000      -2.221631       -60.4537
  41   1.0000      -2.221582       -60.4523
  42   1.0000      -2.221484       -60.4496
  43   1.0000      -2.221462       -60.4490
  44   1.0000      -2.221441       -60.4485
  45   1.0000      -2.221420       -60.4479
  46   1.0000      -2.192120       -59.6506
  47   1.0000      -2.191971       -59.6466
  48   1.0000      -2.184074       -59.4317
  49   1.0000      -0.418211       -11.3801
  50   1.0000      -0.371906       -10.1201
  51   1.0000      -0.370285       -10.0760
  52   1.0000      -0.360371        -9.8062
  53   1.0000      -0.357662        -9.7325
  54   1.0000      -0.352960        -9.6045
  55   1.0000      -0.352687        -9.5971
  56   1.0000      -0.350368        -9.5340
  57   1.0000      -0.350128        -9.5275
  58   1.0000      -0.343448        -9.3457
  59   1.0000      -0.334779        -9.1098
  60   1.0000      -0.334594        -9.1048
  61   1.0000      -0.329650        -8.9702
  62   1.0000      -0.324442        -8.8285
  63   1.0000      -0.324275        -8.8240
  64   1.0000      -0.320029        -8.7084
  65   1.0000      -0.317078        -8.6281
  66   1.0000      -0.316896        -8.6232
  67   1.0000      -0.316305        -8.6071
  68   1.0000      -0.309844        -8.4313
  69   1.0000      -0.304927        -8.2975
  70   1.0000      -0.300425        -8.1750
  71   1.0000      -0.295323        -8.0361
  72   1.0000      -0.295142        -8.0312
  73   1.0000      -0.290355        -7.9010
  74   1.0000      -0.288362        -7.8467
  75   1.0000      -0.288075        -7.8389
  76   1.0000      -0.286758        -7.8031
  77   1.0000      -0.285835        -7.7780
  78   1.0000      -0.285503        -7.7689
  79   1.0000      -0.284505        -7.7418
  80   1.0000      -0.284149        -7.7321
  81   1.0000      -0.271490        -7.3876
  82   1.0000      -0.268297        -7.3007
  83   1.0000      -0.267251        -7.2723
  84   1.0000      -0.267245        -7.2721
  85   1.0000      -0.264151        -7.1879
  86   1.0000      -0.261771        -7.1231
  87   1.0000      -0.261617        -7.1190
  88   1.0000      -0.260867        -7.0986
  89   1.0000      -0.256349        -6.9756
  90   1.0000      -0.256324        -6.9749
  91   1.0000      -0.255067        -6.9407
  92   1.0000      -0.252729        -6.8771
  93   1.0000      -0.251785        -6.8514
  94   1.0000      -0.251637        -6.8474
  95   1.0000      -0.250726        -6.8226
  96   1.0000      -0.250641        -6.8203
  97   1.0000      -0.248993        -6.7754
  98   1.0000      -0.246054        -6.6955
  99   1.0000      -0.243983        -6.6391
 100   1.0000      -0.243784        -6.6337
 101   1.0000      -0.239118        -6.5067
 102   1.0000      -0.236099        -6.4246
 103   1.0000      -0.228937        -6.2297
 104   1.0000      -0.228707        -6.2234
 105   1.0000      -0.228279        -6.2118
 106   1.0000      -0.228269        -6.2115
 107   1.0000      -0.228235        -6.2106
 108   1.0000      -0.188679        -5.1342
 109   0.0000      -0.171729        -4.6730
 110   0.0000      -0.165583        -4.5057
 111   0.0000      -0.165347        -4.4993
 112   0.0000      -0.111950        -3.0463
 113   0.0000      -0.106793        -2.9060

                 SPIN DOWN ORBITALS
  NO   OCC          E(Eh)            E(eV)
   0   1.0000    -254.759111     -6932.3478
   1   1.0000     -29.548307      -804.0503
   2   1.0000     -25.498470      -693.8486
   3   1.0000     -25.498420      -693.8473
   4   1.0000     -25.494740      -693.7472
   5   1.0000      -4.019054      -109.3640
   6   1.0000      -4.019027      -109.3633
   7   1.0000      -4.019018      -109.3631
   8   1.0000      -4.018993      -109.3624
   9   1.0000      -4.018878      -109.3592
  10   1.0000      -4.018857      -109.3586
  11   1.0000      -4.018838      -109.3581
  12   1.0000      -4.018817      -109.3576
  13   1.0000      -4.010239      -109.1241
  14   1.0000      -4.010237      -109.1241
  15   1.0000      -3.253024       -88.5193
  16   1.0000      -2.237577       -60.8876
  17   1.0000      -2.237414       -60.8831
  18   1.0000      -2.237402       -60.8828
  19   1.0000      -2.237032       -60.8727
  20   1.0000      -2.235956       -60.8435
  21   1.0000      -2.235358       -60.8272
  22   1.0000      -2.235345       -60.8268
  23   1.0000      -2.234846       -60.8132
  24   1.0000      -2.233915       -60.7879
  25   1.0000      -2.233430       -60.7747
  26   1.0000      -2.233416       -60.7743
  27   1.0000      -2.232729       -60.7557
  28   1.0000      -2.231534       -60.7231
  29   1.0000      -2.231276       -60.7161
  30   1.0000      -2.231267       -60.7159
  31   1.0000      -2.230779       -60.7026
  32   1.0000      -2.228466       -60.6396
  33   1.0000      -2.228127       -60.6304
  34   1.0000      -2.227830       -60.6223
  35   1.0000      -2.227810       -60.6218
  36   1.0000      -2.227502       -60.6134
  37   1.0000      -2.227483       -60.6129
  38   1.0000      -2.227260       -60.6068
  39   1.0000      -2.226943       -60.5982
  40   1.0000      -2.223067       -60.4927
  41   1.0000      -2.223009       -60.4911
  42   1.0000      -2.222440       -60.4757
  43   1.0000      -2.222410       -60.4748
  44   1.0000      -2.222394       -60.4744
  45   1.0000      -2.222365       -60.4736
  46   1.0000      -2.070590       -56.3436
  47   1.0000      -2.070513       -56.3415
  48   1.0000      -2.066296       -56.2268
  49   1.0000      -0.413211       -11.2440
  50   1.0000      -0.370195       -10.0735
  51   1.0000      -0.358917        -9.7666
  52   1.0000      -0.350781        -9.5452
  53   1.0000      -0.350550        -9.5389
  54   1.0000      -0.344748        -9.3811
  55   1.0000      -0.344567        -9.3761
  56   1.0000      -0.338450        -9.2097
  57   1.0000      -0.338201        -9.2029
  58   1.0000      -0.337435        -9.1821
  59   1.0000      -0.335847        -9.1388
  60   1.0000      -0.335657        -9.1337
  61   1.0000      -0.325496        -8.8572
  62   1.0000      -0.325315        -8.8523
  63   1.0000      -0.324858        -8.8398
  64   1.0000      -0.322076        -8.7641
  65   1.0000      -0.318018        -8.6537
  66   1.0000      -0.310703        -8.4547
  67   1.0000      -0.308627        -8.3982
  68   1.0000      -0.308453        -8.3934
  69   1.0000      -0.306938        -8.3522
  70   1.0000      -0.301914        -8.2155
  71   1.0000      -0.296220        -8.0606
  72   1.0000      -0.296047        -8.0559
  73   1.0000      -0.292842        -7.9686
  74   1.0000      -0.290053        -7.8928
  75   1.0000      -0.289762        -7.8848
  76   1.0000      -0.287521        -7.8238
  77   1.0000      -0.286526        -7.7968
  78   1.0000      -0.286197        -7.7878
  79   1.0000      -0.285467        -7.7680
  80   1.0000      -0.281009        -7.6466
  81   1.0000      -0.271408        -7.3854
  82   1.0000      -0.267190        -7.2706
  83   1.0000      -0.264192        -7.1890
  84   1.0000      -0.262114        -7.1325
  85   1.0000      -0.262001        -7.1294
  86   1.0000      -0.261835        -7.1249
  87   1.0000      -0.257728        -7.0131
  88   1.0000      -0.256696        -6.9851
  89   1.0000      -0.256040        -6.9672
  90   1.0000      -0.254018        -6.9122
  91   1.0000      -0.253362        -6.8943
  92   1.0000      -0.253211        -6.8902
  93   1.0000      -0.252162        -6.8617
  94   1.0000      -0.252064        -6.8590
  95   1.0000      -0.250063        -6.8046
  96   1.0000      -0.248141        -6.7523
  97   1.0000      -0.242789        -6.6066
  98   1.0000      -0.242647        -6.6028
  99   1.0000      -0.239593        -6.5196
 100   1.0000      -0.231323        -6.2946
 101   1.0000      -0.231106        -6.2887
 102   1.0000      -0.229961        -6.2576
 103   1.0000      -0.203137        -5.5276
 104   1.0000      -0.195384        -5.3167
 105   1.0000      -0.191261        -5.2045
 106   1.0000      -0.191117        -5.2006
 107   0.0000      -0.164092        -4.4652
 108   0.0000      -0.154238        -4.1970
 109   0.0000      -0.150649        -4.0994
 110   0.0000      -0.149067        -4.0563
 111   0.0000      -0.148997        -4.0544

MULLIKEN ATOMIC CHARGES AND SPIN POPULATIONS
--------------------------------------------
   0 Au:    0.240861   -0.106228
   1 Au:    0.240277   -0.106166
   2 Au:    0.241199   -0.106337
   3 Au:    0.206931    0.014383
   4 Au:    0.240521   -0.106245
   5 Au:    0.206929    0.014387
   6 Au:    0.240286   -0.106160
   7 Au:    0.240526   -0.106237
   8 Au:    0.240856   -0.106231
   9 Au:    0.241196   -0.106345
  10 Fe:   -2.339583    2.821180
Sum of atomic charges         :   -0.0000000

LOEWDIN ATOMIC CHARGES AND SPIN POPULATIONS
-------------------------------------------
   0 Au:    0.087812   -0.086036
   1 Au:    0.088144   -0.085716
   2 Au:    0.087643   -0.086226
   3 Au:   -0.003844   -0.061550
   4 Au:    0.087932   -0.085854
   5 Au:   -0.003848   -0.061550
   6 Au:    0.088149   -0.085711
   7 Au:    0.087932   -0.085849
   8 Au:    0.087813   -0.086038
   9 Au:    0.087640   -0.086232
  10 Fe:   -0.695374    2.810763

  Mayer bond orders larger than 0.100000
B(  0-Au,  2-Au) :   0.1067 B(  0-Au,  3-Au) :   0.2199 B(  0-Au,  4-Au) :   0.2720
B(  0-Au,  6-Au) :   0.1064 B(  0-Au,  8-Au) :   0.1004 B(  0-Au, 10-Fe) :   0.6773
B(  1-Au,  2-Au) :   0.2719 B(  1-Au,  4-Au) :   0.1046 B(  1-Au,  5-Au) :   0.2210
B(  1-Au,  6-Au) :   0.1008 B(  1-Au,  8-Au) :   0.1064 B(  1-Au, 10-Fe) :   0.6777
B(  2-Au,  3-Au) :   0.2196 B(  2-Au,  7-Au) :   0.1073 B(  2-Au,  9-Au) :   0.1002
B(  2-Au, 10-Fe) :   0.6769 B(  3-Au,  5-Au) :   0.1934 B(  3-Au,  6-Au) :   0.2210
B(  3-Au,  7-Au) :   0.2206 B(  3-Au, 10-Fe) :   0.3480 B(  4-Au,  5-Au) :   0.2206
B(  4-Au,  7-Au) :   0.1006 B(  4-Au,  9-Au) :   0.1073 B(  4-Au, 10-Fe) :   0.6774
B(  5-Au,  8-Au) :   0.2199 B(  5-Au,  9-Au) :   0.2196 B(  5-Au, 10-Fe) :   0.3480
B(  6-Au,  7-Au) :   0.1046 B(  6-Au,  9-Au) :   0.2719 B(  6-Au, 10-Fe) :   0.6777
B(  7-Au,  8-Au) :   0.2720 B(  7-Au, 10-Fe) :   0.6774 B(  8-Au,  9-Au) :   0.1067
B(  8-Au, 10-Fe) :   0.6773 B(  9-Au, 10-Fe) :   0.6769

FINAL SINGLE POINT ENERGY     -2621.721553337977

DIPOLE MOMENT
-------------
                                X             Y             Z
Electronic contribution:      0.00022      -0.00042       0.00024
Nuclear contribution   :     -0.00021       0.00043      -0.00024
                        -----------------------------------------
Total Dipole Moment    :      0.00001       0.00001      -0.00000
                        -----------------------------------------
Magnitude (a.u.)       :      0.00001
Magnitude (Debye)      :      0.00003

Rotational constants in cm-1:     0.002305     0.001582     0.001579
Rotational constants in MHz :    69.093878    47.412734    47.350976

                             ****ORCA TERMINATED NORMALLY****
TOTAL RUN TIME: 0 days 1 hours 0 minutes 16 seconds 906 msec
