                         Program Version 5.0.3 -  RELEASE  -
|  1> !SC-NEVPT2 def2-TZVP def2-TZVP/C
|  2> !MOREAD RIJCOSX def2/J
|  3> %maxcore 4000
|  4> %moinp "casscf.gbw"
|  5> %pal nprocs 2 end
|  6>
|  7> %casscf
|  8>  mult 5,3
|  9>  bweight 1,1
| 10>  nroots 5,45
| 11>  nel 6
| 12>  norb 5
| 13>  ptsettings
| 14>   d4tpre 1e-14 # default = 1e-10
| 15>   d3tpre 1e-14
| 16>  end
| 17>  rel
| 18>    dosoc true
| 19>    gtensor true
| 20>  end
| 21> end
| 22>
| 23>
| 24> *xyzfile 0 5 pbe.xyz
| 25>
| 26>
| 27>                          ****END OF INPUT****

CARTESIAN COORDINATES (ANGSTROEM)
---------------------------------
  Au    10.957578    6.031971    7.021700
  Au     5.361030    9.046427   10.530731
  Au     7.533380    7.294619   11.001785
  Au     9.341546    6.680263    9.140317
  Au     9.555219    8.362764    6.907185
  Au     7.433026    9.969783    6.351829
  Au     5.113603    9.796674    7.925486
  Au     7.812672    9.194024    8.980092
  Au     5.194151    8.640084    5.393103
  Au     7.656368    7.421276    5.056093
  Au     8.312161    5.373539    6.809477
  Au     4.972714    6.288429   10.917855
  Au     3.551985    7.436970    7.224629
  Au     7.018729    4.997384    9.237041
  Au     5.709743    5.874611    6.282554
  Au     4.287731    5.113419    8.529789
  Fe     5.926053    7.311350    8.560386

 Total Charge           Charge          ....    0
 Multiplicity           Mult            ....    5
 Number of Electrons    NEL             ....  330
 Basis Dimension        Dim             ....  685

ORBITAL ENERGIES
----------------

  NO   OCC          E(Eh)            E(eV)
   0   2.0000    -261.407129     -7113.2496
   1   2.0000     -31.968005      -869.8936
   2   2.0000     -27.448593      -746.9142
   3   2.0000     -27.447935      -746.8963
   4   2.0000     -27.447697      -746.8898
   5   2.0000      -4.723747      -128.5397
   6   2.0000      -4.722166      -128.4967
   7   2.0000      -4.722014      -128.4925
   8   2.0000      -4.720055      -128.4392
   9   2.0000      -4.718606      -128.3998
  10   2.0000      -4.718006      -128.3835
  11   2.0000      -4.716285      -128.3366
  12   2.0000      -4.714750      -128.2949
  13   2.0000      -4.714254      -128.2814
  14   2.0000      -4.710570      -128.1811
  15   2.0000      -4.709096      -128.1410
  16   2.0000      -4.708827      -128.1337
  17   2.0000      -4.707928      -128.1092
  18   2.0000      -4.707315      -128.0925
  19   2.0000      -4.704774      -128.0234
  20   2.0000      -4.704009      -128.0026
  21   2.0000      -4.201442      -114.3270
  22   2.0000      -2.780867       -75.6712
  23   2.0000      -2.780459       -75.6601
  24   2.0000      -2.780079       -75.6498
  25   2.0000      -2.763226       -75.1912
  26   2.0000      -2.760447       -75.1156
  27   2.0000      -2.760023       -75.1040
  28   2.0000      -2.759331       -75.0852
  29   2.0000      -2.759079       -75.0784
  30   2.0000      -2.758960       -75.0751
  31   2.0000      -2.758291       -75.0569
  32   2.0000      -2.757875       -75.0456
  33   2.0000      -2.757437       -75.0337
  34   2.0000      -2.757044       -75.0230
  35   2.0000      -2.756455       -75.0070
  36   2.0000      -2.755390       -74.9780
  37   2.0000      -2.754926       -74.9654
  38   2.0000      -2.754399       -74.9510
  39   2.0000      -2.754169       -74.9447
  40   2.0000      -2.753628       -74.9300
  41   2.0000      -2.753164       -74.9174
  42   2.0000      -2.752766       -74.9066
  43   2.0000      -2.752311       -74.8942
  44   2.0000      -2.752101       -74.8885
  45   2.0000      -2.751420       -74.8699
  46   2.0000      -2.750635       -74.8486
  47   2.0000      -2.750126       -74.8347
  48   2.0000      -2.749947       -74.8299
  49   2.0000      -2.749335       -74.8132
  50   2.0000      -2.749074       -74.8061
  51   2.0000      -2.748077       -74.7790
  52   2.0000      -2.746912       -74.7473
  53   2.0000      -2.746595       -74.7386
  54   2.0000      -2.746392       -74.7331
  55   2.0000      -2.746083       -74.7247
  56   2.0000      -2.745687       -74.7139
  57   2.0000      -2.745348       -74.7047
  58   2.0000      -2.744794       -74.6896
  59   2.0000      -2.744401       -74.6790
  60   2.0000      -2.743443       -74.6529
  61   2.0000      -2.742288       -74.6215
  62   2.0000      -2.742249       -74.6204
  63   2.0000      -2.742181       -74.6185
  64   2.0000      -2.741789       -74.6079
  65   2.0000      -2.741565       -74.6018
  66   2.0000      -2.740826       -74.5817
  67   2.0000      -2.740439       -74.5711
  68   2.0000      -2.739783       -74.5533
  69   2.0000      -2.739276       -74.5395
  70   2.0000      -2.738818       -74.5270
  71   2.0000      -2.737864       -74.5011
  72   2.0000      -2.737090       -74.4800
  73   2.0000      -0.585110       -15.9217
  74   2.0000      -0.563796       -15.3417
  75   2.0000      -0.559761       -15.2319
  76   2.0000      -0.556114       -15.1326
  77   2.0000      -0.553813       -15.0700
  78   2.0000      -0.551996       -15.0206
  79   2.0000      -0.551889       -15.0177
  80   2.0000      -0.550505       -14.9800
  81   2.0000      -0.548964       -14.9381
  82   2.0000      -0.546067       -14.8592
  83   2.0000      -0.545314       -14.8387
  84   2.0000      -0.543268       -14.7831
  85   2.0000      -0.541943       -14.7470
  86   2.0000      -0.540543       -14.7089
  87   2.0000      -0.538370       -14.6498
  88   2.0000      -0.537176       -14.6173
  89   2.0000      -0.536527       -14.5996
  90   2.0000      -0.535389       -14.5687
  91   2.0000      -0.532802       -14.4983
  92   2.0000      -0.532125       -14.4799
  93   2.0000      -0.528642       -14.3851
  94   2.0000      -0.526945       -14.3389
  95   2.0000      -0.526474       -14.3261
  96   2.0000      -0.523240       -14.2381
  97   2.0000      -0.523083       -14.2338
  98   2.0000      -0.520228       -14.1561
  99   2.0000      -0.518550       -14.1105
 100   2.0000      -0.515591       -14.0299
 101   2.0000      -0.513240       -13.9660
 102   2.0000      -0.512366       -13.9422
 103   2.0000      -0.505861       -13.7652
 104   2.0000      -0.505172       -13.7464
 105   2.0000      -0.502728       -13.6799
 106   2.0000      -0.499770       -13.5994
 107   2.0000      -0.496372       -13.5070
 108   2.0000      -0.490094       -13.3361
 109   2.0000      -0.487938       -13.2775
 110   2.0000      -0.486332       -13.2338
 111   2.0000      -0.483448       -13.1553
 112   2.0000      -0.481016       -13.0891
 113   2.0000      -0.476522       -12.9668
 114   2.0000      -0.474396       -12.9090
 115   2.0000      -0.471889       -12.8408
 116   2.0000      -0.471068       -12.8184
 117   2.0000      -0.468272       -12.7423
 118   2.0000      -0.467238       -12.7142
 119   2.0000      -0.463303       -12.6071
 120   2.0000      -0.461773       -12.5655
 121   2.0000      -0.459362       -12.4999
 122   2.0000      -0.458562       -12.4781
 123   2.0000      -0.456767       -12.4293
 124   2.0000      -0.453908       -12.3515
 125   2.0000      -0.453122       -12.3301
 126   2.0000      -0.452503       -12.3132
 127   2.0000      -0.450427       -12.2567
 128   2.0000      -0.449604       -12.2343
 129   2.0000      -0.448402       -12.2016
 130   2.0000      -0.446057       -12.1378
 131   2.0000      -0.444948       -12.1076
 132   2.0000      -0.442198       -12.0328
 133   2.0000      -0.440395       -11.9838
 134   2.0000      -0.439470       -11.9586
 135   2.0000      -0.438551       -11.9336
 136   2.0000      -0.435732       -11.8569
 137   2.0000      -0.434435       -11.8216
 138   2.0000      -0.431591       -11.7442
 139   2.0000      -0.431241       -11.7347
 140   2.0000      -0.428194       -11.6517
 141   2.0000      -0.426369       -11.6021
 142   2.0000      -0.424796       -11.5593
 143   2.0000      -0.421141       -11.4598
 144   2.0000      -0.420900       -11.4533
 145   2.0000      -0.418361       -11.3842
 146   2.0000      -0.416897       -11.3443
 147   2.0000      -0.411041       -11.1850
 148   2.0000      -0.410631       -11.1738
 149   2.0000      -0.408747       -11.1226
 150   2.0000      -0.404983       -11.0202
 151   2.0000      -0.401735       -10.9318
 152   2.0000      -0.392876       -10.6907
 153   2.0000      -0.384800       -10.4709
 154   2.0000      -0.380308       -10.3487
 155   2.0000      -0.373020       -10.1504
 156   2.0000      -0.360143        -9.8000
 157   2.0000      -0.268536        -7.3072
 158   2.0000      -0.254502        -6.9254
 159   2.0000      -0.252212        -6.8630
 160   2.0000      -0.236383        -6.4323
 161   2.0000      -0.231263        -6.2930
 162   1.2000      -0.274698        -7.4749
 163   1.2000      -0.276955        -7.5363
 164   1.2000      -0.279206        -7.5976
 165   1.2000      -0.278856        -7.5881
 166   1.2000      -0.285974        -7.7817
 167   0.0000      -0.031604        -0.8600
 168   0.0000      -0.016461        -0.4479
 169   0.0000      -0.013879        -0.3777
 170   0.0000      -0.007736        -0.2105
 171   0.0000      -0.000095        -0.0026

MULLIKEN ATOMIC CHARGES AND SPIN DENSITIES
------------------------------------------
   0 Au:    0.637771    0.000707
   1 Au:    0.332080    0.006537
   2 Au:    0.293604    0.004338
   3 Au:   -0.406178    0.003018
   4 Au:   -0.238120    0.002773
   5 Au:    0.222259    0.003311
   6 Au:    0.043363    0.008268
   7 Au:   -0.183178    0.007995
   8 Au:    0.090028    0.003893
   9 Au:    0.193744    0.003158
  10 Au:   -0.288087    0.003487
  11 Au:    0.299231    0.005756
  12 Au:    0.302730    0.006838
  13 Au:    0.095831    0.008650
  14 Au:   -0.092306    0.007797
  15 Au:    0.304535    0.005364
  16 Fe:   -1.607306    2.918109
Sum of atomic charges       :    0.0000000

LOEWDIN ATOMIC CHARGES AND SPIN DENSITIES
-----------------------------------------
   0 Au:    0.209224    0.001200
   1 Au:    0.085882    0.008376
   2 Au:    0.001064    0.006288
   3 Au:   -0.107456    0.003430
   4 Au:   -0.076762    0.002775
   5 Au:    0.008294    0.004247
   6 Au:   -0.015433    0.010539
   7 Au:   -0.039329    0.010219
   8 Au:   -0.030356    0.004949
   9 Au:    0.016043    0.003606
  10 Au:   -0.103959    0.003660
  11 Au:    0.046559    0.007864
  12 Au:    0.076848    0.009105
  13 Au:   -0.008540    0.010691
  14 Au:   -0.053234    0.010349
  15 Au:    0.077120    0.006995
  16 Fe:   -0.085966    2.895707

  Mayer bond orders larger than 0.100000
B(  0-Au,  3-Au) :   0.2717 B(  0-Au,  4-Au) :   0.2446 B(  0-Au, 10-Au) :   0.2490
B(  1-Au,  2-Au) :   0.1525 B(  1-Au,  6-Au) :   0.2255 B(  1-Au,  7-Au) :   0.1411
B(  1-Au, 11-Au) :   0.1623 B(  1-Au, 16-Fe) :   0.4021 B(  2-Au,  3-Au) :   0.3872
B(  2-Au,  7-Au) :   0.1779 B(  2-Au, 11-Au) :   0.1996 B(  2-Au, 16-Fe) :   0.2749
B(  3-Au,  4-Au) :   0.3793 B(  3-Au,  7-Au) :   0.2451 B(  3-Au, 10-Au) :   0.3402
B(  3-Au, 13-Au) :   0.1872 B(  3-Au, 16-Fe) :   0.1852 B(  4-Au,  5-Au) :   0.3180
B(  4-Au,  7-Au) :   0.3399 B(  4-Au,  9-Au) :   0.1457 B(  4-Au, 10-Au) :   0.2917
B(  5-Au,  6-Au) :   0.2447 B(  5-Au,  7-Au) :   0.2363 B(  5-Au,  8-Au) :   0.2059
B(  5-Au,  9-Au) :   0.1786 B(  5-Au, 16-Fe) :   0.1070 B(  6-Au,  7-Au) :   0.1102
B(  6-Au,  8-Au) :   0.2653 B(  6-Au, 16-Fe) :   0.4199 B(  7-Au, 16-Fe) :   0.4599
B(  8-Au,  9-Au) :   0.2568 B(  8-Au, 12-Au) :   0.2789 B(  8-Au, 14-Au) :   0.1378
B(  8-Au, 16-Fe) :   0.1902 B(  9-Au, 10-Au) :   0.1927 B(  9-Au, 14-Au) :   0.3385
B( 10-Au, 13-Au) :   0.2786 B( 10-Au, 14-Au) :   0.3345 B( 10-Au, 16-Fe) :   0.1946
B( 11-Au, 13-Au) :   0.1374 B( 11-Au, 15-Au) :   0.1718 B( 11-Au, 16-Fe) :   0.3651
B( 12-Au, 14-Au) :   0.2137 B( 12-Au, 15-Au) :   0.1938 B( 12-Au, 16-Fe) :   0.3246
B( 13-Au, 15-Au) :   0.1654 B( 13-Au, 16-Fe) :   0.4285 B( 14-Au, 15-Au) :   0.2261
B( 14-Au, 16-Fe) :   0.4413 B( 15-Au, 16-Fe) :   0.3771

FINAL SINGLE POINT ENERGY     -3427.429637599309

DIPOLE MOMENT
-------------
                                X             Y             Z
Electronic contribution:     35.74116       1.05598     -22.86201
Nuclear contribution   :    -35.86919      -1.29328      23.09945
                        -----------------------------------------
Total Dipole Moment    :     -0.12803      -0.23729       0.23743
                        -----------------------------------------
Magnitude (a.u.)       :      0.35927
Magnitude (Debye)      :      0.91319

Rotational constants in cm-1:     0.000938     0.000796     0.000699
Rotational constants in MHz :    28.122525    23.874549    20.955644

                             ****ORCA TERMINATED NORMALLY****
TOTAL RUN TIME: 0 days 6 hours 22 minutes 42 seconds 463 msec
