                         Program Version 5.0.3 -  RELEASE  -
|  1> %pal nprocs 1 end
|  2>
|  3> !PBE def2-TZVP OPT UNO
|  4> !SLOWCONV
|  5>
|  6> *xyzfile 0 5 7.xyz                           ****END OF INPUT****
 Total Charge           Charge          ....    0
 Multiplicity           Mult            ....    5
 Number of Electrons    NEL             ....  330
FINAL SINGLE POINT ENERGY     -3436.759417823252
FINAL SINGLE POINT ENERGY     -3436.762362138992
FINAL SINGLE POINT ENERGY     -3436.762918405328
FINAL SINGLE POINT ENERGY     -3436.763504748136
FINAL SINGLE POINT ENERGY     -3436.763966548879
FINAL SINGLE POINT ENERGY     -3436.764150213428
FINAL SINGLE POINT ENERGY     -3436.764252705216
FINAL SINGLE POINT ENERGY     -3436.764362684631
FINAL SINGLE POINT ENERGY     -3436.764442531582
FINAL SINGLE POINT ENERGY     -3436.764497173137
FINAL SINGLE POINT ENERGY     -3436.764546214786
FINAL SINGLE POINT ENERGY     -3436.764583617292
FINAL SINGLE POINT ENERGY     -3436.764606203271
FINAL SINGLE POINT ENERGY     -3436.764616225761
                    ***********************HURRAY********************

CARTESIAN COORDINATES (ANGSTROEM)
---------------------------------
  Au     8.003449   10.022520    8.226503
  Au     8.002283    9.018854   10.793805
  Au     6.962794    6.458184   10.499253
  Au     8.985976    7.316599    8.784613
  Au     7.147603    5.139411    8.064178
  Au     7.510327    7.198362    4.771785
  Au     9.517545    8.565356    6.351722
  Au     9.325318    5.831758    6.466418
  Au     7.303989    9.924242    5.474679
  Au     7.176650    4.483333    5.329050
  Au     4.970371    5.855781    6.243305
  Au     5.009568    8.414193    5.085772
  Au     5.343476   10.328751    7.377258
  Au     4.685108    6.000426    9.043192
  Au     5.466260    8.718038    9.662758
  Au     3.741356    8.072757    7.518676
  Fe     6.622476    7.799022    7.323358

 Multiplicity           Mult            ....    5
 Number of Electrons    NEL             ....  330
 Basis Dimension        Dim             ....  685

ORBITAL ENERGIES
----------------
                 SPIN UP ORBITALS
  NO   OCC          E(Eh)            E(eV)
   0   1.0000    -254.762588     -6932.4425
   1   1.0000     -29.597724      -805.3950
   2   1.0000     -25.547033      -695.1701
   3   1.0000     -25.527151      -694.6291
   4   1.0000     -25.524705      -694.5625
   5   1.0000      -4.040291      -109.9419
   6   1.0000      -4.039824      -109.9292
   7   1.0000      -4.034806      -109.7927
   8   1.0000      -4.034719      -109.7903
   9   1.0000      -4.033382      -109.7539
  10   1.0000      -4.033258      -109.7505
  11   1.0000      -4.033023      -109.7441
  12   1.0000      -4.032807      -109.7382
  13   1.0000      -4.030483      -109.6750
  14   1.0000      -4.030421      -109.6733
  15   1.0000      -4.027552      -109.5953
  16   1.0000      -4.027437      -109.5921
  17   1.0000      -4.027250      -109.5870
  18   1.0000      -4.027246      -109.5869
  19   1.0000      -4.021974      -109.4435
  20   1.0000      -4.021959      -109.4431
  21   1.0000      -3.379917       -91.9722
  22   1.0000      -2.255640       -61.3791
  23   1.0000      -2.255289       -61.3695
  24   1.0000      -2.252689       -61.2988
  25   1.0000      -2.251995       -61.2799
  26   1.0000      -2.251518       -61.2669
  27   1.0000      -2.250142       -61.2295
  28   1.0000      -2.249889       -61.2226
  29   1.0000      -2.249801       -61.2202
  30   1.0000      -2.249744       -61.2186
  31   1.0000      -2.249547       -61.2133
  32   1.0000      -2.249267       -61.2057
  33   1.0000      -2.248988       -61.1981
  34   1.0000      -2.246626       -61.1338
  35   1.0000      -2.246544       -61.1316
  36   1.0000      -2.246484       -61.1299
  37   1.0000      -2.246300       -61.1249
  38   1.0000      -2.245670       -61.1078
  39   1.0000      -2.245485       -61.1027
  40   1.0000      -2.245376       -61.0998
  41   1.0000      -2.245284       -61.0973
  42   1.0000      -2.245278       -61.0971
  43   1.0000      -2.245040       -61.0907
  44   1.0000      -2.244394       -61.0731
  45   1.0000      -2.244212       -61.0681
  46   1.0000      -2.244047       -61.0636
  47   1.0000      -2.243857       -61.0584
  48   1.0000      -2.243216       -61.0410
  49   1.0000      -2.243086       -61.0375
  50   1.0000      -2.242870       -61.0316
  51   1.0000      -2.242745       -61.0282
  52   1.0000      -2.241490       -60.9941
  53   1.0000      -2.241216       -60.9866
  54   1.0000      -2.241148       -60.9847
  55   1.0000      -2.240638       -60.9709
  56   1.0000      -2.239917       -60.9512
  57   1.0000      -2.239608       -60.9428
  58   1.0000      -2.239438       -60.9382
  59   1.0000      -2.239328       -60.9352
  60   1.0000      -2.238541       -60.9138
  61   1.0000      -2.238518       -60.9132
  62   1.0000      -2.237594       -60.8880
  63   1.0000      -2.237527       -60.8862
  64   1.0000      -2.235440       -60.8294
  65   1.0000      -2.235403       -60.8284
  66   1.0000      -2.235003       -60.8175
  67   1.0000      -2.234942       -60.8159
  68   1.0000      -2.233660       -60.7810
  69   1.0000      -2.233634       -60.7803
  70   1.0000      -2.221956       -60.4625
  71   1.0000      -2.182494       -59.3887
  72   1.0000      -2.176575       -59.2276
  73   1.0000      -0.442418       -12.0388
  74   1.0000      -0.399463       -10.8699
  75   1.0000      -0.396878       -10.7996
  76   1.0000      -0.393150       -10.6982
  77   1.0000      -0.382663       -10.4128
  78   1.0000      -0.379548       -10.3280
  79   1.0000      -0.379234       -10.3195
  80   1.0000      -0.376060       -10.2331
  81   1.0000      -0.374517       -10.1911
  82   1.0000      -0.371394       -10.1061
  83   1.0000      -0.367776       -10.0077
  84   1.0000      -0.365476        -9.9451
  85   1.0000      -0.361949        -9.8491
  86   1.0000      -0.359818        -9.7911
  87   1.0000      -0.357424        -9.7260
  88   1.0000      -0.357220        -9.7204
  89   1.0000      -0.355156        -9.6643
  90   1.0000      -0.354111        -9.6359
  91   1.0000      -0.353557        -9.6208
  92   1.0000      -0.351571        -9.5667
  93   1.0000      -0.350724        -9.5437
  94   1.0000      -0.348880        -9.4935
  95   1.0000      -0.347683        -9.4609
  96   1.0000      -0.346727        -9.4349
  97   1.0000      -0.346137        -9.4189
  98   1.0000      -0.339848        -9.2477
  99   1.0000      -0.337425        -9.1818
 100   1.0000      -0.334525        -9.1029
 101   1.0000      -0.333741        -9.0815
 102   1.0000      -0.332154        -9.0384
 103   1.0000      -0.331890        -9.0312
 104   1.0000      -0.326516        -8.8849
 105   1.0000      -0.324934        -8.8419
 106   1.0000      -0.321913        -8.7597
 107   1.0000      -0.321596        -8.7511
 108   1.0000      -0.318455        -8.6656
 109   1.0000      -0.316806        -8.6207
 110   1.0000      -0.316707        -8.6180
 111   1.0000      -0.311385        -8.4732
 112   1.0000      -0.309179        -8.4132
 113   1.0000      -0.307510        -8.3678
 114   1.0000      -0.300915        -8.1883
 115   1.0000      -0.299944        -8.1619
 116   1.0000      -0.299428        -8.1479
 117   1.0000      -0.293528        -7.9873
 118   1.0000      -0.292125        -7.9491
 119   1.0000      -0.289592        -7.8802
 120   1.0000      -0.288597        -7.8531
 121   1.0000      -0.288521        -7.8510
 122   1.0000      -0.287161        -7.8141
 123   1.0000      -0.282380        -7.6839
 124   1.0000      -0.281812        -7.6685
 125   1.0000      -0.280830        -7.6418
 126   1.0000      -0.279465        -7.6046
 127   1.0000      -0.278793        -7.5863
 128   1.0000      -0.276795        -7.5320
 129   1.0000      -0.276552        -7.5254
 130   1.0000      -0.275493        -7.4966
 131   1.0000      -0.275006        -7.4833
 132   1.0000      -0.273396        -7.4395
 133   1.0000      -0.271420        -7.3857
 134   1.0000      -0.271157        -7.3785
 135   1.0000      -0.268629        -7.3098
 136   1.0000      -0.268065        -7.2944
 137   1.0000      -0.267763        -7.2862
 138   1.0000      -0.267346        -7.2749
 139   1.0000      -0.265134        -7.2147
 140   1.0000      -0.265082        -7.2132
 141   1.0000      -0.264539        -7.1985
 142   1.0000      -0.262616        -7.1461
 143   1.0000      -0.261554        -7.1172
 144   1.0000      -0.258391        -7.0312
 145   1.0000      -0.258197        -7.0259
 146   1.0000      -0.256722        -6.9858
 147   1.0000      -0.255994        -6.9660
 148   1.0000      -0.255560        -6.9541
 149   1.0000      -0.254140        -6.9155
 150   1.0000      -0.252511        -6.8712
 151   1.0000      -0.251879        -6.8540
 152   1.0000      -0.249849        -6.7987
 153   1.0000      -0.249402        -6.7866
 154   1.0000      -0.248482        -6.7615
 155   1.0000      -0.248250        -6.7552
 156   1.0000      -0.244909        -6.6643
 157   1.0000      -0.244097        -6.6422
 158   1.0000      -0.242700        -6.6042
 159   1.0000      -0.238976        -6.5029
 160   1.0000      -0.238177        -6.4811
 161   1.0000      -0.236484        -6.4351
 162   1.0000      -0.220144        -5.9904
 163   1.0000      -0.219000        -5.9593
 164   1.0000      -0.210754        -5.7349
 165   1.0000      -0.207012        -5.6331
 166   1.0000      -0.201535        -5.4840
 167   0.0000      -0.161794        -4.4027
 168   0.0000      -0.141476        -3.8498
 169   0.0000      -0.132781        -3.6132
 170   0.0000      -0.132148        -3.5959
 171   0.0000      -0.128512        -3.4970

                 SPIN DOWN ORBITALS
  NO   OCC          E(Eh)            E(eV)
   0   1.0000    -254.761913     -6932.4241
   1   1.0000     -29.537407      -803.7537
   2   1.0000     -25.495399      -693.7651
   3   1.0000     -25.483937      -693.4532
   4   1.0000     -25.482987      -693.4273
   5   1.0000      -4.039473      -109.9196
   6   1.0000      -4.039037      -109.9078
   7   1.0000      -4.034500      -109.7843
   8   1.0000      -4.034421      -109.7822
   9   1.0000      -4.032901      -109.7408
  10   1.0000      -4.032765      -109.7371
  11   1.0000      -4.032467      -109.7290
  12   1.0000      -4.032240      -109.7228
  13   1.0000      -4.029973      -109.6611
  14   1.0000      -4.029907      -109.6593
  15   1.0000      -4.027433      -109.5920
  16   1.0000      -4.027319      -109.5889
  17   1.0000      -4.027097      -109.5829
  18   1.0000      -4.027094      -109.5828
  19   1.0000      -4.021989      -109.4439
  20   1.0000      -4.021979      -109.4436
  21   1.0000      -3.242345       -88.2287
  22   1.0000      -2.254811       -61.3565
  23   1.0000      -2.254487       -61.3477
  24   1.0000      -2.251595       -61.2690
  25   1.0000      -2.251015       -61.2532
  26   1.0000      -2.250617       -61.2424
  27   1.0000      -2.249657       -61.2163
  28   1.0000      -2.249567       -61.2138
  29   1.0000      -2.249472       -61.2112
  30   1.0000      -2.249386       -61.2089
  31   1.0000      -2.249135       -61.2021
  32   1.0000      -2.248745       -61.1915
  33   1.0000      -2.248482       -61.1843
  34   1.0000      -2.246184       -61.1218
  35   1.0000      -2.246122       -61.1201
  36   1.0000      -2.246020       -61.1173
  37   1.0000      -2.245848       -61.1126
  38   1.0000      -2.245193       -61.0948
  39   1.0000      -2.244944       -61.0880
  40   1.0000      -2.244873       -61.0861
  41   1.0000      -2.244717       -61.0819
  42   1.0000      -2.244583       -61.0782
  43   1.0000      -2.244399       -61.0732
  44   1.0000      -2.243964       -61.0614
  45   1.0000      -2.243806       -61.0571
  46   1.0000      -2.243654       -61.0529
  47   1.0000      -2.243535       -61.0497
  48   1.0000      -2.242590       -61.0240
  49   1.0000      -2.242456       -61.0203
  50   1.0000      -2.242314       -61.0165
  51   1.0000      -2.242189       -61.0131
  52   1.0000      -2.241138       -60.9845
  53   1.0000      -2.241051       -60.9821
  54   1.0000      -2.240975       -60.9800
  55   1.0000      -2.240234       -60.9599
  56   1.0000      -2.239769       -60.9472
  57   1.0000      -2.239458       -60.9387
  58   1.0000      -2.239239       -60.9328
  59   1.0000      -2.239137       -60.9300
  60   1.0000      -2.238349       -60.9086
  61   1.0000      -2.238324       -60.9079
  62   1.0000      -2.237432       -60.8836
  63   1.0000      -2.237377       -60.8821
  64   1.0000      -2.235484       -60.8306
  65   1.0000      -2.235440       -60.8294
  66   1.0000      -2.234999       -60.8174
  67   1.0000      -2.234946       -60.8160
  68   1.0000      -2.233649       -60.7807
  69   1.0000      -2.233625       -60.7800
  70   1.0000      -2.068931       -56.2985
  71   1.0000      -2.055473       -55.9323
  72   1.0000      -2.052610       -55.8544
  73   1.0000      -0.438170       -11.9232
  74   1.0000      -0.398052       -10.8315
  75   1.0000      -0.395848       -10.7716
  76   1.0000      -0.392630       -10.6840
  77   1.0000      -0.377463       -10.2713
  78   1.0000      -0.374836       -10.1998
  79   1.0000      -0.371781       -10.1167
  80   1.0000      -0.371562       -10.1107
  81   1.0000      -0.370583       -10.0841
  82   1.0000      -0.368900       -10.0383
  83   1.0000      -0.365678        -9.9506
  84   1.0000      -0.363691        -9.8965
  85   1.0000      -0.360060        -9.7977
  86   1.0000      -0.358854        -9.7649
  87   1.0000      -0.356559        -9.7025
  88   1.0000      -0.356093        -9.6898
  89   1.0000      -0.353705        -9.6248
  90   1.0000      -0.353076        -9.6077
  91   1.0000      -0.350937        -9.5495
  92   1.0000      -0.350831        -9.5466
  93   1.0000      -0.349719        -9.5163
  94   1.0000      -0.347679        -9.4608
  95   1.0000      -0.346257        -9.4221
  96   1.0000      -0.345582        -9.4038
  97   1.0000      -0.344266        -9.3679
  98   1.0000      -0.338408        -9.2085
  99   1.0000      -0.335621        -9.1327
 100   1.0000      -0.333295        -9.0694
 101   1.0000      -0.331336        -9.0161
 102   1.0000      -0.330630        -8.9969
 103   1.0000      -0.329684        -8.9712
 104   1.0000      -0.324614        -8.8332
 105   1.0000      -0.322429        -8.7737
 106   1.0000      -0.318534        -8.6677
 107   1.0000      -0.316934        -8.6242
 108   1.0000      -0.315311        -8.5801
 109   1.0000      -0.315092        -8.5741
 110   1.0000      -0.310819        -8.4578
 111   1.0000      -0.305783        -8.3208
 112   1.0000      -0.301354        -8.2003
 113   1.0000      -0.299263        -8.1434
 114   1.0000      -0.298127        -8.1124
 115   1.0000      -0.297688        -8.1005
 116   1.0000      -0.290649        -7.9089
 117   1.0000      -0.290444        -7.9034
 118   1.0000      -0.289693        -7.8829
 119   1.0000      -0.286783        -7.8038
 120   1.0000      -0.286643        -7.8000
 121   1.0000      -0.284303        -7.7363
 122   1.0000      -0.280762        -7.6399
 123   1.0000      -0.280146        -7.6232
 124   1.0000      -0.278990        -7.5917
 125   1.0000      -0.278088        -7.5672
 126   1.0000      -0.277758        -7.5582
 127   1.0000      -0.275794        -7.5047
 128   1.0000      -0.274963        -7.4821
 129   1.0000      -0.274895        -7.4803
 130   1.0000      -0.273247        -7.4354
 131   1.0000      -0.272681        -7.4200
 132   1.0000      -0.271884        -7.3983
 133   1.0000      -0.269694        -7.3388
 134   1.0000      -0.268420        -7.3041
 135   1.0000      -0.267811        -7.2875
 136   1.0000      -0.267244        -7.2721
 137   1.0000      -0.265327        -7.2199
 138   1.0000      -0.264188        -7.1889
 139   1.0000      -0.262762        -7.1501
 140   1.0000      -0.261819        -7.1244
 141   1.0000      -0.258192        -7.0258
 142   1.0000      -0.257511        -7.0072
 143   1.0000      -0.255382        -6.9493
 144   1.0000      -0.255136        -6.9426
 145   1.0000      -0.254404        -6.9227
 146   1.0000      -0.254043        -6.9128
 147   1.0000      -0.251718        -6.8496
 148   1.0000      -0.250424        -6.8144
 149   1.0000      -0.249006        -6.7758
 150   1.0000      -0.248387        -6.7590
 151   1.0000      -0.247716        -6.7407
 152   1.0000      -0.245081        -6.6690
 153   1.0000      -0.242373        -6.5953
 154   1.0000      -0.238986        -6.5031
 155   1.0000      -0.238603        -6.4927
 156   1.0000      -0.236895        -6.4462
 157   1.0000      -0.225391        -6.1332
 158   1.0000      -0.222494        -6.0544
 159   1.0000      -0.216906        -5.9023
 160   1.0000      -0.214509        -5.8371
 161   1.0000      -0.209630        -5.7043
 162   1.0000      -0.179344        -4.8802
 163   0.0000      -0.169224        -4.6048
 164   0.0000      -0.164782        -4.4839
 165   0.0000      -0.162916        -4.4332
 166   0.0000      -0.156716        -4.2644
 167   0.0000      -0.143245        -3.8979

MULLIKEN ATOMIC CHARGES AND SPIN POPULATIONS
--------------------------------------------
   0 Au:    0.014940    0.061114
   1 Au:    0.426982   -0.011220
   2 Au:    0.305104    0.040955
   3 Au:   -0.259583    0.087291
   4 Au:   -0.259132    0.089825
   5 Au:   -0.088464    0.073674
   6 Au:    0.212483    0.038854
   7 Au:    0.303509    0.042022
   8 Au:    0.328832    0.047718
   9 Au:    0.426429   -0.008290
  10 Au:    0.017587    0.061103
  11 Au:    0.268874    0.061667
  12 Au:    0.268730    0.062284
  13 Au:    0.209671    0.038779
  14 Au:   -0.096648    0.073200
  15 Au:    0.329175    0.048070
  16 Fe:   -2.408489    3.192955
Sum of atomic charges         :    0.0000000

LOEWDIN ATOMIC CHARGES AND SPIN POPULATIONS
-------------------------------------------
   0 Au:    0.005539    0.043441
   1 Au:    0.091900    0.008002
   2 Au:    0.019324    0.039027
   3 Au:   -0.024629    0.063972
   4 Au:   -0.023268    0.065777
   5 Au:   -0.010444    0.049406
   6 Au:    0.045046    0.038974
   7 Au:    0.019654    0.040039
   8 Au:    0.049518    0.041212
   9 Au:    0.091126    0.009935
  10 Au:    0.006360    0.043998
  11 Au:    0.061593    0.047028
  12 Au:    0.061634    0.047453
  13 Au:    0.044733    0.039222
  14 Au:   -0.011523    0.048711
  15 Au:    0.049147    0.041136
  16 Fe:   -0.475709    3.332667

  Mayer bond orders larger than 0.100000
B(  0-Au,  1-Au) :   0.2967 B(  0-Au,  3-Au) :   0.1842 B(  0-Au,  6-Au) :   0.2215
B(  0-Au,  8-Au) :   0.2024 B(  0-Au, 12-Au) :   0.1849 B(  0-Au, 14-Au) :   0.1329
B(  0-Au, 16-Fe) :   0.4133 B(  1-Au,  2-Au) :   0.2322 B(  1-Au,  3-Au) :   0.3080
B(  1-Au, 14-Au) :   0.2812 B(  2-Au,  3-Au) :   0.2667 B(  2-Au,  4-Au) :   0.3020
B(  2-Au, 13-Au) :   0.2479 B(  2-Au, 14-Au) :   0.2697 B(  2-Au, 16-Fe) :   0.1416
B(  3-Au,  4-Au) :   0.2117 B(  3-Au,  6-Au) :   0.2535 B(  3-Au,  7-Au) :   0.3037
B(  3-Au, 14-Au) :   0.1112 B(  3-Au, 16-Fe) :   0.4362 B(  4-Au,  5-Au) :   0.1095
B(  4-Au,  7-Au) :   0.2654 B(  4-Au,  9-Au) :   0.3083 B(  4-Au, 10-Au) :   0.1841
B(  4-Au, 13-Au) :   0.2547 B(  4-Au, 16-Fe) :   0.4409 B(  5-Au,  6-Au) :   0.2172
B(  5-Au,  7-Au) :   0.2699 B(  5-Au,  8-Au) :   0.2453 B(  5-Au,  9-Au) :   0.2815
B(  5-Au, 10-Au) :   0.1295 B(  5-Au, 11-Au) :   0.1984 B(  5-Au, 16-Fe) :   0.3905
B(  6-Au,  7-Au) :   0.2469 B(  6-Au,  8-Au) :   0.2386 B(  6-Au, 16-Fe) :   0.2776
B(  7-Au,  9-Au) :   0.2320 B(  7-Au, 16-Fe) :   0.1456 B(  8-Au, 11-Au) :   0.2138
B(  8-Au, 12-Au) :   0.2358 B(  8-Au, 16-Fe) :   0.3296 B(  9-Au, 10-Au) :   0.2977
B( 10-Au, 11-Au) :   0.1835 B( 10-Au, 13-Au) :   0.2215 B( 10-Au, 15-Au) :   0.2025
B( 10-Au, 16-Fe) :   0.4132 B( 11-Au, 12-Au) :   0.1185 B( 11-Au, 15-Au) :   0.2350
B( 11-Au, 16-Fe) :   0.4309 B( 12-Au, 14-Au) :   0.2020 B( 12-Au, 15-Au) :   0.2153
B( 12-Au, 16-Fe) :   0.4283 B( 13-Au, 14-Au) :   0.2202 B( 13-Au, 15-Au) :   0.2392
B( 13-Au, 16-Fe) :   0.2764 B( 14-Au, 15-Au) :   0.2455 B( 14-Au, 16-Fe) :   0.3895
B( 15-Au, 16-Fe) :   0.3274

FINAL SINGLE POINT ENERGY     -3436.764621616919

DIPOLE MOMENT
-------------
                                X             Y             Z
Electronic contribution:      7.65096      -8.23587       6.03847
Nuclear contribution   :     -7.63671       8.21878      -6.02630
                        -----------------------------------------
Total Dipole Moment    :      0.01425      -0.01710       0.01217
                        -----------------------------------------
Magnitude (a.u.)       :      0.02536
Magnitude (Debye)      :      0.06447

Rotational constants in cm-1:     0.000914     0.000817     0.000809
Rotational constants in MHz :    27.401575    24.506376    24.244246

                             ****ORCA TERMINATED NORMALLY****
TOTAL RUN TIME: 0 days 4 hours 19 minutes 46 seconds 255 msec
