                         Program Version 5.0.3 -  RELEASE  -
|  1> %pal nprocs 1 end
|  2>
|  3> !PBE def2-TZVP OPT UNO
|  4> !SLOWCONV
|  5>
|  6> *xyzfile 0 5 7.xyz                           ****END OF INPUT****
 Total Charge           Charge          ....    0
 Multiplicity           Mult            ....    5
 Number of Electrons    NEL             ....  292
FINAL SINGLE POINT ENERGY     -3165.072830874883
FINAL SINGLE POINT ENERGY     -3165.074666460916
FINAL SINGLE POINT ENERGY     -3165.075783402703
FINAL SINGLE POINT ENERGY     -3165.076046975089
FINAL SINGLE POINT ENERGY     -3165.076344365803
FINAL SINGLE POINT ENERGY     -3165.076454542514
FINAL SINGLE POINT ENERGY     -3165.076555073605
FINAL SINGLE POINT ENERGY     -3165.076660985101
FINAL SINGLE POINT ENERGY     -3165.076744705449
FINAL SINGLE POINT ENERGY     -3165.076810591141
FINAL SINGLE POINT ENERGY     -3165.076838980718
FINAL SINGLE POINT ENERGY     -3165.076864314654
FINAL SINGLE POINT ENERGY     -3165.076889977997
FINAL SINGLE POINT ENERGY     -3165.076910514536
FINAL SINGLE POINT ENERGY     -3165.076927540129
FINAL SINGLE POINT ENERGY     -3165.076937427028
FINAL SINGLE POINT ENERGY     -3165.076945262670
FINAL SINGLE POINT ENERGY     -3165.076950445690
FINAL SINGLE POINT ENERGY     -3165.076953353368
                    ***********************HURRAY********************

CARTESIAN COORDINATES (ANGSTROEM)
---------------------------------
  Au     4.334208    7.166260    9.290798
  Au     6.909605    6.302715    8.970309
  Au     6.815834    8.554187    4.765163
  Au     7.395086    6.016306    5.806863
  Au     5.243560    7.425938    6.743108
  Au     9.989664    5.214066    5.491412
  Au     9.552480    7.886502    5.089986
  Au     9.461358    6.153083    7.987054
  Au     8.669432   10.397577    5.782820
  Au    10.443272    8.998026    7.572282
  Au     6.235376    9.124459    9.500872
  Au     8.379785   10.611087    8.634866
  Au     8.861522    8.119712    9.836919
  Au     6.078551   10.345369    6.917839
  Fe     7.820689    8.277469    7.303584

 Multiplicity           Mult            ....    5
 Number of Electrons    NEL             ....  292
 Basis Dimension        Dim             ....  605

ORBITAL ENERGIES
----------------
                 SPIN UP ORBITALS
  NO   OCC          E(Eh)            E(eV)
   0   1.0000    -254.769873     -6932.6407
   1   1.0000     -29.610284      -805.7368
   2   1.0000     -25.548168      -695.2010
   3   1.0000     -25.543909      -695.0851
   4   1.0000     -25.543553      -695.0754
   5   1.0000      -4.031185      -109.6941
   6   1.0000      -4.031133      -109.6927
   7   1.0000      -4.030129      -109.6654
   8   1.0000      -4.030014      -109.6623
   9   1.0000      -4.028837      -109.6302
  10   1.0000      -4.028734      -109.6274
  11   1.0000      -4.028338      -109.6167
  12   1.0000      -4.028315      -109.6160
  13   1.0000      -4.027487      -109.5935
  14   1.0000      -4.027412      -109.5914
  15   1.0000      -4.021015      -109.4174
  16   1.0000      -4.020976      -109.4163
  17   1.0000      -4.020027      -109.3905
  18   1.0000      -4.019946      -109.3883
  19   1.0000      -3.389460       -92.2319
  20   1.0000      -2.249895       -61.2227
  21   1.0000      -2.249628       -61.2155
  22   1.0000      -2.246783       -61.1381
  23   1.0000      -2.246414       -61.1280
  24   1.0000      -2.245950       -61.1154
  25   1.0000      -2.245855       -61.1128
  26   1.0000      -2.244126       -61.0658
  27   1.0000      -2.244009       -61.0626
  28   1.0000      -2.243446       -61.0473
  29   1.0000      -2.243082       -61.0374
  30   1.0000      -2.242959       -61.0340
  31   1.0000      -2.242624       -61.0249
  32   1.0000      -2.242459       -61.0204
  33   1.0000      -2.242393       -61.0186
  34   1.0000      -2.241871       -61.0044
  35   1.0000      -2.241722       -61.0003
  36   1.0000      -2.241491       -60.9941
  37   1.0000      -2.240737       -60.9736
  38   1.0000      -2.240456       -60.9659
  39   1.0000      -2.240236       -60.9599
  40   1.0000      -2.240166       -60.9580
  41   1.0000      -2.239893       -60.9506
  42   1.0000      -2.239520       -60.9404
  43   1.0000      -2.239338       -60.9355
  44   1.0000      -2.239284       -60.9340
  45   1.0000      -2.239059       -60.9279
  46   1.0000      -2.238003       -60.8992
  47   1.0000      -2.237788       -60.8933
  48   1.0000      -2.237360       -60.8817
  49   1.0000      -2.237309       -60.8803
  50   1.0000      -2.236444       -60.8567
  51   1.0000      -2.236350       -60.8542
  52   1.0000      -2.235410       -60.8286
  53   1.0000      -2.235298       -60.8256
  54   1.0000      -2.232663       -60.7538
  55   1.0000      -2.232589       -60.7518
  56   1.0000      -2.231974       -60.7351
  57   1.0000      -2.231890       -60.7328
  58   1.0000      -2.231575       -60.7242
  59   1.0000      -2.231532       -60.7231
  60   1.0000      -2.230913       -60.7062
  61   1.0000      -2.230815       -60.7036
  62   1.0000      -2.208972       -60.1092
  63   1.0000      -2.200195       -59.8703
  64   1.0000      -2.199358       -59.8476
  65   1.0000      -0.442421       -12.0389
  66   1.0000      -0.393852       -10.7173
  67   1.0000      -0.390907       -10.6371
  68   1.0000      -0.387518       -10.5449
  69   1.0000      -0.381570       -10.3830
  70   1.0000      -0.381388       -10.3781
  71   1.0000      -0.376409       -10.2426
  72   1.0000      -0.375695       -10.2232
  73   1.0000      -0.369098       -10.0437
  74   1.0000      -0.365360        -9.9420
  75   1.0000      -0.360244        -9.8027
  76   1.0000      -0.353126        -9.6090
  77   1.0000      -0.352321        -9.5871
  78   1.0000      -0.351161        -9.5556
  79   1.0000      -0.348891        -9.4938
  80   1.0000      -0.346410        -9.4263
  81   1.0000      -0.344839        -9.3835
  82   1.0000      -0.341613        -9.2958
  83   1.0000      -0.341276        -9.2866
  84   1.0000      -0.341123        -9.2824
  85   1.0000      -0.337341        -9.1795
  86   1.0000      -0.335117        -9.1190
  87   1.0000      -0.333741        -9.0816
  88   1.0000      -0.331985        -9.0338
  89   1.0000      -0.330682        -8.9983
  90   1.0000      -0.326747        -8.8912
  91   1.0000      -0.320933        -8.7330
  92   1.0000      -0.318742        -8.6734
  93   1.0000      -0.317438        -8.6379
  94   1.0000      -0.315604        -8.5880
  95   1.0000      -0.311988        -8.4896
  96   1.0000      -0.308322        -8.3899
  97   1.0000      -0.308101        -8.3839
  98   1.0000      -0.305554        -8.3146
  99   1.0000      -0.301764        -8.2114
 100   1.0000      -0.301012        -8.1909
 101   1.0000      -0.299749        -8.1566
 102   1.0000      -0.296425        -8.0661
 103   1.0000      -0.294252        -8.0070
 104   1.0000      -0.293869        -7.9966
 105   1.0000      -0.288142        -7.8407
 106   1.0000      -0.286794        -7.8041
 107   1.0000      -0.284331        -7.7371
 108   1.0000      -0.283560        -7.7161
 109   1.0000      -0.281010        -7.6467
 110   1.0000      -0.278655        -7.5826
 111   1.0000      -0.276463        -7.5229
 112   1.0000      -0.275342        -7.4924
 113   1.0000      -0.274937        -7.4814
 114   1.0000      -0.274430        -7.4676
 115   1.0000      -0.271832        -7.3969
 116   1.0000      -0.271679        -7.3928
 117   1.0000      -0.270758        -7.3677
 118   1.0000      -0.268928        -7.3179
 119   1.0000      -0.267889        -7.2896
 120   1.0000      -0.264935        -7.2092
 121   1.0000      -0.263539        -7.1713
 122   1.0000      -0.263146        -7.1606
 123   1.0000      -0.261932        -7.1275
 124   1.0000      -0.260977        -7.1016
 125   1.0000      -0.259901        -7.0723
 126   1.0000      -0.259075        -7.0498
 127   1.0000      -0.258852        -7.0437
 128   1.0000      -0.256274        -6.9736
 129   1.0000      -0.255863        -6.9624
 130   1.0000      -0.255074        -6.9409
 131   1.0000      -0.253492        -6.8979
 132   1.0000      -0.253113        -6.8876
 133   1.0000      -0.251687        -6.8488
 134   1.0000      -0.251428        -6.8417
 135   1.0000      -0.248677        -6.7668
 136   1.0000      -0.248087        -6.7508
 137   1.0000      -0.247827        -6.7437
 138   1.0000      -0.246258        -6.7010
 139   1.0000      -0.245656        -6.6846
 140   1.0000      -0.244812        -6.6617
 141   1.0000      -0.237511        -6.4630
 142   1.0000      -0.236326        -6.4307
 143   1.0000      -0.234210        -6.3732
 144   1.0000      -0.215323        -5.8592
 145   1.0000      -0.214624        -5.8402
 146   1.0000      -0.191191        -5.2026
 147   1.0000      -0.186661        -5.0793
 148   0.0000      -0.177024        -4.8171
 149   0.0000      -0.154876        -4.2144
 150   0.0000      -0.131022        -3.5653
 151   0.0000      -0.119468        -3.2509
 152   0.0000      -0.118103        -3.2137

                 SPIN DOWN ORBITALS
  NO   OCC          E(Eh)            E(eV)
   0   1.0000    -254.769154     -6932.6211
   1   1.0000     -29.549022      -804.0698
   2   1.0000     -25.500324      -693.8991
   3   1.0000     -25.498313      -693.8444
   4   1.0000     -25.498187      -693.8410
   5   1.0000      -4.030459      -109.6744
   6   1.0000      -4.030407      -109.6730
   7   1.0000      -4.029516      -109.6487
   8   1.0000      -4.029406      -109.6457
   9   1.0000      -4.028506      -109.6212
  10   1.0000      -4.028400      -109.6183
  11   1.0000      -4.028034      -109.6084
  12   1.0000      -4.028012      -109.6078
  13   1.0000      -4.026794      -109.5746
  14   1.0000      -4.026718      -109.5726
  15   1.0000      -4.020401      -109.4007
  16   1.0000      -4.020357      -109.3995
  17   1.0000      -4.020132      -109.3933
  18   1.0000      -4.020053      -109.3912
  19   1.0000      -3.251841       -88.4871
  20   1.0000      -2.249072       -61.2003
  21   1.0000      -2.248782       -61.1925
  22   1.0000      -2.246044       -61.1180
  23   1.0000      -2.245621       -61.1065
  24   1.0000      -2.245168       -61.0941
  25   1.0000      -2.245054       -61.0910
  26   1.0000      -2.243205       -61.0407
  27   1.0000      -2.243106       -61.0380
  28   1.0000      -2.242791       -61.0295
  29   1.0000      -2.242333       -61.0170
  30   1.0000      -2.242266       -61.0151
  31   1.0000      -2.241993       -61.0077
  32   1.0000      -2.241730       -61.0006
  33   1.0000      -2.241623       -60.9977
  34   1.0000      -2.241356       -60.9904
  35   1.0000      -2.241183       -60.9857
  36   1.0000      -2.241025       -60.9814
  37   1.0000      -2.240362       -60.9633
  38   1.0000      -2.240241       -60.9600
  39   1.0000      -2.239790       -60.9478
  40   1.0000      -2.239602       -60.9427
  41   1.0000      -2.239495       -60.9398
  42   1.0000      -2.239213       -60.9321
  43   1.0000      -2.238899       -60.9235
  44   1.0000      -2.238459       -60.9116
  45   1.0000      -2.238394       -60.9098
  46   1.0000      -2.237809       -60.8939
  47   1.0000      -2.237590       -60.8879
  48   1.0000      -2.236984       -60.8714
  49   1.0000      -2.236929       -60.8699
  50   1.0000      -2.235621       -60.8343
  51   1.0000      -2.235572       -60.8330
  52   1.0000      -2.235551       -60.8324
  53   1.0000      -2.235425       -60.8290
  54   1.0000      -2.232039       -60.7369
  55   1.0000      -2.231954       -60.7346
  56   1.0000      -2.231566       -60.7240
  57   1.0000      -2.231528       -60.7230
  58   1.0000      -2.231502       -60.7223
  59   1.0000      -2.231428       -60.7202
  60   1.0000      -2.230974       -60.7079
  61   1.0000      -2.230881       -60.7054
  62   1.0000      -2.069644       -56.3179
  63   1.0000      -2.067472       -56.2588
  64   1.0000      -2.067428       -56.2576
  65   1.0000      -0.437630       -11.9085
  66   1.0000      -0.392427       -10.6785
  67   1.0000      -0.389790       -10.6067
  68   1.0000      -0.385140       -10.4802
  69   1.0000      -0.374813       -10.1992
  70   1.0000      -0.374659       -10.1950
  71   1.0000      -0.366726        -9.9791
  72   1.0000      -0.366417        -9.9707
  73   1.0000      -0.364003        -9.9050
  74   1.0000      -0.356469        -9.7000
  75   1.0000      -0.356392        -9.6979
  76   1.0000      -0.350967        -9.5503
  77   1.0000      -0.350380        -9.5343
  78   1.0000      -0.348655        -9.4874
  79   1.0000      -0.347816        -9.4645
  80   1.0000      -0.344632        -9.3779
  81   1.0000      -0.343543        -9.3483
  82   1.0000      -0.340489        -9.2652
  83   1.0000      -0.339519        -9.2388
  84   1.0000      -0.338049        -9.1988
  85   1.0000      -0.336172        -9.1477
  86   1.0000      -0.334175        -9.0934
  87   1.0000      -0.332359        -9.0439
  88   1.0000      -0.329968        -8.9789
  89   1.0000      -0.328646        -8.9429
  90   1.0000      -0.324079        -8.8186
  91   1.0000      -0.318609        -8.6698
  92   1.0000      -0.314876        -8.5682
  93   1.0000      -0.313149        -8.5212
  94   1.0000      -0.310101        -8.4383
  95   1.0000      -0.309947        -8.4341
  96   1.0000      -0.305237        -8.3059
  97   1.0000      -0.302292        -8.2258
  98   1.0000      -0.300688        -8.1821
  99   1.0000      -0.296451        -8.0668
 100   1.0000      -0.295116        -8.0305
 101   1.0000      -0.292022        -7.9463
 102   1.0000      -0.289432        -7.8758
 103   1.0000      -0.287193        -7.8149
 104   1.0000      -0.285689        -7.7740
 105   1.0000      -0.284647        -7.7456
 106   1.0000      -0.282618        -7.6904
 107   1.0000      -0.280536        -7.6338
 108   1.0000      -0.279380        -7.6023
 109   1.0000      -0.278258        -7.5718
 110   1.0000      -0.275912        -7.5080
 111   1.0000      -0.274259        -7.4630
 112   1.0000      -0.273894        -7.4530
 113   1.0000      -0.273042        -7.4299
 114   1.0000      -0.272961        -7.4277
 115   1.0000      -0.270238        -7.3536
 116   1.0000      -0.269652        -7.3376
 117   1.0000      -0.268508        -7.3065
 118   1.0000      -0.268023        -7.2933
 119   1.0000      -0.266184        -7.2432
 120   1.0000      -0.263151        -7.1607
 121   1.0000      -0.261626        -7.1192
 122   1.0000      -0.261254        -7.1091
 123   1.0000      -0.260268        -7.0823
 124   1.0000      -0.257929        -7.0186
 125   1.0000      -0.257266        -7.0006
 126   1.0000      -0.254790        -6.9332
 127   1.0000      -0.254325        -6.9205
 128   1.0000      -0.253244        -6.8911
 129   1.0000      -0.251484        -6.8432
 130   1.0000      -0.248681        -6.7670
 131   1.0000      -0.248375        -6.7586
 132   1.0000      -0.248077        -6.7505
 133   1.0000      -0.246222        -6.7000
 134   1.0000      -0.244818        -6.6618
 135   1.0000      -0.244239        -6.6461
 136   1.0000      -0.237525        -6.4634
 137   1.0000      -0.236610        -6.4385
 138   1.0000      -0.234074        -6.3695
 139   1.0000      -0.220400        -5.9974
 140   1.0000      -0.219755        -5.9798
 141   1.0000      -0.204276        -5.5586
 142   1.0000      -0.199830        -5.4376
 143   1.0000      -0.196257        -5.3404
 144   0.0000      -0.170703        -4.6451
 145   0.0000      -0.164046        -4.4639
 146   0.0000      -0.163185        -4.4405
 147   0.0000      -0.159219        -4.3326
 148   0.0000      -0.156078        -4.2471

MULLIKEN ATOMIC CHARGES AND SPIN POPULATIONS
--------------------------------------------
   0 Au:    0.414471    0.056253
   1 Au:    0.071773    0.026817
   2 Au:    0.330166    0.046225
   3 Au:    0.068171    0.029128
   4 Au:    0.049584    0.098953
   5 Au:    0.416290    0.056368
   6 Au:    0.003218    0.109452
   7 Au:    0.047522    0.099634
   8 Au:    0.326343    0.028697
   9 Au:    0.237132    0.086506
  10 Au:    0.003624    0.109503
  11 Au:    0.325048    0.030412
  12 Au:    0.330643    0.046428
  13 Au:    0.236638    0.087795
  14 Fe:   -2.860624    3.087828
Sum of atomic charges         :    0.0000000

LOEWDIN ATOMIC CHARGES AND SPIN POPULATIONS
-------------------------------------------
   0 Au:    0.127796    0.048528
   1 Au:    0.006672    0.046972
   2 Au:    0.070615    0.050841
   3 Au:    0.005832    0.047821
   4 Au:    0.010759    0.050767
   5 Au:    0.128216    0.048905
   6 Au:   -0.021508    0.082488
   7 Au:    0.010805    0.050732
   8 Au:    0.056718    0.038409
   9 Au:    0.086358    0.039963
  10 Au:   -0.021463    0.082716
  11 Au:    0.056361    0.039128
  12 Au:    0.070766    0.050876
  13 Au:    0.086454    0.040487
  14 Fe:   -0.674380    3.281366

  Mayer bond orders larger than 0.100000
B(  0-Au,  1-Au) :   0.3864 B(  0-Au,  4-Au) :   0.3624 B(  0-Au, 10-Au) :   0.3473
B(  1-Au,  4-Au) :   0.1484 B(  1-Au,  7-Au) :   0.3318 B(  1-Au, 10-Au) :   0.1794
B(  1-Au, 12-Au) :   0.1826 B(  1-Au, 14-Fe) :   0.5094 B(  2-Au,  3-Au) :   0.1835
B(  2-Au,  4-Au) :   0.1902 B(  2-Au,  6-Au) :   0.2340 B(  2-Au,  8-Au) :   0.1697
B(  2-Au, 13-Au) :   0.1245 B(  2-Au, 14-Fe) :   0.5049 B(  3-Au,  4-Au) :   0.3346
B(  3-Au,  5-Au) :   0.3866 B(  3-Au,  6-Au) :   0.1810 B(  3-Au,  7-Au) :   0.1476
B(  3-Au, 14-Fe) :   0.5079 B(  4-Au, 10-Au) :   0.1244 B(  4-Au, 14-Fe) :   0.4671
B(  5-Au,  6-Au) :   0.3470 B(  5-Au,  7-Au) :   0.3623 B(  6-Au,  7-Au) :   0.1249
B(  6-Au,  8-Au) :   0.2726 B(  6-Au,  9-Au) :   0.1470 B(  6-Au, 14-Fe) :   0.4233
B(  7-Au, 12-Au) :   0.1923 B(  7-Au, 14-Fe) :   0.4684 B(  8-Au,  9-Au) :   0.1616
B(  8-Au, 11-Au) :   0.1388 B(  8-Au, 13-Au) :   0.2413 B(  8-Au, 14-Fe) :   0.4663
B(  9-Au, 11-Au) :   0.2430 B(  9-Au, 12-Au) :   0.1232 B(  9-Au, 14-Fe) :   0.5506
B( 10-Au, 11-Au) :   0.2721 B( 10-Au, 12-Au) :   0.2357 B( 10-Au, 13-Au) :   0.1471
B( 10-Au, 14-Fe) :   0.4227 B( 11-Au, 12-Au) :   0.1681 B( 11-Au, 13-Au) :   0.1608
B( 11-Au, 14-Fe) :   0.4664 B( 12-Au, 14-Fe) :   0.5051 B( 13-Au, 14-Fe) :   0.5519

FINAL SINGLE POINT ENERGY     -3165.076954360761

DIPOLE MOMENT
-------------
                                X             Y             Z
Electronic contribution:     -3.11516      -9.93511       0.38984
Nuclear contribution   :      3.05406       9.73361      -0.38208
                        -----------------------------------------
Total Dipole Moment    :     -0.06110      -0.20150       0.00776
                        -----------------------------------------
Magnitude (a.u.)       :      0.21070
Magnitude (Debye)      :      0.53556

Rotational constants in cm-1:     0.001214     0.000989     0.000915
Rotational constants in MHz :    36.404982    29.635360    27.441453

                             ****ORCA TERMINATED NORMALLY****
TOTAL RUN TIME: 0 days 5 hours 55 minutes 36 seconds 526 msec
