                         Program Version 5.0.3 -  RELEASE  -
|  1> !SC-NEVPT2 def2-TZVP def2-TZVP/C
|  2> !MOREAD RIJCOSX def2/J
|  3> %maxcore 4000
|  4> %moinp "casscf.gbw"
|  5> %pal nprocs 6 end
|  6>
|  7> %casscf
|  8>  mult 5,3
|  9>  bweight 1,1
| 10>  nroots 5,45
| 11>  nel 6
| 12>  norb 5
| 13>  ptsettings
| 14>   d4tpre 1e-14 # default = 1e-10
| 15>   d3tpre 1e-14
| 16>  end
| 17>  rel
| 18>    dosoc true
| 19>    gtensor true
| 20>  end
| 21> end
| 22>
| 23>
| 24> *xyzfile 0 5 pbe.xyz
| 25>
| 26>
| 27>                          ****END OF INPUT****

CARTESIAN COORDINATES (ANGSTROEM)
---------------------------------
  Au     8.713503    9.992069    6.931706
  Au     6.155233   10.181318    8.009281
  Au     6.897293   10.167631    2.779323
  Au     9.588735    7.432790    6.517985
  Au     8.615466    8.702514    4.318980
  Au     6.500157   10.765300    5.407513
  Au     7.655942    6.149818    8.028557
  Au     5.321601    7.513937    8.507750
  Au     4.228377    8.740077    6.337644
  Au     4.233611   10.044729    3.952247
  Au     5.843349    7.769074    4.030058
  Au     7.400719    5.904785    5.195022
  Fe     6.890394    8.135125    6.431519

 Total Charge           Charge          ....    0
 Multiplicity           Mult            ....    5
 Number of Electrons    NEL             ....  254
 Basis Dimension        Dim             ....  525

ORBITAL ENERGIES
----------------

  NO   OCC          E(Eh)            E(eV)
   0   2.0000    -261.394113     -7112.8954
   1   2.0000     -31.957279      -869.6018
   2   2.0000     -27.437472      -746.6116
   3   2.0000     -27.437081      -746.6009
   4   2.0000     -27.436918      -746.5965
   5   2.0000      -4.727884      -128.6523
   6   2.0000      -4.727636      -128.6455
   7   2.0000      -4.724221      -128.5526
   8   2.0000      -4.722790      -128.5136
   9   2.0000      -4.712448      -128.2322
  10   2.0000      -4.710725      -128.1854
  11   2.0000      -4.709911      -128.1632
  12   2.0000      -4.709286      -128.1462
  13   2.0000      -4.708332      -128.1202
  14   2.0000      -4.706433      -128.0686
  15   2.0000      -4.701290      -127.9286
  16   2.0000      -4.701009      -127.9209
  17   2.0000      -4.191267      -114.0502
  18   2.0000      -2.773407       -75.4682
  19   2.0000      -2.771139       -75.4065
  20   2.0000      -2.770827       -75.3980
  21   2.0000      -2.767973       -75.3204
  22   2.0000      -2.765768       -75.2604
  23   2.0000      -2.764483       -75.2254
  24   2.0000      -2.764450       -75.2245
  25   2.0000      -2.762933       -75.1832
  26   2.0000      -2.762610       -75.1744
  27   2.0000      -2.760501       -75.1171
  28   2.0000      -2.760456       -75.1158
  29   2.0000      -2.758757       -75.0696
  30   2.0000      -2.758098       -75.0517
  31   2.0000      -2.757649       -75.0394
  32   2.0000      -2.756406       -75.0056
  33   2.0000      -2.751790       -74.8800
  34   2.0000      -2.750992       -74.8583
  35   2.0000      -2.748787       -74.7983
  36   2.0000      -2.747948       -74.7755
  37   2.0000      -2.747064       -74.7514
  38   2.0000      -2.746569       -74.7379
  39   2.0000      -2.745342       -74.7046
  40   2.0000      -2.745206       -74.7009
  41   2.0000      -2.744904       -74.6926
  42   2.0000      -2.743963       -74.6670
  43   2.0000      -2.743666       -74.6590
  44   2.0000      -2.743029       -74.6416
  45   2.0000      -2.742844       -74.6366
  46   2.0000      -2.742216       -74.6195
  47   2.0000      -2.741466       -74.5991
  48   2.0000      -2.740779       -74.5804
  49   2.0000      -2.740560       -74.5744
  50   2.0000      -2.739550       -74.5469
  51   2.0000      -2.737605       -74.4940
  52   2.0000      -2.737377       -74.4878
  53   2.0000      -2.735338       -74.4323
  54   2.0000      -2.735014       -74.4235
  55   2.0000      -2.734214       -74.4018
  56   2.0000      -2.732639       -74.3589
  57   2.0000      -0.586962       -15.9720
  58   2.0000      -0.567303       -15.4371
  59   2.0000      -0.555980       -15.1290
  60   2.0000      -0.550768       -14.9872
  61   2.0000      -0.549275       -14.9465
  62   2.0000      -0.548111       -14.9149
  63   2.0000      -0.547270       -14.8920
  64   2.0000      -0.546279       -14.8650
  65   2.0000      -0.540603       -14.7105
  66   2.0000      -0.539893       -14.6912
  67   2.0000      -0.538045       -14.6409
  68   2.0000      -0.534714       -14.5503
  69   2.0000      -0.531034       -14.4502
  70   2.0000      -0.529497       -14.4084
  71   2.0000      -0.527330       -14.3494
  72   2.0000      -0.522600       -14.2207
  73   2.0000      -0.518907       -14.1202
  74   2.0000      -0.516151       -14.0452
  75   2.0000      -0.513308       -13.9678
  76   2.0000      -0.513111       -13.9625
  77   2.0000      -0.511095       -13.9076
  78   2.0000      -0.508986       -13.8502
  79   2.0000      -0.504832       -13.7372
  80   2.0000      -0.501002       -13.6329
  81   2.0000      -0.495163       -13.4741
  82   2.0000      -0.492474       -13.4009
  83   2.0000      -0.487002       -13.2520
  84   2.0000      -0.483943       -13.1688
  85   2.0000      -0.480926       -13.0867
  86   2.0000      -0.479598       -13.0505
  87   2.0000      -0.474968       -12.9245
  88   2.0000      -0.469275       -12.7696
  89   2.0000      -0.466728       -12.7003
  90   2.0000      -0.465682       -12.6719
  91   2.0000      -0.461972       -12.5709
  92   2.0000      -0.459773       -12.5111
  93   2.0000      -0.458681       -12.4813
  94   2.0000      -0.457429       -12.4473
  95   2.0000      -0.455868       -12.4048
  96   2.0000      -0.455299       -12.3893
  97   2.0000      -0.452419       -12.3109
  98   2.0000      -0.450786       -12.2665
  99   2.0000      -0.449589       -12.2339
 100   2.0000      -0.448767       -12.2116
 101   2.0000      -0.444781       -12.1031
 102   2.0000      -0.444153       -12.0860
 103   2.0000      -0.441665       -12.0183
 104   2.0000      -0.439293       -11.9538
 105   2.0000      -0.438329       -11.9275
 106   2.0000      -0.436977       -11.8907
 107   2.0000      -0.435321       -11.8457
 108   2.0000      -0.434626       -11.8268
 109   2.0000      -0.428801       -11.6683
 110   2.0000      -0.428284       -11.6542
 111   2.0000      -0.423381       -11.5208
 112   2.0000      -0.420284       -11.4365
 113   2.0000      -0.413888       -11.2625
 114   2.0000      -0.409844       -11.1524
 115   2.0000      -0.408986       -11.1291
 116   2.0000      -0.404611       -11.0100
 117   2.0000      -0.393059       -10.6957
 118   2.0000      -0.366308        -9.9677
 119   2.0000      -0.346705        -9.4343
 120   2.0000      -0.323512        -8.8032
 121   2.0000      -0.244704        -6.6587
 122   2.0000      -0.234642        -6.3849
 123   2.0000      -0.226940        -6.1754
 124   1.2000      -0.273122        -7.4320
 125   1.2000      -0.262341        -7.1387
 126   1.2000      -0.269613        -7.3366
 127   1.2000      -0.269692        -7.3387
 128   1.2000      -0.265604        -7.2275
 129   0.0000      -0.035716        -0.9719
 130   0.0000      -0.025258        -0.6873
 131   0.0000      -0.008643        -0.2352
 132   0.0000       0.005170         0.1407
 133   0.0000       0.007340         0.1997

MULLIKEN ATOMIC CHARGES AND SPIN DENSITIES
------------------------------------------
   0 Au:    0.418331    0.007315
   1 Au:    0.396173    0.006962
   2 Au:    0.326758    0.003314
   3 Au:    0.252625    0.007249
   4 Au:   -0.208917    0.008383
   5 Au:   -0.357570    0.007368
   6 Au:    0.136477    0.009118
   7 Au:    0.190044    0.009569
   8 Au:   -0.077872    0.008646
   9 Au:    0.363700    0.003435
  10 Au:   -0.058131    0.007815
  11 Au:    0.317471    0.009642
  12 Fe:   -1.699088    2.911183
Sum of atomic charges       :    0.0000000

LOEWDIN ATOMIC CHARGES AND SPIN DENSITIES
-----------------------------------------
   0 Au:    0.090702    0.010677
   1 Au:    0.097639    0.009840
   2 Au:    0.087324    0.003807
   3 Au:    0.008277    0.009612
   4 Au:   -0.082198    0.009982
   5 Au:   -0.129161    0.009115
   6 Au:    0.015631    0.011730
   7 Au:    0.049353    0.011958
   8 Au:   -0.039698    0.011285
   9 Au:    0.080716    0.004013
  10 Au:   -0.044551    0.011046
  11 Au:    0.069842    0.011935
  12 Fe:   -0.203875    2.884998

  Mayer bond orders larger than 0.100000
B(  0-Au,  1-Au) :   0.1890 B(  0-Au,  3-Au) :   0.2674 B(  0-Au,  4-Au) :   0.1616
B(  0-Au,  5-Au) :   0.2363 B(  0-Au, 12-Fe) :   0.3084 B(  1-Au,  5-Au) :   0.3998
B(  1-Au,  7-Au) :   0.1218 B(  1-Au, 12-Fe) :   0.4099 B(  2-Au,  4-Au) :   0.3950
B(  2-Au,  5-Au) :   0.3557 B(  2-Au, 10-Au) :   0.1627 B(  3-Au,  4-Au) :   0.3718
B(  3-Au,  6-Au) :   0.1711 B(  3-Au, 12-Fe) :   0.3728 B(  4-Au,  5-Au) :   0.1800
B(  4-Au, 10-Au) :   0.1738 B(  4-Au, 12-Fe) :   0.4697 B(  5-Au,  9-Au) :   0.2373
B(  5-Au, 10-Au) :   0.2011 B(  5-Au, 12-Fe) :   0.4021 B(  6-Au,  7-Au) :   0.1316
B(  6-Au, 11-Au) :   0.1769 B(  6-Au, 12-Fe) :   0.4638 B(  7-Au,  8-Au) :   0.3562
B(  7-Au, 12-Fe) :   0.4204 B(  8-Au,  9-Au) :   0.4049 B(  8-Au, 10-Au) :   0.1709
B(  8-Au, 12-Fe) :   0.4269 B(  9-Au, 10-Au) :   0.2573 B( 10-Au, 11-Au) :   0.4196
B( 10-Au, 12-Fe) :   0.4026 B( 11-Au, 12-Fe) :   0.4704

FINAL SINGLE POINT ENERGY     -2886.142472207096

DIPOLE MOMENT
-------------
                                X             Y             Z
Electronic contribution:     -4.92920      18.36562     -22.54540
Nuclear contribution   :      4.85410     -18.21001      22.71174
                        -----------------------------------------
Total Dipole Moment    :     -0.07511       0.15561       0.16634
                        -----------------------------------------
Magnitude (a.u.)       :      0.23985
Magnitude (Debye)      :      0.60964

Rotational constants in cm-1:     0.001597     0.001248     0.001082
Rotational constants in MHz :    47.876720    37.425027    32.435478

                             ****ORCA TERMINATED NORMALLY****
TOTAL RUN TIME: 0 days 2 hours 29 minutes 24 seconds 457 msec
