                         Program Version 5.0.3 -  RELEASE  -
|  1> !RI-B2PLYP def2-TZVP def2-TZVP/C
|  2> !RIJCOSX VERYSLOWCONV
|  3>
|  4> %scf
|  5>   AutoTRAHIter 200
|  6>   maxiter 400
|  7> end
|  8>
|  9>
| 10> %pal nprocs 6 end
| 11>
| 12> *xyzfile 0 5 pbe.xyz
| 13>
| 14> $new_job
| 15>
| 16> !RI-B2PLYP def2-TZVP def2-TZVP/C
| 17> !RIJCOSX VERYSLOWCONV
| 18>
| 19> %scf
| 20>   AutoTRAHIter 200
| 21>   maxiter 400
| 22> end
| 23>
| 24>
| 25> %pal nprocs 6 end
| 26>
| 27> *xyzfile 0 3 pbe.xyz
| 28>
| 29>
| 30>
| 31>
| 32>
| 33>                          ****END OF INPUT****
 Total Charge           Charge          ....    0
 Multiplicity           Mult            ....    5
 Number of Electrons    NEL             ....  214
MP2 TOTAL ENERGY:    -2400.124993706 Eh
FINAL SINGLE POINT ENERGY     -2400.124993705699

CARTESIAN COORDINATES (ANGSTROEM)
---------------------------------
  Au    10.011457    7.065733   10.487436
  Au     9.873189    4.281234   10.772495
  Au     7.428637    7.272020   11.469395
  Au     7.320504    4.488373   11.746587
  Au     5.385613    5.652747   10.146307
  Au     7.224322    9.112071    6.632718
  Au     8.161466    8.635301    9.202756
  Au     5.973222    7.137384    8.050946
  Au     8.810620    6.911329    6.973370
  Au    10.420799    5.252424    8.237934
  Cr     7.968217    5.680373    9.315708

 Multiplicity           Mult            ....    3
 Number of Electrons    NEL             ....  214
 Basis Dimension        Dim             ....  445

ORBITAL ENERGIES
----------------
                 SPIN UP ORBITALS
  NO   OCC          E(Eh)            E(eV)
   0   1.0000    -217.774197     -5925.9372
   1   1.0000     -25.461603      -692.8454
   2   1.0000     -21.600839      -587.7887
   3   1.0000     -21.600494      -587.7793
   4   1.0000     -21.595388      -587.6404
   5   1.0000      -4.405796      -119.8878
   6   1.0000      -4.405613      -119.8828
   7   1.0000      -4.402793      -119.8061
   8   1.0000      -4.394297      -119.5749
   9   1.0000      -4.394164      -119.5713
  10   1.0000      -4.393894      -119.5639
  11   1.0000      -4.393761      -119.5603
  12   1.0000      -4.393579      -119.5554
  13   1.0000      -4.393321      -119.5484
  14   1.0000      -4.383094      -119.2701
  15   1.0000      -3.247945       -88.3811
  16   1.0000      -2.529357       -68.8273
  17   1.0000      -2.525637       -68.7261
  18   1.0000      -2.525087       -68.7111
  19   1.0000      -2.523910       -68.6791
  20   1.0000      -2.522991       -68.6541
  21   1.0000      -2.520589       -68.5887
  22   1.0000      -2.519880       -68.5694
  23   1.0000      -2.519571       -68.5610
  24   1.0000      -2.517984       -68.5178
  25   1.0000      -2.517211       -68.4968
  26   1.0000      -2.516926       -68.4890
  27   1.0000      -2.514567       -68.4249
  28   1.0000      -2.514257       -68.4164
  29   1.0000      -2.513803       -68.4041
  30   1.0000      -2.512433       -68.3668
  31   1.0000      -2.511802       -68.3496
  32   1.0000      -2.511433       -68.3396
  33   1.0000      -2.511107       -68.3307
  34   1.0000      -2.508884       -68.2702
  35   1.0000      -2.508730       -68.2660
  36   1.0000      -2.508391       -68.2568
  37   1.0000      -2.508090       -68.2486
  38   1.0000      -2.507683       -68.2375
  39   1.0000      -2.507464       -68.2316
  40   1.0000      -2.507077       -68.2210
  41   1.0000      -2.506936       -68.2172
  42   1.0000      -2.505868       -68.1881
  43   1.0000      -2.501626       -68.0727
  44   1.0000      -2.498360       -67.9838
  45   1.0000      -2.497626       -67.9639
  46   1.0000      -2.142072       -58.2887
  47   1.0000      -2.127144       -57.8825
  48   1.0000      -2.126327       -57.8603
  49   1.0000      -0.488993       -13.3062
  50   1.0000      -0.482843       -13.1388
  51   1.0000      -0.482589       -13.1319
  52   1.0000      -0.473388       -12.8815
  53   1.0000      -0.466747       -12.7008
  54   1.0000      -0.465663       -12.6713
  55   1.0000      -0.458738       -12.4829
  56   1.0000      -0.452175       -12.3043
  57   1.0000      -0.449517       -12.2320
  58   1.0000      -0.443253       -12.0615
  59   1.0000      -0.443097       -12.0573
  60   1.0000      -0.440771       -11.9940
  61   1.0000      -0.431831       -11.7507
  62   1.0000      -0.430461       -11.7134
  63   1.0000      -0.426932       -11.6174
  64   1.0000      -0.425607       -11.5814
  65   1.0000      -0.424488       -11.5509
  66   1.0000      -0.421331       -11.4650
  67   1.0000      -0.421259       -11.4630
  68   1.0000      -0.418478       -11.3874
  69   1.0000      -0.416949       -11.3458
  70   1.0000      -0.411055       -11.1854
  71   1.0000      -0.405336       -11.0298
  72   1.0000      -0.402721       -10.9586
  73   1.0000      -0.402679       -10.9574
  74   1.0000      -0.394416       -10.7326
  75   1.0000      -0.390039       -10.6135
  76   1.0000      -0.387086       -10.5331
  77   1.0000      -0.385981       -10.5031
  78   1.0000      -0.383038       -10.4230
  79   1.0000      -0.379254       -10.3200
  80   1.0000      -0.377038       -10.2597
  81   1.0000      -0.376865       -10.2550
  82   1.0000      -0.373033       -10.1507
  83   1.0000      -0.371466       -10.1081
  84   1.0000      -0.368579       -10.0295
  85   1.0000      -0.367450        -9.9988
  86   1.0000      -0.366058        -9.9609
  87   1.0000      -0.365200        -9.9376
  88   1.0000      -0.361662        -9.8413
  89   1.0000      -0.358185        -9.7467
  90   1.0000      -0.357363        -9.7243
  91   1.0000      -0.355560        -9.6753
  92   1.0000      -0.354857        -9.6562
  93   1.0000      -0.351592        -9.5673
  94   1.0000      -0.351042        -9.5523
  95   1.0000      -0.348798        -9.4913
  96   1.0000      -0.346031        -9.4160
  97   1.0000      -0.344361        -9.3705
  98   1.0000      -0.343781        -9.3548
  99   1.0000      -0.342243        -9.3129
 100   1.0000      -0.339318        -9.2333
 101   1.0000      -0.326625        -8.8879
 102   1.0000      -0.325725        -8.8634
 103   1.0000      -0.314225        -8.5505
 104   1.0000      -0.313846        -8.5402
 105   1.0000      -0.291991        -7.9455
 106   1.0000      -0.254269        -6.9190
 107   1.0000      -0.238443        -6.4884
 108   0.0000      -0.116149        -3.1606
 109   0.0000      -0.085867        -2.3366
 110   0.0000      -0.079634        -2.1669
 111   0.0000      -0.074652        -2.0314
 112   0.0000      -0.052106        -1.4179

                 SPIN DOWN ORBITALS
  NO   OCC          E(Eh)            E(eV)
   0   1.0000    -217.772958     -5925.9035
   1   1.0000     -25.392152      -690.9556
   2   1.0000     -21.543526      -586.2291
   3   1.0000     -21.541444      -586.1725
   4   1.0000     -21.519177      -585.5666
   5   1.0000      -4.405016      -119.8666
   6   1.0000      -4.404830      -119.8615
   7   1.0000      -4.402723      -119.8042
   8   1.0000      -4.396115      -119.6244
   9   1.0000      -4.396071      -119.6232
  10   1.0000      -4.394868      -119.5904
  11   1.0000      -4.394592      -119.5829
  12   1.0000      -4.393726      -119.5594
  13   1.0000      -4.393468      -119.5523
  14   1.0000      -4.385854      -119.3451
  15   1.0000      -3.036337       -82.6229
  16   1.0000      -2.528022       -68.7910
  17   1.0000      -2.523989       -68.6812
  18   1.0000      -2.523930       -68.6796
  19   1.0000      -2.523066       -68.6561
  20   1.0000      -2.522319       -68.6358
  21   1.0000      -2.520428       -68.5843
  22   1.0000      -2.519353       -68.5551
  23   1.0000      -2.519270       -68.5528
  24   1.0000      -2.518943       -68.5439
  25   1.0000      -2.518749       -68.5386
  26   1.0000      -2.517802       -68.5129
  27   1.0000      -2.514386       -68.4199
  28   1.0000      -2.514034       -68.4103
  29   1.0000      -2.513871       -68.4059
  30   1.0000      -2.513768       -68.4031
  31   1.0000      -2.512921       -68.3801
  32   1.0000      -2.511711       -68.3471
  33   1.0000      -2.511525       -68.3421
  34   1.0000      -2.510072       -68.3025
  35   1.0000      -2.509221       -68.2794
  36   1.0000      -2.508108       -68.2491
  37   1.0000      -2.508006       -68.2463
  38   1.0000      -2.507808       -68.2409
  39   1.0000      -2.507499       -68.2325
  40   1.0000      -2.506877       -68.2156
  41   1.0000      -2.506579       -68.2075
  42   1.0000      -2.506097       -68.1944
  43   1.0000      -2.504491       -68.1507
  44   1.0000      -2.500514       -68.0424
  45   1.0000      -2.499822       -68.0236
  46   1.0000      -1.908292       -51.9273
  47   1.0000      -1.904746       -51.8308
  48   1.0000      -1.852240       -50.4020
  49   1.0000      -0.487192       -13.2572
  50   1.0000      -0.476979       -12.9793
  51   1.0000      -0.473562       -12.8863
  52   1.0000      -0.462150       -12.5757
  53   1.0000      -0.459728       -12.5098
  54   1.0000      -0.456650       -12.4261
  55   1.0000      -0.456325       -12.4172
  56   1.0000      -0.452315       -12.3081
  57   1.0000      -0.450714       -12.2646
  58   1.0000      -0.443637       -12.0720
  59   1.0000      -0.442791       -12.0490
  60   1.0000      -0.436865       -11.8877
  61   1.0000      -0.432122       -11.7586
  62   1.0000      -0.428741       -11.6666
  63   1.0000      -0.428366       -11.6564
  64   1.0000      -0.426285       -11.5998
  65   1.0000      -0.422955       -11.5092
  66   1.0000      -0.421502       -11.4697
  67   1.0000      -0.415976       -11.3193
  68   1.0000      -0.415884       -11.3168
  69   1.0000      -0.409094       -11.1320
  70   1.0000      -0.408606       -11.1187
  71   1.0000      -0.402164       -10.9434
  72   1.0000      -0.396943       -10.8014
  73   1.0000      -0.392280       -10.6745
  74   1.0000      -0.390080       -10.6146
  75   1.0000      -0.388474       -10.5709
  76   1.0000      -0.385623       -10.4933
  77   1.0000      -0.382694       -10.4136
  78   1.0000      -0.381309       -10.3759
  79   1.0000      -0.378306       -10.2942
  80   1.0000      -0.378295       -10.2939
  81   1.0000      -0.376564       -10.2468
  82   1.0000      -0.373401       -10.1607
  83   1.0000      -0.370351       -10.0778
  84   1.0000      -0.368519       -10.0279
  85   1.0000      -0.368279       -10.0214
  86   1.0000      -0.367582       -10.0024
  87   1.0000      -0.359729        -9.7887
  88   1.0000      -0.358920        -9.7667
  89   1.0000      -0.358288        -9.7495
  90   1.0000      -0.358248        -9.7484
  91   1.0000      -0.356421        -9.6987
  92   1.0000      -0.352061        -9.5801
  93   1.0000      -0.347238        -9.4488
  94   1.0000      -0.346589        -9.4312
  95   1.0000      -0.344768        -9.3816
  96   1.0000      -0.342509        -9.3201
  97   1.0000      -0.330882        -9.0038
  98   1.0000      -0.330548        -8.9947
  99   1.0000      -0.326225        -8.8770
 100   1.0000      -0.318929        -8.6785
 101   1.0000      -0.310217        -8.4414
 102   1.0000      -0.267563        -7.2808
 103   1.0000      -0.245870        -6.6905
 104   1.0000      -0.224146        -6.0993
 105   1.0000      -0.171080        -4.6553
 106   0.0000      -0.091038        -2.4773
 107   0.0000      -0.084312        -2.2942
 108   0.0000      -0.047471        -1.2918
 109   0.0000      -0.042293        -1.1509
 110   0.0000      -0.035791        -0.9739

MULLIKEN ATOMIC CHARGES AND SPIN POPULATIONS
--------------------------------------------
   0 Au:    0.177187   -0.006124
   1 Au:    0.310798   -0.147575
   2 Au:    0.175449   -0.005147
   3 Au:    0.314491   -0.149002
   4 Au:    0.311076   -0.202348
   5 Au:    0.278138   -0.456715
   6 Au:   -0.029614   -0.038086
   7 Au:    0.088806   -0.184276
   8 Au:    0.089173   -0.186748
   9 Au:    0.313083   -0.199432
  10 Cr:   -2.028586    3.575454
Sum of atomic charges         :   -0.0000000

LOEWDIN ATOMIC CHARGES AND SPIN POPULATIONS
-------------------------------------------
   0 Au:    0.069505   -0.035170
   1 Au:    0.073855   -0.128905
   2 Au:    0.069650   -0.034058
   3 Au:    0.073920   -0.130090
   4 Au:    0.084460   -0.200157
   5 Au:    0.075945   -0.354278
   6 Au:   -0.020524   -0.076899
   7 Au:    0.009759   -0.193418
   8 Au:    0.009836   -0.194823
   9 Au:    0.085358   -0.199360
  10 Cr:   -0.531763    3.547159

  Mayer bond orders larger than 0.100000
B(  0-Au,  1-Au) :   0.1702 B(  0-Au,  2-Au) :   0.3408 B(  0-Au,  6-Au) :   0.3751
B(  0-Au,  9-Au) :   0.1460 B(  0-Au, 10-Cr) :   0.3723 B(  1-Au,  3-Au) :   0.3088
B(  1-Au,  9-Au) :   0.1996 B(  1-Au, 10-Cr) :   0.5526 B(  2-Au,  3-Au) :   0.1719
B(  2-Au,  4-Au) :   0.1428 B(  2-Au,  6-Au) :   0.3750 B(  2-Au, 10-Cr) :   0.3725
B(  3-Au,  4-Au) :   0.2014 B(  3-Au, 10-Cr) :   0.5475 B(  4-Au,  7-Au) :   0.3294
B(  4-Au, 10-Cr) :   0.6559 B(  5-Au,  6-Au) :   0.3930 B(  5-Au,  7-Au) :   0.2610
B(  5-Au,  8-Au) :   0.2608 B(  6-Au,  7-Au) :   0.1836 B(  6-Au,  8-Au) :   0.1831
B(  6-Au, 10-Cr) :   0.2161 B(  7-Au,  8-Au) :   0.1647 B(  7-Au, 10-Cr) :   0.6094
B(  8-Au,  9-Au) :   0.3292 B(  8-Au, 10-Cr) :   0.6061 B(  9-Au, 10-Cr) :   0.6545

MP2 TOTAL ENERGY:    -2400.081847693 Eh
FINAL SINGLE POINT ENERGY     -2400.081847692675

DIPOLE MOMENT
-------------
                                X             Y             Z
Electronic contribution:      3.37325      31.28806       2.34106
Nuclear contribution   :     -3.24234     -31.47360      -1.96730
                        -----------------------------------------
Total Dipole Moment    :      0.13091      -0.18553       0.37376
                        -----------------------------------------
Magnitude (a.u.)       :      0.43733
Magnitude (Debye)      :      1.11160

Rotational constants in cm-1:     0.002237     0.001584     0.001234
Rotational constants in MHz :    67.059353    47.501317    36.993885

                             ****ORCA TERMINATED NORMALLY****
TOTAL RUN TIME: 0 days 0 hours 50 minutes 39 seconds 776 msec
