                         Program Version 5.0.3 -  RELEASE  -
|  1> !PBE def2-TZVP VERYSLOWCONV
|  2>
|  3> %scf
|  4>   AutoTRAHIter 200
|  5>   maxiter 400
|  6> end
|  7>
|  8>
|  9> %pal nprocs 6 end
| 10>
| 11> *xyzfile 0 5 pbe.xyz
| 12>
| 13> $new_job
| 14>
| 15> !PBE def2-TZVP VERYSLOWCONV
| 16>
| 17> %scf
| 18>   AutoTRAHIter 200
| 19>   maxiter 400
| 20> end
| 21>
| 22>
| 23> %pal nprocs 6 end
| 24>
| 25> *xyzfile 0 3 pbe.xyz
| 26>
| 27>
| 28>
| 29>
| 30>
| 31>                          ****END OF INPUT****
 Total Charge           Charge          ....    0
 Multiplicity           Mult            ....    5
 Number of Electrons    NEL             ....  214
FINAL SINGLE POINT ENERGY     -2402.496506768423

CARTESIAN COORDINATES (ANGSTROEM)
---------------------------------
  Au    10.011457    7.065733   10.487436
  Au     9.873189    4.281234   10.772495
  Au     7.428637    7.272020   11.469395
  Au     7.320504    4.488373   11.746587
  Au     5.385613    5.652747   10.146307
  Au     7.224322    9.112071    6.632718
  Au     8.161466    8.635301    9.202756
  Au     5.973222    7.137384    8.050946
  Au     8.810620    6.911329    6.973370
  Au    10.420799    5.252424    8.237934
  Cr     7.968217    5.680373    9.315708

 Multiplicity           Mult            ....    3
 Number of Electrons    NEL             ....  214
 Basis Dimension        Dim             ....  445

ORBITAL ENERGIES
----------------
                 SPIN UP ORBITALS
  NO   OCC          E(Eh)            E(eV)
   0   1.0000    -214.502331     -5836.9052
   1   1.0000     -24.300987      -661.2635
   2   1.0000     -20.667339      -562.3869
   3   1.0000     -20.665346      -562.3327
   4   1.0000     -20.661551      -562.2294
   5   1.0000      -4.028569      -109.6229
   6   1.0000      -4.028414      -109.6187
   7   1.0000      -4.027556      -109.5954
   8   1.0000      -4.023539      -109.4861
   9   1.0000      -4.022846      -109.4672
  10   1.0000      -4.022005      -109.4443
  11   1.0000      -4.021504      -109.4307
  12   1.0000      -4.021468      -109.4297
  13   1.0000      -4.021320      -109.4257
  14   1.0000      -4.015266      -109.2609
  15   1.0000      -2.799508       -76.1785
  16   1.0000      -2.247837       -61.1667
  17   1.0000      -2.244043       -61.0635
  18   1.0000      -2.243948       -61.0609
  19   1.0000      -2.242646       -61.0255
  20   1.0000      -2.242461       -61.0205
  21   1.0000      -2.241492       -60.9941
  22   1.0000      -2.240926       -60.9787
  23   1.0000      -2.239498       -60.9398
  24   1.0000      -2.239175       -60.9310
  25   1.0000      -2.238803       -60.9209
  26   1.0000      -2.238491       -60.9124
  27   1.0000      -2.238322       -60.9078
  28   1.0000      -2.237604       -60.8883
  29   1.0000      -2.237391       -60.8825
  30   1.0000      -2.236629       -60.8618
  31   1.0000      -2.236127       -60.8481
  32   1.0000      -2.235171       -60.8221
  33   1.0000      -2.234964       -60.8165
  34   1.0000      -2.234364       -60.8001
  35   1.0000      -2.234050       -60.7916
  36   1.0000      -2.232475       -60.7487
  37   1.0000      -2.232050       -60.7372
  38   1.0000      -2.231744       -60.7288
  39   1.0000      -2.231289       -60.7165
  40   1.0000      -2.230870       -60.7051
  41   1.0000      -2.230763       -60.7021
  42   1.0000      -2.228742       -60.6472
  43   1.0000      -2.228484       -60.6401
  44   1.0000      -2.226179       -60.5774
  45   1.0000      -2.225379       -60.5556
  46   1.0000      -1.790049       -48.7097
  47   1.0000      -1.788825       -48.6764
  48   1.0000      -1.787771       -48.6477
  49   1.0000      -0.411453       -11.1962
  50   1.0000      -0.381016       -10.3680
  51   1.0000      -0.374194       -10.1823
  52   1.0000      -0.367673       -10.0049
  53   1.0000      -0.359918        -9.7939
  54   1.0000      -0.359708        -9.7882
  55   1.0000      -0.352878        -9.6023
  56   1.0000      -0.350449        -9.5362
  57   1.0000      -0.346642        -9.4326
  58   1.0000      -0.338112        -9.2005
  59   1.0000      -0.336764        -9.1638
  60   1.0000      -0.333310        -9.0698
  61   1.0000      -0.330450        -8.9920
  62   1.0000      -0.329726        -8.9723
  63   1.0000      -0.323110        -8.7923
  64   1.0000      -0.321928        -8.7601
  65   1.0000      -0.319558        -8.6956
  66   1.0000      -0.317510        -8.6399
  67   1.0000      -0.315792        -8.5931
  68   1.0000      -0.315232        -8.5779
  69   1.0000      -0.307170        -8.3585
  70   1.0000      -0.306873        -8.3505
  71   1.0000      -0.299514        -8.1502
  72   1.0000      -0.297461        -8.0943
  73   1.0000      -0.296415        -8.0659
  74   1.0000      -0.294179        -8.0050
  75   1.0000      -0.290681        -7.9098
  76   1.0000      -0.288273        -7.8443
  77   1.0000      -0.284550        -7.7430
  78   1.0000      -0.281541        -7.6611
  79   1.0000      -0.280033        -7.6201
  80   1.0000      -0.279511        -7.6059
  81   1.0000      -0.277826        -7.5600
  82   1.0000      -0.274103        -7.4587
  83   1.0000      -0.272774        -7.4225
  84   1.0000      -0.270069        -7.3490
  85   1.0000      -0.269200        -7.3253
  86   1.0000      -0.268738        -7.3127
  87   1.0000      -0.267208        -7.2711
  88   1.0000      -0.263055        -7.1581
  89   1.0000      -0.261299        -7.1103
  90   1.0000      -0.259706        -7.0670
  91   1.0000      -0.257541        -7.0080
  92   1.0000      -0.256576        -6.9818
  93   1.0000      -0.252991        -6.8842
  94   1.0000      -0.252840        -6.8801
  95   1.0000      -0.251482        -6.8432
  96   1.0000      -0.248134        -6.7521
  97   1.0000      -0.246003        -6.6941
  98   1.0000      -0.241155        -6.5622
  99   1.0000      -0.240634        -6.5480
 100   1.0000      -0.237442        -6.4611
 101   1.0000      -0.231582        -6.3017
 102   1.0000      -0.231275        -6.2933
 103   1.0000      -0.218800        -5.9539
 104   1.0000      -0.217158        -5.9092
 105   1.0000      -0.213401        -5.8069
 106   1.0000      -0.207679        -5.6512
 107   1.0000      -0.197004        -5.3608
 108   0.0000      -0.182012        -4.9528
 109   0.0000      -0.171828        -4.6757
 110   0.0000      -0.145568        -3.9611
 111   0.0000      -0.141239        -3.8433
 112   0.0000      -0.140930        -3.8349

                 SPIN DOWN ORBITALS
  NO   OCC          E(Eh)            E(eV)
   0   1.0000    -214.501967     -5836.8953
   1   1.0000     -24.258707      -660.1130
   2   1.0000     -20.640147      -561.6469
   3   1.0000     -20.635612      -561.5235
   4   1.0000     -20.621583      -561.1418
   5   1.0000      -4.027751      -109.6007
   6   1.0000      -4.027577      -109.5959
   7   1.0000      -4.027346      -109.5897
   8   1.0000      -4.023702      -109.4905
   9   1.0000      -4.023102      -109.4742
  10   1.0000      -4.022762      -109.4649
  11   1.0000      -4.022687      -109.4629
  12   1.0000      -4.022049      -109.4455
  13   1.0000      -4.021535      -109.4315
  14   1.0000      -4.016633      -109.2982
  15   1.0000      -2.685570       -73.0781
  16   1.0000      -2.247211       -61.1497
  17   1.0000      -2.243363       -61.0450
  18   1.0000      -2.243051       -61.0365
  19   1.0000      -2.242770       -61.0289
  20   1.0000      -2.242420       -61.0194
  21   1.0000      -2.241863       -61.0042
  22   1.0000      -2.241438       -60.9926
  23   1.0000      -2.239509       -60.9401
  24   1.0000      -2.239087       -60.9286
  25   1.0000      -2.238762       -60.9198
  26   1.0000      -2.238200       -60.9045
  27   1.0000      -2.238038       -60.9001
  28   1.0000      -2.237655       -60.8897
  29   1.0000      -2.237243       -60.8785
  30   1.0000      -2.236964       -60.8709
  31   1.0000      -2.236633       -60.8619
  32   1.0000      -2.236609       -60.8612
  33   1.0000      -2.236202       -60.8502
  34   1.0000      -2.235436       -60.8293
  35   1.0000      -2.234890       -60.8144
  36   1.0000      -2.232689       -60.7546
  37   1.0000      -2.232477       -60.7488
  38   1.0000      -2.231745       -60.7289
  39   1.0000      -2.231475       -60.7215
  40   1.0000      -2.231010       -60.7089
  41   1.0000      -2.230751       -60.7018
  42   1.0000      -2.229277       -60.6617
  43   1.0000      -2.229094       -60.6567
  44   1.0000      -2.227477       -60.6127
  45   1.0000      -2.226812       -60.5946
  46   1.0000      -1.693727       -46.0887
  47   1.0000      -1.685179       -45.8561
  48   1.0000      -1.650332       -44.9078
  49   1.0000      -0.407930       -11.1003
  50   1.0000      -0.380729       -10.3602
  51   1.0000      -0.372557       -10.1378
  52   1.0000      -0.366817        -9.9816
  53   1.0000      -0.359389        -9.7795
  54   1.0000      -0.358730        -9.7615
  55   1.0000      -0.354360        -9.6426
  56   1.0000      -0.349046        -9.4980
  57   1.0000      -0.345462        -9.4005
  58   1.0000      -0.338421        -9.2089
  59   1.0000      -0.336191        -9.1482
  60   1.0000      -0.333363        -9.0713
  61   1.0000      -0.329637        -8.9699
  62   1.0000      -0.329014        -8.9529
  63   1.0000      -0.323700        -8.8083
  64   1.0000      -0.322700        -8.7811
  65   1.0000      -0.320163        -8.7121
  66   1.0000      -0.317849        -8.6491
  67   1.0000      -0.315476        -8.5845
  68   1.0000      -0.314291        -8.5523
  69   1.0000      -0.307524        -8.3682
  70   1.0000      -0.305663        -8.3175
  71   1.0000      -0.299693        -8.1551
  72   1.0000      -0.297836        -8.1045
  73   1.0000      -0.294022        -8.0008
  74   1.0000      -0.293057        -7.9745
  75   1.0000      -0.291641        -7.9359
  76   1.0000      -0.288214        -7.8427
  77   1.0000      -0.284774        -7.7491
  78   1.0000      -0.282701        -7.6927
  79   1.0000      -0.281061        -7.6481
  80   1.0000      -0.280342        -7.6285
  81   1.0000      -0.277774        -7.5586
  82   1.0000      -0.275570        -7.4986
  83   1.0000      -0.273982        -7.4554
  84   1.0000      -0.271289        -7.3822
  85   1.0000      -0.270402        -7.3580
  86   1.0000      -0.270262        -7.3542
  87   1.0000      -0.269259        -7.3269
  88   1.0000      -0.264261        -7.1909
  89   1.0000      -0.263139        -7.1604
  90   1.0000      -0.260398        -7.0858
  91   1.0000      -0.258693        -7.0394
  92   1.0000      -0.257015        -6.9937
  93   1.0000      -0.253083        -6.8867
  94   1.0000      -0.252860        -6.8807
  95   1.0000      -0.252248        -6.8640
  96   1.0000      -0.250214        -6.8087
  97   1.0000      -0.247925        -6.7464
  98   1.0000      -0.242880        -6.6091
  99   1.0000      -0.241955        -6.5839
 100   1.0000      -0.239841        -6.5264
 101   1.0000      -0.231907        -6.3105
 102   1.0000      -0.228517        -6.2183
 103   1.0000      -0.216372        -5.8878
 104   1.0000      -0.201074        -5.4715
 105   1.0000      -0.160633        -4.3710
 106   0.0000      -0.158650        -4.3171
 107   0.0000      -0.150679        -4.1002
 108   0.0000      -0.125752        -3.4219
 109   0.0000      -0.117095        -3.1863
 110   0.0000      -0.108345        -2.9482

MULLIKEN ATOMIC CHARGES AND SPIN POPULATIONS
--------------------------------------------
   0 Au:    0.151026    0.023789
   1 Au:    0.328879   -0.122196
   2 Au:    0.148499    0.028671
   3 Au:    0.331985   -0.128904
   4 Au:    0.353657   -0.101729
   5 Au:    0.330995   -0.383595
   6 Au:   -0.003793   -0.019446
   7 Au:    0.100922   -0.164718
   8 Au:    0.105824   -0.165118
   9 Au:    0.359147   -0.081148
  10 Cr:   -2.207142    3.114395
Sum of atomic charges         :   -0.0000000

LOEWDIN ATOMIC CHARGES AND SPIN POPULATIONS
-------------------------------------------
   0 Au:    0.078399    0.009304
   1 Au:    0.099113   -0.093457
   2 Au:    0.080906    0.014640
   3 Au:    0.096539   -0.100704
   4 Au:    0.113520   -0.110017
   5 Au:    0.079309   -0.327846
   6 Au:   -0.000108   -0.046269
   7 Au:    0.035619   -0.157575
   8 Au:    0.034579   -0.156979
   9 Au:    0.116987   -0.097494
  10 Cr:   -0.734864    3.066398

  Mayer bond orders larger than 0.100000
B(  0-Au,  1-Au) :   0.2332 B(  0-Au,  2-Au) :   0.3353 B(  0-Au,  6-Au) :   0.3764
B(  0-Au,  9-Au) :   0.1610 B(  0-Au, 10-Cr) :   0.4873 B(  1-Au,  3-Au) :   0.3048
B(  1-Au,  9-Au) :   0.2344 B(  1-Au, 10-Cr) :   0.6268 B(  2-Au,  3-Au) :   0.2339
B(  2-Au,  4-Au) :   0.1479 B(  2-Au,  6-Au) :   0.3696 B(  2-Au, 10-Cr) :   0.4909
B(  3-Au,  4-Au) :   0.2399 B(  3-Au, 10-Cr) :   0.6138 B(  4-Au,  7-Au) :   0.3859
B(  4-Au, 10-Cr) :   0.7481 B(  5-Au,  6-Au) :   0.3918 B(  5-Au,  7-Au) :   0.3223
B(  5-Au,  8-Au) :   0.3262 B(  5-Au, 10-Cr) :   0.1137 B(  6-Au,  7-Au) :   0.2115
B(  6-Au,  8-Au) :   0.2101 B(  6-Au, 10-Cr) :   0.2692 B(  7-Au,  8-Au) :   0.1402
B(  7-Au, 10-Cr) :   0.7048 B(  8-Au,  9-Au) :   0.3934 B(  8-Au, 10-Cr) :   0.6962
B(  9-Au, 10-Cr) :   0.7317

FINAL SINGLE POINT ENERGY     -2402.465420049417

DIPOLE MOMENT
-------------
                                X             Y             Z
Electronic contribution:      3.37824      31.33112       2.33041
Nuclear contribution   :     -3.24234     -31.47360      -1.96730
                        -----------------------------------------
Total Dipole Moment    :      0.13590      -0.14248       0.36310
                        -----------------------------------------
Magnitude (a.u.)       :      0.41305
Magnitude (Debye)      :      1.04989

Rotational constants in cm-1:     0.002237     0.001584     0.001234
Rotational constants in MHz :    67.059353    47.501317    36.993885

                             ****ORCA TERMINATED NORMALLY****
TOTAL RUN TIME: 0 days 0 hours 17 minutes 0 seconds 718 msec
