                         Program Version 5.0.3 -  RELEASE  -
|  1> !R2SCAN def2-TZVP VERYSLOWCONV
|  2> !KDIIS
|  3> %scf
|  4>   AutoTRAHIter 200
|  5>   maxiter 400
|  6> end
|  7>
|  8> %pal nprocs 6 end
|  9>
| 10> *xyzfile 0 5 pbe.xyz
| 11>
| 12> $new_job
| 13>
| 14> !R2SCAN def2-TZVP VERYSLOWCONV
| 15> !KDIIS
| 16> %scf
| 17>   AutoTRAHIter 200
| 18>   maxiter 400
| 19> end
| 20>
| 21>
| 22> %pal nprocs 6 end
| 23>
| 24> *xyzfile 0 3 pbe.xyz
| 25>
| 26>
| 27>
| 28>
| 29>
| 30>                          ****END OF INPUT****
 Total Charge           Charge          ....    0
 Multiplicity           Mult            ....    5
 Number of Electrons    NEL             ....  214
FINAL SINGLE POINT ENERGY     -2402.891657853365

CARTESIAN COORDINATES (ANGSTROEM)
---------------------------------
  Au    10.011457    7.065733   10.487436
  Au     9.873189    4.281234   10.772495
  Au     7.428637    7.272020   11.469395
  Au     7.320504    4.488373   11.746587
  Au     5.385613    5.652747   10.146307
  Au     7.224322    9.112071    6.632718
  Au     8.161466    8.635301    9.202756
  Au     5.973222    7.137384    8.050946
  Au     8.810620    6.911329    6.973370
  Au    10.420799    5.252424    8.237934
  Cr     7.968217    5.680373    9.315708

 Multiplicity           Mult            ....    3
 Number of Electrons    NEL             ....  214
 Basis Dimension        Dim             ....  445

ORBITAL ENERGIES
----------------
                 SPIN UP ORBITALS
  NO   OCC          E(Eh)            E(eV)
   0   1.0000    -215.297519     -5858.5433
   1   1.0000     -24.597964      -669.3446
   2   1.0000     -20.869019      -567.8749
   3   1.0000     -20.862354      -567.6935
   4   1.0000     -20.860638      -567.6468
   5   1.0000      -4.121918      -112.1631
   6   1.0000      -4.121844      -112.1611
   7   1.0000      -4.121333      -112.1472
   8   1.0000      -4.115308      -111.9832
   9   1.0000      -4.109969      -111.8379
  10   1.0000      -4.109742      -111.8318
  11   1.0000      -4.109547      -111.8265
  12   1.0000      -4.109414      -111.8228
  13   1.0000      -4.104346      -111.6849
  14   1.0000      -4.104189      -111.6807
  15   1.0000      -2.917869       -79.3992
  16   1.0000      -2.314678       -62.9856
  17   1.0000      -2.313060       -62.9416
  18   1.0000      -2.310708       -62.8776
  19   1.0000      -2.308712       -62.8232
  20   1.0000      -2.308147       -62.8079
  21   1.0000      -2.306641       -62.7669
  22   1.0000      -2.304583       -62.7109
  23   1.0000      -2.304462       -62.7076
  24   1.0000      -2.301718       -62.6329
  25   1.0000      -2.301061       -62.6151
  26   1.0000      -2.300166       -62.5907
  27   1.0000      -2.300106       -62.5891
  28   1.0000      -2.299478       -62.5720
  29   1.0000      -2.298832       -62.5544
  30   1.0000      -2.298468       -62.5445
  31   1.0000      -2.298348       -62.5412
  32   1.0000      -2.297368       -62.5146
  33   1.0000      -2.296588       -62.4933
  34   1.0000      -2.295348       -62.4596
  35   1.0000      -2.293745       -62.4160
  36   1.0000      -2.293499       -62.4093
  37   1.0000      -2.292481       -62.3816
  38   1.0000      -2.292056       -62.3700
  39   1.0000      -2.291556       -62.3564
  40   1.0000      -2.290224       -62.3202
  41   1.0000      -2.289863       -62.3104
  42   1.0000      -2.289126       -62.2903
  43   1.0000      -2.288976       -62.2862
  44   1.0000      -2.286979       -62.2319
  45   1.0000      -2.285205       -62.1836
  46   1.0000      -1.868856       -50.8542
  47   1.0000      -1.862641       -50.6850
  48   1.0000      -1.861591       -50.6565
  49   1.0000      -0.415146       -11.2967
  50   1.0000      -0.391515       -10.6537
  51   1.0000      -0.377431       -10.2704
  52   1.0000      -0.374942       -10.2027
  53   1.0000      -0.367088        -9.9890
  54   1.0000      -0.366466        -9.9720
  55   1.0000      -0.364627        -9.9220
  56   1.0000      -0.355844        -9.6830
  57   1.0000      -0.355431        -9.6718
  58   1.0000      -0.348112        -9.4726
  59   1.0000      -0.343203        -9.3390
  60   1.0000      -0.341550        -9.2940
  61   1.0000      -0.334230        -9.0949
  62   1.0000      -0.330858        -9.0031
  63   1.0000      -0.330428        -8.9914
  64   1.0000      -0.328480        -8.9384
  65   1.0000      -0.328262        -8.9325
  66   1.0000      -0.325133        -8.8473
  67   1.0000      -0.320854        -8.7309
  68   1.0000      -0.320537        -8.7223
  69   1.0000      -0.316115        -8.6019
  70   1.0000      -0.314765        -8.5652
  71   1.0000      -0.309717        -8.4278
  72   1.0000      -0.305617        -8.3163
  73   1.0000      -0.304632        -8.2895
  74   1.0000      -0.298528        -8.1234
  75   1.0000      -0.298153        -8.1132
  76   1.0000      -0.296514        -8.0686
  77   1.0000      -0.296263        -8.0617
  78   1.0000      -0.292779        -7.9669
  79   1.0000      -0.291560        -7.9338
  80   1.0000      -0.289190        -7.8692
  81   1.0000      -0.284361        -7.7379
  82   1.0000      -0.284264        -7.7352
  83   1.0000      -0.280510        -7.6331
  84   1.0000      -0.279385        -7.6024
  85   1.0000      -0.276651        -7.5280
  86   1.0000      -0.276266        -7.5176
  87   1.0000      -0.274078        -7.4580
  88   1.0000      -0.271811        -7.3963
  89   1.0000      -0.269396        -7.3306
  90   1.0000      -0.268207        -7.2983
  91   1.0000      -0.262073        -7.1314
  92   1.0000      -0.259684        -7.0664
  93   1.0000      -0.257188        -6.9984
  94   1.0000      -0.255763        -6.9597
  95   1.0000      -0.254347        -6.9211
  96   1.0000      -0.252558        -6.8725
  97   1.0000      -0.249999        -6.8028
  98   1.0000      -0.248159        -6.7528
  99   1.0000      -0.247903        -6.7458
 100   1.0000      -0.238959        -6.5024
 101   1.0000      -0.235017        -6.3951
 102   1.0000      -0.232304        -6.3213
 103   1.0000      -0.228951        -6.2301
 104   1.0000      -0.226415        -6.1611
 105   1.0000      -0.220736        -6.0065
 106   1.0000      -0.210108        -5.7173
 107   1.0000      -0.201436        -5.4814
 108   0.0000      -0.190000        -5.1702
 109   0.0000      -0.172695        -4.6993
 110   0.0000      -0.141462        -3.8494
 111   0.0000      -0.135076        -3.6756
 112   0.0000      -0.128041        -3.4842

                 SPIN DOWN ORBITALS
  NO   OCC          E(Eh)            E(eV)
   0   1.0000    -215.296900     -5858.5265
   1   1.0000     -24.535891      -667.6555
   2   1.0000     -20.825873      -566.7008
   3   1.0000     -20.815019      -566.4055
   4   1.0000     -20.807739      -566.2074
   5   1.0000      -4.122510      -112.1792
   6   1.0000      -4.122404      -112.1763
   7   1.0000      -4.122141      -112.1691
   8   1.0000      -4.115493      -111.9882
   9   1.0000      -4.110688      -111.8575
  10   1.0000      -4.110462      -111.8514
  11   1.0000      -4.110015      -111.8392
  12   1.0000      -4.109897      -111.8360
  13   1.0000      -4.105057      -111.7043
  14   1.0000      -4.104900      -111.7000
  15   1.0000      -2.755628       -74.9845
  16   1.0000      -2.315515       -63.0084
  17   1.0000      -2.313736       -62.9600
  18   1.0000      -2.311366       -62.8955
  19   1.0000      -2.309325       -62.8399
  20   1.0000      -2.308677       -62.8223
  21   1.0000      -2.307093       -62.7792
  22   1.0000      -2.305731       -62.7421
  23   1.0000      -2.304791       -62.7166
  24   1.0000      -2.301735       -62.6334
  25   1.0000      -2.301255       -62.6203
  26   1.0000      -2.300686       -62.6049
  27   1.0000      -2.300011       -62.5865
  28   1.0000      -2.299962       -62.5852
  29   1.0000      -2.299389       -62.5696
  30   1.0000      -2.298767       -62.5526
  31   1.0000      -2.298668       -62.5499
  32   1.0000      -2.297836       -62.5273
  33   1.0000      -2.297039       -62.5056
  34   1.0000      -2.295831       -62.4727
  35   1.0000      -2.294347       -62.4324
  36   1.0000      -2.293829       -62.4183
  37   1.0000      -2.292964       -62.3947
  38   1.0000      -2.292677       -62.3869
  39   1.0000      -2.291540       -62.3560
  40   1.0000      -2.290783       -62.3354
  41   1.0000      -2.290476       -62.3270
  42   1.0000      -2.289422       -62.2983
  43   1.0000      -2.289251       -62.2937
  44   1.0000      -2.287532       -62.2469
  45   1.0000      -2.285920       -62.2030
  46   1.0000      -1.722770       -46.8790
  47   1.0000      -1.700081       -46.2616
  48   1.0000      -1.683474       -45.8097
  49   1.0000      -0.413313       -11.2468
  50   1.0000      -0.389768       -10.6061
  51   1.0000      -0.376738       -10.2516
  52   1.0000      -0.376486       -10.2447
  53   1.0000      -0.366821        -9.9817
  54   1.0000      -0.365063        -9.9339
  55   1.0000      -0.364188        -9.9101
  56   1.0000      -0.354051        -9.6342
  57   1.0000      -0.352852        -9.6016
  58   1.0000      -0.348246        -9.4763
  59   1.0000      -0.343455        -9.3459
  60   1.0000      -0.342163        -9.3107
  61   1.0000      -0.335791        -9.1373
  62   1.0000      -0.331806        -9.0289
  63   1.0000      -0.331186        -9.0120
  64   1.0000      -0.330373        -8.9899
  65   1.0000      -0.329100        -8.9553
  66   1.0000      -0.326996        -8.8980
  67   1.0000      -0.322347        -8.7715
  68   1.0000      -0.320593        -8.7238
  69   1.0000      -0.317858        -8.6494
  70   1.0000      -0.313063        -8.5189
  71   1.0000      -0.309815        -8.4305
  72   1.0000      -0.307988        -8.3808
  73   1.0000      -0.302516        -8.2319
  74   1.0000      -0.300667        -8.1816
  75   1.0000      -0.299566        -8.1516
  76   1.0000      -0.297855        -8.1050
  77   1.0000      -0.296565        -8.0699
  78   1.0000      -0.294136        -8.0039
  79   1.0000      -0.291016        -7.9189
  80   1.0000      -0.290005        -7.8914
  81   1.0000      -0.285827        -7.7777
  82   1.0000      -0.285585        -7.7712
  83   1.0000      -0.282693        -7.6925
  84   1.0000      -0.279626        -7.6090
  85   1.0000      -0.279060        -7.5936
  86   1.0000      -0.277443        -7.5496
  87   1.0000      -0.274354        -7.4655
  88   1.0000      -0.273779        -7.4499
  89   1.0000      -0.271363        -7.3842
  90   1.0000      -0.270021        -7.3476
  91   1.0000      -0.263398        -7.1674
  92   1.0000      -0.262258        -7.1364
  93   1.0000      -0.258710        -7.0399
  94   1.0000      -0.257279        -7.0009
  95   1.0000      -0.256215        -6.9720
  96   1.0000      -0.255767        -6.9598
  97   1.0000      -0.253529        -6.8989
  98   1.0000      -0.249980        -6.8023
  99   1.0000      -0.249384        -6.7861
 100   1.0000      -0.245821        -6.6891
 101   1.0000      -0.233854        -6.3635
 102   1.0000      -0.228611        -6.2208
 103   1.0000      -0.218203        -5.9376
 104   1.0000      -0.202709        -5.5160
 105   1.0000      -0.153919        -4.1884
 106   0.0000      -0.156758        -4.2656
 107   0.0000      -0.146371        -3.9830
 108   0.0000      -0.108656        -2.9567
 109   0.0000      -0.098036        -2.6677
 110   0.0000      -0.095493        -2.5985

MULLIKEN ATOMIC CHARGES AND SPIN POPULATIONS
--------------------------------------------
   0 Au:    0.037724   -0.275353
   1 Au:    0.293523   -0.205062
   2 Au:    0.037184   -0.272620
   3 Au:    0.296086   -0.207050
   4 Au:    0.317456   -0.143576
   5 Au:    0.385579   -0.125713
   6 Au:    0.021831    0.011530
   7 Au:    0.083569   -0.163970
   8 Au:    0.084559   -0.164961
   9 Au:    0.320469   -0.139316
  10 Cr:   -1.877982    3.686091
Sum of atomic charges         :   -0.0000000

LOEWDIN ATOMIC CHARGES AND SPIN POPULATIONS
-------------------------------------------
   0 Au:    0.029215   -0.183659
   1 Au:    0.097515   -0.160324
   2 Au:    0.029599   -0.181991
   3 Au:    0.097170   -0.161953
   4 Au:    0.099251   -0.164245
   5 Au:    0.167232   -0.119657
   6 Au:   -0.001468   -0.066997
   7 Au:    0.044477   -0.114376
   8 Au:    0.044488   -0.114687
   9 Au:    0.099852   -0.162201
  10 Cr:   -0.707331    3.430091

  Mayer bond orders larger than 0.100000
B(  0-Au,  1-Au) :   0.1660 B(  0-Au,  2-Au) :   0.1911 B(  0-Au,  6-Au) :   0.3761
B(  0-Au, 10-Cr) :   0.5713 B(  1-Au,  3-Au) :   0.2685 B(  1-Au,  9-Au) :   0.2362
B(  1-Au, 10-Cr) :   0.5928 B(  2-Au,  3-Au) :   0.1679 B(  2-Au,  6-Au) :   0.3761
B(  2-Au, 10-Cr) :   0.5719 B(  3-Au,  4-Au) :   0.2376 B(  3-Au, 10-Cr) :   0.5863
B(  4-Au,  7-Au) :   0.4510 B(  4-Au, 10-Cr) :   0.6590 B(  5-Au,  6-Au) :   0.3272
B(  5-Au,  7-Au) :   0.3398 B(  5-Au,  8-Au) :   0.3405 B(  5-Au, 10-Cr) :   0.1273
B(  6-Au,  7-Au) :   0.1940 B(  6-Au,  8-Au) :   0.1933 B(  6-Au, 10-Cr) :   0.2577
B(  7-Au, 10-Cr) :   0.6592 B(  8-Au,  9-Au) :   0.4521 B(  8-Au, 10-Cr) :   0.6557
B(  9-Au, 10-Cr) :   0.6571

FINAL SINGLE POINT ENERGY     -2402.851837323662

DIPOLE MOMENT
-------------
                                X             Y             Z
Electronic contribution:      3.13923      31.81870       1.62176
Nuclear contribution   :     -3.24234     -31.47360      -1.96730
                        -----------------------------------------
Total Dipole Moment    :     -0.10311       0.34510      -0.34555
                        -----------------------------------------
Magnitude (a.u.)       :      0.49913
Magnitude (Debye)      :      1.26869

Rotational constants in cm-1:     0.002237     0.001584     0.001234
Rotational constants in MHz :    67.059353    47.501317    36.993885

                             ****ORCA TERMINATED NORMALLY****
TOTAL RUN TIME: 0 days 0 hours 6 minutes 20 seconds 429 msec
