                         Program Version 5.0.3 -  RELEASE  -
|  1> !SC-NEVPT2 def2-TZVP def2-TZVP/C
|  2> !MOREAD RIJCOSX def2/J
|  3> %maxcore 4000
|  4> %moinp "casscf.gbw"
|  5> %pal nprocs 8 end
|  6>
|  7> %casscf
|  8>  mult 5,3
|  9>  bweight 1,1
| 10>  nroots 5,45
| 11>  nel 6
| 12>  norb 5
| 13>  ptsettings
| 14>   d4tpre 1e-14 # default = 1e-10
| 15>   d3tpre 1e-14
| 16>  end
| 17>  rel
| 18>    dosoc true
| 19>    gtensor true
| 20>  end
| 21> end
| 22>
| 23>
| 24> *xyzfile 0 5 pbe.xyz
| 25>
| 26>
| 27>                          ****END OF INPUT****

CARTESIAN COORDINATES (ANGSTROEM)
---------------------------------
  Au     8.929959    6.709618    8.749690
  Au     6.368592    5.231528    5.292773
  Au     6.262656    5.691608    7.984700
  Au     8.311682    9.042938   10.333704
  Au     5.156615   10.036419    7.206543
  Au     6.518748    6.915907   10.368123
  Au     8.222391    7.144849    6.055139
  Au     5.321540    7.638059    6.088794
  Au     9.212074    9.254286    7.450155
  Au     7.287694   10.929441    8.684398
  Fe     6.874256    8.315464    8.145347

 Total Charge           Charge          ....    0
 Multiplicity           Mult            ....    5
 Number of Electrons    NEL             ....  216
 Basis Dimension        Dim             ....  445

ORBITAL ENERGIES
----------------

  NO   OCC          E(Eh)            E(eV)
   0   2.0000    -261.391118     -7112.8139
   1   2.0000     -31.955166      -869.5443
   2   2.0000     -27.435607      -746.5608
   3   2.0000     -27.434715      -746.5366
   4   2.0000     -27.434577      -746.5328
   5   2.0000      -4.729526      -128.6969
   6   2.0000      -4.727668      -128.6464
   7   2.0000      -4.725881      -128.5978
   8   2.0000      -4.718900      -128.4078
   9   2.0000      -4.711446      -128.2050
  10   2.0000      -4.708488      -128.1245
  11   2.0000      -4.705804      -128.0514
  12   2.0000      -4.705117      -128.0327
  13   2.0000      -4.697488      -127.8251
  14   2.0000      -4.696572      -127.8002
  15   2.0000      -4.188713      -113.9807
  16   2.0000      -2.773392       -75.4678
  17   2.0000      -2.770465       -75.3882
  18   2.0000      -2.768561       -75.3364
  19   2.0000      -2.767093       -75.2964
  20   2.0000      -2.766567       -75.2821
  21   2.0000      -2.765627       -75.2565
  22   2.0000      -2.765309       -75.2479
  23   2.0000      -2.763837       -75.2078
  24   2.0000      -2.762769       -75.1788
  25   2.0000      -2.761218       -75.1366
  26   2.0000      -2.759932       -75.1016
  27   2.0000      -2.759225       -75.0823
  28   2.0000      -2.758314       -75.0575
  29   2.0000      -2.754765       -74.9610
  30   2.0000      -2.752935       -74.9112
  31   2.0000      -2.749684       -74.8227
  32   2.0000      -2.747827       -74.7722
  33   2.0000      -2.747107       -74.7526
  34   2.0000      -2.744355       -74.6777
  35   2.0000      -2.743527       -74.6552
  36   2.0000      -2.743076       -74.6429
  37   2.0000      -2.741812       -74.6085
  38   2.0000      -2.739854       -74.5552
  39   2.0000      -2.739486       -74.5452
  40   2.0000      -2.738729       -74.5246
  41   2.0000      -2.737414       -74.4888
  42   2.0000      -2.736810       -74.4724
  43   2.0000      -2.735589       -74.4392
  44   2.0000      -2.732984       -74.3683
  45   2.0000      -2.731763       -74.3351
  46   2.0000      -2.729978       -74.2865
  47   2.0000      -2.729268       -74.2671
  48   2.0000      -2.726685       -74.1969
  49   2.0000      -0.584910       -15.9162
  50   2.0000      -0.564490       -15.3606
  51   2.0000      -0.557795       -15.1784
  52   2.0000      -0.551180       -14.9984
  53   2.0000      -0.547656       -14.9025
  54   2.0000      -0.542483       -14.7617
  55   2.0000      -0.538842       -14.6626
  56   2.0000      -0.537030       -14.6133
  57   2.0000      -0.533380       -14.5140
  58   2.0000      -0.530735       -14.4420
  59   2.0000      -0.527531       -14.3548
  60   2.0000      -0.524202       -14.2643
  61   2.0000      -0.517640       -14.0857
  62   2.0000      -0.515847       -14.0369
  63   2.0000      -0.511909       -13.9297
  64   2.0000      -0.510600       -13.8941
  65   2.0000      -0.506922       -13.7940
  66   2.0000      -0.505365       -13.7517
  67   2.0000      -0.499512       -13.5924
  68   2.0000      -0.496956       -13.5229
  69   2.0000      -0.494145       -13.4464
  70   2.0000      -0.486999       -13.2519
  71   2.0000      -0.484575       -13.1860
  72   2.0000      -0.483154       -13.1473
  73   2.0000      -0.477593       -12.9960
  74   2.0000      -0.476065       -12.9544
  75   2.0000      -0.474434       -12.9100
  76   2.0000      -0.470187       -12.7944
  77   2.0000      -0.468662       -12.7529
  78   2.0000      -0.462399       -12.5825
  79   2.0000      -0.460601       -12.5336
  80   2.0000      -0.459369       -12.5001
  81   2.0000      -0.455080       -12.3833
  82   2.0000      -0.453687       -12.3454
  83   2.0000      -0.451300       -12.2805
  84   2.0000      -0.448699       -12.2097
  85   2.0000      -0.445652       -12.1268
  86   2.0000      -0.444740       -12.1020
  87   2.0000      -0.441690       -12.0190
  88   2.0000      -0.439902       -11.9704
  89   2.0000      -0.437488       -11.9047
  90   2.0000      -0.433929       -11.8078
  91   2.0000      -0.431583       -11.7440
  92   2.0000      -0.430231       -11.7072
  93   2.0000      -0.427507       -11.6331
  94   2.0000      -0.423453       -11.5227
  95   2.0000      -0.421413       -11.4672
  96   2.0000      -0.410996       -11.1838
  97   2.0000      -0.407320       -11.0837
  98   2.0000      -0.404508       -11.0072
  99   2.0000      -0.395936       -10.7740
 100   2.0000      -0.359202        -9.7744
 101   2.0000      -0.324551        -8.8315
 102   2.0000      -0.296305        -8.0629
 103   2.0000      -0.243900        -6.6368
 104   2.0000      -0.207589        -5.6488
 105   1.2000      -0.254532        -6.9262
 106   1.2000      -0.270093        -7.3496
 107   1.2000      -0.267353        -7.2751
 108   1.2000      -0.271616        -7.3910
 109   1.2000      -0.265756        -7.2316
 110   0.0000      -0.031102        -0.8463
 111   0.0000      -0.022070        -0.6005
 112   0.0000      -0.008632        -0.2349
 113   0.0000       0.016629         0.4525
 114   0.0000       0.017665         0.4807

MULLIKEN ATOMIC CHARGES AND SPIN DENSITIES
------------------------------------------
   0 Au:    0.326877    0.006410
   1 Au:    0.395878    0.003293
   2 Au:   -0.276170    0.011972
   3 Au:    0.013272    0.009932
   4 Au:    0.318739    0.008153
   5 Au:    0.464580    0.008023
   6 Au:   -0.086331    0.006561
   7 Au:   -0.130360    0.011593
   8 Au:    0.366104    0.007898
   9 Au:    0.036593    0.010607
  10 Fe:   -1.429184    2.915557
Sum of atomic charges       :    0.0000000

LOEWDIN ATOMIC CHARGES AND SPIN DENSITIES
-----------------------------------------
   0 Au:    0.039716    0.008230
   1 Au:    0.133695    0.004777
   2 Au:   -0.102760    0.013437
   3 Au:   -0.071265    0.012121
   4 Au:    0.074207    0.012267
   5 Au:    0.113668    0.011965
   6 Au:   -0.005783    0.008989
   7 Au:   -0.102744    0.014155
   8 Au:    0.072309    0.011064
   9 Au:   -0.019678    0.012620
  10 Fe:   -0.131365    2.890376

  Mayer bond orders larger than 0.100000
B(  0-Au,  2-Au) :   0.1019 B(  0-Au,  3-Au) :   0.1994 B(  0-Au,  5-Au) :   0.1109
B(  0-Au,  6-Au) :   0.2518 B(  0-Au,  8-Au) :   0.1780 B(  0-Au, 10-Fe) :   0.4204
B(  1-Au,  2-Au) :   0.3037 B(  1-Au,  6-Au) :   0.2911 B(  1-Au,  7-Au) :   0.3650
B(  2-Au,  5-Au) :   0.3674 B(  2-Au,  6-Au) :   0.1843 B(  2-Au,  7-Au) :   0.1418
B(  2-Au, 10-Fe) :   0.5557 B(  3-Au,  5-Au) :   0.2416 B(  3-Au,  9-Au) :   0.1659
B(  3-Au, 10-Fe) :   0.4921 B(  4-Au,  7-Au) :   0.4694 B(  4-Au,  9-Au) :   0.1378
B(  4-Au, 10-Fe) :   0.4884 B(  5-Au, 10-Fe) :   0.3293 B(  6-Au,  7-Au) :   0.2039
B(  6-Au,  8-Au) :   0.3934 B(  6-Au, 10-Fe) :   0.3301 B(  7-Au, 10-Fe) :   0.4990
B(  8-Au,  9-Au) :   0.2158 B(  8-Au, 10-Fe) :   0.3267 B(  9-Au, 10-Fe) :   0.5095

FINAL SINGLE POINT ENERGY     -2615.527784703733

DIPOLE MOMENT
-------------
                                X             Y             Z
Electronic contribution:     11.22215     -17.68207     -12.51377
Nuclear contribution   :    -10.79292      17.27233      12.27037
                        -----------------------------------------
Total Dipole Moment    :      0.42922      -0.40974      -0.24339
                        -----------------------------------------
Magnitude (a.u.)       :      0.64137
Magnitude (Debye)      :      1.63024

Rotational constants in cm-1:     0.002226     0.001550     0.001351
Rotational constants in MHz :    66.722797    46.464201    40.506295

                             ****ORCA TERMINATED NORMALLY****
TOTAL RUN TIME: 0 days 2 hours 44 minutes 57 seconds 420 msec
