                         Program Version 5.0.3 -  RELEASE  -
|  1> !CASSCF def2-TZVP def2-TZVP/C
|  2> !MOREAD RIJCOSX
|  3> %maxcore 6000
|  4> %moinp "pbe.qro"
|  5> %pal nprocs 16 end
|  6>
|  7> %casscf
|  8>  mult 6,4
|  9>  bweight 1,1
| 10>  nroots 1,24
| 11>  nel 5
| 12>  norb 5
| 13> end
| 14>
| 15>
| 16> *xyzfile 0 6 pbe.xyz
| 17>
| 18>
| 19>                          ****END OF INPUT****

CARTESIAN COORDINATES (ANGSTROEM)
---------------------------------
  Au     8.281853    7.693476   11.644014
  Au     7.823278    5.385492   10.426492
  Au     9.416817    7.451548    9.089886
  Au     7.348300    3.450184    8.763401
  Au     6.493577    7.822642    9.484179
  Au     6.205781    8.248715    6.919426
  Au     7.035865    3.928219    6.032678
  Au     9.121892    7.874378    6.524669
  Au     7.199918    6.294156    4.974315
  Au     7.468873    8.887958    4.496057
  Mn     7.532459    5.983388    7.726340

 Total Charge           Charge          ....    0
 Multiplicity           Mult            ....    6
 Number of Electrons    NEL             ....  215
 Basis Dimension        Dim             ....  445

ORBITAL ENERGIES
----------------

  NO   OCC          E(Eh)            E(eV)
   0   2.0000    -240.549847     -6545.6941
   1   2.0000     -29.127005      -792.5861
   2   2.0000     -24.831976      -675.7124
   3   2.0000     -24.831685      -675.7045
   4   2.0000     -24.831263      -675.6930
   5   2.0000      -4.715975      -128.3282
   6   2.0000      -4.715231      -128.3080
   7   2.0000      -4.708435      -128.1230
   8   2.0000      -4.708118      -128.1144
   9   2.0000      -4.707815      -128.1062
  10   2.0000      -4.707691      -128.1028
  11   2.0000      -4.705385      -128.0400
  12   2.0000      -4.705298      -128.0377
  13   2.0000      -4.704875      -128.0261
  14   2.0000      -4.704784      -128.0237
  15   2.0000      -3.831364      -104.2567
  16   2.0000      -2.758798       -75.0707
  17   2.0000      -2.758203       -75.0545
  18   2.0000      -2.752583       -74.9016
  19   2.0000      -2.751911       -74.8833
  20   2.0000      -2.749072       -74.8060
  21   2.0000      -2.748675       -74.7953
  22   2.0000      -2.747771       -74.7706
  23   2.0000      -2.747119       -74.7529
  24   2.0000      -2.746698       -74.7415
  25   2.0000      -2.745991       -74.7222
  26   2.0000      -2.745926       -74.7204
  27   2.0000      -2.744031       -74.6689
  28   2.0000      -2.743244       -74.6475
  29   2.0000      -2.742370       -74.6237
  30   2.0000      -2.741997       -74.6135
  31   2.0000      -2.741862       -74.6099
  32   2.0000      -2.741735       -74.6064
  33   2.0000      -2.741580       -74.6022
  34   2.0000      -2.740757       -74.5798
  35   2.0000      -2.740603       -74.5756
  36   2.0000      -2.740532       -74.5737
  37   2.0000      -2.739455       -74.5444
  38   2.0000      -2.738983       -74.5315
  39   2.0000      -2.738284       -74.5125
  40   2.0000      -2.737877       -74.5014
  41   2.0000      -2.737127       -74.4810
  42   2.0000      -2.736574       -74.4660
  43   2.0000      -2.735911       -74.4479
  44   2.0000      -2.735721       -74.4428
  45   2.0000      -2.735644       -74.4407
  46   2.0000      -2.499450       -68.0135
  47   2.0000      -2.498245       -67.9807
  48   2.0000      -2.497887       -67.9710
  49   2.0000      -0.562763       -15.3136
  50   2.0000      -0.550993       -14.9933
  51   2.0000      -0.550487       -14.9795
  52   2.0000      -0.547510       -14.8985
  53   2.0000      -0.545790       -14.8517
  54   2.0000      -0.541855       -14.7446
  55   2.0000      -0.535591       -14.5742
  56   2.0000      -0.526835       -14.3359
  57   2.0000      -0.523091       -14.2340
  58   2.0000      -0.521628       -14.1942
  59   2.0000      -0.516073       -14.0431
  60   2.0000      -0.514646       -14.0042
  61   2.0000      -0.512141       -13.9361
  62   2.0000      -0.506565       -13.7843
  63   2.0000      -0.505084       -13.7440
  64   2.0000      -0.501635       -13.6502
  65   2.0000      -0.501286       -13.6407
  66   2.0000      -0.494762       -13.4632
  67   2.0000      -0.490429       -13.3453
  68   2.0000      -0.489554       -13.3214
  69   2.0000      -0.483165       -13.1476
  70   2.0000      -0.482721       -13.1355
  71   2.0000      -0.479567       -13.0497
  72   2.0000      -0.471738       -12.8366
  73   2.0000      -0.470414       -12.8006
  74   2.0000      -0.469101       -12.7649
  75   2.0000      -0.468608       -12.7515
  76   2.0000      -0.465046       -12.6545
  77   2.0000      -0.462411       -12.5829
  78   2.0000      -0.455412       -12.3924
  79   2.0000      -0.454833       -12.3766
  80   2.0000      -0.453666       -12.3449
  81   2.0000      -0.449452       -12.2302
  82   2.0000      -0.448937       -12.2162
  83   2.0000      -0.444753       -12.1023
  84   2.0000      -0.444102       -12.0846
  85   2.0000      -0.441873       -12.0240
  86   2.0000      -0.440162       -11.9774
  87   2.0000      -0.438604       -11.9350
  88   2.0000      -0.437784       -11.9127
  89   2.0000      -0.436436       -11.8760
  90   2.0000      -0.433677       -11.8009
  91   2.0000      -0.427883       -11.6433
  92   2.0000      -0.426474       -11.6049
  93   2.0000      -0.426151       -11.5962
  94   2.0000      -0.420563       -11.4441
  95   2.0000      -0.416665       -11.3380
  96   2.0000      -0.412173       -11.2158
  97   2.0000      -0.408558       -11.1174
  98   2.0000      -0.389547       -10.6001
  99   2.0000      -0.388835       -10.5807
 100   2.0000      -0.366316        -9.9680
 101   2.0000      -0.335036        -9.1168
 102   2.0000      -0.259385        -7.0582
 103   2.0000      -0.256401        -6.9770
 104   2.0000      -0.252328        -6.8662
 105   1.0000      -0.150767        -4.1026
 106   1.0000      -0.152714        -4.1555
 107   1.0000      -0.150818        -4.1040
 108   1.0000      -0.143889        -3.9154
 109   1.0000      -0.151379        -4.1192
 110   0.0000      -0.033604        -0.9144
 111   0.0000      -0.007898        -0.2149
 112   0.0000       0.001409         0.0383
 113   0.0000       0.018797         0.5115
 114   0.0000       0.029895         0.8135

MULLIKEN ATOMIC CHARGES AND SPIN DENSITIES
------------------------------------------
   0 Au:    0.404117    0.003136
   1 Au:   -0.204720    0.008231
   2 Au:   -0.007597    0.008734
   3 Au:    0.171713    0.009322
   4 Au:   -0.006467    0.008786
   5 Au:   -0.011449    0.008823
   6 Au:    0.164040    0.010020
   7 Au:   -0.010706    0.008812
   8 Au:   -0.181935    0.008128
   9 Au:    0.396783    0.003168
  10 Mn:   -0.713779    3.922840
Sum of atomic charges       :    0.0000000

LOEWDIN ATOMIC CHARGES AND SPIN DENSITIES
-----------------------------------------
   0 Au:    0.161194    0.003986
   1 Au:   -0.122040    0.012509
   2 Au:   -0.069295    0.012553
   3 Au:    0.060180    0.013491
   4 Au:   -0.068962    0.012618
   5 Au:   -0.070901    0.012722
   6 Au:    0.057436    0.014379
   7 Au:   -0.070807    0.012711
   8 Au:   -0.119583    0.012317
   9 Au:    0.161095    0.003991
  10 Mn:    0.081683    3.888723

  Mayer bond orders larger than 0.100000
B(  0-Au,  1-Au) :   0.4914 B(  0-Au,  2-Au) :   0.2083 B(  0-Au,  4-Au) :   0.2073
B(  1-Au,  2-Au) :   0.1816 B(  1-Au,  3-Au) :   0.6315 B(  1-Au,  4-Au) :   0.1809
B(  1-Au, 10-Mn) :   0.4040 B(  2-Au,  4-Au) :   0.1415 B(  2-Au,  7-Au) :   0.6026
B(  2-Au, 10-Mn) :   0.4373 B(  3-Au, 10-Mn) :   0.4440 B(  4-Au,  5-Au) :   0.6031
B(  4-Au, 10-Mn) :   0.4374 B(  5-Au,  7-Au) :   0.1440 B(  5-Au,  8-Au) :   0.1809
B(  5-Au,  9-Au) :   0.2127 B(  5-Au, 10-Mn) :   0.4397 B(  6-Au,  8-Au) :   0.6165
B(  6-Au, 10-Mn) :   0.4620 B(  7-Au,  8-Au) :   0.1806 B(  7-Au,  9-Au) :   0.2121
B(  7-Au, 10-Mn) :   0.4394 B(  8-Au,  9-Au) :   0.4851 B(  8-Au, 10-Mn) :   0.3981

FINAL SINGLE POINT ENERGY     -2497.937769211977

DIPOLE MOMENT
-------------
                                X             Y             Z
Electronic contribution:      3.89428      26.18045       3.97797
Nuclear contribution   :     -3.88097     -26.08742      -3.95397
                        -----------------------------------------
Total Dipole Moment    :      0.01331       0.09303       0.02399
                        -----------------------------------------
Magnitude (a.u.)       :      0.09699
Magnitude (Debye)      :      0.24653

Rotational constants in cm-1:     0.002128     0.001389     0.001016
Rotational constants in MHz :    63.790126    41.641656    30.472454

                             ****ORCA TERMINATED NORMALLY****
TOTAL RUN TIME: 0 days 0 hours 2 minutes 24 seconds 672 msec
