                         Program Version 5.0.3 -  RELEASE  -
|  1> !CASSCF def2-TZVP def2-TZVP/C
|  2> !MOREAD RIJCOSX
|  3> %maxcore 6000
|  4> %moinp "pbe.qro"
|  5> %pal nprocs 2 end
|  6>
|  7> %casscf
|  8>  mult 5,3
|  9>  bweight 1,1
| 10>  nroots 5,45
| 11>  nel 6
| 12>  norb 5
| 13> end
| 14>
| 15>
| 16> *xyzfile 0 5 pbe.xyz
| 17>
| 18>
| 19>                          ****END OF INPUT****

CARTESIAN COORDINATES (ANGSTROEM)
---------------------------------
  Au    10.380516    5.068344    6.529001
  Au     8.641276    4.117265    8.601458
  Au     8.247845    6.717612   10.433177
  Au     6.190495    5.285474    8.239666
  Au     6.211970    7.189132    6.133455
  Au     7.904219    5.203071    5.525725
  Au     5.602525    9.703047    6.997305
  Au     6.403902    8.040707    9.016902
  Au     8.301194    9.158596    6.965697
  Au    10.633953    7.992620    7.170535
  Au    12.650208    6.163144    7.591690
  Au    10.610975    6.003810    9.394097
  Cr     8.431435    6.626076    7.748529

 Total Charge           Charge          ....    0
 Multiplicity           Mult            ....    5
 Number of Electrons    NEL             ....  252
 Basis Dimension        Dim             ....  525

ORBITAL ENERGIES
----------------

  NO   OCC          E(Eh)            E(eV)
   0   2.0000    -220.585291     -6002.4309
   1   2.0000     -26.440217      -719.4749
   2   2.0000     -22.372553      -608.7881
   3   2.0000     -22.366769      -608.6307
   4   2.0000     -22.365766      -608.6034
   5   2.0000      -4.712165      -128.2245
   6   2.0000      -4.712097      -128.2227
   7   2.0000      -4.711533      -128.2073
   8   2.0000      -4.711484      -128.2060
   9   2.0000      -4.707992      -128.1110
  10   2.0000      -4.707704      -128.1031
  11   2.0000      -4.707262      -128.0911
  12   2.0000      -4.707093      -128.0865
  13   2.0000      -4.699574      -127.8819
  14   2.0000      -4.699520      -127.8804
  15   2.0000      -4.699280      -127.8739
  16   2.0000      -4.698809      -127.8611
  17   2.0000      -3.481565       -94.7382
  18   2.0000      -2.753632       -74.9301
  19   2.0000      -2.753061       -74.9146
  20   2.0000      -2.752061       -74.8874
  21   2.0000      -2.751517       -74.8726
  22   2.0000      -2.750265       -74.8385
  23   2.0000      -2.750175       -74.8361
  24   2.0000      -2.748390       -74.7875
  25   2.0000      -2.747565       -74.7651
  26   2.0000      -2.747362       -74.7595
  27   2.0000      -2.747323       -74.7585
  28   2.0000      -2.747103       -74.7525
  29   2.0000      -2.745725       -74.7150
  30   2.0000      -2.745515       -74.7093
  31   2.0000      -2.744677       -74.6865
  32   2.0000      -2.744604       -74.6845
  33   2.0000      -2.744333       -74.6771
  34   2.0000      -2.743668       -74.6590
  35   2.0000      -2.742811       -74.6357
  36   2.0000      -2.741331       -74.5954
  37   2.0000      -2.741212       -74.5922
  38   2.0000      -2.741027       -74.5871
  39   2.0000      -2.740465       -74.5718
  40   2.0000      -2.740335       -74.5683
  41   2.0000      -2.739609       -74.5485
  42   2.0000      -2.739415       -74.5433
  43   2.0000      -2.736943       -74.4760
  44   2.0000      -2.736138       -74.4541
  45   2.0000      -2.735012       -74.4235
  46   2.0000      -2.734707       -74.4152
  47   2.0000      -2.733498       -74.3823
  48   2.0000      -2.732966       -74.3678
  49   2.0000      -2.732891       -74.3657
  50   2.0000      -2.732335       -74.3506
  51   2.0000      -2.730707       -74.3063
  52   2.0000      -2.729914       -74.2847
  53   2.0000      -2.728850       -74.2558
  54   2.0000      -2.238639       -60.9165
  55   2.0000      -2.235750       -60.8379
  56   2.0000      -2.234269       -60.7976
  57   2.0000      -0.559418       -15.2225
  58   2.0000      -0.552807       -15.0427
  59   2.0000      -0.546703       -14.8765
  60   2.0000      -0.541676       -14.7397
  61   2.0000      -0.541426       -14.7330
  62   2.0000      -0.541154       -14.7255
  63   2.0000      -0.537088       -14.6149
  64   2.0000      -0.536088       -14.5877
  65   2.0000      -0.530808       -14.4440
  66   2.0000      -0.530248       -14.4288
  67   2.0000      -0.528034       -14.3685
  68   2.0000      -0.525105       -14.2888
  69   2.0000      -0.522555       -14.2195
  70   2.0000      -0.520035       -14.1509
  71   2.0000      -0.518813       -14.1176
  72   2.0000      -0.514599       -14.0029
  73   2.0000      -0.508855       -13.8467
  74   2.0000      -0.508525       -13.8377
  75   2.0000      -0.505657       -13.7596
  76   2.0000      -0.505064       -13.7435
  77   2.0000      -0.500058       -13.6073
  78   2.0000      -0.491638       -13.3782
  79   2.0000      -0.490689       -13.3523
  80   2.0000      -0.486720       -13.2443
  81   2.0000      -0.483409       -13.1542
  82   2.0000      -0.480371       -13.0715
  83   2.0000      -0.477339       -12.9891
  84   2.0000      -0.472577       -12.8595
  85   2.0000      -0.471080       -12.8187
  86   2.0000      -0.468695       -12.7538
  87   2.0000      -0.467233       -12.7141
  88   2.0000      -0.466597       -12.6967
  89   2.0000      -0.464147       -12.6301
  90   2.0000      -0.461659       -12.5624
  91   2.0000      -0.457836       -12.4583
  92   2.0000      -0.454905       -12.3786
  93   2.0000      -0.453515       -12.3408
  94   2.0000      -0.452978       -12.3261
  95   2.0000      -0.449473       -12.2308
  96   2.0000      -0.448941       -12.2163
  97   2.0000      -0.446151       -12.1404
  98   2.0000      -0.445177       -12.1139
  99   2.0000      -0.444716       -12.1013
 100   2.0000      -0.437918       -11.9163
 101   2.0000      -0.437257       -11.8984
 102   2.0000      -0.435537       -11.8516
 103   2.0000      -0.434547       -11.8246
 104   2.0000      -0.434018       -11.8102
 105   2.0000      -0.432880       -11.7793
 106   2.0000      -0.432324       -11.7641
 107   2.0000      -0.430511       -11.7148
 108   2.0000      -0.427015       -11.6197
 109   2.0000      -0.425335       -11.5740
 110   2.0000      -0.419181       -11.4065
 111   2.0000      -0.415726       -11.3125
 112   2.0000      -0.414877       -11.2894
 113   2.0000      -0.412107       -11.2140
 114   2.0000      -0.410904       -11.1813
 115   2.0000      -0.398042       -10.8313
 116   2.0000      -0.396944       -10.8014
 117   2.0000      -0.384923       -10.4743
 118   2.0000      -0.370200       -10.0736
 119   2.0000      -0.327616        -8.9149
 120   2.0000      -0.304367        -8.2822
 121   2.0000      -0.252193        -6.8625
 122   2.0000      -0.232710        -6.3324
 123   1.2000      -0.175342        -4.7713
 124   1.2000      -0.161011        -4.3813
 125   1.2000      -0.146829        -3.9954
 126   1.2000      -0.152777        -4.1573
 127   1.2000      -0.143149        -3.8953
 128   0.0000      -0.008034        -0.2186
 129   0.0000       0.001064         0.0290
 130   0.0000       0.008975         0.2442
 131   0.0000       0.021448         0.5836
 132   0.0000       0.034663         0.9432

MULLIKEN ATOMIC CHARGES AND SPIN DENSITIES
------------------------------------------
   0 Au:    0.229580    0.061596
   1 Au:    0.666225    0.054973
   2 Au:    0.358347    0.050783
   3 Au:    0.666373    0.054963
   4 Au:    0.233796    0.058999
   5 Au:    0.356981    0.050651
   6 Au:    0.339920    0.014895
   7 Au:    0.231997    0.061469
   8 Au:    0.097653    0.011407
   9 Au:    0.100968    0.011431
  10 Au:    0.341473    0.014961
  11 Au:    0.229231    0.059131
  12 Cr:   -3.852544    2.494740
Sum of atomic charges       :    0.0000000

LOEWDIN ATOMIC CHARGES AND SPIN DENSITIES
-----------------------------------------
   0 Au:    0.006763    0.068041
   1 Au:    0.121162    0.088876
   2 Au:    0.149446    0.097586
   3 Au:    0.120850    0.088947
   4 Au:    0.005270    0.066083
   5 Au:    0.150018    0.097367
   6 Au:    0.160854    0.019698
   7 Au:    0.007237    0.068043
   8 Au:    0.023583    0.038683
   9 Au:    0.023363    0.038773
  10 Au:    0.160992    0.019820
  11 Au:    0.005483    0.066077
  12 Cr:   -0.935022    2.242007

  Mayer bond orders larger than 0.100000
B(  0-Au,  1-Au) :   0.1026 B(  0-Au,  5-Au) :   0.2562 B(  0-Au,  9-Au) :   0.1276
B(  0-Au, 10-Au) :   0.2762 B(  0-Au, 11-Au) :   0.1387 B(  0-Au, 12-Cr) :   0.4750
B(  1-Au,  3-Au) :   0.1435 B(  1-Au,  8-Au) :   0.1081 B(  1-Au, 11-Au) :   0.1170
B(  1-Au, 12-Cr) :   0.4179 B(  2-Au,  7-Au) :   0.2550 B(  2-Au, 11-Au) :   0.2587
B(  2-Au, 12-Cr) :   0.4918 B(  3-Au,  4-Au) :   0.1170 B(  3-Au,  7-Au) :   0.1017
B(  3-Au,  9-Au) :   0.1088 B(  3-Au, 12-Cr) :   0.4172 B(  4-Au,  5-Au) :   0.2570
B(  4-Au,  6-Au) :   0.2909 B(  4-Au,  7-Au) :   0.1398 B(  4-Au,  8-Au) :   0.1322
B(  4-Au, 12-Cr) :   0.4524 B(  5-Au, 12-Cr) :   0.4930 B(  6-Au,  7-Au) :   0.2770
B(  6-Au,  8-Au) :   0.2530 B(  6-Au, 12-Cr) :   0.3138 B(  7-Au,  8-Au) :   0.1277
B(  7-Au, 12-Cr) :   0.4744 B(  8-Au,  9-Au) :   0.4945 B(  8-Au, 12-Cr) :   0.5288
B(  9-Au, 10-Au) :   0.2531 B(  9-Au, 11-Au) :   0.1332 B(  9-Au, 12-Cr) :   0.5274
B( 10-Au, 11-Au) :   0.2913 B( 10-Au, 12-Cr) :   0.3134 B( 11-Au, 12-Cr) :   0.4546

FINAL SINGLE POINT ENERGY     -2660.864059230482

DIPOLE MOMENT
-------------
                                X             Y             Z
Electronic contribution:      1.52609       2.86026      -0.96684
Nuclear contribution   :     -1.76054      -3.30517       1.12222
                        -----------------------------------------
Total Dipole Moment    :     -0.23445      -0.44491       0.15538
                        -----------------------------------------
Magnitude (a.u.)       :      0.52636
Magnitude (Debye)      :      1.33791

Rotational constants in cm-1:     0.001735     0.001034     0.000979
Rotational constants in MHz :    52.019435    30.984359    29.353956

                             ****ORCA TERMINATED NORMALLY****
TOTAL RUN TIME: 0 days 0 hours 29 minutes 32 seconds 121 msec
