                         Program Version 5.0.3 -  RELEASE  -
|  1> !SC-NEVPT2 def2-TZVP def2-TZVP/C
|  2> !MOREAD RIJCOSX def2/J
|  3> %maxcore 4000
|  4> %moinp "casscf.gbw"
|  5> %pal nprocs 8 end
|  6>
|  7> %casscf
|  8>  mult 5,3
|  9>  bweight 1,1
| 10>  nroots 5,45
| 11>  nel 6
| 12>  norb 5
| 13>  ptsettings
| 14>   d4tpre 1e-14 # default = 1e-10
| 15>   d3tpre 1e-14
| 16>  end
| 17>  rel
| 18>    dosoc true
| 19>    gtensor true
| 20>  end
| 21> end
| 22>
| 23>
| 24> *xyzfile 0 5 pbe.xyz
| 25>
| 26>
| 27>                          ****END OF INPUT****

CARTESIAN COORDINATES (ANGSTROEM)
---------------------------------
  Au     5.833928    7.533483    6.396372
  Au    11.706410    4.768450    7.171446
  Au     7.569939    5.678485    5.220674
  Au     9.064966    4.049150    6.908227
  Au    10.114002    6.758393    6.225575
  Au     6.895252    4.161562    8.481402
  Au     5.544647    6.596798    8.979679
  Au     7.943040    6.715585   10.360621
  Au    10.034318    5.655405    9.147782
  Au     8.389132    8.764757    6.530337
  Cr     7.892093    6.462183    7.722071

 Total Charge           Charge          ....    0
 Multiplicity           Mult            ....    5
 Number of Electrons    NEL             ....  214
 Basis Dimension        Dim             ....  445

ORBITAL ENERGIES
----------------

  NO   OCC          E(Eh)            E(eV)
   0   2.0000    -220.531025     -6000.9543
   1   2.0000     -26.379546      -717.8239
   2   2.0000     -22.314178      -607.1996
   3   2.0000     -22.308753      -607.0520
   4   2.0000     -22.301131      -606.8446
   5   2.0000      -4.711800      -128.2146
   6   2.0000      -4.709872      -128.1621
   7   2.0000      -4.709229      -128.1446
   8   2.0000      -4.704006      -128.0025
   9   2.0000      -4.702287      -127.9557
  10   2.0000      -4.701747      -127.9410
  11   2.0000      -4.698826      -127.8615
  12   2.0000      -4.697670      -127.8301
  13   2.0000      -4.697131      -127.8154
  14   2.0000      -4.695747      -127.7778
  15   2.0000      -3.426292       -93.2341
  16   2.0000      -2.751828       -74.8810
  17   2.0000      -2.750732       -74.8512
  18   2.0000      -2.750637       -74.8486
  19   2.0000      -2.748535       -74.7914
  20   2.0000      -2.748440       -74.7889
  21   2.0000      -2.746045       -74.7237
  22   2.0000      -2.745063       -74.6970
  23   2.0000      -2.744092       -74.6705
  24   2.0000      -2.743561       -74.6561
  25   2.0000      -2.743445       -74.6529
  26   2.0000      -2.742348       -74.6231
  27   2.0000      -2.741114       -74.5895
  28   2.0000      -2.740161       -74.5636
  29   2.0000      -2.738384       -74.5152
  30   2.0000      -2.738129       -74.5083
  31   2.0000      -2.737265       -74.4848
  32   2.0000      -2.737038       -74.4786
  33   2.0000      -2.736448       -74.4625
  34   2.0000      -2.735660       -74.4411
  35   2.0000      -2.734402       -74.4069
  36   2.0000      -2.734239       -74.4024
  37   2.0000      -2.734000       -74.3959
  38   2.0000      -2.732394       -74.3522
  39   2.0000      -2.731776       -74.3354
  40   2.0000      -2.731241       -74.3209
  41   2.0000      -2.730363       -74.2969
  42   2.0000      -2.730209       -74.2928
  43   2.0000      -2.729577       -74.2756
  44   2.0000      -2.728676       -74.2511
  45   2.0000      -2.727989       -74.2324
  46   2.0000      -2.189801       -59.5875
  47   2.0000      -2.184491       -59.4430
  48   2.0000      -2.177663       -59.2572
  49   2.0000      -0.550167       -14.9708
  50   2.0000      -0.544043       -14.8042
  51   2.0000      -0.539759       -14.6876
  52   2.0000      -0.532899       -14.5009
  53   2.0000      -0.531937       -14.4747
  54   2.0000      -0.527867       -14.3640
  55   2.0000      -0.524808       -14.2808
  56   2.0000      -0.522520       -14.2185
  57   2.0000      -0.521203       -14.1827
  58   2.0000      -0.514344       -13.9960
  59   2.0000      -0.513930       -13.9848
  60   2.0000      -0.509417       -13.8619
  61   2.0000      -0.506453       -13.7813
  62   2.0000      -0.505758       -13.7624
  63   2.0000      -0.501208       -13.6386
  64   2.0000      -0.498536       -13.5659
  65   2.0000      -0.497237       -13.5305
  66   2.0000      -0.494861       -13.4659
  67   2.0000      -0.491520       -13.3749
  68   2.0000      -0.485764       -13.2183
  69   2.0000      -0.482786       -13.1373
  70   2.0000      -0.475927       -12.9506
  71   2.0000      -0.474502       -12.9118
  72   2.0000      -0.469284       -12.7699
  73   2.0000      -0.466647       -12.6981
  74   2.0000      -0.464833       -12.6487
  75   2.0000      -0.461636       -12.5617
  76   2.0000      -0.459505       -12.5038
  77   2.0000      -0.458313       -12.4713
  78   2.0000      -0.453883       -12.3508
  79   2.0000      -0.451986       -12.2992
  80   2.0000      -0.451378       -12.2826
  81   2.0000      -0.446303       -12.1445
  82   2.0000      -0.443113       -12.0577
  83   2.0000      -0.441953       -12.0261
  84   2.0000      -0.441765       -12.0210
  85   2.0000      -0.437881       -11.9154
  86   2.0000      -0.436331       -11.8732
  87   2.0000      -0.434892       -11.8340
  88   2.0000      -0.434068       -11.8116
  89   2.0000      -0.431578       -11.7438
  90   2.0000      -0.430632       -11.7181
  91   2.0000      -0.427685       -11.6379
  92   2.0000      -0.424093       -11.5402
  93   2.0000      -0.420785       -11.4501
  94   2.0000      -0.417717       -11.3666
  95   2.0000      -0.414815       -11.2877
  96   2.0000      -0.410121       -11.1599
  97   2.0000      -0.407877       -11.0989
  98   2.0000      -0.398316       -10.8387
  99   2.0000      -0.393792       -10.7156
 100   2.0000      -0.337446        -9.1824
 101   2.0000      -0.315638        -8.5890
 102   2.0000      -0.267407        -7.2765
 103   2.0000      -0.230406        -6.2697
 104   1.2000      -0.134346        -3.6557
 105   1.2000      -0.114068        -3.1039
 106   1.2000      -0.109787        -2.9875
 107   1.2000      -0.129764        -3.5311
 108   1.2000      -0.114861        -3.1255
 109   0.0000      -0.002136        -0.0581
 110   0.0000       0.000779         0.0212
 111   0.0000       0.014341         0.3902
 112   0.0000       0.026237         0.7139
 113   0.0000       0.034032         0.9261

MULLIKEN ATOMIC CHARGES AND SPIN DENSITIES
------------------------------------------
   0 Au:    0.304887    0.053240
   1 Au:    0.270006    0.012294
   2 Au:    0.534116    0.057956
   3 Au:    0.141387    0.016565
   4 Au:    0.221458    0.039310
   5 Au:    0.469938    0.045268
   6 Au:    0.323510    0.038279
   7 Au:    0.315546    0.036154
   8 Au:    0.131062    0.042884
   9 Au:    0.338840    0.051334
  10 Cr:   -3.050752    2.606718
Sum of atomic charges       :    0.0000000

LOEWDIN ATOMIC CHARGES AND SPIN DENSITIES
-----------------------------------------
   0 Au:    0.075916    0.084788
   1 Au:    0.140885    0.023330
   2 Au:    0.144909    0.073213
   3 Au:    0.000492    0.037450
   4 Au:   -0.018506    0.066792
   5 Au:    0.140069    0.059039
   6 Au:    0.069884    0.075550
   7 Au:    0.126427    0.070929
   8 Au:   -0.008211    0.061877
   9 Au:    0.170379    0.078610
  10 Cr:   -0.842244    2.368422

  Mayer bond orders larger than 0.100000
B(  0-Au,  2-Au) :   0.1401 B(  0-Au,  6-Au) :   0.2685 B(  0-Au,  8-Au) :   0.1182
B(  0-Au,  9-Au) :   0.1655 B(  0-Au, 10-Cr) :   0.4820 B(  1-Au,  3-Au) :   0.2526
B(  1-Au,  4-Au) :   0.2948 B(  1-Au,  8-Au) :   0.3180 B(  1-Au, 10-Cr) :   0.3157
B(  2-Au,  3-Au) :   0.2573 B(  2-Au,  7-Au) :   0.1108 B(  2-Au, 10-Cr) :   0.3760
B(  3-Au,  4-Au) :   0.1268 B(  3-Au,  5-Au) :   0.3147 B(  3-Au,  8-Au) :   0.1225
B(  3-Au, 10-Cr) :   0.4010 B(  4-Au,  6-Au) :   0.1343 B(  4-Au,  8-Au) :   0.1354
B(  4-Au,  9-Au) :   0.3582 B(  4-Au, 10-Cr) :   0.4676 B(  5-Au,  6-Au) :   0.1440
B(  5-Au,  9-Au) :   0.1104 B(  5-Au, 10-Cr) :   0.3969 B(  6-Au,  7-Au) :   0.1672
B(  6-Au, 10-Cr) :   0.4521 B(  7-Au,  8-Au) :   0.4154 B(  7-Au, 10-Cr) :   0.4480
B(  8-Au, 10-Cr) :   0.5068 B(  9-Au, 10-Cr) :   0.4569

FINAL SINGLE POINT ENERGY     -2396.493271317424

DIPOLE MOMENT
-------------
                                X             Y             Z
Electronic contribution:     14.45308     -13.85962      -6.58857
Nuclear contribution   :    -14.59131      13.77011       6.28639
                        -----------------------------------------
Total Dipole Moment    :     -0.13823      -0.08951      -0.30218
                        -----------------------------------------
Magnitude (a.u.)       :      0.34414
Magnitude (Debye)      :      0.87473

Rotational constants in cm-1:     0.002123     0.001589     0.001354
Rotational constants in MHz :    63.635357    47.647443    40.604619

                             ****ORCA TERMINATED NORMALLY****
TOTAL RUN TIME: 0 days 0 hours 25 minutes 9 seconds 550 msec
