                         Program Version 5.0.3 -  RELEASE  -
|  1> !CASSCF def2-TZVP def2-TZVP/C
|  2> !MOREAD RIJCOSX
|  3> %maxcore 6000
|  4> %moinp "pbe.qro"
|  5> %pal nprocs 6 end
|  6>
|  7> %casscf
|  8>  mult 6,4
|  9>  bweight 1,1
| 10>  nroots 1,24
| 11>  nel 5
| 12>  norb 5
| 13> end
| 14>
| 15>
| 16> *xyzfile 0 6 pbe.xyz
| 17>
| 18>
| 19>                          ****END OF INPUT****

CARTESIAN COORDINATES (ANGSTROEM)
---------------------------------
  Au     4.264621    5.552259    6.848960
  Au     8.015262    9.862266    7.969594
  Au     9.723380    9.107442    5.846305
  Au     4.656485    7.895376    8.509740
  Au     5.989329   10.072230    9.948679
  Au     6.140165    6.143541    4.841868
  Au     7.050532    8.749463    5.457020
  Au     4.385024    8.124637    5.720842
  Au     5.368732   10.223154    7.208894
  Au     9.539022    7.627135    8.279984
  Au     5.867558    7.505934   11.024300
  Au     7.892467    6.004408    9.862039
  Au     8.721921    6.475980    5.756566
  Au     5.195456    5.322627    9.418857
  Au     9.598401    4.880657    7.974562
  Au     6.943108    4.981530    7.256653
  Mn     8.168444    8.637665   10.313475

 Total Charge           Charge          ....    0
 Multiplicity           Mult            ....    6
 Number of Electrons    NEL             ....  329
 Basis Dimension        Dim             ....  685

ORBITAL ENERGIES
----------------

  NO   OCC          E(Eh)            E(eV)
   0   2.0000    -240.568192     -6546.1933
   1   2.0000     -29.147323      -793.1390
   2   2.0000     -24.851680      -676.2486
   3   2.0000     -24.851237      -676.2365
   4   2.0000     -24.851199      -676.2355
   5   2.0000      -4.720695      -128.4567
   6   2.0000      -4.720487      -128.4510
   7   2.0000      -4.719948      -128.4363
   8   2.0000      -4.718670      -128.4015
   9   2.0000      -4.717425      -128.3677
  10   2.0000      -4.709827      -128.1609
  11   2.0000      -4.709630      -128.1556
  12   2.0000      -4.709348      -128.1479
  13   2.0000      -4.706829      -128.0793
  14   2.0000      -4.706768      -128.0777
  15   2.0000      -4.705357      -128.0393
  16   2.0000      -4.705009      -128.0298
  17   2.0000      -4.704894      -128.0267
  18   2.0000      -4.704588      -128.0184
  19   2.0000      -4.703144      -127.9791
  20   2.0000      -4.699782      -127.8876
  21   2.0000      -3.850844      -104.7868
  22   2.0000      -2.760268       -75.1107
  23   2.0000      -2.759505       -75.0899
  24   2.0000      -2.758494       -75.0624
  25   2.0000      -2.757994       -75.0488
  26   2.0000      -2.757605       -75.0382
  27   2.0000      -2.756595       -75.0108
  28   2.0000      -2.755433       -74.9792
  29   2.0000      -2.754746       -74.9605
  30   2.0000      -2.753937       -74.9384
  31   2.0000      -2.753330       -74.9219
  32   2.0000      -2.752276       -74.8932
  33   2.0000      -2.751474       -74.8714
  34   2.0000      -2.751326       -74.8674
  35   2.0000      -2.750471       -74.8441
  36   2.0000      -2.750074       -74.8333
  37   2.0000      -2.749881       -74.8281
  38   2.0000      -2.749330       -74.8131
  39   2.0000      -2.748826       -74.7994
  40   2.0000      -2.747404       -74.7607
  41   2.0000      -2.746634       -74.7397
  42   2.0000      -2.746240       -74.7290
  43   2.0000      -2.745863       -74.7187
  44   2.0000      -2.745290       -74.7031
  45   2.0000      -2.745082       -74.6975
  46   2.0000      -2.744288       -74.6759
  47   2.0000      -2.744093       -74.6706
  48   2.0000      -2.743787       -74.6622
  49   2.0000      -2.743653       -74.6586
  50   2.0000      -2.743147       -74.6448
  51   2.0000      -2.742973       -74.6401
  52   2.0000      -2.742616       -74.6304
  53   2.0000      -2.741944       -74.6121
  54   2.0000      -2.740784       -74.5805
  55   2.0000      -2.740558       -74.5744
  56   2.0000      -2.740041       -74.5603
  57   2.0000      -2.739678       -74.5504
  58   2.0000      -2.739307       -74.5403
  59   2.0000      -2.739146       -74.5360
  60   2.0000      -2.738991       -74.5317
  61   2.0000      -2.738618       -74.5216
  62   2.0000      -2.738582       -74.5206
  63   2.0000      -2.737818       -74.4998
  64   2.0000      -2.737572       -74.4931
  65   2.0000      -2.736714       -74.4698
  66   2.0000      -2.736484       -74.4635
  67   2.0000      -2.735374       -74.4333
  68   2.0000      -2.734637       -74.4132
  69   2.0000      -2.732286       -74.3493
  70   2.0000      -2.517612       -68.5077
  71   2.0000      -2.515901       -68.4611
  72   2.0000      -2.515624       -68.4536
  73   2.0000      -0.560214       -15.2442
  74   2.0000      -0.556367       -15.1395
  75   2.0000      -0.555983       -15.1291
  76   2.0000      -0.551446       -15.0056
  77   2.0000      -0.549353       -14.9486
  78   2.0000      -0.546841       -14.8803
  79   2.0000      -0.545646       -14.8478
  80   2.0000      -0.545234       -14.8366
  81   2.0000      -0.544114       -14.8061
  82   2.0000      -0.542506       -14.7623
  83   2.0000      -0.539167       -14.6715
  84   2.0000      -0.538962       -14.6659
  85   2.0000      -0.538504       -14.6535
  86   2.0000      -0.536809       -14.6073
  87   2.0000      -0.535724       -14.5778
  88   2.0000      -0.533620       -14.5205
  89   2.0000      -0.531928       -14.4745
  90   2.0000      -0.529847       -14.4179
  91   2.0000      -0.527342       -14.3497
  92   2.0000      -0.524696       -14.2777
  93   2.0000      -0.523735       -14.2516
  94   2.0000      -0.522821       -14.2267
  95   2.0000      -0.522003       -14.2044
  96   2.0000      -0.519285       -14.1305
  97   2.0000      -0.517466       -14.0810
  98   2.0000      -0.516797       -14.0628
  99   2.0000      -0.513077       -13.9615
 100   2.0000      -0.511727       -13.9248
 101   2.0000      -0.509322       -13.8594
 102   2.0000      -0.506358       -13.7787
 103   2.0000      -0.499971       -13.6049
 104   2.0000      -0.498059       -13.5529
 105   2.0000      -0.492411       -13.3992
 106   2.0000      -0.489984       -13.3331
 107   2.0000      -0.489405       -13.3174
 108   2.0000      -0.484922       -13.1954
 109   2.0000      -0.484089       -13.1727
 110   2.0000      -0.481371       -13.0988
 111   2.0000      -0.478567       -13.0225
 112   2.0000      -0.477613       -12.9965
 113   2.0000      -0.475860       -12.9488
 114   2.0000      -0.473781       -12.8922
 115   2.0000      -0.470357       -12.7991
 116   2.0000      -0.468540       -12.7496
 117   2.0000      -0.465359       -12.6631
 118   2.0000      -0.464430       -12.6378
 119   2.0000      -0.462820       -12.5940
 120   2.0000      -0.461061       -12.5461
 121   2.0000      -0.458174       -12.4675
 122   2.0000      -0.457607       -12.4521
 123   2.0000      -0.455031       -12.3820
 124   2.0000      -0.451291       -12.2803
 125   2.0000      -0.449664       -12.2360
 126   2.0000      -0.449448       -12.2301
 127   2.0000      -0.448604       -12.2071
 128   2.0000      -0.447657       -12.1814
 129   2.0000      -0.444232       -12.0882
 130   2.0000      -0.440093       -11.9755
 131   2.0000      -0.438210       -11.9243
 132   2.0000      -0.436882       -11.8882
 133   2.0000      -0.434672       -11.8280
 134   2.0000      -0.432515       -11.7693
 135   2.0000      -0.431544       -11.7429
 136   2.0000      -0.429781       -11.6949
 137   2.0000      -0.428454       -11.6588
 138   2.0000      -0.426815       -11.6142
 139   2.0000      -0.425572       -11.5804
 140   2.0000      -0.424376       -11.5479
 141   2.0000      -0.422584       -11.4991
 142   2.0000      -0.421089       -11.4584
 143   2.0000      -0.419783       -11.4229
 144   2.0000      -0.416216       -11.3258
 145   2.0000      -0.414238       -11.2720
 146   2.0000      -0.413377       -11.2486
 147   2.0000      -0.405900       -11.0451
 148   2.0000      -0.405330       -11.0296
 149   2.0000      -0.401556       -10.9269
 150   2.0000      -0.396852       -10.7989
 151   2.0000      -0.394616       -10.7381
 152   2.0000      -0.390811       -10.6345
 153   2.0000      -0.384847       -10.4722
 154   2.0000      -0.376025       -10.2322
 155   2.0000      -0.368668       -10.0320
 156   2.0000      -0.364688        -9.9237
 157   2.0000      -0.270099        -7.3498
 158   2.0000      -0.249079        -6.7778
 159   2.0000      -0.241010        -6.5582
 160   2.0000      -0.236845        -6.4449
 161   2.0000      -0.204674        -5.5695
 162   1.0000      -0.169766        -4.6196
 163   1.0000      -0.170216        -4.6318
 164   1.0000      -0.168456        -4.5839
 165   1.0000      -0.169068        -4.6006
 166   1.0000      -0.172810        -4.7024
 167   0.0000      -0.037673        -1.0251
 168   0.0000      -0.011916        -0.3243
 169   0.0000      -0.008942        -0.2433
 170   0.0000      -0.008053        -0.2191
 171   0.0000      -0.004739        -0.1289

MULLIKEN ATOMIC CHARGES AND SPIN DENSITIES
------------------------------------------
   0 Au:    0.343819    0.000394
   1 Au:   -0.387014    0.008808
   2 Au:    0.549296    0.001146
   3 Au:   -0.898099    0.001602
   4 Au:    0.338390    0.009341
   5 Au:    0.212701   -0.000014
   6 Au:   -0.511541    0.001383
   7 Au:    0.289159    0.000355
   8 Au:    0.114996    0.001285
   9 Au:   -0.316041    0.009321
  10 Au:    0.314902    0.008506
  11 Au:   -0.280476    0.008005
  12 Au:   -0.022309    0.000943
  13 Au:    0.106215    0.001282
  14 Au:    0.547422    0.001033
  15 Au:   -0.680327    0.001323
  16 Mn:    0.278907    3.945286
Sum of atomic charges       :    0.0000000

LOEWDIN ATOMIC CHARGES AND SPIN DENSITIES
-----------------------------------------
   0 Au:    0.035686    0.000594
   1 Au:   -0.152873    0.013631
   2 Au:    0.166964    0.001684
   3 Au:   -0.159229    0.001426
   4 Au:    0.001279    0.014348
   5 Au:    0.053144    0.000222
   6 Au:   -0.108073    0.001247
   7 Au:    0.014854    0.000588
   8 Au:    0.009354    0.001596
   9 Au:   -0.171144    0.013182
  10 Au:   -0.020010    0.013335
  11 Au:   -0.137883    0.012497
  12 Au:   -0.074177    0.001282
  13 Au:    0.012303    0.001630
  14 Au:    0.159783    0.001617
  15 Au:   -0.124369    0.001165
  16 Mn:    0.494390    3.919955

  Mayer bond orders larger than 0.100000
B(  0-Au,  3-Au) :   0.3386 B(  0-Au,  5-Au) :   0.1647 B(  0-Au,  7-Au) :   0.1745
B(  0-Au, 13-Au) :   0.2439 B(  0-Au, 15-Au) :   0.2832 B(  1-Au,  2-Au) :   0.2160
B(  1-Au,  4-Au) :   0.2223 B(  1-Au,  6-Au) :   0.4291 B(  1-Au,  8-Au) :   0.3060
B(  1-Au,  9-Au) :   0.1691 B(  1-Au, 16-Mn) :   0.4187 B(  2-Au,  6-Au) :   0.2630
B(  2-Au,  9-Au) :   0.1728 B(  2-Au, 12-Au) :   0.1665 B(  3-Au,  4-Au) :   0.2918
B(  3-Au,  7-Au) :   0.3920 B(  3-Au,  8-Au) :   0.2807 B(  3-Au, 10-Au) :   0.3292
B(  3-Au, 13-Au) :   0.2792 B(  4-Au,  8-Au) :   0.2059 B(  4-Au, 10-Au) :   0.1961
B(  4-Au, 16-Mn) :   0.3164 B(  5-Au,  6-Au) :   0.2395 B(  5-Au,  7-Au) :   0.1848
B(  5-Au, 12-Au) :   0.2339 B(  5-Au, 15-Au) :   0.2799 B(  6-Au,  7-Au) :   0.2833
B(  6-Au,  8-Au) :   0.2790 B(  6-Au, 12-Au) :   0.2820 B(  7-Au,  8-Au) :   0.2357
B(  9-Au, 11-Au) :   0.1507 B(  9-Au, 12-Au) :   0.3333 B(  9-Au, 14-Au) :   0.2039
B(  9-Au, 15-Au) :   0.1009 B(  9-Au, 16-Mn) :   0.4585 B( 10-Au, 11-Au) :   0.2444
B( 10-Au, 13-Au) :   0.2034 B( 10-Au, 16-Mn) :   0.3161 B( 11-Au, 13-Au) :   0.2790
B( 11-Au, 14-Au) :   0.2053 B( 11-Au, 15-Au) :   0.4053 B( 11-Au, 16-Mn) :   0.4023
B( 12-Au, 14-Au) :   0.1413 B( 12-Au, 15-Au) :   0.2765 B( 13-Au, 15-Au) :   0.3131
B( 14-Au, 15-Au) :   0.2830

FINAL SINGLE POINT ENERGY     -3306.814518674881

DIPOLE MOMENT
-------------
                                X             Y             Z
Electronic contribution:    -47.97250     -44.73618     -97.96985
Nuclear contribution   :     48.81068      44.99236      98.54399
                        -----------------------------------------
Total Dipole Moment    :      0.83818       0.25618       0.57415
                        -----------------------------------------
Magnitude (a.u.)       :      1.04777
Magnitude (Debye)      :      2.66321

Rotational constants in cm-1:     0.000850     0.000804     0.000787
Rotational constants in MHz :    25.493195    24.088324    23.595007

                             ****ORCA TERMINATED NORMALLY****
TOTAL RUN TIME: 0 days 0 hours 24 minutes 36 seconds 825 msec
