                         Program Version 5.0.3 -  RELEASE  -
|  1> !RI-B2PLYP def2-TZVP def2-TZVP/C
|  2> !RIJCOSX
|  3> %pal nprocs 16 end
|  4>
|  5> *xyzfile 0 5 pbe.xyz
|  6>
|  7> $new_job
|  8>
|  9> !RI-B2PLYP def2-TZVP def2-TZVP/C
| 10> !RIJCOSX
| 11> %pal nprocs 16 end
| 12>
| 13> *xyzfile 0 3 pbe.xyz
| 14>
| 15>
| 16>
| 17>
| 18>
| 19>                          ****END OF INPUT****
 Total Charge           Charge          ....    0
 Multiplicity           Mult            ....    5
 Number of Electrons    NEL             ....  292
MP2 TOTAL ENERGY:    -3161.754640159 Eh
FINAL SINGLE POINT ENERGY     -3161.754640158773

CARTESIAN COORDINATES (ANGSTROEM)
---------------------------------
  Au     7.080532    5.283059    7.320395
  Au     8.783703    6.165548    5.404195
  Au     7.157217    8.403894    4.721445
  Au     8.841413   10.444020    6.146051
  Au     9.926650    8.501200    4.507662
  Au     9.653123    6.010096    8.097135
  Au    10.588475    8.531537    7.279928
  Au     6.329151    8.505825    9.394353
  Au     8.010635   10.571223    8.752826
  Au     5.324738    7.392601    6.534137
  Au     7.601467    6.040208   10.032880
  Au     5.000152    6.115183    8.957864
  Au     9.234053    8.259889    9.705848
  Au     6.144287   10.012649    6.749460
  Fe     7.940904    8.005388    7.291902

 Multiplicity           Mult            ....    3
 Number of Electrons    NEL             ....  292
 Basis Dimension        Dim             ....  605

ORBITAL ENERGIES
----------------
                 SPIN UP ORBITALS
  NO   OCC          E(Eh)            E(eV)
   0   1.0000    -258.338498     -7029.7479
   1   1.0000     -30.895503      -840.7094
   2   1.0000     -26.607243      -724.0199
   3   1.0000     -26.599705      -723.8148
   4   1.0000     -26.574785      -723.1367
   5   1.0000      -4.405258      -119.8732
   6   1.0000      -4.404395      -119.8497
   7   1.0000      -4.403882      -119.8357
   8   1.0000      -4.402621      -119.8014
   9   1.0000      -4.400526      -119.7444
  10   1.0000      -4.399576      -119.7186
  11   1.0000      -4.399234      -119.7092
  12   1.0000      -4.398812      -119.6978
  13   1.0000      -4.396638      -119.6386
  14   1.0000      -4.395995      -119.6211
  15   1.0000      -4.395379      -119.6043
  16   1.0000      -4.393644      -119.5571
  17   1.0000      -4.393034      -119.5405
  18   1.0000      -4.390531      -119.4724
  19   1.0000      -3.908343      -106.3514
  20   1.0000      -2.645328       -71.9830
  21   1.0000      -2.629346       -71.5482
  22   1.0000      -2.577409       -70.1349
  23   1.0000      -2.526194       -68.7412
  24   1.0000      -2.525020       -68.7093
  25   1.0000      -2.524706       -68.7007
  26   1.0000      -2.524088       -68.6839
  27   1.0000      -2.523263       -68.6615
  28   1.0000      -2.522124       -68.6305
  29   1.0000      -2.521983       -68.6267
  30   1.0000      -2.521783       -68.6212
  31   1.0000      -2.521188       -68.6050
  32   1.0000      -2.520307       -68.5810
  33   1.0000      -2.520025       -68.5734
  34   1.0000      -2.519571       -68.5610
  35   1.0000      -2.519407       -68.5565
  36   1.0000      -2.518722       -68.5379
  37   1.0000      -2.518385       -68.5287
  38   1.0000      -2.518069       -68.5201
  39   1.0000      -2.517749       -68.5114
  40   1.0000      -2.517226       -68.4972
  41   1.0000      -2.516825       -68.4863
  42   1.0000      -2.515725       -68.4564
  43   1.0000      -2.515474       -68.4495
  44   1.0000      -2.514809       -68.4314
  45   1.0000      -2.514417       -68.4208
  46   1.0000      -2.514223       -68.4155
  47   1.0000      -2.514082       -68.4117
  48   1.0000      -2.513824       -68.4046
  49   1.0000      -2.513346       -68.3916
  50   1.0000      -2.512561       -68.3703
  51   1.0000      -2.512314       -68.3635
  52   1.0000      -2.511981       -68.3545
  53   1.0000      -2.511671       -68.3460
  54   1.0000      -2.510864       -68.3241
  55   1.0000      -2.510622       -68.3175
  56   1.0000      -2.509949       -68.2992
  57   1.0000      -2.509423       -68.2849
  58   1.0000      -2.509257       -68.2804
  59   1.0000      -2.509049       -68.2747
  60   1.0000      -2.508856       -68.2694
  61   1.0000      -2.508644       -68.2637
  62   1.0000      -2.507517       -68.2330
  63   1.0000      -2.506983       -68.2185
  64   1.0000      -2.505465       -68.1772
  65   1.0000      -0.563274       -15.3275
  66   1.0000      -0.557449       -15.1690
  67   1.0000      -0.541336       -14.7305
  68   1.0000      -0.535793       -14.5797
  69   1.0000      -0.515534       -14.0284
  70   1.0000      -0.502836       -13.6829
  71   1.0000      -0.469942       -12.7878
  72   1.0000      -0.469338       -12.7713
  73   1.0000      -0.465854       -12.6765
  74   1.0000      -0.464778       -12.6473
  75   1.0000      -0.462602       -12.5880
  76   1.0000      -0.459457       -12.5025
  77   1.0000      -0.457489       -12.4489
  78   1.0000      -0.456978       -12.4350
  79   1.0000      -0.454734       -12.3739
  80   1.0000      -0.452564       -12.3149
  81   1.0000      -0.451093       -12.2749
  82   1.0000      -0.449775       -12.2390
  83   1.0000      -0.448534       -12.2052
  84   1.0000      -0.446435       -12.1481
  85   1.0000      -0.444028       -12.0826
  86   1.0000      -0.443249       -12.0614
  87   1.0000      -0.441627       -12.0173
  88   1.0000      -0.439815       -11.9680
  89   1.0000      -0.436583       -11.8800
  90   1.0000      -0.434701       -11.8288
  91   1.0000      -0.431587       -11.7441
  92   1.0000      -0.430931       -11.7262
  93   1.0000      -0.430088       -11.7033
  94   1.0000      -0.428097       -11.6491
  95   1.0000      -0.424061       -11.5393
  96   1.0000      -0.420566       -11.4442
  97   1.0000      -0.418471       -11.3872
  98   1.0000      -0.416459       -11.3324
  99   1.0000      -0.413122       -11.2416
 100   1.0000      -0.411495       -11.1973
 101   1.0000      -0.406688       -11.0665
 102   1.0000      -0.405771       -11.0416
 103   1.0000      -0.401810       -10.9338
 104   1.0000      -0.396824       -10.7981
 105   1.0000      -0.392453       -10.6792
 106   1.0000      -0.386102       -10.5064
 107   1.0000      -0.383113       -10.4250
 108   1.0000      -0.382627       -10.4118
 109   1.0000      -0.379197       -10.3185
 110   1.0000      -0.377350       -10.2682
 111   1.0000      -0.376263       -10.2386
 112   1.0000      -0.374991       -10.2040
 113   1.0000      -0.374196       -10.1824
 114   1.0000      -0.372788       -10.1441
 115   1.0000      -0.371638       -10.1128
 116   1.0000      -0.368825       -10.0362
 117   1.0000      -0.368030       -10.0146
 118   1.0000      -0.367270        -9.9939
 119   1.0000      -0.366600        -9.9757
 120   1.0000      -0.364376        -9.9152
 121   1.0000      -0.362296        -9.8586
 122   1.0000      -0.359509        -9.7827
 123   1.0000      -0.358762        -9.7624
 124   1.0000      -0.358343        -9.7510
 125   1.0000      -0.355906        -9.6847
 126   1.0000      -0.352584        -9.5943
 127   1.0000      -0.351162        -9.5556
 128   1.0000      -0.348999        -9.4967
 129   1.0000      -0.348318        -9.4782
 130   1.0000      -0.347011        -9.4427
 131   1.0000      -0.346106        -9.4180
 132   1.0000      -0.344976        -9.3873
 133   1.0000      -0.343814        -9.3556
 134   1.0000      -0.339818        -9.2469
 135   1.0000      -0.337165        -9.1747
 136   1.0000      -0.335794        -9.1374
 137   1.0000      -0.335539        -9.1305
 138   1.0000      -0.333214        -9.0672
 139   1.0000      -0.323057        -8.7908
 140   1.0000      -0.321878        -8.7587
 141   1.0000      -0.313418        -8.5285
 142   1.0000      -0.305622        -8.3164
 143   1.0000      -0.304446        -8.2844
 144   1.0000      -0.246132        -6.6976
 145   1.0000      -0.217862        -5.9283
 146   1.0000      -0.214406        -5.8343
 147   0.0000      -0.134596        -3.6625
 148   0.0000      -0.110058        -2.9948
 149   0.0000      -0.083802        -2.2804
 150   0.0000      -0.069806        -1.8995
 151   0.0000      -0.056047        -1.5251

                 SPIN DOWN ORBITALS
  NO   OCC          E(Eh)            E(eV)
   0   1.0000    -258.336568     -7029.6954
   1   1.0000     -30.803414      -838.2035
   2   1.0000     -26.513499      -721.4690
   3   1.0000     -26.511179      -721.4058
   4   1.0000     -26.504790      -721.2320
   5   1.0000      -4.405963      -119.8923
   6   1.0000      -4.404774      -119.8600
   7   1.0000      -4.404531      -119.8534
   8   1.0000      -4.403282      -119.8194
   9   1.0000      -4.400857      -119.7534
  10   1.0000      -4.400439      -119.7420
  11   1.0000      -4.400038      -119.7311
  12   1.0000      -4.398887      -119.6998
  13   1.0000      -4.397689      -119.6672
  14   1.0000      -4.395878      -119.6179
  15   1.0000      -4.395283      -119.6017
  16   1.0000      -4.394951      -119.5927
  17   1.0000      -4.394599      -119.5831
  18   1.0000      -4.391655      -119.5030
  19   1.0000      -3.665716       -99.7492
  20   1.0000      -2.525945       -68.7345
  21   1.0000      -2.524997       -68.7087
  22   1.0000      -2.524310       -68.6900
  23   1.0000      -2.524187       -68.6866
  24   1.0000      -2.522973       -68.6536
  25   1.0000      -2.522450       -68.6394
  26   1.0000      -2.522224       -68.6332
  27   1.0000      -2.522036       -68.6281
  28   1.0000      -2.520823       -68.5951
  29   1.0000      -2.520523       -68.5869
  30   1.0000      -2.520363       -68.5826
  31   1.0000      -2.519851       -68.5686
  32   1.0000      -2.519553       -68.5605
  33   1.0000      -2.518962       -68.5444
  34   1.0000      -2.518749       -68.5387
  35   1.0000      -2.518207       -68.5239
  36   1.0000      -2.518006       -68.5184
  37   1.0000      -2.517585       -68.5070
  38   1.0000      -2.516812       -68.4859
  39   1.0000      -2.516282       -68.4715
  40   1.0000      -2.515900       -68.4611
  41   1.0000      -2.515505       -68.4504
  42   1.0000      -2.514881       -68.4334
  43   1.0000      -2.514701       -68.4285
  44   1.0000      -2.514196       -68.4148
  45   1.0000      -2.513628       -68.3993
  46   1.0000      -2.513449       -68.3944
  47   1.0000      -2.513176       -68.3870
  48   1.0000      -2.512977       -68.3816
  49   1.0000      -2.512545       -68.3698
  50   1.0000      -2.512164       -68.3595
  51   1.0000      -2.511779       -68.3490
  52   1.0000      -2.511680       -68.3463
  53   1.0000      -2.511431       -68.3395
  54   1.0000      -2.510798       -68.3223
  55   1.0000      -2.510489       -68.3139
  56   1.0000      -2.509746       -68.2937
  57   1.0000      -2.509646       -68.2909
  58   1.0000      -2.509454       -68.2857
  59   1.0000      -2.509170       -68.2780
  60   1.0000      -2.507745       -68.2392
  61   1.0000      -2.506392       -68.2024
  62   1.0000      -2.348039       -63.8934
  63   1.0000      -2.338188       -63.6253
  64   1.0000      -2.334944       -63.5371
  65   1.0000      -0.515878       -14.0377
  66   1.0000      -0.478220       -13.0130
  67   1.0000      -0.474550       -12.9132
  68   1.0000      -0.471582       -12.8324
  69   1.0000      -0.470471       -12.8022
  70   1.0000      -0.469086       -12.7645
  71   1.0000      -0.468425       -12.7465
  72   1.0000      -0.466457       -12.6929
  73   1.0000      -0.464276       -12.6336
  74   1.0000      -0.459966       -12.5163
  75   1.0000      -0.458785       -12.4842
  76   1.0000      -0.457860       -12.4590
  77   1.0000      -0.456612       -12.4250
  78   1.0000      -0.454892       -12.3782
  79   1.0000      -0.453271       -12.3341
  80   1.0000      -0.450650       -12.2628
  81   1.0000      -0.448923       -12.2158
  82   1.0000      -0.448362       -12.2006
  83   1.0000      -0.445817       -12.1313
  84   1.0000      -0.444285       -12.0896
  85   1.0000      -0.443706       -12.0739
  86   1.0000      -0.439179       -11.9507
  87   1.0000      -0.436288       -11.8720
  88   1.0000      -0.433530       -11.7969
  89   1.0000      -0.431908       -11.7528
  90   1.0000      -0.428051       -11.6479
  91   1.0000      -0.424510       -11.5515
  92   1.0000      -0.421555       -11.4711
  93   1.0000      -0.419223       -11.4076
  94   1.0000      -0.416670       -11.3382
  95   1.0000      -0.414118       -11.2687
  96   1.0000      -0.410749       -11.1771
  97   1.0000      -0.409929       -11.1547
  98   1.0000      -0.405951       -11.0465
  99   1.0000      -0.399879       -10.8813
 100   1.0000      -0.397039       -10.8040
 101   1.0000      -0.393324       -10.7029
 102   1.0000      -0.390780       -10.6337
 103   1.0000      -0.387876       -10.5546
 104   1.0000      -0.387078       -10.5329
 105   1.0000      -0.383002       -10.4220
 106   1.0000      -0.380438       -10.3522
 107   1.0000      -0.380055       -10.3418
 108   1.0000      -0.378650       -10.3036
 109   1.0000      -0.377678       -10.2772
 110   1.0000      -0.376435       -10.2433
 111   1.0000      -0.372220       -10.1286
 112   1.0000      -0.371239       -10.1019
 113   1.0000      -0.370108       -10.0711
 114   1.0000      -0.367742       -10.0068
 115   1.0000      -0.365856        -9.9555
 116   1.0000      -0.364655        -9.9228
 117   1.0000      -0.362873        -9.8743
 118   1.0000      -0.361634        -9.8406
 119   1.0000      -0.360357        -9.8058
 120   1.0000      -0.357887        -9.7386
 121   1.0000      -0.355095        -9.6626
 122   1.0000      -0.353875        -9.6294
 123   1.0000      -0.351551        -9.5662
 124   1.0000      -0.350803        -9.5458
 125   1.0000      -0.350486        -9.5372
 126   1.0000      -0.349164        -9.5012
 127   1.0000      -0.347443        -9.4544
 128   1.0000      -0.346295        -9.4232
 129   1.0000      -0.342620        -9.3232
 130   1.0000      -0.341318        -9.2877
 131   1.0000      -0.340668        -9.2700
 132   1.0000      -0.339502        -9.2383
 133   1.0000      -0.336434        -9.1548
 134   1.0000      -0.333914        -9.0863
 135   1.0000      -0.327893        -8.9224
 136   1.0000      -0.324897        -8.8409
 137   1.0000      -0.318031        -8.6541
 138   1.0000      -0.315849        -8.5947
 139   1.0000      -0.314015        -8.5448
 140   1.0000      -0.248032        -6.7493
 141   1.0000      -0.231230        -6.2921
 142   1.0000      -0.228864        -6.2277
 143   1.0000      -0.225033        -6.1234
 144   1.0000      -0.204712        -5.5705
 145   0.0000      -0.084864        -2.3093
 146   0.0000      -0.075209        -2.0465
 147   0.0000      -0.063571        -1.7298
 148   0.0000      -0.054678        -1.4879
 149   0.0000      -0.047929        -1.3042

MULLIKEN ATOMIC CHARGES AND SPIN POPULATIONS
--------------------------------------------
   0 Au:    0.017045   -0.066510
   1 Au:    0.121695   -0.051650
   2 Au:    0.136325   -0.061017
   3 Au:    0.139407   -0.202808
   4 Au:    0.265266   -0.030348
   5 Au:    0.255351   -0.182155
   6 Au:    0.094715   -0.017977
   7 Au:   -0.074014   -0.147825
   8 Au:    0.248431   -0.040927
   9 Au:    0.056321   -0.055805
  10 Au:    0.157608   -0.242098
  11 Au:    0.317230   -0.010435
  12 Au:    0.177397   -0.115379
  13 Au:    0.271960   -0.215287
  14 Fe:   -2.184736    3.440220
Sum of atomic charges         :    0.0000000

LOEWDIN ATOMIC CHARGES AND SPIN POPULATIONS
-------------------------------------------
   0 Au:   -0.023026   -0.098957
   1 Au:    0.017963   -0.070434
   2 Au:    0.010860   -0.079659
   3 Au:    0.002629   -0.128631
   4 Au:    0.073902   -0.069192
   5 Au:    0.040164   -0.136445
   6 Au:    0.024872   -0.064194
   7 Au:   -0.022737   -0.120010
   8 Au:    0.060551   -0.133516
   9 Au:    0.007435   -0.085439
  10 Au:    0.018394   -0.146335
  11 Au:    0.093690   -0.079503
  12 Au:    0.016475   -0.110780
  13 Au:    0.057022   -0.169126
  14 Fe:   -0.378195    3.492220

  Mayer bond orders larger than 0.100000
B(  0-Au,  1-Au) :   0.3257 B(  0-Au,  5-Au) :   0.1617 B(  0-Au,  9-Au) :   0.1780
B(  0-Au, 10-Au) :   0.1611 B(  0-Au, 11-Au) :   0.2818 B(  0-Au, 14-Fe) :   0.3687
B(  1-Au,  2-Au) :   0.1649 B(  1-Au,  4-Au) :   0.2752 B(  1-Au,  5-Au) :   0.1466
B(  1-Au, 14-Fe) :   0.4428 B(  2-Au,  3-Au) :   0.1018 B(  2-Au,  4-Au) :   0.2873
B(  2-Au,  9-Au) :   0.2429 B(  2-Au, 13-Au) :   0.1520 B(  2-Au, 14-Fe) :   0.4195
B(  3-Au,  4-Au) :   0.2497 B(  3-Au,  6-Au) :   0.2170 B(  3-Au,  8-Au) :   0.2633
B(  3-Au, 13-Au) :   0.1542 B(  3-Au, 14-Fe) :   0.3045 B(  4-Au,  6-Au) :   0.1954
B(  4-Au, 14-Fe) :   0.1493 B(  5-Au,  6-Au) :   0.1833 B(  5-Au, 10-Au) :   0.1807
B(  5-Au, 12-Au) :   0.1471 B(  5-Au, 14-Fe) :   0.4519 B(  6-Au, 12-Au) :   0.1566
B(  6-Au, 14-Fe) :   0.4681 B(  7-Au,  8-Au) :   0.2645 B(  7-Au, 10-Au) :   0.2692
B(  7-Au, 11-Au) :   0.2947 B(  7-Au, 12-Au) :   0.1380 B(  7-Au, 13-Au) :   0.1103
B(  7-Au, 14-Fe) :   0.4093 B(  8-Au, 12-Au) :   0.1787 B(  8-Au, 13-Au) :   0.1702
B(  8-Au, 14-Fe) :   0.3684 B(  9-Au, 11-Au) :   0.2679 B(  9-Au, 13-Au) :   0.2157
B(  9-Au, 14-Fe) :   0.4647 B( 10-Au, 11-Au) :   0.1918 B( 10-Au, 12-Au) :   0.2685
B( 10-Au, 14-Fe) :   0.1716 B( 12-Au, 14-Fe) :   0.4552 B( 13-Au, 14-Fe) :   0.4504

MP2 TOTAL ENERGY:    -3161.738813348 Eh
FINAL SINGLE POINT ENERGY     -3161.738813348372

DIPOLE MOMENT
-------------
                                X             Y             Z
Electronic contribution:     -4.13498      -4.96153       4.20725
Nuclear contribution   :      4.08258       5.01367      -4.13844
                        -----------------------------------------
Total Dipole Moment    :     -0.05241       0.05214       0.06881
                        -----------------------------------------
Magnitude (a.u.)       :      0.10099
Magnitude (Debye)      :      0.25670

Rotational constants in cm-1:     0.001254     0.000970     0.000958
Rotational constants in MHz :    37.594930    29.086374    28.731432

                             ****ORCA TERMINATED NORMALLY****
TOTAL RUN TIME: 0 days 0 hours 41 minutes 36 seconds 631 msec
