                         Program Version 5.0.3 -  RELEASE  -
|  1> !PBE def2-TZVP VERYSLOWCONV
|  2>
|  3> %pal nprocs 16 end
|  4>
|  5> *xyzfile 0 5 pbe.xyz
|  6>
|  7> $new_job
|  8>
|  9> !PBE def2-TZVP VERYSLOWCONV
| 10>
| 11>
| 12> %pal nprocs 16 end
| 13>
| 14> *xyzfile 0 3 pbe.xyz
| 15>
| 16>
| 17>
| 18>
| 19>
| 20>                          ****END OF INPUT****
 Total Charge           Charge          ....    0
 Multiplicity           Mult            ....    5
 Number of Electrons    NEL             ....  292
FINAL SINGLE POINT ENERGY     -3165.080746669976

CARTESIAN COORDINATES (ANGSTROEM)
---------------------------------
  Au     7.080532    5.283059    7.320395
  Au     8.783703    6.165548    5.404195
  Au     7.157217    8.403894    4.721445
  Au     8.841413   10.444020    6.146051
  Au     9.926650    8.501200    4.507662
  Au     9.653123    6.010096    8.097135
  Au    10.588475    8.531537    7.279928
  Au     6.329151    8.505825    9.394353
  Au     8.010635   10.571223    8.752826
  Au     5.324738    7.392601    6.534137
  Au     7.601467    6.040208   10.032880
  Au     5.000152    6.115183    8.957864
  Au     9.234053    8.259889    9.705848
  Au     6.144287   10.012649    6.749460
  Fe     7.940904    8.005388    7.291902

 Multiplicity           Mult            ....    3
 Number of Electrons    NEL             ....  292
 Basis Dimension        Dim             ....  605

ORBITAL ENERGIES
----------------
                 SPIN UP ORBITALS
  NO   OCC          E(Eh)            E(eV)
   0   1.0000    -254.746618     -6932.0079
   1   1.0000     -29.579458      -804.8980
   2   1.0000     -25.522306      -694.4972
   3   1.0000     -25.518388      -694.3906
   4   1.0000     -25.505547      -694.0412
   5   1.0000      -4.033390      -109.7541
   6   1.0000      -4.032813      -109.7384
   7   1.0000      -4.032692      -109.7351
   8   1.0000      -4.031925      -109.7143
   9   1.0000      -4.029448      -109.6468
  10   1.0000      -4.028638      -109.6248
  11   1.0000      -4.027944      -109.6059
  12   1.0000      -4.027765      -109.6011
  13   1.0000      -4.027139      -109.5840
  14   1.0000      -4.025109      -109.5288
  15   1.0000      -4.024878      -109.5225
  16   1.0000      -4.023596      -109.4876
  17   1.0000      -4.020392      -109.4004
  18   1.0000      -4.019977      -109.3891
  19   1.0000      -3.356810       -91.3434
  20   1.0000      -2.249149       -61.2025
  21   1.0000      -2.248720       -61.1908
  22   1.0000      -2.248311       -61.1797
  23   1.0000      -2.247784       -61.1653
  24   1.0000      -2.247218       -61.1499
  25   1.0000      -2.246601       -61.1331
  26   1.0000      -2.245947       -61.1153
  27   1.0000      -2.245611       -61.1062
  28   1.0000      -2.245250       -61.0963
  29   1.0000      -2.245099       -61.0923
  30   1.0000      -2.244759       -61.0830
  31   1.0000      -2.244282       -61.0700
  32   1.0000      -2.243864       -61.0586
  33   1.0000      -2.243536       -61.0497
  34   1.0000      -2.243044       -61.0363
  35   1.0000      -2.242559       -61.0231
  36   1.0000      -2.241743       -61.0009
  37   1.0000      -2.241424       -60.9923
  38   1.0000      -2.241240       -60.9872
  39   1.0000      -2.240816       -60.9757
  40   1.0000      -2.240436       -60.9654
  41   1.0000      -2.240064       -60.9552
  42   1.0000      -2.239746       -60.9466
  43   1.0000      -2.239629       -60.9434
  44   1.0000      -2.239389       -60.9369
  45   1.0000      -2.239249       -60.9331
  46   1.0000      -2.238037       -60.9001
  47   1.0000      -2.238000       -60.8991
  48   1.0000      -2.237791       -60.8934
  49   1.0000      -2.237271       -60.8792
  50   1.0000      -2.237213       -60.8777
  51   1.0000      -2.236822       -60.8670
  52   1.0000      -2.236112       -60.8477
  53   1.0000      -2.235552       -60.8325
  54   1.0000      -2.234273       -60.7977
  55   1.0000      -2.234207       -60.7959
  56   1.0000      -2.234100       -60.7930
  57   1.0000      -2.233682       -60.7816
  58   1.0000      -2.233337       -60.7722
  59   1.0000      -2.233007       -60.7632
  60   1.0000      -2.231005       -60.7087
  61   1.0000      -2.230678       -60.6998
  62   1.0000      -2.185054       -59.4583
  63   1.0000      -2.177259       -59.2462
  64   1.0000      -2.150430       -58.5162
  65   1.0000      -0.434624       -11.8267
  66   1.0000      -0.389828       -10.6077
  67   1.0000      -0.385317       -10.4850
  68   1.0000      -0.383307       -10.4303
  69   1.0000      -0.379088       -10.3155
  70   1.0000      -0.373878       -10.1737
  71   1.0000      -0.369978       -10.0676
  72   1.0000      -0.366803        -9.9812
  73   1.0000      -0.365358        -9.9419
  74   1.0000      -0.361212        -9.8291
  75   1.0000      -0.355664        -9.6781
  76   1.0000      -0.354921        -9.6579
  77   1.0000      -0.352239        -9.5849
  78   1.0000      -0.351672        -9.5695
  79   1.0000      -0.349726        -9.5165
  80   1.0000      -0.348159        -9.4739
  81   1.0000      -0.346729        -9.4350
  82   1.0000      -0.345997        -9.4151
  83   1.0000      -0.341471        -9.2919
  84   1.0000      -0.340752        -9.2723
  85   1.0000      -0.340428        -9.2635
  86   1.0000      -0.335795        -9.1375
  87   1.0000      -0.333452        -9.0737
  88   1.0000      -0.332565        -9.0496
  89   1.0000      -0.329762        -8.9733
  90   1.0000      -0.327375        -8.9083
  91   1.0000      -0.324096        -8.8191
  92   1.0000      -0.322004        -8.7622
  93   1.0000      -0.318902        -8.6778
  94   1.0000      -0.317626        -8.6430
  95   1.0000      -0.316028        -8.5996
  96   1.0000      -0.313664        -8.5352
  97   1.0000      -0.311206        -8.4684
  98   1.0000      -0.309013        -8.4087
  99   1.0000      -0.305677        -8.3179
 100   1.0000      -0.302087        -8.2202
 101   1.0000      -0.299341        -8.1455
 102   1.0000      -0.297579        -8.0975
 103   1.0000      -0.294910        -8.0249
 104   1.0000      -0.290237        -7.8977
 105   1.0000      -0.287718        -7.8292
 106   1.0000      -0.285337        -7.7644
 107   1.0000      -0.283328        -7.7097
 108   1.0000      -0.282643        -7.6911
 109   1.0000      -0.281196        -7.6517
 110   1.0000      -0.278344        -7.5741
 111   1.0000      -0.276128        -7.5138
 112   1.0000      -0.275162        -7.4875
 113   1.0000      -0.273914        -7.4536
 114   1.0000      -0.272744        -7.4217
 115   1.0000      -0.271692        -7.3931
 116   1.0000      -0.268494        -7.3061
 117   1.0000      -0.268087        -7.2950
 118   1.0000      -0.266287        -7.2460
 119   1.0000      -0.264430        -7.1955
 120   1.0000      -0.261862        -7.1256
 121   1.0000      -0.261378        -7.1125
 122   1.0000      -0.259556        -7.0629
 123   1.0000      -0.257730        -7.0132
 124   1.0000      -0.257366        -7.0033
 125   1.0000      -0.256107        -6.9690
 126   1.0000      -0.255790        -6.9604
 127   1.0000      -0.255499        -6.9525
 128   1.0000      -0.253758        -6.9051
 129   1.0000      -0.252311        -6.8657
 130   1.0000      -0.250785        -6.8242
 131   1.0000      -0.250220        -6.8088
 132   1.0000      -0.250029        -6.8036
 133   1.0000      -0.248744        -6.7687
 134   1.0000      -0.247733        -6.7412
 135   1.0000      -0.247488        -6.7345
 136   1.0000      -0.245680        -6.6853
 137   1.0000      -0.244973        -6.6661
 138   1.0000      -0.244069        -6.6415
 139   1.0000      -0.243125        -6.6158
 140   1.0000      -0.241560        -6.5732
 141   1.0000      -0.237115        -6.4522
 142   1.0000      -0.233396        -6.3510
 143   1.0000      -0.228807        -6.2262
 144   1.0000      -0.215738        -5.8705
 145   1.0000      -0.198686        -5.4065
 146   1.0000      -0.197497        -5.3742
 147   0.0000      -0.193061        -5.2535
 148   0.0000      -0.176471        -4.8020
 149   0.0000      -0.144025        -3.9191
 150   0.0000      -0.134821        -3.6687
 151   0.0000      -0.122571        -3.3353

                 SPIN DOWN ORBITALS
  NO   OCC          E(Eh)            E(eV)
   0   1.0000    -254.746010     -6931.9914
   1   1.0000     -29.525180      -803.4210
   2   1.0000     -25.478404      -693.3026
   3   1.0000     -25.475594      -693.2262
   4   1.0000     -25.469339      -693.0559
   5   1.0000      -4.033463      -109.7561
   6   1.0000      -4.032918      -109.7413
   7   1.0000      -4.032567      -109.7317
   8   1.0000      -4.032092      -109.7188
   9   1.0000      -4.029421      -109.6461
  10   1.0000      -4.028941      -109.6331
  11   1.0000      -4.028464      -109.6201
  12   1.0000      -4.027941      -109.6058
  13   1.0000      -4.027895      -109.6046
  14   1.0000      -4.024889      -109.5228
  15   1.0000      -4.024784      -109.5199
  16   1.0000      -4.024660      -109.5166
  17   1.0000      -4.021237      -109.4234
  18   1.0000      -4.020894      -109.4141
  19   1.0000      -3.233293       -87.9824
  20   1.0000      -2.249076       -61.2005
  21   1.0000      -2.248901       -61.1957
  22   1.0000      -2.248248       -61.1779
  23   1.0000      -2.247873       -61.1677
  24   1.0000      -2.247022       -61.1446
  25   1.0000      -2.246765       -61.1376
  26   1.0000      -2.245788       -61.1110
  27   1.0000      -2.245728       -61.1094
  28   1.0000      -2.245317       -61.0982
  29   1.0000      -2.245154       -61.0937
  30   1.0000      -2.244853       -61.0856
  31   1.0000      -2.244286       -61.0701
  32   1.0000      -2.243992       -61.0621
  33   1.0000      -2.243814       -61.0573
  34   1.0000      -2.243175       -61.0399
  35   1.0000      -2.242292       -61.0159
  36   1.0000      -2.242151       -61.0120
  37   1.0000      -2.241893       -61.0050
  38   1.0000      -2.241505       -60.9945
  39   1.0000      -2.241480       -60.9938
  40   1.0000      -2.240710       -60.9728
  41   1.0000      -2.240322       -60.9623
  42   1.0000      -2.240051       -60.9549
  43   1.0000      -2.239891       -60.9505
  44   1.0000      -2.239278       -60.9338
  45   1.0000      -2.239197       -60.9317
  46   1.0000      -2.238584       -60.9150
  47   1.0000      -2.238143       -60.9030
  48   1.0000      -2.238001       -60.8991
  49   1.0000      -2.237852       -60.8951
  50   1.0000      -2.237515       -60.8859
  51   1.0000      -2.237376       -60.8821
  52   1.0000      -2.237037       -60.8729
  53   1.0000      -2.236733       -60.8646
  54   1.0000      -2.235006       -60.8176
  55   1.0000      -2.234963       -60.8164
  56   1.0000      -2.234614       -60.8070
  57   1.0000      -2.234509       -60.8041
  58   1.0000      -2.234137       -60.7940
  59   1.0000      -2.233843       -60.7860
  60   1.0000      -2.231742       -60.7288
  61   1.0000      -2.231620       -60.7255
  62   1.0000      -2.056060       -55.9482
  63   1.0000      -2.051733       -55.8305
  64   1.0000      -2.042090       -55.5681
  65   1.0000      -0.431686       -11.7468
  66   1.0000      -0.390748       -10.6328
  67   1.0000      -0.385451       -10.4887
  68   1.0000      -0.383836       -10.4447
  69   1.0000      -0.374064       -10.1788
  70   1.0000      -0.370387       -10.0787
  71   1.0000      -0.368334       -10.0229
  72   1.0000      -0.365866        -9.9557
  73   1.0000      -0.363018        -9.8782
  74   1.0000      -0.358090        -9.7441
  75   1.0000      -0.356269        -9.6946
  76   1.0000      -0.353940        -9.6312
  77   1.0000      -0.352231        -9.5847
  78   1.0000      -0.351712        -9.5706
  79   1.0000      -0.349818        -9.5190
  80   1.0000      -0.347743        -9.4626
  81   1.0000      -0.346816        -9.4374
  82   1.0000      -0.345402        -9.3989
  83   1.0000      -0.342050        -9.3076
  84   1.0000      -0.341155        -9.2833
  85   1.0000      -0.340256        -9.2588
  86   1.0000      -0.336393        -9.1537
  87   1.0000      -0.333994        -9.0884
  88   1.0000      -0.333017        -9.0619
  89   1.0000      -0.330266        -8.9870
  90   1.0000      -0.327854        -8.9214
  91   1.0000      -0.324312        -8.8250
  92   1.0000      -0.322768        -8.7830
  93   1.0000      -0.317468        -8.6388
  94   1.0000      -0.317043        -8.6272
  95   1.0000      -0.315415        -8.5829
  96   1.0000      -0.311031        -8.4636
  97   1.0000      -0.308633        -8.3983
  98   1.0000      -0.306471        -8.3395
  99   1.0000      -0.300880        -8.1874
 100   1.0000      -0.299119        -8.1394
 101   1.0000      -0.296568        -8.0700
 102   1.0000      -0.292478        -7.9587
 103   1.0000      -0.291116        -7.9217
 104   1.0000      -0.288598        -7.8531
 105   1.0000      -0.286359        -7.7922
 106   1.0000      -0.284293        -7.7360
 107   1.0000      -0.282910        -7.6984
 108   1.0000      -0.282194        -7.6789
 109   1.0000      -0.280095        -7.6218
 110   1.0000      -0.278945        -7.5905
 111   1.0000      -0.276059        -7.5119
 112   1.0000      -0.275128        -7.4866
 113   1.0000      -0.273566        -7.4441
 114   1.0000      -0.272665        -7.4196
 115   1.0000      -0.271532        -7.3888
 116   1.0000      -0.268609        -7.3092
 117   1.0000      -0.267696        -7.2844
 118   1.0000      -0.266851        -7.2614
 119   1.0000      -0.265170        -7.2156
 120   1.0000      -0.262247        -7.1361
 121   1.0000      -0.261401        -7.1131
 122   1.0000      -0.259445        -7.0599
 123   1.0000      -0.258151        -7.0246
 124   1.0000      -0.257632        -7.0105
 125   1.0000      -0.256874        -6.9899
 126   1.0000      -0.255517        -6.9530
 127   1.0000      -0.254433        -6.9235
 128   1.0000      -0.253188        -6.8896
 129   1.0000      -0.251597        -6.8463
 130   1.0000      -0.251036        -6.8310
 131   1.0000      -0.250246        -6.8095
 132   1.0000      -0.249034        -6.7766
 133   1.0000      -0.248406        -6.7595
 134   1.0000      -0.247145        -6.7252
 135   1.0000      -0.246239        -6.7005
 136   1.0000      -0.244841        -6.6625
 137   1.0000      -0.239209        -6.5092
 138   1.0000      -0.231939        -6.3114
 139   1.0000      -0.226391        -6.1604
 140   1.0000      -0.211541        -5.7563
 141   1.0000      -0.208703        -5.6791
 142   1.0000      -0.206498        -5.6191
 143   1.0000      -0.194290        -5.2869
 144   1.0000      -0.171776        -4.6743
 145   0.0000      -0.155854        -4.2410
 146   0.0000      -0.152156        -4.1404
 147   0.0000      -0.147762        -4.0208
 148   0.0000      -0.140086        -3.8119
 149   0.0000      -0.138419        -3.7666

MULLIKEN ATOMIC CHARGES AND SPIN POPULATIONS
--------------------------------------------
   0 Au:    0.061759   -0.037334
   1 Au:    0.135451    0.017985
   2 Au:    0.182139   -0.007661
   3 Au:    0.161251   -0.185503
   4 Au:    0.305475   -0.040094
   5 Au:    0.286968   -0.082272
   6 Au:    0.128875    0.021326
   7 Au:   -0.056629   -0.064797
   8 Au:    0.282018   -0.009592
   9 Au:    0.079157   -0.020633
  10 Au:    0.157116   -0.183678
  11 Au:    0.353828   -0.057475
  12 Au:    0.231502   -0.049636
  13 Au:    0.311968   -0.123061
  14 Fe:   -2.620877    2.822427
Sum of atomic charges         :   -0.0000000

LOEWDIN ATOMIC CHARGES AND SPIN POPULATIONS
-------------------------------------------
   0 Au:    0.003704   -0.063754
   1 Au:    0.046427   -0.012405
   2 Au:    0.038074   -0.031612
   3 Au:    0.016360   -0.122266
   4 Au:    0.068179   -0.061622
   5 Au:    0.064301   -0.064299
   6 Au:    0.057057   -0.018144
   7 Au:    0.008463   -0.058122
   8 Au:    0.084304   -0.081033
   9 Au:    0.037223   -0.036106
  10 Au:    0.011892   -0.129786
  11 Au:    0.081539   -0.090916
  12 Au:    0.047940   -0.048689
  13 Au:    0.080007   -0.099273
  14 Fe:   -0.645472    2.918028

  Mayer bond orders larger than 0.100000
B(  0-Au,  1-Au) :   0.3425 B(  0-Au,  5-Au) :   0.1922 B(  0-Au,  9-Au) :   0.1947
B(  0-Au, 10-Au) :   0.2034 B(  0-Au, 11-Au) :   0.2974 B(  0-Au, 14-Fe) :   0.3893
B(  1-Au,  2-Au) :   0.1779 B(  1-Au,  4-Au) :   0.3051 B(  1-Au,  5-Au) :   0.1558
B(  1-Au, 14-Fe) :   0.4766 B(  2-Au,  3-Au) :   0.1302 B(  2-Au,  4-Au) :   0.2993
B(  2-Au,  9-Au) :   0.2409 B(  2-Au, 13-Au) :   0.2025 B(  2-Au, 14-Fe) :   0.4365
B(  3-Au,  4-Au) :   0.2895 B(  3-Au,  6-Au) :   0.2401 B(  3-Au,  8-Au) :   0.2844
B(  3-Au, 13-Au) :   0.1962 B(  3-Au, 14-Fe) :   0.3324 B(  4-Au,  6-Au) :   0.2319
B(  4-Au, 14-Fe) :   0.1463 B(  5-Au,  6-Au) :   0.2010 B(  5-Au, 10-Au) :   0.2310
B(  5-Au, 12-Au) :   0.1836 B(  5-Au, 14-Fe) :   0.4808 B(  6-Au, 12-Au) :   0.1855
B(  6-Au, 14-Fe) :   0.5010 B(  7-Au,  8-Au) :   0.3112 B(  7-Au,  9-Au) :   0.1082
B(  7-Au, 10-Au) :   0.2853 B(  7-Au, 11-Au) :   0.3241 B(  7-Au, 12-Au) :   0.1538
B(  7-Au, 13-Au) :   0.1101 B(  7-Au, 14-Fe) :   0.4796 B(  8-Au, 12-Au) :   0.1990
B(  8-Au, 13-Au) :   0.1880 B(  8-Au, 14-Fe) :   0.3797 B(  9-Au, 11-Au) :   0.2936
B(  9-Au, 13-Au) :   0.2373 B(  9-Au, 14-Fe) :   0.4808 B( 10-Au, 11-Au) :   0.2379
B( 10-Au, 12-Au) :   0.3062 B( 10-Au, 14-Fe) :   0.1824 B( 12-Au, 14-Fe) :   0.4612
B( 13-Au, 14-Fe) :   0.4719

FINAL SINGLE POINT ENERGY     -3165.059009997692

DIPOLE MOMENT
-------------
                                X             Y             Z
Electronic contribution:     -4.11664      -4.89857       4.18571
Nuclear contribution   :      4.08258       5.01367      -4.13844
                        -----------------------------------------
Total Dipole Moment    :     -0.03406       0.11510       0.04727
                        -----------------------------------------
Magnitude (a.u.)       :      0.12901
Magnitude (Debye)      :      0.32791

Rotational constants in cm-1:     0.001254     0.000970     0.000958
Rotational constants in MHz :    37.594930    29.086374    28.731432

                             ****ORCA TERMINATED NORMALLY****
TOTAL RUN TIME: 0 days 0 hours 8 minutes 22 seconds 925 msec
