                         Program Version 5.0.3 -  RELEASE  -
|  1> !SC-NEVPT2 def2-TZVP def2-TZVP/C
|  2> !MOREAD RIJCOSX def2/J
|  3> %maxcore 4000
|  4> %moinp "casscf.gbw"
|  5> %pal nprocs 6 end
|  6>
|  7> %casscf
|  8>  mult 5,3
|  9>  bweight 1,1
| 10>  nroots 5,45
| 11>  nel 6
| 12>  norb 5
| 13>  ptsettings
| 14>   d4tpre 1e-14 # default = 1e-10
| 15>   d3tpre 1e-14
| 16>  end
| 17>  rel
| 18>    dosoc true
| 19>    gtensor true
| 20>  end
| 21> end
| 22>
| 23>
| 24> *xyzfile 0 5 pbe.xyz
| 25>
| 26>
| 27>                          ****END OF INPUT****

CARTESIAN COORDINATES (ANGSTROEM)
---------------------------------
  Au     7.698036   10.395998    8.651329
  Au     6.568950   10.026107    6.090403
  Au     6.899736    8.255673   10.308620
  Au     5.051799    9.502865    8.484804
  Au     9.243782    9.524036    6.510088
  Au     9.462658    8.345064    9.304271
  Au     4.842774    7.740630    6.251100
  Au     7.495042    5.599349    9.114151
  Au     5.044970    6.667613    8.801930
  Au    10.255145    5.653623    8.959514
  Au     8.754402    5.894695    6.673785
  Au     9.919812    7.440922    4.726272
  Au    11.157242    7.673831    7.234275
  Au     7.165044    7.350695    4.948235
  Fe     7.229094    7.906368    7.641625

 Total Charge           Charge          ....    0
 Multiplicity           Mult            ....    5
 Number of Electrons    NEL             ....  292
 Basis Dimension        Dim             ....  605

ORBITAL ENERGIES
----------------

  NO   OCC          E(Eh)            E(eV)
   0   2.0000    -261.402636     -7113.1273
   1   2.0000     -31.963486      -869.7707
   2   2.0000     -27.443688      -746.7807
   3   2.0000     -27.443468      -746.7747
   4   2.0000     -27.443467      -746.7747
   5   2.0000      -4.725516      -128.5878
   6   2.0000      -4.723560      -128.5346
   7   2.0000      -4.720853      -128.4609
   8   2.0000      -4.720772      -128.4587
   9   2.0000      -4.717624      -128.3731
  10   2.0000      -4.717620      -128.3730
  11   2.0000      -4.713029      -128.2480
  12   2.0000      -4.712982      -128.2468
  13   2.0000      -4.712399      -128.2309
  14   2.0000      -4.712181      -128.2250
  15   2.0000      -4.709960      -128.1645
  16   2.0000      -4.709937      -128.1639
  17   2.0000      -4.706183      -128.0618
  18   2.0000      -4.704417      -128.0137
  19   2.0000      -4.197252      -114.2130
  20   2.0000      -2.777115       -75.5691
  21   2.0000      -2.776543       -75.5536
  22   2.0000      -2.775835       -75.5343
  23   2.0000      -2.764689       -75.2310
  24   2.0000      -2.763335       -75.1942
  25   2.0000      -2.762182       -75.1628
  26   2.0000      -2.761793       -75.1522
  27   2.0000      -2.760114       -75.1065
  28   2.0000      -2.759576       -75.0919
  29   2.0000      -2.759023       -75.0768
  30   2.0000      -2.758268       -75.0563
  31   2.0000      -2.757404       -75.0328
  32   2.0000      -2.757009       -75.0220
  33   2.0000      -2.756382       -75.0050
  34   2.0000      -2.756280       -75.0022
  35   2.0000      -2.754806       -74.9621
  36   2.0000      -2.754148       -74.9442
  37   2.0000      -2.753816       -74.9351
  38   2.0000      -2.753106       -74.9158
  39   2.0000      -2.750810       -74.8533
  40   2.0000      -2.750540       -74.8460
  41   2.0000      -2.749955       -74.8301
  42   2.0000      -2.749653       -74.8219
  43   2.0000      -2.749635       -74.8214
  44   2.0000      -2.748967       -74.8032
  45   2.0000      -2.748598       -74.7931
  46   2.0000      -2.748403       -74.7879
  47   2.0000      -2.748145       -74.7808
  48   2.0000      -2.747518       -74.7638
  49   2.0000      -2.746616       -74.7392
  50   2.0000      -2.746411       -74.7337
  51   2.0000      -2.746141       -74.7263
  52   2.0000      -2.746130       -74.7260
  53   2.0000      -2.745923       -74.7204
  54   2.0000      -2.744716       -74.6875
  55   2.0000      -2.744384       -74.6785
  56   2.0000      -2.743973       -74.6673
  57   2.0000      -2.743404       -74.6518
  58   2.0000      -2.743264       -74.6480
  59   2.0000      -2.742724       -74.6333
  60   2.0000      -2.739962       -74.5582
  61   2.0000      -2.739777       -74.5531
  62   2.0000      -2.739503       -74.5457
  63   2.0000      -2.739474       -74.5449
  64   2.0000      -2.738006       -74.5049
  65   2.0000      -0.591397       -16.0927
  66   2.0000      -0.561020       -15.2661
  67   2.0000      -0.560020       -15.2389
  68   2.0000      -0.555277       -15.1099
  69   2.0000      -0.554410       -15.0863
  70   2.0000      -0.551022       -14.9941
  71   2.0000      -0.548496       -14.9253
  72   2.0000      -0.547847       -14.9077
  73   2.0000      -0.547127       -14.8881
  74   2.0000      -0.543675       -14.7941
  75   2.0000      -0.542433       -14.7604
  76   2.0000      -0.541698       -14.7404
  77   2.0000      -0.541479       -14.7344
  78   2.0000      -0.541103       -14.7241
  79   2.0000      -0.536273       -14.5927
  80   2.0000      -0.534761       -14.5516
  81   2.0000      -0.533166       -14.5082
  82   2.0000      -0.531350       -14.4588
  83   2.0000      -0.531016       -14.4497
  84   2.0000      -0.528328       -14.3765
  85   2.0000      -0.524812       -14.2809
  86   2.0000      -0.522012       -14.2047
  87   2.0000      -0.517403       -14.0792
  88   2.0000      -0.516924       -14.0662
  89   2.0000      -0.515337       -14.0230
  90   2.0000      -0.511163       -13.9095
  91   2.0000      -0.506793       -13.7905
  92   2.0000      -0.505392       -13.7524
  93   2.0000      -0.504177       -13.7194
  94   2.0000      -0.496943       -13.5225
  95   2.0000      -0.493173       -13.4199
  96   2.0000      -0.488806       -13.3011
  97   2.0000      -0.487701       -13.2710
  98   2.0000      -0.483867       -13.1667
  99   2.0000      -0.480695       -13.0804
 100   2.0000      -0.479295       -13.0423
 101   2.0000      -0.473359       -12.8808
 102   2.0000      -0.467724       -12.7274
 103   2.0000      -0.464758       -12.6467
 104   2.0000      -0.464619       -12.6429
 105   2.0000      -0.462337       -12.5808
 106   2.0000      -0.461397       -12.5553
 107   2.0000      -0.458491       -12.4762
 108   2.0000      -0.457854       -12.4588
 109   2.0000      -0.456633       -12.4256
 110   2.0000      -0.453919       -12.3518
 111   2.0000      -0.452041       -12.3007
 112   2.0000      -0.450742       -12.2653
 113   2.0000      -0.450298       -12.2532
 114   2.0000      -0.448749       -12.2111
 115   2.0000      -0.446742       -12.1565
 116   2.0000      -0.445105       -12.1119
 117   2.0000      -0.442810       -12.0495
 118   2.0000      -0.442055       -12.0289
 119   2.0000      -0.441069       -12.0021
 120   2.0000      -0.438503       -11.9323
 121   2.0000      -0.437031       -11.8922
 122   2.0000      -0.436675       -11.8825
 123   2.0000      -0.433339       -11.7918
 124   2.0000      -0.431748       -11.7485
 125   2.0000      -0.429861       -11.6971
 126   2.0000      -0.427993       -11.6463
 127   2.0000      -0.427202       -11.6248
 128   2.0000      -0.423584       -11.5263
 129   2.0000      -0.422698       -11.5022
 130   2.0000      -0.415470       -11.3055
 131   2.0000      -0.415094       -11.2953
 132   2.0000      -0.413549       -11.2532
 133   2.0000      -0.405749       -11.0410
 134   2.0000      -0.398074       -10.8322
 135   2.0000      -0.386874       -10.5274
 136   2.0000      -0.384559       -10.4644
 137   2.0000      -0.356007        -9.6875
 138   2.0000      -0.338814        -9.2196
 139   2.0000      -0.261091        -7.1046
 140   2.0000      -0.245634        -6.6840
 141   2.0000      -0.233027        -6.3410
 142   2.0000      -0.226965        -6.1760
 143   1.2000      -0.279252        -7.5988
 144   1.2000      -0.275047        -7.4844
 145   1.2000      -0.276664        -7.5284
 146   1.2000      -0.272798        -7.4232
 147   1.2000      -0.266967        -7.2646
 148   0.0000      -0.046710        -1.2710
 149   0.0000      -0.017405        -0.4736
 150   0.0000      -0.011014        -0.2997
 151   0.0000      -0.005448        -0.1482
 152   0.0000       0.006538         0.1779

MULLIKEN ATOMIC CHARGES AND SPIN DENSITIES
------------------------------------------
   0 Au:    0.420137    0.005505
   1 Au:    0.366765    0.006637
   2 Au:    0.366838    0.006622
   3 Au:    0.147827    0.005626
   4 Au:   -0.311738    0.008711
   5 Au:   -0.311486    0.008735
   6 Au:    0.257044    0.006618
   7 Au:    0.014207    0.007956
   8 Au:    0.257360    0.006624
   9 Au:    0.372744    0.003419
  10 Au:   -0.195849    0.008436
  11 Au:    0.372444    0.003424
  12 Au:    0.156729    0.003664
  13 Au:    0.014179    0.007946
  14 Fe:   -1.927200    2.910078
Sum of atomic charges       :    0.0000000

LOEWDIN ATOMIC CHARGES AND SPIN DENSITIES
-----------------------------------------
   0 Au:    0.026382    0.008268
   1 Au:    0.051250    0.008591
   2 Au:    0.051287    0.008573
   3 Au:   -0.011633    0.007246
   4 Au:   -0.064811    0.009856
   5 Au:   -0.064760    0.009881
   6 Au:    0.046220    0.008524
   7 Au:    0.012578    0.009841
   8 Au:    0.046074    0.008535
   9 Au:    0.103514    0.004133
  10 Au:   -0.090133    0.012226
  11 Au:    0.103304    0.004135
  12 Au:   -0.006999    0.004520
  13 Au:    0.012637    0.009830
  14 Fe:   -0.214911    2.885840

  Mayer bond orders larger than 0.100000
B(  0-Au,  1-Au) :   0.1812 B(  0-Au,  2-Au) :   0.1816 B(  0-Au,  3-Au) :   0.2187
B(  0-Au,  4-Au) :   0.1674 B(  0-Au,  5-Au) :   0.1666 B(  0-Au, 14-Fe) :   0.2752
B(  1-Au,  3-Au) :   0.1392 B(  1-Au,  4-Au) :   0.2780 B(  1-Au,  6-Au) :   0.1129
B(  1-Au, 14-Fe) :   0.4092 B(  2-Au,  3-Au) :   0.1404 B(  2-Au,  5-Au) :   0.2780
B(  2-Au,  8-Au) :   0.1123 B(  2-Au, 14-Fe) :   0.4086 B(  3-Au,  6-Au) :   0.1318
B(  3-Au,  8-Au) :   0.1318 B(  3-Au, 14-Fe) :   0.3768 B(  4-Au,  5-Au) :   0.1339
B(  4-Au, 11-Au) :   0.1741 B(  4-Au, 12-Au) :   0.3417 B(  4-Au, 14-Fe) :   0.4576
B(  5-Au,  9-Au) :   0.1729 B(  5-Au, 12-Au) :   0.3422 B(  5-Au, 14-Fe) :   0.4583
B(  6-Au,  8-Au) :   0.1321 B(  6-Au, 13-Au) :   0.3323 B(  6-Au, 14-Fe) :   0.3643
B(  7-Au,  8-Au) :   0.3327 B(  7-Au,  9-Au) :   0.2395 B(  7-Au, 10-Au) :   0.2690
B(  7-Au, 14-Fe) :   0.4685 B(  8-Au, 14-Fe) :   0.3644 B(  9-Au, 10-Au) :   0.3824
B(  9-Au, 12-Au) :   0.1664 B( 10-Au, 11-Au) :   0.3814 B( 10-Au, 12-Au) :   0.1472
B( 10-Au, 13-Au) :   0.2694 B( 10-Au, 14-Fe) :   0.2298 B( 11-Au, 12-Au) :   0.1666
B( 11-Au, 13-Au) :   0.2391 B( 13-Au, 14-Fe) :   0.4682

FINAL SINGLE POINT ENERGY     -3156.787497947048

DIPOLE MOMENT
-------------
                                X             Y             Z
Electronic contribution:     22.79885      -1.85047      -2.59119
Nuclear contribution   :    -22.77657       1.68546       2.51974
                        -----------------------------------------
Total Dipole Moment    :      0.02228      -0.16502      -0.07145
                        -----------------------------------------
Magnitude (a.u.)       :      0.18119
Magnitude (Debye)      :      0.46056

Rotational constants in cm-1:     0.001256     0.000989     0.000872
Rotational constants in MHz :    37.657135    29.662957    26.154449

                             ****ORCA TERMINATED NORMALLY****
TOTAL RUN TIME: 0 days 2 hours 57 minutes 44 seconds 808 msec
