                         Program Version 5.0.3 -  RELEASE  -
|  1> %pal nprocs 16 end
|  2>
|  3> !PBE def2-TZVP UNO
|  4> !SLOWCONV
|  5>
|  6> *xyzfile 0 5 pbe.xyz
|  7>
|  8>                          ****END OF INPUT****

CARTESIAN COORDINATES (ANGSTROEM)
---------------------------------
  Au     7.698036   10.395998    8.651329
  Au     6.568950   10.026107    6.090403
  Au     6.899736    8.255673   10.308620
  Au     5.051799    9.502865    8.484804
  Au     9.243782    9.524036    6.510088
  Au     9.462658    8.345064    9.304271
  Au     4.842774    7.740630    6.251100
  Au     7.495042    5.599349    9.114151
  Au     5.044970    6.667613    8.801930
  Au    10.255145    5.653623    8.959514
  Au     8.754402    5.894695    6.673785
  Au     9.919812    7.440922    4.726272
  Au    11.157242    7.673831    7.234275
  Au     7.165044    7.350695    4.948235
  Fe     7.229094    7.906368    7.641625

 Total Charge           Charge          ....    0
 Multiplicity           Mult            ....    5
 Number of Electrons    NEL             ....  292
 Basis Dimension        Dim             ....  605

ORBITAL ENERGIES
----------------
                 SPIN UP ORBITALS
  NO   OCC          E(Eh)            E(eV)
   0   1.0000    -254.774383     -6932.7634
   1   1.0000     -29.614771      -805.8589
   2   1.0000     -25.557061      -695.4430
   3   1.0000     -25.547098      -695.1719
   4   1.0000     -25.544605      -695.1040
   5   1.0000      -4.037576      -109.8680
   6   1.0000      -4.034626      -109.7878
   7   1.0000      -4.030274      -109.6693
   8   1.0000      -4.030244      -109.6685
   9   1.0000      -4.029055      -109.6362
  10   1.0000      -4.029000      -109.6347
  11   1.0000      -4.028586      -109.6234
  12   1.0000      -4.028564      -109.6228
  13   1.0000      -4.024268      -109.5059
  14   1.0000      -4.024126      -109.5020
  15   1.0000      -4.023679      -109.4899
  16   1.0000      -4.021774      -109.4380
  17   1.0000      -4.021730      -109.4368
  18   1.0000      -4.020187      -109.3949
  19   1.0000      -3.394402       -92.3664
  20   1.0000      -2.254205       -61.3400
  21   1.0000      -2.252526       -61.2943
  22   1.0000      -2.249819       -61.2207
  23   1.0000      -2.248822       -61.1936
  24   1.0000      -2.248291       -61.1791
  25   1.0000      -2.246415       -61.1281
  26   1.0000      -2.246010       -61.1170
  27   1.0000      -2.245838       -61.1124
  28   1.0000      -2.245687       -61.1083
  29   1.0000      -2.245542       -61.1043
  30   1.0000      -2.244181       -61.0673
  31   1.0000      -2.244071       -61.0643
  32   1.0000      -2.242991       -61.0349
  33   1.0000      -2.242855       -61.0312
  34   1.0000      -2.242470       -61.0207
  35   1.0000      -2.241994       -61.0078
  36   1.0000      -2.241822       -61.0031
  37   1.0000      -2.241537       -60.9953
  38   1.0000      -2.240428       -60.9651
  39   1.0000      -2.240016       -60.9539
  40   1.0000      -2.240002       -60.9536
  41   1.0000      -2.239692       -60.9451
  42   1.0000      -2.239554       -60.9414
  43   1.0000      -2.238733       -60.9190
  44   1.0000      -2.238418       -60.9105
  45   1.0000      -2.237375       -60.8821
  46   1.0000      -2.237107       -60.8748
  47   1.0000      -2.236934       -60.8701
  48   1.0000      -2.236467       -60.8574
  49   1.0000      -2.236375       -60.8549
  50   1.0000      -2.236289       -60.8525
  51   1.0000      -2.235667       -60.8356
  52   1.0000      -2.235411       -60.8286
  53   1.0000      -2.235178       -60.8223
  54   1.0000      -2.234769       -60.8112
  55   1.0000      -2.233716       -60.7825
  56   1.0000      -2.233636       -60.7803
  57   1.0000      -2.233526       -60.7773
  58   1.0000      -2.232856       -60.7591
  59   1.0000      -2.232570       -60.7513
  60   1.0000      -2.232538       -60.7505
  61   1.0000      -2.229440       -60.6661
  62   1.0000      -2.222723       -60.4834
  63   1.0000      -2.202149       -59.9235
  64   1.0000      -2.197897       -59.8078
  65   1.0000      -0.437354       -11.9010
  66   1.0000      -0.395894       -10.7728
  67   1.0000      -0.389148       -10.5893
  68   1.0000      -0.387020       -10.5313
  69   1.0000      -0.378516       -10.2999
  70   1.0000      -0.376757       -10.2521
  71   1.0000      -0.376025       -10.2322
  72   1.0000      -0.374397       -10.1878
  73   1.0000      -0.366797        -9.9811
  74   1.0000      -0.365117        -9.9353
  75   1.0000      -0.358617        -9.7585
  76   1.0000      -0.352841        -9.6013
  77   1.0000      -0.352554        -9.5935
  78   1.0000      -0.352121        -9.5817
  79   1.0000      -0.349695        -9.5157
  80   1.0000      -0.347149        -9.4464
  81   1.0000      -0.345610        -9.4045
  82   1.0000      -0.343491        -9.3469
  83   1.0000      -0.343159        -9.3378
  84   1.0000      -0.340489        -9.2652
  85   1.0000      -0.339457        -9.2371
  86   1.0000      -0.338360        -9.2072
  87   1.0000      -0.334994        -9.1156
  88   1.0000      -0.330832        -9.0024
  89   1.0000      -0.329342        -8.9619
  90   1.0000      -0.328865        -8.9489
  91   1.0000      -0.327816        -8.9203
  92   1.0000      -0.321902        -8.7594
  93   1.0000      -0.321623        -8.7518
  94   1.0000      -0.319901        -8.7049
  95   1.0000      -0.319313        -8.6889
  96   1.0000      -0.317897        -8.6504
  97   1.0000      -0.308327        -8.3900
  98   1.0000      -0.308231        -8.3874
  99   1.0000      -0.303621        -8.2620
 100   1.0000      -0.301648        -8.2083
 101   1.0000      -0.299533        -8.1507
 102   1.0000      -0.297494        -8.0952
 103   1.0000      -0.293004        -7.9730
 104   1.0000      -0.291728        -7.9383
 105   1.0000      -0.291133        -7.9221
 106   1.0000      -0.285633        -7.7725
 107   1.0000      -0.285046        -7.7565
 108   1.0000      -0.282819        -7.6959
 109   1.0000      -0.281181        -7.6513
 110   1.0000      -0.280943        -7.6448
 111   1.0000      -0.279101        -7.5947
 112   1.0000      -0.279036        -7.5930
 113   1.0000      -0.277117        -7.5407
 114   1.0000      -0.273230        -7.4350
 115   1.0000      -0.272795        -7.4231
 116   1.0000      -0.270757        -7.3677
 117   1.0000      -0.270073        -7.3491
 118   1.0000      -0.268942        -7.3183
 119   1.0000      -0.267863        -7.2889
 120   1.0000      -0.267014        -7.2658
 121   1.0000      -0.265861        -7.2344
 122   1.0000      -0.265103        -7.2138
 123   1.0000      -0.261441        -7.1142
 124   1.0000      -0.261265        -7.1094
 125   1.0000      -0.261133        -7.1058
 126   1.0000      -0.260681        -7.0935
 127   1.0000      -0.258994        -7.0476
 128   1.0000      -0.258664        -7.0386
 129   1.0000      -0.256168        -6.9707
 130   1.0000      -0.255797        -6.9606
 131   1.0000      -0.254146        -6.9157
 132   1.0000      -0.253652        -6.9022
 133   1.0000      -0.253242        -6.8911
 134   1.0000      -0.252156        -6.8615
 135   1.0000      -0.252115        -6.8604
 136   1.0000      -0.249844        -6.7986
 137   1.0000      -0.248078        -6.7506
 138   1.0000      -0.246395        -6.7047
 139   1.0000      -0.243800        -6.6341
 140   1.0000      -0.243652        -6.6301
 141   1.0000      -0.240970        -6.5571
 142   1.0000      -0.238328        -6.4852
 143   1.0000      -0.229734        -6.2514
 144   1.0000      -0.218415        -5.9434
 145   1.0000      -0.212806        -5.7907
 146   1.0000      -0.197436        -5.3725
 147   1.0000      -0.192989        -5.2515
 148   0.0000      -0.173310        -4.7160
 149   0.0000      -0.142889        -3.8882
 150   0.0000      -0.134623        -3.6633
 151   0.0000      -0.132701        -3.6110
 152   0.0000      -0.123713        -3.3664

                 SPIN DOWN ORBITALS
  NO   OCC          E(Eh)            E(eV)
   0   1.0000    -254.773657     -6932.7436
   1   1.0000     -29.552887      -804.1750
   2   1.0000     -25.506815      -694.0757
   3   1.0000     -25.501569      -693.9330
   4   1.0000     -25.500169      -693.8949
   5   1.0000      -4.036400      -109.8360
   6   1.0000      -4.034359      -109.7805
   7   1.0000      -4.029325      -109.6435
   8   1.0000      -4.029294      -109.6427
   9   1.0000      -4.028469      -109.6202
  10   1.0000      -4.028416      -109.6188
  11   1.0000      -4.028050      -109.6088
  12   1.0000      -4.028025      -109.6081
  13   1.0000      -4.023648      -109.4890
  14   1.0000      -4.023504      -109.4851
  15   1.0000      -4.023160      -109.4758
  16   1.0000      -4.021842      -109.4399
  17   1.0000      -4.021798      -109.4387
  18   1.0000      -4.020182      -109.3947
  19   1.0000      -3.255080       -88.5752
  20   1.0000      -2.253197       -61.3126
  21   1.0000      -2.250820       -61.2479
  22   1.0000      -2.249179       -61.2033
  23   1.0000      -2.248267       -61.1785
  24   1.0000      -2.247755       -61.1645
  25   1.0000      -2.245690       -61.1083
  26   1.0000      -2.245367       -61.0996
  27   1.0000      -2.244998       -61.0895
  28   1.0000      -2.244798       -61.0841
  29   1.0000      -2.244417       -61.0737
  30   1.0000      -2.243226       -61.0413
  31   1.0000      -2.243100       -61.0379
  32   1.0000      -2.242260       -61.0150
  33   1.0000      -2.242140       -61.0117
  34   1.0000      -2.241516       -60.9947
  35   1.0000      -2.241300       -60.9889
  36   1.0000      -2.240847       -60.9765
  37   1.0000      -2.240215       -60.9593
  38   1.0000      -2.239893       -60.9506
  39   1.0000      -2.239635       -60.9436
  40   1.0000      -2.239149       -60.9303
  41   1.0000      -2.239069       -60.9282
  42   1.0000      -2.239013       -60.9266
  43   1.0000      -2.237880       -60.8958
  44   1.0000      -2.237604       -60.8883
  45   1.0000      -2.237012       -60.8722
  46   1.0000      -2.236484       -60.8578
  47   1.0000      -2.236383       -60.8551
  48   1.0000      -2.236302       -60.8529
  49   1.0000      -2.236162       -60.8491
  50   1.0000      -2.236018       -60.8451
  51   1.0000      -2.235567       -60.8329
  52   1.0000      -2.235276       -60.8250
  53   1.0000      -2.235007       -60.8176
  54   1.0000      -2.234494       -60.8037
  55   1.0000      -2.233702       -60.7821
  56   1.0000      -2.233444       -60.7751
  57   1.0000      -2.233266       -60.7703
  58   1.0000      -2.232665       -60.7539
  59   1.0000      -2.232636       -60.7531
  60   1.0000      -2.232583       -60.7517
  61   1.0000      -2.229319       -60.6629
  62   1.0000      -2.075840       -56.4865
  63   1.0000      -2.069337       -56.3095
  64   1.0000      -2.068731       -56.2930
  65   1.0000      -0.432846       -11.7784
  66   1.0000      -0.394933       -10.7467
  67   1.0000      -0.385961       -10.5025
  68   1.0000      -0.385112       -10.4794
  69   1.0000      -0.370400       -10.0791
  70   1.0000      -0.367840       -10.0094
  71   1.0000      -0.367513       -10.0005
  72   1.0000      -0.366843        -9.9823
  73   1.0000      -0.363913        -9.9026
  74   1.0000      -0.358353        -9.7513
  75   1.0000      -0.355696        -9.6790
  76   1.0000      -0.352050        -9.5798
  77   1.0000      -0.350423        -9.5355
  78   1.0000      -0.349862        -9.5202
  79   1.0000      -0.347941        -9.4679
  80   1.0000      -0.343714        -9.3529
  81   1.0000      -0.342351        -9.3159
  82   1.0000      -0.341595        -9.2953
  83   1.0000      -0.341284        -9.2868
  84   1.0000      -0.337986        -9.1971
  85   1.0000      -0.337858        -9.1936
  86   1.0000      -0.337103        -9.1731
  87   1.0000      -0.333838        -9.0842
  88   1.0000      -0.329622        -8.9695
  89   1.0000      -0.328784        -8.9467
  90   1.0000      -0.325234        -8.8501
  91   1.0000      -0.321697        -8.7538
  92   1.0000      -0.320155        -8.7119
  93   1.0000      -0.318287        -8.6610
  94   1.0000      -0.314949        -8.5702
  95   1.0000      -0.309076        -8.4104
  96   1.0000      -0.308863        -8.4046
  97   1.0000      -0.305619        -8.3163
  98   1.0000      -0.303967        -8.2714
  99   1.0000      -0.300295        -8.1714
 100   1.0000      -0.295351        -8.0369
 101   1.0000      -0.290306        -7.8996
 102   1.0000      -0.288622        -7.8538
 103   1.0000      -0.285734        -7.7752
 104   1.0000      -0.284683        -7.7466
 105   1.0000      -0.283749        -7.7212
 106   1.0000      -0.283306        -7.7092
 107   1.0000      -0.281130        -7.6499
 108   1.0000      -0.281065        -7.6482
 109   1.0000      -0.279027        -7.5927
 110   1.0000      -0.278186        -7.5698
 111   1.0000      -0.276233        -7.5167
 112   1.0000      -0.275113        -7.4862
 113   1.0000      -0.275016        -7.4836
 114   1.0000      -0.271882        -7.3983
 115   1.0000      -0.270907        -7.3717
 116   1.0000      -0.269208        -7.3255
 117   1.0000      -0.268796        -7.3143
 118   1.0000      -0.267403        -7.2764
 119   1.0000      -0.265242        -7.2176
 120   1.0000      -0.262852        -7.1526
 121   1.0000      -0.262045        -7.1306
 122   1.0000      -0.260546        -7.0898
 123   1.0000      -0.259974        -7.0743
 124   1.0000      -0.259667        -7.0659
 125   1.0000      -0.259580        -7.0635
 126   1.0000      -0.257150        -6.9974
 127   1.0000      -0.254710        -6.9310
 128   1.0000      -0.254371        -6.9218
 129   1.0000      -0.251516        -6.8441
 130   1.0000      -0.251346        -6.8395
 131   1.0000      -0.249266        -6.7829
 132   1.0000      -0.248814        -6.7706
 133   1.0000      -0.245728        -6.6866
 134   1.0000      -0.244518        -6.6537
 135   1.0000      -0.243680        -6.6309
 136   1.0000      -0.240716        -6.5502
 137   1.0000      -0.238863        -6.4998
 138   1.0000      -0.230510        -6.2725
 139   1.0000      -0.221018        -6.0142
 140   1.0000      -0.216486        -5.8909
 141   1.0000      -0.207092        -5.6352
 142   1.0000      -0.205267        -5.5856
 143   1.0000      -0.192970        -5.2510
 144   0.0000      -0.174737        -4.7548
 145   0.0000      -0.169765        -4.6195
 146   0.0000      -0.169617        -4.6155
 147   0.0000      -0.160927        -4.3790
 148   0.0000      -0.154983        -4.2173

MULLIKEN ATOMIC CHARGES AND SPIN POPULATIONS
--------------------------------------------
   0 Au:    0.397143    0.001153
   1 Au:    0.317698    0.015930
   2 Au:    0.317769    0.016145
   3 Au:    0.219066    0.100059
   4 Au:   -0.209099    0.126777
   5 Au:   -0.209088    0.127148
   6 Au:    0.292814    0.074290
   7 Au:    0.092895    0.076596
   8 Au:    0.293064    0.074464
   9 Au:    0.338465    0.035164
  10 Au:   -0.101177    0.046604
  11 Au:    0.337662    0.034970
  12 Au:    0.185770    0.060419
  13 Au:    0.092868    0.076565
  14 Fe:   -2.365850    3.133717
Sum of atomic charges         :   -0.0000000

LOEWDIN ATOMIC CHARGES AND SPIN POPULATIONS
-------------------------------------------
   0 Au:    0.069015    0.029758
   1 Au:    0.068859    0.027261
   2 Au:    0.068839    0.027356
   3 Au:    0.025485    0.068176
   4 Au:   -0.014640    0.079275
   5 Au:   -0.014481    0.079514
   6 Au:    0.065181    0.045337
   7 Au:    0.043338    0.038312
   8 Au:    0.065165    0.045492
   9 Au:    0.075635    0.037777
  10 Au:   -0.019378    0.062706
  11 Au:    0.075423    0.037625
  12 Au:   -0.001207    0.062477
  13 Au:    0.043371    0.038168
  14 Fe:   -0.550603    3.320765

  Mayer bond orders larger than 0.100000
B(  0-Au,  1-Au) :   0.1850 B(  0-Au,  2-Au) :   0.1853 B(  0-Au,  3-Au) :   0.2343
B(  0-Au,  4-Au) :   0.2295 B(  0-Au,  5-Au) :   0.2283 B(  0-Au, 14-Fe) :   0.3565
B(  1-Au,  3-Au) :   0.1918 B(  1-Au,  4-Au) :   0.2617 B(  1-Au,  6-Au) :   0.1419
B(  1-Au, 14-Fe) :   0.5249 B(  2-Au,  3-Au) :   0.1928 B(  2-Au,  5-Au) :   0.2621
B(  2-Au,  8-Au) :   0.1415 B(  2-Au, 14-Fe) :   0.5241 B(  3-Au,  6-Au) :   0.1659
B(  3-Au,  8-Au) :   0.1658 B(  3-Au, 14-Fe) :   0.4619 B(  4-Au,  5-Au) :   0.1423
B(  4-Au, 11-Au) :   0.2417 B(  4-Au, 12-Au) :   0.3376 B(  4-Au, 14-Fe) :   0.5422
B(  5-Au,  9-Au) :   0.2403 B(  5-Au, 12-Au) :   0.3383 B(  5-Au, 14-Fe) :   0.5434
B(  6-Au,  8-Au) :   0.2229 B(  6-Au, 13-Au) :   0.3210 B(  6-Au, 14-Fe) :   0.4516
B(  7-Au,  8-Au) :   0.3214 B(  7-Au,  9-Au) :   0.2976 B(  7-Au, 10-Au) :   0.2387
B(  7-Au, 14-Fe) :   0.5061 B(  8-Au, 14-Fe) :   0.4521 B(  9-Au, 10-Au) :   0.3772
B(  9-Au, 12-Au) :   0.2461 B(  9-Au, 14-Fe) :   0.1038 B( 10-Au, 11-Au) :   0.3763
B( 10-Au, 12-Au) :   0.1748 B( 10-Au, 13-Au) :   0.2392 B( 10-Au, 14-Fe) :   0.4597
B( 11-Au, 12-Au) :   0.2460 B( 11-Au, 13-Au) :   0.2971 B( 11-Au, 14-Fe) :   0.1043
B( 13-Au, 14-Fe) :   0.5055

FINAL SINGLE POINT ENERGY     -3165.076278532913

DIPOLE MOMENT
-------------
                                X             Y             Z
Electronic contribution:     22.88274      -1.69733      -2.53311
Nuclear contribution   :    -22.77657       1.68546       2.51974
                        -----------------------------------------
Total Dipole Moment    :      0.10617      -0.01187      -0.01337
                        -----------------------------------------
Magnitude (a.u.)       :      0.10766
Magnitude (Debye)      :      0.27366

Rotational constants in cm-1:     0.001256     0.000989     0.000872
Rotational constants in MHz :    37.657135    29.662957    26.154449

                             ****ORCA TERMINATED NORMALLY****
TOTAL RUN TIME: 0 days 0 hours 2 minutes 1 seconds 198 msec
