                         Program Version 5.0.3 -  RELEASE  -
|  1> !RI-B2PLYP def2-TZVP def2-TZVP/C
|  2> !RIJCOSX VERYSLOWCONV
|  3>
|  4> %scf
|  5>   AutoTRAHIter 200
|  6>   maxiter 400
|  7> end
|  8>
|  9>
| 10> %pal nprocs 6 end
| 11>
| 12> *xyzfile 0 6 pbe.xyz
| 13>
| 14> $new_job
| 15>
| 16> !RI-B2PLYP def2-TZVP def2-TZVP/C
| 17> !RIJCOSX VERYSLOWCONV
| 18>
| 19> %scf
| 20>   AutoTRAHIter 200
| 21>   maxiter 400
| 22> end
| 23>
| 24>
| 25> %pal nprocs 6 end
| 26>
| 27> *xyzfile 0 4 pbe.xyz
| 28>
| 29>
| 30>
| 31>
| 32>
| 33>                          ****END OF INPUT****
 Total Charge           Charge          ....    0
 Multiplicity           Mult            ....    6
 Number of Electrons    NEL             ....  253
MP2 TOTAL ENERGY:    -2777.861372038 Eh
FINAL SINGLE POINT ENERGY     -2777.861372037996

CARTESIAN COORDINATES (ANGSTROEM)
---------------------------------
  Au     8.785617    6.935146    6.402243
  Au    10.920102    8.015935    7.686367
  Au     4.574798    6.635170    8.241733
  Au     9.183718    6.603748    9.247387
  Au     6.668210    5.740199    9.954660
  Au     7.650142    8.251728   10.913516
  Au     5.138809    8.978183    9.755905
  Au     7.579288    9.494702    6.243922
  Au     7.435863   10.300174    9.014758
  Au    10.035678    9.326387   10.036140
  Au     9.705135   10.595438    7.527159
  Au     6.016442    7.165476    5.875926
  Mn     6.961139    7.758495    8.248835

 Multiplicity           Mult            ....    4
 Number of Electrons    NEL             ....  253
 Basis Dimension        Dim             ....  525

ORBITAL ENERGIES
----------------
                 SPIN UP ORBITALS
  NO   OCC          E(Eh)            E(eV)
   0   1.0000    -237.618048     -6465.9158
   1   1.0000     -28.122287      -765.2463
   2   1.0000     -24.040410      -654.1728
   3   1.0000     -24.040239      -654.1682
   4   1.0000     -24.039108      -654.1374
   5   1.0000      -4.407538      -119.9352
   6   1.0000      -4.404491      -119.8523
   7   1.0000      -4.404358      -119.8487
   8   1.0000      -4.403275      -119.8192
   9   1.0000      -4.403155      -119.8159
  10   1.0000      -4.400993      -119.7571
  11   1.0000      -4.395163      -119.5985
  12   1.0000      -4.388638      -119.4209
  13   1.0000      -4.386671      -119.3674
  14   1.0000      -4.386602      -119.3655
  15   1.0000      -4.386012      -119.3495
  16   1.0000      -4.385885      -119.3460
  17   1.0000      -3.600470       -97.9738
  18   1.0000      -2.530364       -68.8547
  19   1.0000      -2.525299       -68.7169
  20   1.0000      -2.524919       -68.7065
  21   1.0000      -2.524806       -68.7035
  22   1.0000      -2.524380       -68.6919
  23   1.0000      -2.523349       -68.6638
  24   1.0000      -2.522775       -68.6482
  25   1.0000      -2.522142       -68.6310
  26   1.0000      -2.521655       -68.6177
  27   1.0000      -2.521199       -68.6053
  28   1.0000      -2.520322       -68.5815
  29   1.0000      -2.520173       -68.5774
  30   1.0000      -2.519788       -68.5669
  31   1.0000      -2.519731       -68.5654
  32   1.0000      -2.518425       -68.5298
  33   1.0000      -2.517407       -68.5021
  34   1.0000      -2.516223       -68.4699
  35   1.0000      -2.515703       -68.4558
  36   1.0000      -2.514317       -68.4180
  37   1.0000      -2.513312       -68.3907
  38   1.0000      -2.512990       -68.3819
  39   1.0000      -2.509674       -68.2917
  40   1.0000      -2.507686       -68.2376
  41   1.0000      -2.507425       -68.2305
  42   1.0000      -2.504621       -68.1542
  43   1.0000      -2.504560       -68.1525
  44   1.0000      -2.504152       -68.1414
  45   1.0000      -2.503472       -68.1229
  46   1.0000      -2.502722       -68.1025
  47   1.0000      -2.502649       -68.1005
  48   1.0000      -2.502035       -68.0838
  49   1.0000      -2.501950       -68.0815
  50   1.0000      -2.501494       -68.0691
  51   1.0000      -2.499772       -68.0222
  52   1.0000      -2.499692       -68.0201
  53   1.0000      -2.499339       -68.0105
  54   1.0000      -2.402618       -65.3786
  55   1.0000      -2.401910       -65.3593
  56   1.0000      -2.400906       -65.3320
  57   1.0000      -0.518626       -14.1125
  58   1.0000      -0.513561       -13.9747
  59   1.0000      -0.511093       -13.9075
  60   1.0000      -0.507087       -13.7985
  61   1.0000      -0.506721       -13.7886
  62   1.0000      -0.490319       -13.3423
  63   1.0000      -0.463204       -12.6044
  64   1.0000      -0.459304       -12.4983
  65   1.0000      -0.456375       -12.4186
  66   1.0000      -0.454669       -12.3722
  67   1.0000      -0.454000       -12.3540
  68   1.0000      -0.450733       -12.2651
  69   1.0000      -0.448615       -12.2074
  70   1.0000      -0.447828       -12.1860
  71   1.0000      -0.446703       -12.1554
  72   1.0000      -0.441547       -12.0151
  73   1.0000      -0.440154       -11.9772
  74   1.0000      -0.439336       -11.9550
  75   1.0000      -0.438651       -11.9363
  76   1.0000      -0.431658       -11.7460
  77   1.0000      -0.431593       -11.7442
  78   1.0000      -0.430366       -11.7109
  79   1.0000      -0.420479       -11.4418
  80   1.0000      -0.419905       -11.4262
  81   1.0000      -0.419790       -11.4231
  82   1.0000      -0.416696       -11.3389
  83   1.0000      -0.414331       -11.2745
  84   1.0000      -0.408230       -11.1085
  85   1.0000      -0.407815       -11.0972
  86   1.0000      -0.407127       -11.0785
  87   1.0000      -0.402416       -10.9503
  88   1.0000      -0.401008       -10.9120
  89   1.0000      -0.399783       -10.8786
  90   1.0000      -0.394464       -10.7339
  91   1.0000      -0.392248       -10.6736
  92   1.0000      -0.391501       -10.6533
  93   1.0000      -0.387600       -10.5471
  94   1.0000      -0.384365       -10.4591
  95   1.0000      -0.382623       -10.4117
  96   1.0000      -0.377300       -10.2669
  97   1.0000      -0.376342       -10.2408
  98   1.0000      -0.373642       -10.1673
  99   1.0000      -0.371702       -10.1145
 100   1.0000      -0.371654       -10.1132
 101   1.0000      -0.368006       -10.0140
 102   1.0000      -0.366588        -9.9754
 103   1.0000      -0.365351        -9.9417
 104   1.0000      -0.365152        -9.9363
 105   1.0000      -0.363731        -9.8976
 106   1.0000      -0.362658        -9.8684
 107   1.0000      -0.360886        -9.8202
 108   1.0000      -0.358463        -9.7543
 109   1.0000      -0.356403        -9.6982
 110   1.0000      -0.351957        -9.5772
 111   1.0000      -0.351831        -9.5738
 112   1.0000      -0.351062        -9.5529
 113   1.0000      -0.346171        -9.4198
 114   1.0000      -0.345950        -9.4138
 115   1.0000      -0.342231        -9.3126
 116   1.0000      -0.342190        -9.3115
 117   1.0000      -0.338468        -9.2102
 118   1.0000      -0.337931        -9.1956
 119   1.0000      -0.333872        -9.0851
 120   1.0000      -0.331573        -9.0225
 121   1.0000      -0.326526        -8.8852
 122   1.0000      -0.318596        -8.6694
 123   1.0000      -0.318479        -8.6663
 124   1.0000      -0.297787        -8.1032
 125   1.0000      -0.281206        -7.6520
 126   1.0000      -0.227561        -6.1922
 127   1.0000      -0.214452        -5.8355
 128   0.0000      -0.135229        -3.6798
 129   0.0000      -0.092083        -2.5057
 130   0.0000      -0.088573        -2.4102
 131   0.0000      -0.062674        -1.7055
 132   0.0000      -0.057829        -1.5736

                 SPIN DOWN ORBITALS
  NO   OCC          E(Eh)            E(eV)
   0   1.0000    -237.616005     -6465.8602
   1   1.0000     -28.021777      -762.5113
   2   1.0000     -23.948052      -651.6596
   3   1.0000     -23.947610      -651.6476
   4   1.0000     -23.947105      -651.6338
   5   1.0000      -4.407204      -119.9261
   6   1.0000      -4.405173      -119.8709
   7   1.0000      -4.405037      -119.8671
   8   1.0000      -4.402662      -119.8025
   9   1.0000      -4.402540      -119.7992
  10   1.0000      -4.401230      -119.7635
  11   1.0000      -4.396697      -119.6402
  12   1.0000      -4.388011      -119.4038
  13   1.0000      -4.387129      -119.3798
  14   1.0000      -4.386996      -119.3762
  15   1.0000      -4.386436      -119.3610
  16   1.0000      -4.386352      -119.3587
  17   1.0000      -3.317833       -90.2828
  18   1.0000      -2.528255       -68.7973
  19   1.0000      -2.524096       -68.6841
  20   1.0000      -2.523943       -68.6800
  21   1.0000      -2.523743       -68.6746
  22   1.0000      -2.523004       -68.6544
  23   1.0000      -2.522382       -68.6375
  24   1.0000      -2.522194       -68.6324
  25   1.0000      -2.521633       -68.6171
  26   1.0000      -2.521596       -68.6161
  27   1.0000      -2.521025       -68.6006
  28   1.0000      -2.520221       -68.5787
  29   1.0000      -2.519709       -68.5648
  30   1.0000      -2.519453       -68.5578
  31   1.0000      -2.519118       -68.5487
  32   1.0000      -2.518159       -68.5226
  33   1.0000      -2.517574       -68.5067
  34   1.0000      -2.515946       -68.4624
  35   1.0000      -2.515520       -68.4508
  36   1.0000      -2.515302       -68.4449
  37   1.0000      -2.513746       -68.4025
  38   1.0000      -2.513576       -68.3979
  39   1.0000      -2.507591       -68.2350
  40   1.0000      -2.506156       -68.1960
  41   1.0000      -2.506080       -68.1939
  42   1.0000      -2.505181       -68.1695
  43   1.0000      -2.505005       -68.1647
  44   1.0000      -2.504958       -68.1634
  45   1.0000      -2.504762       -68.1580
  46   1.0000      -2.504654       -68.1551
  47   1.0000      -2.503819       -68.1324
  48   1.0000      -2.502828       -68.1054
  49   1.0000      -2.501439       -68.0676
  50   1.0000      -2.500599       -68.0448
  51   1.0000      -2.500139       -68.0323
  52   1.0000      -2.500047       -68.0297
  53   1.0000      -2.499780       -68.0225
  54   1.0000      -2.079703       -56.5916
  55   1.0000      -2.077899       -56.5425
  56   1.0000      -2.077261       -56.5251
  57   1.0000      -0.493708       -13.4345
  58   1.0000      -0.470056       -12.7909
  59   1.0000      -0.466835       -12.7032
  60   1.0000      -0.466640       -12.6979
  61   1.0000      -0.465473       -12.6662
  62   1.0000      -0.458989       -12.4897
  63   1.0000      -0.456410       -12.4195
  64   1.0000      -0.454293       -12.3619
  65   1.0000      -0.452551       -12.3145
  66   1.0000      -0.449552       -12.2329
  67   1.0000      -0.445259       -12.1161
  68   1.0000      -0.444715       -12.1013
  69   1.0000      -0.443359       -12.0644
  70   1.0000      -0.442230       -12.0337
  71   1.0000      -0.437967       -11.9177
  72   1.0000      -0.434699       -11.8287
  73   1.0000      -0.432641       -11.7727
  74   1.0000      -0.432191       -11.7605
  75   1.0000      -0.429276       -11.6812
  76   1.0000      -0.424977       -11.5642
  77   1.0000      -0.424336       -11.5468
  78   1.0000      -0.421801       -11.4778
  79   1.0000      -0.418502       -11.3880
  80   1.0000      -0.413467       -11.2510
  81   1.0000      -0.411125       -11.1873
  82   1.0000      -0.410020       -11.1572
  83   1.0000      -0.406768       -11.0687
  84   1.0000      -0.405698       -11.0396
  85   1.0000      -0.399859       -10.8807
  86   1.0000      -0.398779       -10.8513
  87   1.0000      -0.396951       -10.8016
  88   1.0000      -0.394353       -10.7309
  89   1.0000      -0.391744       -10.6599
  90   1.0000      -0.388963       -10.5842
  91   1.0000      -0.384996       -10.4763
  92   1.0000      -0.379242       -10.3197
  93   1.0000      -0.375900       -10.2288
  94   1.0000      -0.374335       -10.1862
  95   1.0000      -0.373978       -10.1765
  96   1.0000      -0.373375       -10.1600
  97   1.0000      -0.372070       -10.1245
  98   1.0000      -0.370571       -10.0838
  99   1.0000      -0.368734       -10.0338
 100   1.0000      -0.367370        -9.9966
 101   1.0000      -0.367025        -9.9873
 102   1.0000      -0.365105        -9.9350
 103   1.0000      -0.360650        -9.8138
 104   1.0000      -0.359316        -9.7775
 105   1.0000      -0.355022        -9.6606
 106   1.0000      -0.354133        -9.6365
 107   1.0000      -0.352978        -9.6050
 108   1.0000      -0.351733        -9.5711
 109   1.0000      -0.347567        -9.4578
 110   1.0000      -0.346834        -9.4378
 111   1.0000      -0.345499        -9.4015
 112   1.0000      -0.341655        -9.2969
 113   1.0000      -0.339427        -9.2363
 114   1.0000      -0.338012        -9.1978
 115   1.0000      -0.335446        -9.1279
 116   1.0000      -0.327436        -8.9100
 117   1.0000      -0.325323        -8.8525
 118   1.0000      -0.320132        -8.7112
 119   1.0000      -0.315342        -8.5809
 120   1.0000      -0.293289        -7.9808
 121   1.0000      -0.236476        -6.4348
 122   1.0000      -0.232443        -6.3251
 123   1.0000      -0.226561        -6.1651
 124   1.0000      -0.180312        -4.9065
 125   0.0000      -0.099207        -2.6996
 126   0.0000      -0.076744        -2.0883
 127   0.0000      -0.069561        -1.8929
 128   0.0000      -0.058749        -1.5987
 129   0.0000      -0.058370        -1.5883

MULLIKEN ATOMIC CHARGES AND SPIN POPULATIONS
--------------------------------------------
   0 Au:    0.150950   -0.099472
   1 Au:    0.121591   -0.038251
   2 Au:    0.164571    0.006849
   3 Au:   -0.099860   -0.149710
   4 Au:    0.283981   -0.041039
   5 Au:    0.120337   -0.252978
   6 Au:    0.284830   -0.042193
   7 Au:    0.150272   -0.098119
   8 Au:   -0.101255   -0.148959
   9 Au:    0.129032   -0.357364
  10 Au:    0.123740   -0.038918
  11 Au:    0.317877   -0.263688
  12 Mn:   -1.646066    4.523841
Sum of atomic charges         :   -0.0000000

LOEWDIN ATOMIC CHARGES AND SPIN POPULATIONS
-------------------------------------------
   0 Au:    0.029580   -0.112560
   1 Au:   -0.000719   -0.111556
   2 Au:    0.031855   -0.061491
   3 Au:   -0.031590   -0.119389
   4 Au:    0.057306   -0.072085
   5 Au:   -0.012597   -0.210508
   6 Au:    0.057008   -0.073125
   7 Au:    0.029170   -0.112113
   8 Au:   -0.031714   -0.119351
   9 Au:    0.039856   -0.212232
  10 Au:    0.000099   -0.111519
  11 Au:    0.120729   -0.170806
  12 Mn:   -0.288984    4.486736

  Mayer bond orders larger than 0.100000
B(  0-Au,  1-Au) :   0.3587 B(  0-Au,  3-Au) :   0.1773 B(  0-Au,  7-Au) :   0.1855
B(  0-Au, 11-Au) :   0.2137 B(  0-Au, 12-Mn) :   0.4260 B(  1-Au,  3-Au) :   0.3380
B(  1-Au,  9-Au) :   0.2402 B(  1-Au, 10-Au) :   0.2162 B(  1-Au, 12-Mn) :   0.1103
B(  2-Au,  4-Au) :   0.1621 B(  2-Au,  6-Au) :   0.1637 B(  2-Au, 11-Au) :   0.1826
B(  2-Au, 12-Mn) :   0.5647 B(  3-Au,  4-Au) :   0.2933 B(  3-Au,  5-Au) :   0.1473
B(  3-Au,  9-Au) :   0.1395 B(  3-Au, 12-Mn) :   0.5225 B(  4-Au,  5-Au) :   0.1735
B(  4-Au, 12-Mn) :   0.4620 B(  5-Au,  6-Au) :   0.1748 B(  5-Au,  8-Au) :   0.1481
B(  5-Au,  9-Au) :   0.3038 B(  5-Au, 12-Mn) :   0.4071 B(  6-Au,  8-Au) :   0.2928
B(  6-Au, 12-Mn) :   0.4602 B(  7-Au,  8-Au) :   0.1796 B(  7-Au, 10-Au) :   0.3589
B(  7-Au, 11-Au) :   0.2132 B(  7-Au, 12-Mn) :   0.4258 B(  8-Au,  9-Au) :   0.1403
B(  8-Au, 10-Au) :   0.3378 B(  8-Au, 12-Mn) :   0.5219 B(  9-Au, 10-Au) :   0.2398
B(  9-Au, 12-Mn) :   0.1021 B( 10-Au, 12-Mn) :   0.1091 B( 11-Au, 12-Mn) :   0.4451

MP2 TOTAL ENERGY:    -2777.828863366 Eh
FINAL SINGLE POINT ENERGY     -2777.828863365904

DIPOLE MOMENT
-------------
                                X             Y             Z
Electronic contribution:     30.67581      14.90228       5.54239
Nuclear contribution   :    -30.80427     -14.97852      -5.80209
                        -----------------------------------------
Total Dipole Moment    :     -0.12846      -0.07623      -0.25970
                        -----------------------------------------
Magnitude (a.u.)       :      0.29959
Magnitude (Debye)      :      0.76151

Rotational constants in cm-1:     0.001600     0.001203     0.001086
Rotational constants in MHz :    47.975621    36.051381    32.548719

                             ****ORCA TERMINATED NORMALLY****
TOTAL RUN TIME: 0 days 0 hours 34 minutes 2 seconds 837 msec
