                         Program Version 5.0.3 -  RELEASE  -
|  1> !PBE def2-TZVP VERYSLOWCONV
|  2> !KDIIS
|  3>
|  4> %scf
|  5>   AutoTRAHIter 200
|  6>   maxiter 400
|  7> end
|  8>
|  9>
| 10> %pal nprocs 6 end
| 11>
| 12> *xyzfile 0 6 pbe.xyz
| 13>
| 14> $new_job
| 15>
| 16> !PBE def2-TZVP VERYSLOWCONV
| 17> !KDIIS
| 18>
| 19> %scf
| 20>   AutoTRAHIter 200
| 21>   maxiter 400
| 22> end
| 23>
| 24>
| 25> %pal nprocs 6 end
| 26>
| 27> *xyzfile 0 4 pbe.xyz
| 28>
| 29>
| 30>
| 31>
| 32>
| 33>                          ****END OF INPUT****
 Total Charge           Charge          ....    0
 Multiplicity           Mult            ....    6
 Number of Electrons    NEL             ....  253
FINAL SINGLE POINT ENERGY     -2780.692522837334

CARTESIAN COORDINATES (ANGSTROEM)
---------------------------------
  Au     8.785617    6.935146    6.402243
  Au    10.920102    8.015935    7.686367
  Au     4.574798    6.635170    8.241733
  Au     9.183718    6.603748    9.247387
  Au     6.668210    5.740199    9.954660
  Au     7.650142    8.251728   10.913516
  Au     5.138809    8.978183    9.755905
  Au     7.579288    9.494702    6.243922
  Au     7.435863   10.300174    9.014758
  Au    10.035678    9.326387   10.036140
  Au     9.705135   10.595438    7.527159
  Au     6.016442    7.165476    5.875926
  Mn     6.961139    7.758495    8.248835

 Multiplicity           Mult            ....    4
 Number of Electrons    NEL             ....  253
 Basis Dimension        Dim             ....  525

ORBITAL ENERGIES
----------------
                 SPIN UP ORBITALS
  NO   OCC          E(Eh)            E(eV)
   0   1.0000    -234.196488     -6372.8104
   1   1.0000     -26.892350      -731.7780
   2   1.0000     -23.043245      -627.0386
   3   1.0000     -23.041343      -626.9868
   4   1.0000     -23.038387      -626.9064
   5   1.0000      -4.033796      -109.7652
   6   1.0000      -4.033741      -109.7637
   7   1.0000      -4.031595      -109.7053
   8   1.0000      -4.030669      -109.6801
   9   1.0000      -4.028464      -109.6201
  10   1.0000      -4.028367      -109.6175
  11   1.0000      -4.020480      -109.4028
  12   1.0000      -4.018657      -109.3532
  13   1.0000      -4.017924      -109.3333
  14   1.0000      -4.017817      -109.3304
  15   1.0000      -4.015831      -109.2763
  16   1.0000      -4.015810      -109.2757
  17   1.0000      -3.100007       -84.3555
  18   1.0000      -2.249841       -61.2213
  19   1.0000      -2.249780       -61.2196
  20   1.0000      -2.249720       -61.2180
  21   1.0000      -2.246217       -61.1227
  22   1.0000      -2.246155       -61.1210
  23   1.0000      -2.245595       -61.1058
  24   1.0000      -2.245531       -61.1040
  25   1.0000      -2.244987       -61.0892
  26   1.0000      -2.244658       -61.0803
  27   1.0000      -2.244325       -61.0712
  28   1.0000      -2.243104       -61.0380
  29   1.0000      -2.242993       -61.0349
  30   1.0000      -2.241769       -61.0016
  31   1.0000      -2.241757       -61.0013
  32   1.0000      -2.241364       -60.9906
  33   1.0000      -2.241014       -60.9811
  34   1.0000      -2.238253       -60.9060
  35   1.0000      -2.236526       -60.8590
  36   1.0000      -2.235693       -60.8363
  37   1.0000      -2.235182       -60.8224
  38   1.0000      -2.233831       -60.7856
  39   1.0000      -2.233236       -60.7694
  40   1.0000      -2.232575       -60.7514
  41   1.0000      -2.232411       -60.7470
  42   1.0000      -2.232293       -60.7438
  43   1.0000      -2.232008       -60.7360
  44   1.0000      -2.231417       -60.7199
  45   1.0000      -2.231337       -60.7178
  46   1.0000      -2.230674       -60.6997
  47   1.0000      -2.230048       -60.6827
  48   1.0000      -2.228532       -60.6414
  49   1.0000      -2.228009       -60.6272
  50   1.0000      -2.227819       -60.6220
  51   1.0000      -2.226100       -60.5752
  52   1.0000      -2.224048       -60.5194
  53   1.0000      -2.223994       -60.5179
  54   1.0000      -2.007066       -54.6150
  55   1.0000      -2.003066       -54.5062
  56   1.0000      -1.997845       -54.3641
  57   1.0000      -0.419146       -11.4055
  58   1.0000      -0.379462       -10.3257
  59   1.0000      -0.377022       -10.2593
  60   1.0000      -0.375947       -10.2300
  61   1.0000      -0.364412        -9.9161
  62   1.0000      -0.362200        -9.8560
  63   1.0000      -0.361304        -9.8316
  64   1.0000      -0.352832        -9.6010
  65   1.0000      -0.351733        -9.5712
  66   1.0000      -0.348116        -9.4727
  67   1.0000      -0.346278        -9.4227
  68   1.0000      -0.344320        -9.3694
  69   1.0000      -0.342828        -9.3288
  70   1.0000      -0.342364        -9.3162
  71   1.0000      -0.341630        -9.2962
  72   1.0000      -0.336555        -9.1581
  73   1.0000      -0.335287        -9.1236
  74   1.0000      -0.330406        -8.9908
  75   1.0000      -0.329335        -8.9617
  76   1.0000      -0.328486        -8.9386
  77   1.0000      -0.326654        -8.8887
  78   1.0000      -0.322745        -8.7823
  79   1.0000      -0.317253        -8.6329
  80   1.0000      -0.316653        -8.6166
  81   1.0000      -0.314863        -8.5679
  82   1.0000      -0.311746        -8.4830
  83   1.0000      -0.308069        -8.3830
  84   1.0000      -0.304851        -8.2954
  85   1.0000      -0.303005        -8.2452
  86   1.0000      -0.301147        -8.1946
  87   1.0000      -0.299972        -8.1627
  88   1.0000      -0.298000        -8.1090
  89   1.0000      -0.296011        -8.0549
  90   1.0000      -0.290677        -7.9097
  91   1.0000      -0.289230        -7.8704
  92   1.0000      -0.284981        -7.7547
  93   1.0000      -0.282532        -7.6881
  94   1.0000      -0.278932        -7.5901
  95   1.0000      -0.278750        -7.5852
  96   1.0000      -0.276570        -7.5258
  97   1.0000      -0.275773        -7.5042
  98   1.0000      -0.275529        -7.4975
  99   1.0000      -0.272263        -7.4086
 100   1.0000      -0.272008        -7.4017
 101   1.0000      -0.269416        -7.3312
 102   1.0000      -0.267854        -7.2887
 103   1.0000      -0.265446        -7.2232
 104   1.0000      -0.264027        -7.1845
 105   1.0000      -0.261565        -7.1175
 106   1.0000      -0.258490        -7.0339
 107   1.0000      -0.257959        -7.0194
 108   1.0000      -0.257659        -7.0113
 109   1.0000      -0.255623        -6.9559
 110   1.0000      -0.253278        -6.8920
 111   1.0000      -0.252796        -6.8789
 112   1.0000      -0.249879        -6.7995
 113   1.0000      -0.248432        -6.7602
 114   1.0000      -0.248362        -6.7583
 115   1.0000      -0.247472        -6.7341
 116   1.0000      -0.246198        -6.6994
 117   1.0000      -0.245289        -6.6747
 118   1.0000      -0.243857        -6.6357
 119   1.0000      -0.241564        -6.5733
 120   1.0000      -0.238020        -6.4769
 121   1.0000      -0.235642        -6.4121
 122   1.0000      -0.234733        -6.3874
 123   1.0000      -0.233109        -6.3432
 124   1.0000      -0.231865        -6.3094
 125   1.0000      -0.229558        -6.2466
 126   1.0000      -0.204753        -5.5716
 127   1.0000      -0.193726        -5.2716
 128   0.0000      -0.195062        -5.3079
 129   0.0000      -0.155935        -4.2432
 130   0.0000      -0.155348        -4.2272
 131   0.0000      -0.131243        -3.5713
 132   0.0000      -0.123417        -3.3583

                 SPIN DOWN ORBITALS
  NO   OCC          E(Eh)            E(eV)
   0   1.0000    -234.195784     -6372.7913
   1   1.0000     -26.828233      -730.0333
   2   1.0000     -22.994362      -625.7084
   3   1.0000     -22.991975      -625.6434
   4   1.0000     -22.990537      -625.6043
   5   1.0000      -4.033815      -109.7657
   6   1.0000      -4.033757      -109.7641
   7   1.0000      -4.030819      -109.6842
   8   1.0000      -4.030674      -109.6802
   9   1.0000      -4.027805      -109.6021
  10   1.0000      -4.027708      -109.5995
  11   1.0000      -4.021258      -109.4240
  12   1.0000      -4.018873      -109.3591
  13   1.0000      -4.018764      -109.3561
  14   1.0000      -4.018021      -109.3359
  15   1.0000      -4.015512      -109.2676
  16   1.0000      -4.015478      -109.2667
  17   1.0000      -2.942903       -80.0805
  18   1.0000      -2.249530       -61.2128
  19   1.0000      -2.249468       -61.2111
  20   1.0000      -2.248326       -61.1801
  21   1.0000      -2.246302       -61.1250
  22   1.0000      -2.246180       -61.1217
  23   1.0000      -2.245637       -61.1069
  24   1.0000      -2.244865       -61.0859
  25   1.0000      -2.244702       -61.0815
  26   1.0000      -2.244435       -61.0742
  27   1.0000      -2.243978       -61.0617
  28   1.0000      -2.243131       -61.0387
  29   1.0000      -2.242309       -61.0163
  30   1.0000      -2.241551       -60.9957
  31   1.0000      -2.241065       -60.9825
  32   1.0000      -2.240703       -60.9726
  33   1.0000      -2.240159       -60.9578
  34   1.0000      -2.238024       -60.8997
  35   1.0000      -2.236825       -60.8671
  36   1.0000      -2.236346       -60.8541
  37   1.0000      -2.234570       -60.8057
  38   1.0000      -2.234070       -60.7921
  39   1.0000      -2.233634       -60.7803
  40   1.0000      -2.233427       -60.7746
  41   1.0000      -2.232971       -60.7622
  42   1.0000      -2.232667       -60.7540
  43   1.0000      -2.232538       -60.7504
  44   1.0000      -2.231517       -60.7227
  45   1.0000      -2.231497       -60.7221
  46   1.0000      -2.230752       -60.7018
  47   1.0000      -2.229440       -60.6661
  48   1.0000      -2.228762       -60.6477
  49   1.0000      -2.227999       -60.6269
  50   1.0000      -2.227139       -60.6035
  51   1.0000      -2.226745       -60.5928
  52   1.0000      -2.224397       -60.5289
  53   1.0000      -2.224334       -60.5272
  54   1.0000      -1.852544       -50.4103
  55   1.0000      -1.846665       -50.2503
  56   1.0000      -1.846257       -50.2392
  57   1.0000      -0.413641       -11.2558
  58   1.0000      -0.377389       -10.2693
  59   1.0000      -0.375758       -10.2249
  60   1.0000      -0.373851       -10.1730
  61   1.0000      -0.363126        -9.8812
  62   1.0000      -0.358373        -9.7518
  63   1.0000      -0.357958        -9.7405
  64   1.0000      -0.352595        -9.5946
  65   1.0000      -0.348350        -9.4791
  66   1.0000      -0.347865        -9.4659
  67   1.0000      -0.345421        -9.3994
  68   1.0000      -0.342571        -9.3218
  69   1.0000      -0.339385        -9.2351
  70   1.0000      -0.338879        -9.2214
  71   1.0000      -0.335806        -9.1377
  72   1.0000      -0.335410        -9.1270
  73   1.0000      -0.332345        -9.0436
  74   1.0000      -0.329313        -8.9610
  75   1.0000      -0.328223        -8.9314
  76   1.0000      -0.325491        -8.8571
  77   1.0000      -0.324229        -8.8227
  78   1.0000      -0.318519        -8.6674
  79   1.0000      -0.318148        -8.6572
  80   1.0000      -0.314331        -8.5534
  81   1.0000      -0.312088        -8.4923
  82   1.0000      -0.308328        -8.3900
  83   1.0000      -0.305731        -8.3194
  84   1.0000      -0.305416        -8.3108
  85   1.0000      -0.300447        -8.1756
  86   1.0000      -0.300356        -8.1731
  87   1.0000      -0.299094        -8.1388
  88   1.0000      -0.296649        -8.0722
  89   1.0000      -0.295430        -8.0390
  90   1.0000      -0.289673        -7.8824
  91   1.0000      -0.288331        -7.8459
  92   1.0000      -0.281807        -7.6684
  93   1.0000      -0.281059        -7.6480
  94   1.0000      -0.277792        -7.5591
  95   1.0000      -0.276575        -7.5260
  96   1.0000      -0.275230        -7.4894
  97   1.0000      -0.275174        -7.4879
  98   1.0000      -0.273842        -7.4516
  99   1.0000      -0.272684        -7.4201
 100   1.0000      -0.271767        -7.3952
 101   1.0000      -0.269682        -7.3384
 102   1.0000      -0.269166        -7.3244
 103   1.0000      -0.265386        -7.2215
 104   1.0000      -0.263865        -7.1801
 105   1.0000      -0.261826        -7.1247
 106   1.0000      -0.259021        -7.0483
 107   1.0000      -0.258441        -7.0325
 108   1.0000      -0.257622        -7.0103
 109   1.0000      -0.256407        -6.9772
 110   1.0000      -0.253258        -6.8915
 111   1.0000      -0.253008        -6.8847
 112   1.0000      -0.250836        -6.8256
 113   1.0000      -0.249217        -6.7815
 114   1.0000      -0.247959        -6.7473
 115   1.0000      -0.247578        -6.7369
 116   1.0000      -0.247507        -6.7350
 117   1.0000      -0.243488        -6.6256
 118   1.0000      -0.241368        -6.5679
 119   1.0000      -0.235116        -6.3978
 120   1.0000      -0.234230        -6.3737
 121   1.0000      -0.212816        -5.7910
 122   1.0000      -0.207400        -5.6437
 123   1.0000      -0.206153        -5.6097
 124   1.0000      -0.170030        -4.6267
 125   0.0000      -0.164137        -4.4664
 126   0.0000      -0.142984        -3.8908
 127   0.0000      -0.141345        -3.8462
 128   0.0000      -0.138248        -3.7619
 129   0.0000      -0.124371        -3.3843

MULLIKEN ATOMIC CHARGES AND SPIN POPULATIONS
--------------------------------------------
   0 Au:    0.160897   -0.028067
   1 Au:    0.150649   -0.039388
   2 Au:    0.246647    0.019371
   3 Au:   -0.036830   -0.132758
   4 Au:    0.315799    0.010465
   5 Au:    0.151403   -0.167073
   6 Au:    0.316205    0.009901
   7 Au:    0.159294   -0.027752
   8 Au:   -0.038873   -0.132496
   9 Au:    0.117507   -0.269967
  10 Au:    0.153371   -0.040232
  11 Au:    0.339516   -0.142425
  12 Mn:   -2.035585    3.940421
Sum of atomic charges         :   -0.0000000

LOEWDIN ATOMIC CHARGES AND SPIN POPULATIONS
-------------------------------------------
   0 Au:    0.055125   -0.049856
   1 Au:    0.007453   -0.093564
   2 Au:    0.060726   -0.022848
   3 Au:    0.000580   -0.085412
   4 Au:    0.086238   -0.031783
   5 Au:    0.013804   -0.148328
   6 Au:    0.085734   -0.032547
   7 Au:    0.054740   -0.049937
   8 Au:    0.000393   -0.085478
   9 Au:    0.025738   -0.170775
  10 Au:    0.008245   -0.093928
  11 Au:    0.134900   -0.090642
  12 Mn:   -0.533675    3.955099

  Mayer bond orders larger than 0.100000
B(  0-Au,  1-Au) :   0.3921 B(  0-Au,  3-Au) :   0.1758 B(  0-Au,  7-Au) :   0.1896
B(  0-Au, 11-Au) :   0.2357 B(  0-Au, 12-Mn) :   0.4791 B(  1-Au,  3-Au) :   0.3401
B(  1-Au,  9-Au) :   0.2710 B(  1-Au, 10-Au) :   0.2586 B(  1-Au, 12-Mn) :   0.1305
B(  2-Au,  4-Au) :   0.1985 B(  2-Au,  6-Au) :   0.1999 B(  2-Au, 11-Au) :   0.2087
B(  2-Au, 12-Mn) :   0.5959 B(  3-Au,  4-Au) :   0.3080 B(  3-Au,  5-Au) :   0.1754
B(  3-Au,  9-Au) :   0.1920 B(  3-Au, 12-Mn) :   0.5670 B(  4-Au,  5-Au) :   0.1924
B(  4-Au, 12-Mn) :   0.5191 B(  5-Au,  6-Au) :   0.1936 B(  5-Au,  8-Au) :   0.1757
B(  5-Au,  9-Au) :   0.3489 B(  5-Au, 12-Mn) :   0.4784 B(  6-Au,  8-Au) :   0.3080
B(  6-Au, 12-Mn) :   0.5169 B(  7-Au,  8-Au) :   0.1781 B(  7-Au, 10-Au) :   0.3920
B(  7-Au, 11-Au) :   0.2357 B(  7-Au, 12-Mn) :   0.4794 B(  8-Au,  9-Au) :   0.1929
B(  8-Au, 10-Au) :   0.3401 B(  8-Au, 12-Mn) :   0.5664 B(  9-Au, 10-Au) :   0.2711
B(  9-Au, 12-Mn) :   0.1354 B( 10-Au, 12-Mn) :   0.1295 B( 11-Au, 12-Mn) :   0.5084

FINAL SINGLE POINT ENERGY     -2780.667346910159

DIPOLE MOMENT
-------------
                                X             Y             Z
Electronic contribution:     30.73493      14.93142       5.56575
Nuclear contribution   :    -30.80427     -14.97852      -5.80209
                        -----------------------------------------
Total Dipole Moment    :     -0.06934      -0.04710      -0.23635
                        -----------------------------------------
Magnitude (a.u.)       :      0.25077
Magnitude (Debye)      :      0.63741

Rotational constants in cm-1:     0.001600     0.001203     0.001086
Rotational constants in MHz :    47.975621    36.051381    32.548719

                             ****ORCA TERMINATED NORMALLY****
TOTAL RUN TIME: 0 days 0 hours 4 minutes 48 seconds 155 msec
