                         Program Version 5.0.3 -  RELEASE  -
|  1> !R2SCAN def2-TZVP VERYSLOWCONV
|  2> !KDIIS
|  3> %scf
|  4>   AutoTRAHIter 200
|  5>   maxiter 400
|  6> end
|  7>
|  8> %pal nprocs 6 end
|  9>
| 10> *xyzfile 0 6 pbe.xyz
| 11>
| 12> $new_job
| 13>
| 14> !R2SCAN def2-TZVP VERYSLOWCONV
| 15> !KDIIS
| 16> %scf
| 17>   AutoTRAHIter 200
| 18>   maxiter 400
| 19> end
| 20>
| 21>
| 22> %pal nprocs 6 end
| 23>
| 24> *xyzfile 0 4 pbe.xyz
| 25>
| 26>
| 27>
| 28>
| 29>
| 30>                          ****END OF INPUT****
 Total Charge           Charge          ....    0
 Multiplicity           Mult            ....    6
 Number of Electrons    NEL             ....  253
FINAL SINGLE POINT ENERGY     -2781.145526515602

CARTESIAN COORDINATES (ANGSTROEM)
---------------------------------
  Au     8.785617    6.935146    6.402243
  Au    10.920102    8.015935    7.686367
  Au     4.574798    6.635170    8.241733
  Au     9.183718    6.603748    9.247387
  Au     6.668210    5.740199    9.954660
  Au     7.650142    8.251728   10.913516
  Au     5.138809    8.978183    9.755905
  Au     7.579288    9.494702    6.243922
  Au     7.435863   10.300174    9.014758
  Au    10.035678    9.326387   10.036140
  Au     9.705135   10.595438    7.527159
  Au     6.016442    7.165476    5.875926
  Mn     6.961139    7.758495    8.248835

 Multiplicity           Mult            ....    4
 Number of Electrons    NEL             ....  253
 Basis Dimension        Dim             ....  525

ORBITAL ENERGIES
----------------
                 SPIN UP ORBITALS
  NO   OCC          E(Eh)            E(eV)
   0   1.0000    -235.037918     -6395.7069
   1   1.0000     -27.217687      -740.6309
   2   1.0000     -23.265968      -633.0992
   3   1.0000     -23.265012      -633.0732
   4   1.0000     -23.262712      -633.0106
   5   1.0000      -4.124647      -112.2374
   6   1.0000      -4.124584      -112.2356
   7   1.0000      -4.123609      -112.2091
   8   1.0000      -4.120517      -112.1250
   9   1.0000      -4.120153      -112.1151
  10   1.0000      -4.120045      -112.1121
  11   1.0000      -4.111235      -111.8724
  12   1.0000      -4.109647      -111.8292
  13   1.0000      -4.108708      -111.8036
  14   1.0000      -4.108597      -111.8006
  15   1.0000      -4.106483      -111.7431
  16   1.0000      -4.106450      -111.7422
  17   1.0000      -3.238644       -88.1280
  18   1.0000      -2.314669       -62.9853
  19   1.0000      -2.313380       -62.9503
  20   1.0000      -2.313315       -62.9485
  21   1.0000      -2.310248       -62.8650
  22   1.0000      -2.310071       -62.8602
  23   1.0000      -2.309949       -62.8569
  24   1.0000      -2.309502       -62.8447
  25   1.0000      -2.308887       -62.8280
  26   1.0000      -2.308252       -62.8107
  27   1.0000      -2.307820       -62.7990
  28   1.0000      -2.307190       -62.7818
  29   1.0000      -2.306416       -62.7608
  30   1.0000      -2.306400       -62.7603
  31   1.0000      -2.305989       -62.7491
  32   1.0000      -2.305851       -62.7454
  33   1.0000      -2.304229       -62.7013
  34   1.0000      -2.302877       -62.6645
  35   1.0000      -2.301057       -62.6149
  36   1.0000      -2.299384       -62.5694
  37   1.0000      -2.298913       -62.5566
  38   1.0000      -2.297546       -62.5194
  39   1.0000      -2.297135       -62.5082
  40   1.0000      -2.296020       -62.4779
  41   1.0000      -2.295922       -62.4752
  42   1.0000      -2.295786       -62.4715
  43   1.0000      -2.295433       -62.4619
  44   1.0000      -2.294668       -62.4411
  45   1.0000      -2.294620       -62.4398
  46   1.0000      -2.294300       -62.4311
  47   1.0000      -2.293518       -62.4098
  48   1.0000      -2.291767       -62.3622
  49   1.0000      -2.291736       -62.3613
  50   1.0000      -2.291189       -62.3464
  51   1.0000      -2.289683       -62.3054
  52   1.0000      -2.287570       -62.2480
  53   1.0000      -2.287510       -62.2463
  54   1.0000      -2.098089       -57.0919
  55   1.0000      -2.095797       -57.0295
  56   1.0000      -2.091861       -56.9224
  57   1.0000      -0.425265       -11.5720
  58   1.0000      -0.387810       -10.5528
  59   1.0000      -0.385766       -10.4972
  60   1.0000      -0.383354       -10.4316
  61   1.0000      -0.374924       -10.2022
  62   1.0000      -0.372006       -10.1228
  63   1.0000      -0.371004       -10.0955
  64   1.0000      -0.362802        -9.8724
  65   1.0000      -0.361669        -9.8415
  66   1.0000      -0.359573        -9.7845
  67   1.0000      -0.355610        -9.6766
  68   1.0000      -0.354899        -9.6573
  69   1.0000      -0.354345        -9.6422
  70   1.0000      -0.351731        -9.5711
  71   1.0000      -0.350644        -9.5415
  72   1.0000      -0.347007        -9.4425
  73   1.0000      -0.344990        -9.3876
  74   1.0000      -0.340678        -9.2703
  75   1.0000      -0.339294        -9.2327
  76   1.0000      -0.337840        -9.1931
  77   1.0000      -0.336089        -9.1454
  78   1.0000      -0.334777        -9.1097
  79   1.0000      -0.326319        -8.8796
  80   1.0000      -0.325295        -8.8517
  81   1.0000      -0.323509        -8.8031
  82   1.0000      -0.321392        -8.7455
  83   1.0000      -0.318452        -8.6655
  84   1.0000      -0.314262        -8.5515
  85   1.0000      -0.312964        -8.5162
  86   1.0000      -0.310137        -8.4392
  87   1.0000      -0.308753        -8.4016
  88   1.0000      -0.307221        -8.3599
  89   1.0000      -0.305821        -8.3218
  90   1.0000      -0.300464        -8.1760
  91   1.0000      -0.298433        -8.1208
  92   1.0000      -0.294284        -8.0079
  93   1.0000      -0.291992        -7.9455
  94   1.0000      -0.288394        -7.8476
  95   1.0000      -0.288178        -7.8417
  96   1.0000      -0.286337        -7.7916
  97   1.0000      -0.284538        -7.7427
  98   1.0000      -0.284329        -7.7370
  99   1.0000      -0.281180        -7.6513
 100   1.0000      -0.280536        -7.6338
 101   1.0000      -0.277969        -7.5639
 102   1.0000      -0.276197        -7.5157
 103   1.0000      -0.274009        -7.4562
 104   1.0000      -0.272774        -7.4225
 105   1.0000      -0.269812        -7.3420
 106   1.0000      -0.267147        -7.2694
 107   1.0000      -0.266567        -7.2536
 108   1.0000      -0.265839        -7.2338
 109   1.0000      -0.263645        -7.1742
 110   1.0000      -0.262582        -7.1452
 111   1.0000      -0.261383        -7.1126
 112   1.0000      -0.260129        -7.0785
 113   1.0000      -0.257665        -7.0114
 114   1.0000      -0.257219        -6.9993
 115   1.0000      -0.256491        -6.9795
 116   1.0000      -0.256147        -6.9701
 117   1.0000      -0.253909        -6.9092
 118   1.0000      -0.253308        -6.8929
 119   1.0000      -0.250690        -6.8216
 120   1.0000      -0.247712        -6.7406
 121   1.0000      -0.246546        -6.7088
 122   1.0000      -0.245435        -6.6786
 123   1.0000      -0.243334        -6.6214
 124   1.0000      -0.239705        -6.5227
 125   1.0000      -0.237104        -6.4519
 126   1.0000      -0.206903        -5.6301
 127   1.0000      -0.196637        -5.3508
 128   0.0000      -0.194116        -5.2822
 129   0.0000      -0.153352        -4.1729
 130   0.0000      -0.151183        -4.1139
 131   0.0000      -0.126613        -3.4453
 132   0.0000      -0.117859        -3.2071

                 SPIN DOWN ORBITALS
  NO   OCC          E(Eh)            E(eV)
   0   1.0000    -235.036894     -6395.6790
   1   1.0000     -27.131052      -738.2735
   2   1.0000     -23.199335      -631.2860
   3   1.0000     -23.197962      -631.2486
   4   1.0000     -23.196968      -631.2216
   5   1.0000      -4.125007      -112.2472
   6   1.0000      -4.124941      -112.2454
   7   1.0000      -4.122874      -112.1891
   8   1.0000      -4.120836      -112.1336
   9   1.0000      -4.119580      -112.0995
  10   1.0000      -4.119471      -112.0965
  11   1.0000      -4.112396      -111.9040
  12   1.0000      -4.109858      -111.8349
  13   1.0000      -4.109744      -111.8318
  14   1.0000      -4.109111      -111.8146
  15   1.0000      -4.106232      -111.7363
  16   1.0000      -4.106185      -111.7350
  17   1.0000      -3.032023       -82.5055
  18   1.0000      -2.313294       -62.9479
  19   1.0000      -2.313210       -62.9456
  20   1.0000      -2.313131       -62.9435
  21   1.0000      -2.310098       -62.8610
  22   1.0000      -2.310028       -62.8591
  23   1.0000      -2.309313       -62.8396
  24   1.0000      -2.308970       -62.8303
  25   1.0000      -2.308818       -62.8261
  26   1.0000      -2.308504       -62.8176
  27   1.0000      -2.307464       -62.7893
  28   1.0000      -2.306996       -62.7766
  29   1.0000      -2.306261       -62.7565
  30   1.0000      -2.305546       -62.7371
  31   1.0000      -2.305295       -62.7303
  32   1.0000      -2.305072       -62.7242
  33   1.0000      -2.304498       -62.7086
  34   1.0000      -2.302571       -62.6561
  35   1.0000      -2.300784       -62.6075
  36   1.0000      -2.300654       -62.6040
  37   1.0000      -2.298515       -62.5458
  38   1.0000      -2.298136       -62.5355
  39   1.0000      -2.297364       -62.5145
  40   1.0000      -2.297033       -62.5054
  41   1.0000      -2.296589       -62.4934
  42   1.0000      -2.296390       -62.4879
  43   1.0000      -2.296348       -62.4868
  44   1.0000      -2.294962       -62.4491
  45   1.0000      -2.294925       -62.4481
  46   1.0000      -2.294447       -62.4351
  47   1.0000      -2.292978       -62.3951
  48   1.0000      -2.292637       -62.3858
  49   1.0000      -2.291270       -62.3486
  50   1.0000      -2.290581       -62.3299
  51   1.0000      -2.290449       -62.3263
  52   1.0000      -2.287847       -62.2555
  53   1.0000      -2.287775       -62.2535
  54   1.0000      -1.892644       -51.5015
  55   1.0000      -1.888729       -51.3949
  56   1.0000      -1.888588       -51.3911
  57   1.0000      -0.420134       -11.4324
  58   1.0000      -0.385349       -10.4859
  59   1.0000      -0.383502       -10.4356
  60   1.0000      -0.381284       -10.3753
  61   1.0000      -0.372358       -10.1324
  62   1.0000      -0.367658       -10.0045
  63   1.0000      -0.366751        -9.9798
  64   1.0000      -0.362017        -9.8510
  65   1.0000      -0.357957        -9.7405
  66   1.0000      -0.356576        -9.7029
  67   1.0000      -0.354646        -9.6504
  68   1.0000      -0.351719        -9.5708
  69   1.0000      -0.349086        -9.4991
  70   1.0000      -0.348431        -9.4813
  71   1.0000      -0.345804        -9.4098
  72   1.0000      -0.344814        -9.3829
  73   1.0000      -0.342596        -9.3225
  74   1.0000      -0.338788        -9.2189
  75   1.0000      -0.338222        -9.2035
  76   1.0000      -0.334574        -9.1042
  77   1.0000      -0.333213        -9.0672
  78   1.0000      -0.328044        -8.9265
  79   1.0000      -0.327257        -8.9051
  80   1.0000      -0.323367        -8.7993
  81   1.0000      -0.321608        -8.7514
  82   1.0000      -0.317682        -8.6446
  83   1.0000      -0.315357        -8.5813
  84   1.0000      -0.314549        -8.5593
  85   1.0000      -0.309344        -8.4177
  86   1.0000      -0.309202        -8.4138
  87   1.0000      -0.307999        -8.3811
  88   1.0000      -0.305563        -8.3148
  89   1.0000      -0.304355        -8.2819
  90   1.0000      -0.298934        -8.1344
  91   1.0000      -0.297629        -8.0989
  92   1.0000      -0.290727        -7.9111
  93   1.0000      -0.289252        -7.8709
  94   1.0000      -0.286380        -7.7928
  95   1.0000      -0.285317        -7.7639
  96   1.0000      -0.283902        -7.7254
  97   1.0000      -0.283717        -7.7203
  98   1.0000      -0.282749        -7.6940
  99   1.0000      -0.281424        -7.6579
 100   1.0000      -0.279959        -7.6181
 101   1.0000      -0.278409        -7.5759
 102   1.0000      -0.278250        -7.5716
 103   1.0000      -0.273802        -7.4505
 104   1.0000      -0.272345        -7.4109
 105   1.0000      -0.269790        -7.3414
 106   1.0000      -0.267525        -7.2797
 107   1.0000      -0.266892        -7.2625
 108   1.0000      -0.265786        -7.2324
 109   1.0000      -0.264206        -7.1894
 110   1.0000      -0.261200        -7.1076
 111   1.0000      -0.260525        -7.0893
 112   1.0000      -0.259103        -7.0506
 113   1.0000      -0.256757        -6.9867
 114   1.0000      -0.255885        -6.9630
 115   1.0000      -0.255091        -6.9414
 116   1.0000      -0.254638        -6.9291
 117   1.0000      -0.250528        -6.8172
 118   1.0000      -0.248333        -6.7575
 119   1.0000      -0.241855        -6.5812
 120   1.0000      -0.240370        -6.5408
 121   1.0000      -0.214987        -5.8501
 122   1.0000      -0.210141        -5.7182
 123   1.0000      -0.207877        -5.6566
 124   1.0000      -0.168827        -4.5940
 125   0.0000      -0.161128        -4.3845
 126   0.0000      -0.138071        -3.7571
 127   0.0000      -0.134080        -3.6485
 128   0.0000      -0.130334        -3.5466
 129   0.0000      -0.111607        -3.0370

MULLIKEN ATOMIC CHARGES AND SPIN POPULATIONS
--------------------------------------------
   0 Au:    0.156800   -0.042122
   1 Au:    0.128706   -0.046007
   2 Au:    0.203762    0.015767
   3 Au:   -0.044922   -0.156245
   4 Au:    0.284992    0.000164
   5 Au:    0.137679   -0.202717
   6 Au:    0.285702   -0.000599
   7 Au:    0.155616   -0.041386
   8 Au:   -0.046711   -0.155613
   9 Au:    0.116227   -0.310588
  10 Au:    0.131049   -0.046860
  11 Au:    0.324642   -0.175482
  12 Mn:   -1.833542    4.161688
Sum of atomic charges         :    0.0000000

LOEWDIN ATOMIC CHARGES AND SPIN POPULATIONS
-------------------------------------------
   0 Au:    0.049775   -0.065451
   1 Au:    0.003761   -0.106652
   2 Au:    0.049873   -0.035335
   3 Au:   -0.006698   -0.106033
   4 Au:    0.076479   -0.042640
   5 Au:    0.004989   -0.171366
   6 Au:    0.076069   -0.043548
   7 Au:    0.049395   -0.065334
   8 Au:   -0.006859   -0.105998
   9 Au:    0.028722   -0.193694
  10 Au:    0.004515   -0.106876
  11 Au:    0.130151   -0.111678
  12 Mn:   -0.460172    4.154605

  Mayer bond orders larger than 0.100000
B(  0-Au,  1-Au) :   0.3906 B(  0-Au,  3-Au) :   0.1603 B(  0-Au,  7-Au) :   0.1832
B(  0-Au, 11-Au) :   0.2297 B(  0-Au, 12-Mn) :   0.4641 B(  1-Au,  3-Au) :   0.3262
B(  1-Au,  9-Au) :   0.2560 B(  1-Au, 10-Au) :   0.2378 B(  1-Au, 12-Mn) :   0.1157
B(  2-Au,  4-Au) :   0.1827 B(  2-Au,  6-Au) :   0.1842 B(  2-Au, 11-Au) :   0.1953
B(  2-Au, 12-Mn) :   0.5778 B(  3-Au,  4-Au) :   0.3039 B(  3-Au,  5-Au) :   0.1496
B(  3-Au,  9-Au) :   0.1651 B(  3-Au, 12-Mn) :   0.5507 B(  4-Au,  5-Au) :   0.1859
B(  4-Au, 12-Mn) :   0.5054 B(  5-Au,  6-Au) :   0.1871 B(  5-Au,  8-Au) :   0.1500
B(  5-Au,  9-Au) :   0.3398 B(  5-Au, 12-Mn) :   0.4406 B(  6-Au,  8-Au) :   0.3041
B(  6-Au, 12-Mn) :   0.5032 B(  7-Au,  8-Au) :   0.1629 B(  7-Au, 10-Au) :   0.3906
B(  7-Au, 11-Au) :   0.2296 B(  7-Au, 12-Mn) :   0.4645 B(  8-Au,  9-Au) :   0.1658
B(  8-Au, 10-Au) :   0.3262 B(  8-Au, 12-Mn) :   0.5499 B(  9-Au, 10-Au) :   0.2560
B(  9-Au, 12-Mn) :   0.1169 B( 10-Au, 12-Mn) :   0.1148 B( 11-Au, 12-Mn) :   0.4906

FINAL SINGLE POINT ENERGY     -2781.116908024470

DIPOLE MOMENT
-------------
                                X             Y             Z
Electronic contribution:     30.72774      14.92648       5.53876
Nuclear contribution   :    -30.80427     -14.97852      -5.80209
                        -----------------------------------------
Total Dipole Moment    :     -0.07653      -0.05203      -0.26333
                        -----------------------------------------
Magnitude (a.u.)       :      0.27912
Magnitude (Debye)      :      0.70946

Rotational constants in cm-1:     0.001600     0.001203     0.001086
Rotational constants in MHz :    47.975621    36.051381    32.548719

                             ****ORCA TERMINATED NORMALLY****
TOTAL RUN TIME: 0 days 0 hours 7 minutes 53 seconds 916 msec
