                         Program Version 5.0.3 -  RELEASE  -
|  1> %pal nprocs 1 end
|  2>
|  3> !PBE def2-TZVP OPT UNO
|  4> !SLOWCONV KDIIS
|  5>
|  6> %geom maxiter 300 end
|  7>
|  8> *xyzfile 0 6 1.xyz                           ****END OF INPUT****
 Total Charge           Charge          ....    0
 Multiplicity           Mult            ....    6
 Number of Electrons    NEL             ....  329
FINAL SINGLE POINT ENERGY     -3324.025424003895
FINAL SINGLE POINT ENERGY     -3324.030536554420
FINAL SINGLE POINT ENERGY     -3324.033896232364
FINAL SINGLE POINT ENERGY     -3324.035529004458
FINAL SINGLE POINT ENERGY     -3324.036558739543
FINAL SINGLE POINT ENERGY     -3324.037239868794
FINAL SINGLE POINT ENERGY     -3324.037695691420
FINAL SINGLE POINT ENERGY     -3324.037959395162
FINAL SINGLE POINT ENERGY     -3324.038032543217
FINAL SINGLE POINT ENERGY     -3324.038071238449
FINAL SINGLE POINT ENERGY     -3324.038094997693
FINAL SINGLE POINT ENERGY     -3324.038109345791
FINAL SINGLE POINT ENERGY     -3324.038118863820
                    ***********************HURRAY********************

CARTESIAN COORDINATES (ANGSTROEM)
---------------------------------
  Au     9.326877    7.658931    8.189430
  Au     8.762021    7.295466    5.545611
  Au     6.317129    7.079788    4.290942
  Au     4.969423    7.026647   10.175521
  Au     7.605943    5.558655    8.849821
  Au     7.039236    5.187380    6.164281
  Au     4.017135    6.416059    5.663252
  Au     9.193222    9.868782    6.505574
  Au     7.322984    9.639048    4.501853
  Au     6.606929   10.824436    6.917203
  Au     8.279638   10.264202    9.070360
  Au     5.600501    9.623573    9.311146
  Au     3.892976   10.796169    7.493490
  Au     3.728672    8.016067    7.904370
  Au     4.800196    9.111570    5.507743
  Au     7.583450    7.899661   10.310206
  Mn     5.198419    5.750440    7.902485

 Multiplicity           Mult            ....    6
 Number of Electrons    NEL             ....  329
 Basis Dimension        Dim             ....  685

ORBITAL ENERGIES
----------------
                 SPIN UP ORBITALS
  NO   OCC          E(Eh)            E(eV)
   0   1.0000    -234.222173     -6373.5093
   1   1.0000     -26.921734      -732.5776
   2   1.0000     -23.071385      -627.8043
   3   1.0000     -23.068834      -627.7349
   4   1.0000     -23.068718      -627.7317
   5   1.0000      -4.043451      -110.0279
   6   1.0000      -4.038588      -109.8956
   7   1.0000      -4.038524      -109.8938
   8   1.0000      -4.031438      -109.7010
   9   1.0000      -4.031210      -109.6948
  10   1.0000      -4.029838      -109.6575
  11   1.0000      -4.029690      -109.6534
  12   1.0000      -4.027091      -109.5827
  13   1.0000      -4.026872      -109.5768
  14   1.0000      -4.026868      -109.5766
  15   1.0000      -4.026326      -109.5619
  16   1.0000      -4.023259      -109.4785
  17   1.0000      -4.021257      -109.4240
  18   1.0000      -4.021244      -109.4236
  19   1.0000      -4.015050      -109.2551
  20   1.0000      -4.014874      -109.2503
  21   1.0000      -3.133836       -85.2760
  22   1.0000      -2.260355       -61.5074
  23   1.0000      -2.257982       -61.4428
  24   1.0000      -2.255344       -61.3710
  25   1.0000      -2.255012       -61.3620
  26   1.0000      -2.251177       -61.2576
  27   1.0000      -2.250296       -61.2337
  28   1.0000      -2.250070       -61.2275
  29   1.0000      -2.249939       -61.2240
  30   1.0000      -2.249036       -61.1994
  31   1.0000      -2.248956       -61.1972
  32   1.0000      -2.248550       -61.1862
  33   1.0000      -2.247397       -61.1548
  34   1.0000      -2.247148       -61.1480
  35   1.0000      -2.245047       -61.0908
  36   1.0000      -2.244814       -61.0845
  37   1.0000      -2.244208       -61.0680
  38   1.0000      -2.243743       -61.0553
  39   1.0000      -2.243548       -61.0501
  40   1.0000      -2.242789       -61.0294
  41   1.0000      -2.242624       -61.0249
  42   1.0000      -2.241614       -60.9974
  43   1.0000      -2.241317       -60.9893
  44   1.0000      -2.241174       -60.9854
  45   1.0000      -2.240689       -60.9722
  46   1.0000      -2.240155       -60.9577
  47   1.0000      -2.239660       -60.9442
  48   1.0000      -2.239051       -60.9277
  49   1.0000      -2.238933       -60.9245
  50   1.0000      -2.238783       -60.9204
  51   1.0000      -2.237777       -60.8930
  52   1.0000      -2.236759       -60.8653
  53   1.0000      -2.236482       -60.8578
  54   1.0000      -2.236396       -60.8554
  55   1.0000      -2.235653       -60.8352
  56   1.0000      -2.234931       -60.8156
  57   1.0000      -2.234579       -60.8060
  58   1.0000      -2.234331       -60.7992
  59   1.0000      -2.234184       -60.7952
  60   1.0000      -2.233475       -60.7759
  61   1.0000      -2.232786       -60.7572
  62   1.0000      -2.231764       -60.7294
  63   1.0000      -2.230881       -60.7054
  64   1.0000      -2.230482       -60.6945
  65   1.0000      -2.230201       -60.6869
  66   1.0000      -2.229076       -60.6562
  67   1.0000      -2.227904       -60.6243
  68   1.0000      -2.222555       -60.4788
  69   1.0000      -2.221638       -60.4539
  70   1.0000      -2.040333       -55.5203
  71   1.0000      -2.034051       -55.3493
  72   1.0000      -2.033986       -55.3476
  73   1.0000      -0.415719       -11.3123
  74   1.0000      -0.387699       -10.5498
  75   1.0000      -0.386038       -10.5046
  76   1.0000      -0.384164       -10.4536
  77   1.0000      -0.373175       -10.1546
  78   1.0000      -0.372137       -10.1264
  79   1.0000      -0.368673       -10.0321
  80   1.0000      -0.366883        -9.9834
  81   1.0000      -0.365872        -9.9559
  82   1.0000      -0.361623        -9.8403
  83   1.0000      -0.361172        -9.8280
  84   1.0000      -0.360658        -9.8140
  85   1.0000      -0.355849        -9.6831
  86   1.0000      -0.355748        -9.6804
  87   1.0000      -0.354155        -9.6370
  88   1.0000      -0.353842        -9.6285
  89   1.0000      -0.352639        -9.5958
  90   1.0000      -0.351346        -9.5606
  91   1.0000      -0.351240        -9.5577
  92   1.0000      -0.345000        -9.3879
  93   1.0000      -0.344340        -9.3700
  94   1.0000      -0.342997        -9.3334
  95   1.0000      -0.342041        -9.3074
  96   1.0000      -0.341104        -9.2819
  97   1.0000      -0.340895        -9.2762
  98   1.0000      -0.338009        -9.1977
  99   1.0000      -0.332440        -9.0462
 100   1.0000      -0.331935        -9.0324
 101   1.0000      -0.331583        -9.0228
 102   1.0000      -0.327185        -8.9031
 103   1.0000      -0.327072        -8.9001
 104   1.0000      -0.325962        -8.8699
 105   1.0000      -0.323703        -8.8084
 106   1.0000      -0.320847        -8.7307
 107   1.0000      -0.320560        -8.7229
 108   1.0000      -0.316762        -8.6195
 109   1.0000      -0.314851        -8.5675
 110   1.0000      -0.312255        -8.4969
 111   1.0000      -0.310815        -8.4577
 112   1.0000      -0.307067        -8.3557
 113   1.0000      -0.305997        -8.3266
 114   1.0000      -0.303196        -8.2504
 115   1.0000      -0.302634        -8.2351
 116   1.0000      -0.300636        -8.1807
 117   1.0000      -0.298886        -8.1331
 118   1.0000      -0.292552        -7.9608
 119   1.0000      -0.291335        -7.9276
 120   1.0000      -0.290501        -7.9049
 121   1.0000      -0.287966        -7.8360
 122   1.0000      -0.287720        -7.8293
 123   1.0000      -0.285417        -7.7666
 124   1.0000      -0.283986        -7.7276
 125   1.0000      -0.281786        -7.6678
 126   1.0000      -0.281021        -7.6470
 127   1.0000      -0.278871        -7.5885
 128   1.0000      -0.274278        -7.4635
 129   1.0000      -0.272749        -7.4219
 130   1.0000      -0.272209        -7.4072
 131   1.0000      -0.269593        -7.3360
 132   1.0000      -0.268826        -7.3151
 133   1.0000      -0.268596        -7.3089
 134   1.0000      -0.266849        -7.2613
 135   1.0000      -0.266160        -7.2426
 136   1.0000      -0.265353        -7.2206
 137   1.0000      -0.264766        -7.2046
 138   1.0000      -0.263244        -7.1632
 139   1.0000      -0.262190        -7.1345
 140   1.0000      -0.259930        -7.0730
 141   1.0000      -0.259744        -7.0680
 142   1.0000      -0.258994        -7.0476
 143   1.0000      -0.256447        -6.9783
 144   1.0000      -0.254758        -6.9323
 145   1.0000      -0.253481        -6.8976
 146   1.0000      -0.253308        -6.8929
 147   1.0000      -0.251830        -6.8527
 148   1.0000      -0.251043        -6.8312
 149   1.0000      -0.250648        -6.8205
 150   1.0000      -0.249306        -6.7840
 151   1.0000      -0.248285        -6.7562
 152   1.0000      -0.247624        -6.7382
 153   1.0000      -0.246807        -6.7160
 154   1.0000      -0.245573        -6.6824
 155   1.0000      -0.244252        -6.6464
 156   1.0000      -0.242255        -6.5921
 157   1.0000      -0.241605        -6.5744
 158   1.0000      -0.238539        -6.4910
 159   1.0000      -0.237536        -6.4637
 160   1.0000      -0.234872        -6.3912
 161   1.0000      -0.227629        -6.1941
 162   1.0000      -0.227396        -6.1878
 163   1.0000      -0.224972        -6.1218
 164   1.0000      -0.217216        -5.9108
 165   1.0000      -0.210548        -5.7293
 166   1.0000      -0.208553        -5.6750
 167   0.0000      -0.150389        -4.0923
 168   0.0000      -0.145676        -3.9640
 169   0.0000      -0.140981        -3.8363
 170   0.0000      -0.135865        -3.6971
 171   0.0000      -0.133993        -3.6461

                 SPIN DOWN ORBITALS
  NO   OCC          E(Eh)            E(eV)
   0   1.0000    -234.221287     -6373.4852
   1   1.0000     -26.852194      -730.6853
   2   1.0000     -23.017251      -626.3312
   3   1.0000     -23.016652      -626.3149
   4   1.0000     -23.016510      -626.3111
   5   1.0000      -4.042211      -109.9942
   6   1.0000      -4.036935      -109.8506
   7   1.0000      -4.036874      -109.8489
   8   1.0000      -4.029767      -109.6555
   9   1.0000      -4.029620      -109.6515
  10   1.0000      -4.029557      -109.6498
  11   1.0000      -4.029331      -109.6437
  12   1.0000      -4.027073      -109.5822
  13   1.0000      -4.026725      -109.5727
  14   1.0000      -4.026719      -109.5726
  15   1.0000      -4.026297      -109.5611
  16   1.0000      -4.023307      -109.4798
  17   1.0000      -4.021189      -109.4221
  18   1.0000      -4.021177      -109.4218
  19   1.0000      -4.014973      -109.2530
  20   1.0000      -4.014797      -109.2482
  21   1.0000      -2.962189       -80.6053
  22   1.0000      -2.258619       -61.4601
  23   1.0000      -2.256660       -61.4068
  24   1.0000      -2.252926       -61.3052
  25   1.0000      -2.252679       -61.2985
  26   1.0000      -2.250069       -61.2275
  27   1.0000      -2.248929       -61.1965
  28   1.0000      -2.248774       -61.1922
  29   1.0000      -2.247735       -61.1640
  30   1.0000      -2.247626       -61.1610
  31   1.0000      -2.247499       -61.1576
  32   1.0000      -2.247053       -61.1454
  33   1.0000      -2.246927       -61.1420
  34   1.0000      -2.245826       -61.1120
  35   1.0000      -2.244915       -61.0872
  36   1.0000      -2.244669       -61.0805
  37   1.0000      -2.243698       -61.0541
  38   1.0000      -2.242939       -61.0335
  39   1.0000      -2.242913       -61.0328
  40   1.0000      -2.242170       -61.0126
  41   1.0000      -2.241918       -61.0057
  42   1.0000      -2.241378       -60.9910
  43   1.0000      -2.241265       -60.9879
  44   1.0000      -2.240718       -60.9730
  45   1.0000      -2.240224       -60.9596
  46   1.0000      -2.239636       -60.9436
  47   1.0000      -2.239013       -60.9266
  48   1.0000      -2.238766       -60.9199
  49   1.0000      -2.238303       -60.9073
  50   1.0000      -2.237772       -60.8929
  51   1.0000      -2.237429       -60.8835
  52   1.0000      -2.236639       -60.8621
  53   1.0000      -2.236405       -60.8557
  54   1.0000      -2.236334       -60.8537
  55   1.0000      -2.235584       -60.8333
  56   1.0000      -2.234839       -60.8131
  57   1.0000      -2.234481       -60.8033
  58   1.0000      -2.234216       -60.7961
  59   1.0000      -2.234064       -60.7920
  60   1.0000      -2.233439       -60.7750
  61   1.0000      -2.232757       -60.7564
  62   1.0000      -2.231745       -60.7289
  63   1.0000      -2.230760       -60.7021
  64   1.0000      -2.230416       -60.6927
  65   1.0000      -2.230164       -60.6858
  66   1.0000      -2.228962       -60.6532
  67   1.0000      -2.227820       -60.6221
  68   1.0000      -2.222499       -60.4773
  69   1.0000      -2.221574       -60.4521
  70   1.0000      -1.868502       -50.8445
  71   1.0000      -1.867101       -50.8064
  72   1.0000      -1.866797       -50.7981
  73   1.0000      -0.413736       -11.2583
  74   1.0000      -0.385513       -10.4904
  75   1.0000      -0.383743       -10.4422
  76   1.0000      -0.381168       -10.3721
  77   1.0000      -0.371742       -10.1156
  78   1.0000      -0.367092        -9.9891
  79   1.0000      -0.366090        -9.9618
  80   1.0000      -0.365602        -9.9485
  81   1.0000      -0.363343        -9.8871
  82   1.0000      -0.359347        -9.7783
  83   1.0000      -0.358899        -9.7661
  84   1.0000      -0.356090        -9.6897
  85   1.0000      -0.354666        -9.6510
  86   1.0000      -0.353010        -9.6059
  87   1.0000      -0.351414        -9.5625
  88   1.0000      -0.349638        -9.5141
  89   1.0000      -0.347826        -9.4648
  90   1.0000      -0.346941        -9.4407
  91   1.0000      -0.345903        -9.4125
  92   1.0000      -0.342732        -9.3262
  93   1.0000      -0.341887        -9.3032
  94   1.0000      -0.341322        -9.2878
  95   1.0000      -0.340279        -9.2595
  96   1.0000      -0.337351        -9.1798
  97   1.0000      -0.336298        -9.1511
  98   1.0000      -0.331069        -9.0089
  99   1.0000      -0.330695        -8.9987
 100   1.0000      -0.329489        -8.9658
 101   1.0000      -0.326597        -8.8872
 102   1.0000      -0.325717        -8.8632
 103   1.0000      -0.322720        -8.7817
 104   1.0000      -0.320726        -8.7274
 105   1.0000      -0.318107        -8.6561
 106   1.0000      -0.316980        -8.6255
 107   1.0000      -0.315469        -8.5843
 108   1.0000      -0.313360        -8.5270
 109   1.0000      -0.312408        -8.5011
 110   1.0000      -0.309513        -8.4223
 111   1.0000      -0.307130        -8.3574
 112   1.0000      -0.303743        -8.2653
 113   1.0000      -0.303149        -8.2491
 114   1.0000      -0.301928        -8.2159
 115   1.0000      -0.301513        -8.2046
 116   1.0000      -0.298251        -8.1158
 117   1.0000      -0.291644        -7.9360
 118   1.0000      -0.289764        -7.8849
 119   1.0000      -0.285308        -7.7636
 120   1.0000      -0.284240        -7.7346
 121   1.0000      -0.283985        -7.7276
 122   1.0000      -0.283526        -7.7151
 123   1.0000      -0.280067        -7.6210
 124   1.0000      -0.279515        -7.6060
 125   1.0000      -0.278749        -7.5851
 126   1.0000      -0.277997        -7.5647
 127   1.0000      -0.271904        -7.3989
 128   1.0000      -0.271426        -7.3859
 129   1.0000      -0.268652        -7.3104
 130   1.0000      -0.268195        -7.2979
 131   1.0000      -0.266115        -7.2414
 132   1.0000      -0.265900        -7.2355
 133   1.0000      -0.265338        -7.2202
 134   1.0000      -0.264663        -7.2019
 135   1.0000      -0.262219        -7.1353
 136   1.0000      -0.261206        -7.1078
 137   1.0000      -0.258982        -7.0473
 138   1.0000      -0.257441        -7.0053
 139   1.0000      -0.255816        -6.9611
 140   1.0000      -0.255048        -6.9402
 141   1.0000      -0.253133        -6.8881
 142   1.0000      -0.252792        -6.8788
 143   1.0000      -0.252308        -6.8657
 144   1.0000      -0.251112        -6.8331
 145   1.0000      -0.250037        -6.8039
 146   1.0000      -0.249551        -6.7906
 147   1.0000      -0.247960        -6.7473
 148   1.0000      -0.247576        -6.7369
 149   1.0000      -0.245910        -6.6916
 150   1.0000      -0.244357        -6.6493
 151   1.0000      -0.242237        -6.5916
 152   1.0000      -0.242051        -6.5865
 153   1.0000      -0.238634        -6.4936
 154   1.0000      -0.237219        -6.4551
 155   1.0000      -0.235085        -6.3970
 156   1.0000      -0.229092        -6.2339
 157   1.0000      -0.227608        -6.1935
 158   1.0000      -0.224909        -6.1201
 159   1.0000      -0.216224        -5.8838
 160   1.0000      -0.212470        -5.7816
 161   1.0000      -0.205161        -5.5827
 162   0.0000      -0.168757        -4.5921
 163   0.0000      -0.163566        -4.4509
 164   0.0000      -0.149470        -4.0673
 165   0.0000      -0.148945        -4.0530
 166   0.0000      -0.146280        -3.9805

MULLIKEN ATOMIC CHARGES AND SPIN POPULATIONS
--------------------------------------------
   0 Au:   -0.193146    0.028605
   1 Au:   -0.209297    0.028885
   2 Au:    0.045924   -0.000808
   3 Au:    0.285412    0.046244
   4 Au:    0.148722    0.040140
   5 Au:    0.157435    0.040740
   6 Au:    0.283668    0.046091
   7 Au:    0.198492   -0.011302
   8 Au:    0.227645    0.003481
   9 Au:   -0.395027   -0.012289
  10 Au:    0.227708    0.003469
  11 Au:   -0.549558    0.024248
  12 Au:    0.522243    0.004612
  13 Au:   -0.012337    0.002348
  14 Au:   -0.540977    0.024406
  15 Au:    0.047355   -0.000748
  16 Mn:   -0.244261    4.731876
Sum of atomic charges         :   -0.0000000

LOEWDIN ATOMIC CHARGES AND SPIN POPULATIONS
-------------------------------------------
   0 Au:   -0.050477    0.017247
   1 Au:   -0.052248    0.017288
   2 Au:   -0.040749    0.010520
   3 Au:    0.072847    0.078008
   4 Au:    0.005378    0.083551
   5 Au:    0.006753    0.083893
   6 Au:    0.072653    0.077811
   7 Au:    0.003274   -0.008193
   8 Au:    0.026013    0.003882
   9 Au:   -0.072886   -0.005261
  10 Au:    0.026103    0.003783
  11 Au:   -0.096146    0.011963
  12 Au:    0.138316    0.005829
  13 Au:   -0.051449    0.052869
  14 Au:   -0.095013    0.012040
  15 Au:   -0.040454    0.010454
  16 Mn:    0.148084    4.544317

  Mayer bond orders larger than 0.100000
B(  0-Au,  1-Au) :   0.4216 B(  0-Au,  4-Au) :   0.3341 B(  0-Au,  7-Au) :   0.3111
B(  0-Au, 10-Au) :   0.1911 B(  0-Au, 15-Au) :   0.3626 B(  1-Au,  2-Au) :   0.3640
B(  1-Au,  5-Au) :   0.3345 B(  1-Au,  7-Au) :   0.3135 B(  1-Au,  8-Au) :   0.1917
B(  2-Au,  5-Au) :   0.3123 B(  2-Au,  6-Au) :   0.2912 B(  2-Au,  8-Au) :   0.3141
B(  2-Au, 14-Au) :   0.3310 B(  3-Au, 11-Au) :   0.3235 B(  3-Au, 13-Au) :   0.2398
B(  3-Au, 15-Au) :   0.2908 B(  3-Au, 16-Mn) :   0.5161 B(  4-Au,  5-Au) :   0.2283
B(  4-Au, 15-Au) :   0.3134 B(  4-Au, 16-Mn) :   0.5582 B(  5-Au, 16-Mn) :   0.5566
B(  6-Au, 13-Au) :   0.2413 B(  6-Au, 14-Au) :   0.3222 B(  6-Au, 16-Mn) :   0.5165
B(  7-Au,  8-Au) :   0.2870 B(  7-Au,  9-Au) :   0.3668 B(  7-Au, 10-Au) :   0.2866
B(  8-Au,  9-Au) :   0.3227 B(  8-Au, 14-Au) :   0.3502 B(  9-Au, 10-Au) :   0.3234
B(  9-Au, 11-Au) :   0.3771 B(  9-Au, 12-Au) :   0.2558 B(  9-Au, 14-Au) :   0.3775
B( 10-Au, 11-Au) :   0.3522 B( 10-Au, 15-Au) :   0.3124 B( 11-Au, 12-Au) :   0.2894
B( 11-Au, 13-Au) :   0.3450 B( 11-Au, 15-Au) :   0.3333 B( 12-Au, 13-Au) :   0.2161
B( 12-Au, 14-Au) :   0.2871 B( 13-Au, 14-Au) :   0.3424 B( 13-Au, 16-Mn) :   0.3768

FINAL SINGLE POINT ENERGY     -3324.038120865571

DIPOLE MOMENT
-------------
                                X             Y             Z
Electronic contribution:     49.08354      91.72677     -22.71584
Nuclear contribution   :    -50.01811     -92.06900      22.95805
                        -----------------------------------------
Total Dipole Moment    :     -0.93458      -0.34223       0.24221
                        -----------------------------------------
Magnitude (a.u.)       :      1.02431
Magnitude (Debye)      :      2.60360

Rotational constants in cm-1:     0.000822     0.000804     0.000775
Rotational constants in MHz :    24.635340    24.093288    23.227279

                             ****ORCA TERMINATED NORMALLY****
TOTAL RUN TIME: 0 days 4 hours 25 minutes 9 seconds 931 msec
