                         Program Version 5.0.3 -  RELEASE  -
|  1> !CASSCF def2-TZVP def2-TZVP/C
|  2> !MOREAD RIJCOSX
|  3> %maxcore 6000
|  4> %moinp "pbe.qro"
|  5> %pal nprocs 16 end
|  6>
|  7> %casscf
|  8>  mult 6,4
|  9>  bweight 1,1
| 10>  nroots 1,24
| 11>  nel 5
| 12>  norb 5
| 13> end
| 14>
| 15>
| 16> *xyzfile 0 6 pbe.xyz
| 17>
| 18>
| 19>                          ****END OF INPUT****

CARTESIAN COORDINATES (ANGSTROEM)
---------------------------------
  Au     6.531918    8.513357   10.389200
  Au     5.471411    6.137117    9.409247
  Au     8.312957    6.527592    9.576977
  Au     8.820095    9.277332    9.003073
  Au     7.071139    4.679719    7.728604
  Au     9.562478    5.851850    7.169757
  Au    10.051020    8.453865    6.631444
  Au     8.182857   10.549972    6.491465
  Au     7.966843    8.430450    4.656095
  Au     5.657369    9.244186    6.006392
  Au     7.475939    5.829903    5.198494
  Au     5.137424    6.496080    6.576824
  Au     4.410467    8.493217    8.377623
  Au     6.297945   10.535470    8.488475
  Mn     7.420597    7.696756    7.329469

 Total Charge           Charge          ....    0
 Multiplicity           Mult            ....    6
 Number of Electrons    NEL             ....  291
 Basis Dimension        Dim             ....  605

ORBITAL ENERGIES
----------------

  NO   OCC          E(Eh)            E(eV)
   0   2.0000    -240.524687     -6545.0095
   1   2.0000     -29.094421      -791.6995
   2   2.0000     -24.802376      -674.9070
   3   2.0000     -24.799167      -674.8196
   4   2.0000     -24.798857      -674.8112
   5   2.0000      -4.726811      -128.6231
   6   2.0000      -4.726772      -128.6220
   7   2.0000      -4.726627      -128.6181
   8   2.0000      -4.726592      -128.6171
   9   2.0000      -4.709350      -128.1479
  10   2.0000      -4.709143      -128.1423
  11   2.0000      -4.708805      -128.1331
  12   2.0000      -4.708721      -128.1308
  13   2.0000      -4.708533      -128.1257
  14   2.0000      -4.708433      -128.1230
  15   2.0000      -4.706562      -128.0721
  16   2.0000      -4.706396      -128.0676
  17   2.0000      -4.705849      -128.0527
  18   2.0000      -4.705693      -128.0484
  19   2.0000      -3.785363      -103.0050
  20   2.0000      -2.766714       -75.2861
  21   2.0000      -2.766630       -75.2838
  22   2.0000      -2.764863       -75.2357
  23   2.0000      -2.764769       -75.2332
  24   2.0000      -2.763936       -75.2105
  25   2.0000      -2.763862       -75.2085
  26   2.0000      -2.763081       -75.1873
  27   2.0000      -2.762995       -75.1849
  28   2.0000      -2.762775       -75.1789
  29   2.0000      -2.762684       -75.1764
  30   2.0000      -2.760273       -75.1109
  31   2.0000      -2.760190       -75.1086
  32   2.0000      -2.749682       -74.8227
  33   2.0000      -2.748779       -74.7981
  34   2.0000      -2.748383       -74.7873
  35   2.0000      -2.747985       -74.7765
  36   2.0000      -2.746794       -74.7441
  37   2.0000      -2.746587       -74.7384
  38   2.0000      -2.746121       -74.7258
  39   2.0000      -2.745524       -74.7095
  40   2.0000      -2.744912       -74.6929
  41   2.0000      -2.744646       -74.6856
  42   2.0000      -2.744515       -74.6821
  43   2.0000      -2.744111       -74.6711
  44   2.0000      -2.743973       -74.6673
  45   2.0000      -2.743660       -74.6588
  46   2.0000      -2.743568       -74.6563
  47   2.0000      -2.742910       -74.6384
  48   2.0000      -2.742705       -74.6328
  49   2.0000      -2.742506       -74.6274
  50   2.0000      -2.742378       -74.6239
  51   2.0000      -2.741629       -74.6035
  52   2.0000      -2.741407       -74.5975
  53   2.0000      -2.740934       -74.5846
  54   2.0000      -2.740773       -74.5802
  55   2.0000      -2.740225       -74.5653
  56   2.0000      -2.739936       -74.5574
  57   2.0000      -2.739579       -74.5477
  58   2.0000      -2.739106       -74.5349
  59   2.0000      -2.738975       -74.5313
  60   2.0000      -2.738758       -74.5254
  61   2.0000      -2.737851       -74.5007
  62   2.0000      -2.457105       -66.8612
  63   2.0000      -2.455573       -66.8195
  64   2.0000      -2.454678       -66.7952
  65   2.0000      -0.569631       -15.5004
  66   2.0000      -0.555527       -15.1167
  67   2.0000      -0.550586       -14.9822
  68   2.0000      -0.549569       -14.9545
  69   2.0000      -0.547154       -14.8888
  70   2.0000      -0.546116       -14.8606
  71   2.0000      -0.545845       -14.8532
  72   2.0000      -0.544709       -14.8223
  73   2.0000      -0.543453       -14.7881
  74   2.0000      -0.542607       -14.7651
  75   2.0000      -0.542527       -14.7629
  76   2.0000      -0.540700       -14.7132
  77   2.0000      -0.539777       -14.6881
  78   2.0000      -0.539277       -14.6745
  79   2.0000      -0.537123       -14.6159
  80   2.0000      -0.534939       -14.5564
  81   2.0000      -0.530670       -14.4403
  82   2.0000      -0.530260       -14.4291
  83   2.0000      -0.527995       -14.3675
  84   2.0000      -0.524525       -14.2730
  85   2.0000      -0.522179       -14.2092
  86   2.0000      -0.521072       -14.1791
  87   2.0000      -0.515481       -14.0270
  88   2.0000      -0.515360       -14.0237
  89   2.0000      -0.513469       -13.9722
  90   2.0000      -0.511518       -13.9191
  91   2.0000      -0.509738       -13.8707
  92   2.0000      -0.506312       -13.7774
  93   2.0000      -0.503342       -13.6966
  94   2.0000      -0.499425       -13.5901
  95   2.0000      -0.498341       -13.5605
  96   2.0000      -0.494805       -13.4643
  97   2.0000      -0.491754       -13.3813
  98   2.0000      -0.490423       -13.3451
  99   2.0000      -0.488066       -13.2810
 100   2.0000      -0.486597       -13.2410
 101   2.0000      -0.479439       -13.0462
 102   2.0000      -0.476184       -12.9576
 103   2.0000      -0.473413       -12.8822
 104   2.0000      -0.472480       -12.8568
 105   2.0000      -0.470976       -12.8159
 106   2.0000      -0.468100       -12.7377
 107   2.0000      -0.457979       -12.4622
 108   2.0000      -0.455328       -12.3901
 109   2.0000      -0.454391       -12.3646
 110   2.0000      -0.452242       -12.3061
 111   2.0000      -0.448396       -12.2015
 112   2.0000      -0.445570       -12.1246
 113   2.0000      -0.445001       -12.1091
 114   2.0000      -0.441967       -12.0265
 115   2.0000      -0.440132       -11.9766
 116   2.0000      -0.439157       -11.9501
 117   2.0000      -0.439017       -11.9462
 118   2.0000      -0.436473       -11.8770
 119   2.0000      -0.434187       -11.8148
 120   2.0000      -0.434156       -11.8140
 121   2.0000      -0.432781       -11.7766
 122   2.0000      -0.431114       -11.7312
 123   2.0000      -0.428757       -11.6671
 124   2.0000      -0.427390       -11.6299
 125   2.0000      -0.426787       -11.6135
 126   2.0000      -0.424840       -11.5605
 127   2.0000      -0.420213       -11.4346
 128   2.0000      -0.420137       -11.4325
 129   2.0000      -0.418004       -11.3745
 130   2.0000      -0.413054       -11.2398
 131   2.0000      -0.410519       -11.1708
 132   2.0000      -0.405371       -11.0307
 133   2.0000      -0.403399       -10.9770
 134   2.0000      -0.403255       -10.9731
 135   2.0000      -0.388972       -10.5845
 136   2.0000      -0.361940        -9.8489
 137   2.0000      -0.360168        -9.8007
 138   2.0000      -0.335654        -9.1336
 139   2.0000      -0.299286        -8.1440
 140   2.0000      -0.237636        -6.4664
 141   2.0000      -0.234536        -6.3820
 142   2.0000      -0.232597        -6.3293
 143   1.0000      -0.113004        -3.0750
 144   1.0000      -0.149848        -4.0776
 145   1.0000      -0.109319        -2.9747
 146   1.0000      -0.091824        -2.4987
 147   1.0000      -0.108044        -2.9400
 148   0.0000      -0.049102        -1.3361
 149   0.0000      -0.010875        -0.2959
 150   0.0000       0.002691         0.0732
 151   0.0000       0.007424         0.2020
 152   0.0000       0.016289         0.4432

MULLIKEN ATOMIC CHARGES AND SPIN DENSITIES
------------------------------------------
   0 Au:    0.099692    0.085629
   1 Au:    0.060420    0.058343
   2 Au:    0.283187    0.081477
   3 Au:    0.277522    0.081341
   4 Au:    0.142628    0.012785
   5 Au:    0.217163    0.035582
   6 Au:    0.217915    0.035673
   7 Au:    0.141536    0.013108
   8 Au:    0.217143    0.035500
   9 Au:    0.279066    0.080369
  10 Au:    0.216513    0.034995
  11 Au:    0.282680    0.081407
  12 Au:    0.098646    0.086267
  13 Au:    0.063538    0.056843
  14 Mn:   -2.597651    3.220680
Sum of atomic charges       :    0.0000000

LOEWDIN ATOMIC CHARGES AND SPIN DENSITIES
-----------------------------------------
   0 Au:    0.004521    0.103629
   1 Au:    0.003856    0.062379
   2 Au:    0.065257    0.061853
   3 Au:    0.062944    0.061733
   4 Au:    0.035472    0.019745
   5 Au:    0.047552    0.054960
   6 Au:    0.049538    0.055341
   7 Au:    0.036901    0.019996
   8 Au:    0.049006    0.055135
   9 Au:    0.063382    0.061262
  10 Au:    0.047456    0.054768
  11 Au:    0.065015    0.061699
  12 Au:    0.004242    0.103569
  13 Au:    0.002772    0.061135
  14 Mn:   -0.537915    3.162795

  Mayer bond orders larger than 0.100000
B(  0-Au,  1-Au) :   0.2105 B(  0-Au,  2-Au) :   0.2301 B(  0-Au,  3-Au) :   0.2370
B(  0-Au, 12-Au) :   0.1218 B(  0-Au, 13-Au) :   0.2093 B(  0-Au, 14-Mn) :   0.2691
B(  1-Au,  2-Au) :   0.1454 B(  1-Au,  4-Au) :   0.2769 B(  1-Au, 11-Au) :   0.1443
B(  1-Au, 12-Au) :   0.2090 B(  1-Au, 14-Mn) :   0.2685 B(  2-Au,  3-Au) :   0.1746
B(  2-Au,  4-Au) :   0.1250 B(  2-Au,  5-Au) :   0.1434 B(  2-Au, 14-Mn) :   0.3908
B(  3-Au,  6-Au) :   0.1390 B(  3-Au,  7-Au) :   0.1273 B(  3-Au, 13-Au) :   0.1503
B(  3-Au, 14-Mn) :   0.3878 B(  4-Au,  5-Au) :   0.1840 B(  4-Au, 10-Au) :   0.1846
B(  4-Au, 11-Au) :   0.1257 B(  4-Au, 14-Mn) :   0.3239 B(  5-Au,  6-Au) :   0.2569
B(  5-Au, 10-Au) :   0.1214 B(  5-Au, 14-Mn) :   0.3718 B(  6-Au,  7-Au) :   0.1833
B(  6-Au,  8-Au) :   0.1225 B(  6-Au, 14-Mn) :   0.3751 B(  7-Au,  8-Au) :   0.1836
B(  7-Au,  9-Au) :   0.1276 B(  7-Au, 13-Au) :   0.2746 B(  7-Au, 14-Mn) :   0.3233
B(  8-Au,  9-Au) :   0.1391 B(  8-Au, 10-Au) :   0.2571 B(  8-Au, 14-Mn) :   0.3745
B(  9-Au, 11-Au) :   0.1749 B(  9-Au, 12-Au) :   0.2368 B(  9-Au, 13-Au) :   0.1475
B(  9-Au, 14-Mn) :   0.3885 B( 10-Au, 11-Au) :   0.1436 B( 10-Au, 14-Mn) :   0.3712
B( 11-Au, 12-Au) :   0.2315 B( 11-Au, 14-Mn) :   0.3907 B( 12-Au, 13-Au) :   0.2095
B( 12-Au, 14-Mn) :   0.2700 B( 13-Au, 14-Mn) :   0.2644

FINAL SINGLE POINT ENERGY     -3037.000179699324

DIPOLE MOMENT
-------------
                                X             Y             Z
Electronic contribution:     -7.50724       3.24345       7.89866
Nuclear contribution   :      7.66127      -3.29950      -8.05919
                        -----------------------------------------
Total Dipole Moment    :      0.15403      -0.05605      -0.16053
                        -----------------------------------------
Magnitude (a.u.)       :      0.22943
Magnitude (Debye)      :      0.58316

Rotational constants in cm-1:     0.001126     0.001115     0.000955
Rotational constants in MHz :    33.753027    33.433112    28.617638

                             ****ORCA TERMINATED NORMALLY****
TOTAL RUN TIME: 0 days 0 hours 9 minutes 16 seconds 551 msec
