                         Program Version 5.0.3 -  RELEASE  -
|  1> !CASSCF def2-TZVP def2-TZVP/C
|  2> !MOREAD RIJCOSX
|  3> %maxcore 6000
|  4> %moinp "pbe.qro"
|  5> %pal nprocs 2 end
|  6>
|  7> %casscf
|  8>  mult 5,3
|  9>  bweight 1,1
| 10>  nroots 5,45
| 11>  nel 6
| 12>  norb 5
| 13> end
| 14>
| 15>
| 16> *xyzfile 0 5 pbe.xyz
| 17>
| 18>
| 19>                          ****END OF INPUT****

CARTESIAN COORDINATES (ANGSTROEM)
---------------------------------
  Au     6.287668    7.829563   10.808696
  Au     6.496921   10.211340    9.433466
  Au     8.160671    5.844223   10.252461
  Au     9.309371    8.455637   10.251525
  Au     9.051277   10.083757    8.123070
  Au     4.874714    8.085624    8.423065
  Au     8.630047   10.488136    5.374669
  Au     8.656015    5.547804    7.499630
  Au     9.015610    7.884135    6.123113
  Au     6.243160    6.663736    6.441959
  Au     6.336932    9.398152    6.453652
  Au     6.984507   11.916855    7.324548
  Cr     7.577649    7.791260    8.450181

 Total Charge           Charge          ....    0
 Multiplicity           Mult            ....    5
 Number of Electrons    NEL             ....  252
 Basis Dimension        Dim             ....  525

ORBITAL ENERGIES
----------------

  NO   OCC          E(Eh)            E(eV)
   0   2.0000    -220.502823     -6000.1869
   1   2.0000     -26.345055      -716.8854
   2   2.0000     -22.279728      -606.2622
   3   2.0000     -22.276675      -606.1791
   4   2.0000     -22.265056      -605.8630
   5   2.0000      -4.721498      -128.4785
   6   2.0000      -4.721049      -128.4663
   7   2.0000      -4.720837      -128.4605
   8   2.0000      -4.710667      -128.1838
   9   2.0000      -4.708098      -128.1139
  10   2.0000      -4.707893      -128.1083
  11   2.0000      -4.707779      -128.1052
  12   2.0000      -4.702722      -127.9676
  13   2.0000      -4.700382      -127.9039
  14   2.0000      -4.698493      -127.8525
  15   2.0000      -4.694294      -127.7382
  16   2.0000      -4.694242      -127.7368
  17   2.0000      -3.398242       -92.4709
  18   2.0000      -2.764642       -75.2297
  19   2.0000      -2.760436       -75.1153
  20   2.0000      -2.759540       -75.0909
  21   2.0000      -2.759002       -75.0763
  22   2.0000      -2.757951       -75.0477
  23   2.0000      -2.756548       -75.0095
  24   2.0000      -2.755017       -74.9678
  25   2.0000      -2.754924       -74.9653
  26   2.0000      -2.754499       -74.9537
  27   2.0000      -2.750176       -74.8361
  28   2.0000      -2.748477       -74.7899
  29   2.0000      -2.747885       -74.7738
  30   2.0000      -2.747337       -74.7589
  31   2.0000      -2.745753       -74.7157
  32   2.0000      -2.745619       -74.7121
  33   2.0000      -2.744941       -74.6936
  34   2.0000      -2.743479       -74.6539
  35   2.0000      -2.743166       -74.6453
  36   2.0000      -2.742413       -74.6248
  37   2.0000      -2.741322       -74.5952
  38   2.0000      -2.740928       -74.5844
  39   2.0000      -2.739831       -74.5546
  40   2.0000      -2.739349       -74.5415
  41   2.0000      -2.737820       -74.4999
  42   2.0000      -2.735902       -74.4477
  43   2.0000      -2.735489       -74.4364
  44   2.0000      -2.734434       -74.4077
  45   2.0000      -2.733550       -74.3837
  46   2.0000      -2.732832       -74.3641
  47   2.0000      -2.732352       -74.3511
  48   2.0000      -2.730988       -74.3140
  49   2.0000      -2.730775       -74.3082
  50   2.0000      -2.729057       -74.2614
  51   2.0000      -2.728395       -74.2434
  52   2.0000      -2.727941       -74.2310
  53   2.0000      -2.727444       -74.2175
  54   2.0000      -2.163814       -58.8804
  55   2.0000      -2.161187       -58.8089
  56   2.0000      -2.150310       -58.5129
  57   2.0000      -0.562335       -15.3019
  58   2.0000      -0.558056       -15.1855
  59   2.0000      -0.547278       -14.8922
  60   2.0000      -0.545372       -14.8403
  61   2.0000      -0.544407       -14.8141
  62   2.0000      -0.541057       -14.7229
  63   2.0000      -0.537624       -14.6295
  64   2.0000      -0.537023       -14.6131
  65   2.0000      -0.534377       -14.5411
  66   2.0000      -0.528418       -14.3790
  67   2.0000      -0.526610       -14.3298
  68   2.0000      -0.524553       -14.2738
  69   2.0000      -0.522206       -14.2099
  70   2.0000      -0.521372       -14.1873
  71   2.0000      -0.517682       -14.0868
  72   2.0000      -0.511940       -13.9306
  73   2.0000      -0.509533       -13.8651
  74   2.0000      -0.507120       -13.7994
  75   2.0000      -0.504146       -13.7185
  76   2.0000      -0.503546       -13.7022
  77   2.0000      -0.502478       -13.6731
  78   2.0000      -0.498896       -13.5756
  79   2.0000      -0.497390       -13.5347
  80   2.0000      -0.493083       -13.4175
  81   2.0000      -0.486129       -13.2282
  82   2.0000      -0.483240       -13.1496
  83   2.0000      -0.479118       -13.0375
  84   2.0000      -0.475703       -12.9445
  85   2.0000      -0.472702       -12.8629
  86   2.0000      -0.471455       -12.8289
  87   2.0000      -0.467310       -12.7162
  88   2.0000      -0.463968       -12.6252
  89   2.0000      -0.462497       -12.5852
  90   2.0000      -0.460886       -12.5413
  91   2.0000      -0.457650       -12.4533
  92   2.0000      -0.455819       -12.4035
  93   2.0000      -0.455150       -12.3853
  94   2.0000      -0.452760       -12.3202
  95   2.0000      -0.451539       -12.2870
  96   2.0000      -0.450621       -12.2620
  97   2.0000      -0.446863       -12.1598
  98   2.0000      -0.445460       -12.1216
  99   2.0000      -0.444033       -12.0827
 100   2.0000      -0.442480       -12.0405
 101   2.0000      -0.440681       -11.9915
 102   2.0000      -0.440209       -11.9787
 103   2.0000      -0.438633       -11.9358
 104   2.0000      -0.436672       -11.8824
 105   2.0000      -0.435556       -11.8521
 106   2.0000      -0.433926       -11.8077
 107   2.0000      -0.429837       -11.6965
 108   2.0000      -0.428328       -11.6554
 109   2.0000      -0.426796       -11.6137
 110   2.0000      -0.424656       -11.5555
 111   2.0000      -0.418160       -11.3787
 112   2.0000      -0.414558       -11.2807
 113   2.0000      -0.411321       -11.1926
 114   2.0000      -0.408399       -11.1131
 115   2.0000      -0.402434       -10.9508
 116   2.0000      -0.398587       -10.8461
 117   2.0000      -0.391551       -10.6546
 118   2.0000      -0.357624        -9.7314
 119   2.0000      -0.329502        -8.9662
 120   2.0000      -0.311334        -8.4718
 121   2.0000      -0.233395        -6.3510
 122   2.0000      -0.227459        -6.1895
 123   1.2000      -0.092189        -2.5086
 124   1.2000      -0.084057        -2.2873
 125   1.2000      -0.111800        -3.0422
 126   1.2000      -0.091354        -2.4859
 127   1.2000      -0.154081        -4.1927
 128   0.0000      -0.013555        -0.3689
 129   0.0000      -0.011842        -0.3222
 130   0.0000       0.000414         0.0113
 131   0.0000       0.012321         0.3353
 132   0.0000       0.015946         0.4339

MULLIKEN ATOMIC CHARGES AND SPIN DENSITIES
------------------------------------------
   0 Au:    0.470769    0.036671
   1 Au:    0.309931    0.037034
   2 Au:    0.368354    0.033396
   3 Au:    0.514017    0.008103
   4 Au:   -0.002921    0.012567
   5 Au:    0.435712    0.038827
   6 Au:    0.331409    0.011153
   7 Au:    0.283303    0.027447
   8 Au:    0.241645    0.027297
   9 Au:    0.630242    0.026909
  10 Au:   -0.022618    0.034657
  11 Au:    0.298786    0.011208
  12 Cr:   -3.858628    2.694731
Sum of atomic charges       :    0.0000000

LOEWDIN ATOMIC CHARGES AND SPIN DENSITIES
-----------------------------------------
   0 Au:    0.106097    0.074885
   1 Au:    0.026968    0.059223
   2 Au:    0.108597    0.055981
   3 Au:    0.141262    0.057922
   4 Au:   -0.016246    0.030176
   5 Au:    0.169764    0.071452
   6 Au:    0.098904    0.016766
   7 Au:    0.129200    0.061910
   8 Au:    0.052370    0.060462
   9 Au:    0.181402    0.062752
  10 Au:   -0.063403    0.049296
  11 Au:    0.096358    0.013662
  12 Cr:   -1.031272    2.385512

  Mayer bond orders larger than 0.100000
B(  0-Au,  1-Au) :   0.1712 B(  0-Au,  2-Au) :   0.1921 B(  0-Au,  5-Au) :   0.1956
B(  0-Au,  8-Au) :   0.1231 B(  0-Au, 12-Cr) :   0.3755 B(  1-Au,  4-Au) :   0.1394
B(  1-Au,  5-Au) :   0.1232 B(  1-Au,  7-Au) :   0.1134 B(  1-Au, 10-Au) :   0.1471
B(  1-Au, 11-Au) :   0.3245 B(  1-Au, 12-Cr) :   0.3859 B(  2-Au,  3-Au) :   0.1453
B(  2-Au,  7-Au) :   0.2272 B(  2-Au, 10-Au) :   0.1058 B(  2-Au, 12-Cr) :   0.3267
B(  3-Au,  4-Au) :   0.3383 B(  3-Au,  9-Au) :   0.1632 B(  3-Au, 12-Cr) :   0.3536
B(  4-Au,  6-Au) :   0.2142 B(  4-Au,  8-Au) :   0.1677 B(  4-Au, 10-Au) :   0.1608
B(  4-Au, 11-Au) :   0.1747 B(  4-Au, 12-Cr) :   0.5071 B(  5-Au,  9-Au) :   0.1375
B(  5-Au, 10-Au) :   0.1844 B(  5-Au, 12-Cr) :   0.3964 B(  6-Au,  8-Au) :   0.2997
B(  6-Au, 10-Au) :   0.2689 B(  6-Au, 12-Cr) :   0.3155 B(  7-Au,  8-Au) :   0.2511
B(  7-Au,  9-Au) :   0.1907 B(  7-Au, 12-Cr) :   0.4440 B(  8-Au, 12-Cr) :   0.4093
B(  9-Au, 10-Au) :   0.1559 B(  9-Au, 12-Cr) :   0.2885 B( 10-Au, 11-Au) :   0.3284
B( 10-Au, 12-Cr) :   0.4301 B( 11-Au, 12-Cr) :   0.2826

FINAL SINGLE POINT ENERGY     -2660.864078042288

DIPOLE MOMENT
-------------
                                X             Y             Z
Electronic contribution:     -2.99414      25.70142     -14.36998
Nuclear contribution   :      2.58849     -26.07459      14.31090
                        -----------------------------------------
Total Dipole Moment    :     -0.40565      -0.37318      -0.05908
                        -----------------------------------------
Magnitude (a.u.)       :      0.55435
Magnitude (Debye)      :      1.40905

Rotational constants in cm-1:     0.001606     0.001206     0.001074
Rotational constants in MHz :    48.133357    36.141325    32.209966

                             ****ORCA TERMINATED NORMALLY****
TOTAL RUN TIME: 0 days 0 hours 33 minutes 41 seconds 947 msec
