                         Program Version 5.0.3 -  RELEASE  -
|  1> !SC-NEVPT2 def2-TZVP def2-TZVP/C
|  2> !MOREAD RIJCOSX def2/J
|  3> %maxcore 4000
|  4> %moinp "casscf.gbw"
|  5> %pal nprocs 6 end
|  6>
|  7> %casscf
|  8>  mult 5,3
|  9>  bweight 1,1
| 10>  nroots 5,45
| 11>  nel 6
| 12>  norb 5
| 13>  ptsettings
| 14>   d4tpre 1e-14 # default = 1e-10
| 15>   d3tpre 1e-14
| 16>  end
| 17>  rel
| 18>    dosoc true
| 19>    gtensor true
| 20>  end
| 21> end
| 22>
| 23>
| 24> *xyzfile 0 5 pbe.xyz
| 25>
| 26>
| 27>                          ****END OF INPUT****

CARTESIAN COORDINATES (ANGSTROEM)
---------------------------------
  Au     9.240305    9.726279   10.556914
  Au     9.580922    7.052430   11.566076
  Au     7.749529    5.727456   10.128264
  Au     7.288653    6.733367    7.399832
  Au     6.538064    8.956084    6.108726
  Au     7.167447    4.110388    7.933412
  Au     7.284568    9.343597    8.766912
  Au    11.816259    8.734373   11.167367
  Au    11.594301    6.511839    9.436243
  Au     9.727454    5.204315    8.030504
  Au    11.247117    9.186008    8.434993
  Au     9.261027    8.803305    6.679170
  Fe     9.255484    7.602007    9.034956

 Total Charge           Charge          ....    0
 Multiplicity           Mult            ....    5
 Number of Electrons    NEL             ....  254
 Basis Dimension        Dim             ....  525

ORBITAL ENERGIES
----------------

  NO   OCC          E(Eh)            E(eV)
   0   2.0000    -261.381243     -7112.5452
   1   2.0000     -31.946124      -869.2982
   2   2.0000     -27.426412      -746.3106
   3   2.0000     -27.425686      -746.2908
   4   2.0000     -27.425323      -746.2810
   5   2.0000      -4.735984      -128.8727
   6   2.0000      -4.717857      -128.3794
   7   2.0000      -4.717852      -128.3793
   8   2.0000      -4.710021      -128.1662
   9   2.0000      -4.709941      -128.1640
  10   2.0000      -4.709909      -128.1631
  11   2.0000      -4.709839      -128.1612
  12   2.0000      -4.708320      -128.1199
  13   2.0000      -4.705425      -128.0411
  14   2.0000      -4.705299      -128.0377
  15   2.0000      -4.705271      -128.0369
  16   2.0000      -4.705147      -128.0336
  17   2.0000      -4.180858      -113.7669
  18   2.0000      -2.776148       -75.5428
  19   2.0000      -2.773497       -75.4707
  20   2.0000      -2.768296       -75.3292
  21   2.0000      -2.761257       -75.1376
  22   2.0000      -2.760866       -75.1270
  23   2.0000      -2.759666       -75.0943
  24   2.0000      -2.757453       -75.0341
  25   2.0000      -2.756090       -74.9970
  26   2.0000      -2.752800       -74.9075
  27   2.0000      -2.752583       -74.9016
  28   2.0000      -2.752541       -74.9004
  29   2.0000      -2.752042       -74.8869
  30   2.0000      -2.749509       -74.8180
  31   2.0000      -2.748936       -74.8023
  32   2.0000      -2.748086       -74.7792
  33   2.0000      -2.747660       -74.7676
  34   2.0000      -2.747300       -74.7578
  35   2.0000      -2.746515       -74.7365
  36   2.0000      -2.745678       -74.7137
  37   2.0000      -2.745576       -74.7109
  38   2.0000      -2.745432       -74.7070
  39   2.0000      -2.744389       -74.6786
  40   2.0000      -2.743816       -74.6630
  41   2.0000      -2.742504       -74.6273
  42   2.0000      -2.742426       -74.6252
  43   2.0000      -2.742278       -74.6212
  44   2.0000      -2.742231       -74.6199
  45   2.0000      -2.741762       -74.6071
  46   2.0000      -2.741642       -74.6039
  47   2.0000      -2.740674       -74.5775
  48   2.0000      -2.740581       -74.5750
  49   2.0000      -2.739254       -74.5389
  50   2.0000      -2.738479       -74.5178
  51   2.0000      -2.738149       -74.5088
  52   2.0000      -2.737958       -74.5036
  53   2.0000      -2.737904       -74.5021
  54   2.0000      -2.736739       -74.4705
  55   2.0000      -2.736641       -74.4678
  56   2.0000      -2.735740       -74.4433
  57   2.0000      -0.578178       -15.7330
  58   2.0000      -0.576590       -15.6898
  59   2.0000      -0.569189       -15.4884
  60   2.0000      -0.551694       -15.0124
  61   2.0000      -0.549783       -14.9603
  62   2.0000      -0.537981       -14.6392
  63   2.0000      -0.535989       -14.5850
  64   2.0000      -0.535215       -14.5639
  65   2.0000      -0.532182       -14.4814
  66   2.0000      -0.530725       -14.4418
  67   2.0000      -0.527783       -14.3617
  68   2.0000      -0.527457       -14.3528
  69   2.0000      -0.524526       -14.2731
  70   2.0000      -0.523720       -14.2511
  71   2.0000      -0.517773       -14.0893
  72   2.0000      -0.517237       -14.0747
  73   2.0000      -0.515387       -14.0244
  74   2.0000      -0.515323       -14.0227
  75   2.0000      -0.511190       -13.9102
  76   2.0000      -0.505174       -13.7465
  77   2.0000      -0.499366       -13.5884
  78   2.0000      -0.497425       -13.5356
  79   2.0000      -0.496717       -13.5163
  80   2.0000      -0.494715       -13.4619
  81   2.0000      -0.492937       -13.4135
  82   2.0000      -0.488612       -13.2958
  83   2.0000      -0.485032       -13.1984
  84   2.0000      -0.483913       -13.1679
  85   2.0000      -0.478355       -13.0167
  86   2.0000      -0.477706       -12.9990
  87   2.0000      -0.475964       -12.9517
  88   2.0000      -0.472897       -12.8682
  89   2.0000      -0.471731       -12.8364
  90   2.0000      -0.468162       -12.7393
  91   2.0000      -0.464594       -12.6423
  92   2.0000      -0.463918       -12.6239
  93   2.0000      -0.463716       -12.6183
  94   2.0000      -0.458329       -12.4718
  95   2.0000      -0.456232       -12.4147
  96   2.0000      -0.455857       -12.4045
  97   2.0000      -0.454976       -12.3805
  98   2.0000      -0.451340       -12.2816
  99   2.0000      -0.449111       -12.2209
 100   2.0000      -0.448044       -12.1919
 101   2.0000      -0.445388       -12.1196
 102   2.0000      -0.442206       -12.0330
 103   2.0000      -0.439108       -11.9487
 104   2.0000      -0.436606       -11.8807
 105   2.0000      -0.435737       -11.8570
 106   2.0000      -0.434633       -11.8270
 107   2.0000      -0.431320       -11.7368
 108   2.0000      -0.427893       -11.6436
 109   2.0000      -0.426376       -11.6023
 110   2.0000      -0.423107       -11.5133
 111   2.0000      -0.420946       -11.4545
 112   2.0000      -0.418134       -11.3780
 113   2.0000      -0.417915       -11.3720
 114   2.0000      -0.409596       -11.1457
 115   2.0000      -0.405117       -11.0238
 116   2.0000      -0.400507       -10.8984
 117   2.0000      -0.388420       -10.5695
 118   2.0000      -0.371749       -10.1158
 119   2.0000      -0.363779        -9.8989
 120   2.0000      -0.287357        -7.8194
 121   2.0000      -0.257403        -7.0043
 122   2.0000      -0.247257        -6.7282
 123   2.0000      -0.223075        -6.0702
 124   1.2000      -0.259274        -7.0552
 125   1.2000      -0.258514        -7.0345
 126   1.2000      -0.259065        -7.0495
 127   1.2000      -0.250245        -6.8095
 128   1.2000      -0.256055        -6.9676
 129   0.0000      -0.034746        -0.9455
 130   0.0000      -0.030678        -0.8348
 131   0.0000      -0.005147        -0.1401
 132   0.0000      -0.001694        -0.0461
 133   0.0000       0.020452         0.5565

MULLIKEN ATOMIC CHARGES AND SPIN DENSITIES
------------------------------------------
   0 Au:    0.140372    0.009206
   1 Au:    0.142200    0.009253
   2 Au:    0.148697    0.010742
   3 Au:   -0.852434    0.008108
   4 Au:    0.565006    0.002483
   5 Au:    0.564900    0.002495
   6 Au:    0.148384    0.010678
   7 Au:    0.237408    0.002370
   8 Au:    0.140748    0.009244
   9 Au:    0.146612    0.010749
  10 Au:    0.139433    0.009185
  11 Au:    0.146570    0.010680
  12 Fe:   -1.667897    2.904807
Sum of atomic charges       :    0.0000000

LOEWDIN ATOMIC CHARGES AND SPIN DENSITIES
-----------------------------------------
   0 Au:   -0.018526    0.012293
   1 Au:   -0.017529    0.012364
   2 Au:   -0.020972    0.013159
   3 Au:   -0.133949    0.011284
   4 Au:    0.203559    0.003764
   5 Au:    0.203373    0.003776
   6 Au:   -0.021416    0.013091
   7 Au:    0.119950    0.002872
   8 Au:   -0.018283    0.012347
   9 Au:   -0.021572    0.013151
  10 Au:   -0.019049    0.012264
  11 Au:   -0.021840    0.013077
  12 Fe:   -0.233746    2.876559

  Mayer bond orders larger than 0.100000
B(  0-Au,  6-Au) :   0.4984 B(  0-Au,  7-Au) :   0.2296 B(  0-Au, 12-Fe) :   0.4572
B(  1-Au,  2-Au) :   0.4977 B(  1-Au,  7-Au) :   0.2302 B(  1-Au, 12-Fe) :   0.4572
B(  2-Au,  3-Au) :   0.2103 B(  2-Au,  5-Au) :   0.1365 B(  2-Au, 12-Fe) :   0.4531
B(  3-Au,  4-Au) :   0.5295 B(  3-Au,  5-Au) :   0.5290 B(  3-Au,  6-Au) :   0.2102
B(  3-Au,  9-Au) :   0.2099 B(  3-Au, 11-Au) :   0.2099 B(  3-Au, 12-Fe) :   0.1944
B(  4-Au,  6-Au) :   0.1365 B(  4-Au, 11-Au) :   0.1384 B(  5-Au,  9-Au) :   0.1384
B(  6-Au, 12-Fe) :   0.4515 B(  7-Au,  8-Au) :   0.2298 B(  7-Au, 10-Au) :   0.2292
B(  7-Au, 12-Fe) :   0.1264 B(  8-Au,  9-Au) :   0.4991 B(  8-Au, 12-Fe) :   0.4571
B(  9-Au, 12-Fe) :   0.4519 B( 10-Au, 11-Au) :   0.4993 B( 10-Au, 12-Fe) :   0.4569
B( 11-Au, 12-Fe) :   0.4507

FINAL SINGLE POINT ENERGY     -2886.128696621310

DIPOLE MOMENT
-------------
                                X             Y             Z
Electronic contribution:     -8.79045      -3.88750      -7.54646
Nuclear contribution   :      8.15018       3.59804       7.01142
                        -----------------------------------------
Total Dipole Moment    :     -0.64027      -0.28946      -0.53504
                        -----------------------------------------
Magnitude (a.u.)       :      0.88317
Magnitude (Debye)      :      2.24485

Rotational constants in cm-1:     0.001574     0.001181     0.000930
Rotational constants in MHz :    47.185650    35.403241    27.888150

                             ****ORCA TERMINATED NORMALLY****
TOTAL RUN TIME: 0 days 2 hours 39 minutes 58 seconds 119 msec
