                         Program Version 5.0.3 -  RELEASE  -
|  1> %pal nprocs 1 end
|  2>
|  3> !PBE def2-TZVP OPT UNO
|  4> !SLOWCONV KDIIS
|  5>
|  6> %geom maxiter 300 end
|  7>
|  8> *xyzfile 0 6 5.xyz                           ****END OF INPUT****
 Total Charge           Charge          ....    0
 Multiplicity           Mult            ....    6
 Number of Electrons    NEL             ....  215
FINAL SINGLE POINT ENERGY     -2509.023075704591
FINAL SINGLE POINT ENERGY     -2509.025229537481
FINAL SINGLE POINT ENERGY     -2509.027014830721
FINAL SINGLE POINT ENERGY     -2509.028771570940
FINAL SINGLE POINT ENERGY     -2509.029615312874
FINAL SINGLE POINT ENERGY     -2509.030256624410
FINAL SINGLE POINT ENERGY     -2509.030739417335
FINAL SINGLE POINT ENERGY     -2509.031226136328
FINAL SINGLE POINT ENERGY     -2509.032327492514
FINAL SINGLE POINT ENERGY     -2509.033372843731
FINAL SINGLE POINT ENERGY     -2509.043184457292
FINAL SINGLE POINT ENERGY     -2509.043341255702
FINAL SINGLE POINT ENERGY     -2509.043428621716
FINAL SINGLE POINT ENERGY     -2509.043484725802
FINAL SINGLE POINT ENERGY     -2509.043525410810
FINAL SINGLE POINT ENERGY     -2509.043544004091
FINAL SINGLE POINT ENERGY     -2509.043555227398
FINAL SINGLE POINT ENERGY     -2509.043563512882
FINAL SINGLE POINT ENERGY     -2509.043568343071
                    ***********************HURRAY********************

CARTESIAN COORDINATES (ANGSTROEM)
---------------------------------
  Au     8.809149    4.878509    7.719344
  Au     5.661300    7.608850    4.275492
  Au     8.158385    5.363288   10.228952
  Au     4.379900    6.246133    9.225331
  Au     6.172257    7.009680   11.197760
  Au     6.636922    8.976025    9.298246
  Au     4.714270    6.450849    6.622894
  Au     6.552635    8.690771    6.680871
  Au     7.437543    6.128344    5.604258
  Au     9.399241    4.447983    5.138338
  Mn     6.822016    6.552293    8.365974

 Multiplicity           Mult            ....    6
 Number of Electrons    NEL             ....  215
 Basis Dimension        Dim             ....  445

ORBITAL ENERGIES
----------------
                 SPIN UP ORBITALS
  NO   OCC          E(Eh)            E(eV)
   0   1.0000    -234.199644     -6372.8963
   1   1.0000     -26.898171      -731.9364
   2   1.0000     -23.047157      -627.1450
   3   1.0000     -23.046438      -627.1255
   4   1.0000     -23.045119      -627.0896
   5   1.0000      -4.038403      -109.8905
   6   1.0000      -4.028682      -109.6260
   7   1.0000      -4.028193      -109.6127
   8   1.0000      -4.027451      -109.5925
   9   1.0000      -4.025237      -109.5323
  10   1.0000      -4.016876      -109.3048
  11   1.0000      -4.016553      -109.2960
  12   1.0000      -4.016117      -109.2841
  13   1.0000      -4.015113      -109.2568
  14   1.0000      -4.008416      -109.0746
  15   1.0000      -3.109888       -84.6244
  16   1.0000      -2.258820       -61.4656
  17   1.0000      -2.251430       -61.2645
  18   1.0000      -2.246958       -61.1428
  19   1.0000      -2.246814       -61.1389
  20   1.0000      -2.246126       -61.1202
  21   1.0000      -2.244072       -61.0643
  22   1.0000      -2.243890       -61.0593
  23   1.0000      -2.242762       -61.0286
  24   1.0000      -2.242484       -61.0211
  25   1.0000      -2.242221       -61.0139
  26   1.0000      -2.235862       -60.8409
  27   1.0000      -2.235726       -60.8372
  28   1.0000      -2.234772       -60.8112
  29   1.0000      -2.234574       -60.8059
  30   1.0000      -2.234303       -60.7985
  31   1.0000      -2.234118       -60.7934
  32   1.0000      -2.233908       -60.7877
  33   1.0000      -2.232103       -60.7386
  34   1.0000      -2.231515       -60.7226
  35   1.0000      -2.231003       -60.7087
  36   1.0000      -2.230936       -60.7068
  37   1.0000      -2.228323       -60.6357
  38   1.0000      -2.227859       -60.6231
  39   1.0000      -2.226702       -60.5916
  40   1.0000      -2.226122       -60.5759
  41   1.0000      -2.222852       -60.4869
  42   1.0000      -2.222522       -60.4779
  43   1.0000      -2.221681       -60.4550
  44   1.0000      -2.221271       -60.4439
  45   1.0000      -2.214643       -60.2635
  46   1.0000      -2.014033       -54.8046
  47   1.0000      -2.012332       -54.7583
  48   1.0000      -2.010594       -54.7110
  49   1.0000      -0.416080       -11.3221
  50   1.0000      -0.385245       -10.4831
  51   1.0000      -0.378267       -10.2932
  52   1.0000      -0.365805        -9.9541
  53   1.0000      -0.365391        -9.9428
  54   1.0000      -0.361380        -9.8336
  55   1.0000      -0.350587        -9.5400
  56   1.0000      -0.345438        -9.3999
  57   1.0000      -0.343264        -9.3407
  58   1.0000      -0.337667        -9.1884
  59   1.0000      -0.334999        -9.1158
  60   1.0000      -0.331659        -9.0249
  61   1.0000      -0.331270        -9.0143
  62   1.0000      -0.328356        -8.9350
  63   1.0000      -0.324246        -8.8232
  64   1.0000      -0.321111        -8.7379
  65   1.0000      -0.316944        -8.6245
  66   1.0000      -0.315927        -8.5968
  67   1.0000      -0.313914        -8.5420
  68   1.0000      -0.310002        -8.4356
  69   1.0000      -0.308951        -8.4070
  70   1.0000      -0.304831        -8.2949
  71   1.0000      -0.300316        -8.1720
  72   1.0000      -0.299727        -8.1560
  73   1.0000      -0.293084        -7.9752
  74   1.0000      -0.290799        -7.9130
  75   1.0000      -0.288835        -7.8596
  76   1.0000      -0.286869        -7.8061
  77   1.0000      -0.286531        -7.7969
  78   1.0000      -0.284616        -7.7448
  79   1.0000      -0.279042        -7.5931
  80   1.0000      -0.278529        -7.5792
  81   1.0000      -0.276876        -7.5342
  82   1.0000      -0.274653        -7.4737
  83   1.0000      -0.274203        -7.4614
  84   1.0000      -0.272712        -7.4209
  85   1.0000      -0.270580        -7.3628
  86   1.0000      -0.268277        -7.3002
  87   1.0000      -0.266732        -7.2581
  88   1.0000      -0.265915        -7.2359
  89   1.0000      -0.265234        -7.2174
  90   1.0000      -0.262865        -7.1529
  91   1.0000      -0.261154        -7.1064
  92   1.0000      -0.256448        -6.9783
  93   1.0000      -0.255730        -6.9588
  94   1.0000      -0.254372        -6.9218
  95   1.0000      -0.253406        -6.8955
  96   1.0000      -0.250999        -6.8300
  97   1.0000      -0.248395        -6.7592
  98   1.0000      -0.247882        -6.7452
  99   1.0000      -0.246979        -6.7206
 100   1.0000      -0.246036        -6.6950
 101   1.0000      -0.245501        -6.6804
 102   1.0000      -0.245364        -6.6767
 103   1.0000      -0.241838        -6.5808
 104   1.0000      -0.235438        -6.4066
 105   1.0000      -0.234724        -6.3872
 106   1.0000      -0.230392        -6.2693
 107   1.0000      -0.215127        -5.8539
 108   1.0000      -0.213898        -5.8204
 109   1.0000      -0.200483        -5.4554
 110   0.0000      -0.157541        -4.2869
 111   0.0000      -0.147639        -4.0175
 112   0.0000      -0.134592        -3.6624
 113   0.0000      -0.114488        -3.1154
 114   0.0000      -0.100015        -2.7216

                 SPIN DOWN ORBITALS
  NO   OCC          E(Eh)            E(eV)
   0   1.0000    -234.198837     -6372.8743
   1   1.0000     -26.829847      -730.0773
   2   1.0000     -22.994772      -625.7196
   3   1.0000     -22.994549      -625.7135
   4   1.0000     -22.993655      -625.6892
   5   1.0000      -4.037223      -109.8584
   6   1.0000      -4.027430      -109.5920
   7   1.0000      -4.026937      -109.5785
   8   1.0000      -4.025809      -109.5478
   9   1.0000      -4.024945      -109.5243
  10   1.0000      -4.015043      -109.2549
  11   1.0000      -4.014727      -109.2463
  12   1.0000      -4.014386      -109.2370
  13   1.0000      -4.014238      -109.2330
  14   1.0000      -4.008195      -109.0685
  15   1.0000      -2.941846       -80.0517
  16   1.0000      -2.257530       -61.4305
  17   1.0000      -2.249676       -61.2168
  18   1.0000      -2.245712       -61.1089
  19   1.0000      -2.244854       -61.0856
  20   1.0000      -2.244712       -61.0817
  21   1.0000      -2.243074       -61.0371
  22   1.0000      -2.242335       -61.0170
  23   1.0000      -2.241636       -60.9980
  24   1.0000      -2.240785       -60.9749
  25   1.0000      -2.240460       -60.9660
  26   1.0000      -2.235478       -60.8304
  27   1.0000      -2.234976       -60.8168
  28   1.0000      -2.234290       -60.7981
  29   1.0000      -2.233476       -60.7760
  30   1.0000      -2.232017       -60.7363
  31   1.0000      -2.231798       -60.7303
  32   1.0000      -2.231679       -60.7271
  33   1.0000      -2.230327       -60.6903
  34   1.0000      -2.229756       -60.6747
  35   1.0000      -2.229605       -60.6706
  36   1.0000      -2.229304       -60.6624
  37   1.0000      -2.227985       -60.6265
  38   1.0000      -2.226529       -60.5869
  39   1.0000      -2.225722       -60.5650
  40   1.0000      -2.225105       -60.5482
  41   1.0000      -2.221352       -60.4461
  42   1.0000      -2.221067       -60.4383
  43   1.0000      -2.221026       -60.4372
  44   1.0000      -2.220070       -60.4112
  45   1.0000      -2.214412       -60.2572
  46   1.0000      -1.848553       -50.3017
  47   1.0000      -1.846943       -50.2579
  48   1.0000      -1.846420       -50.2436
  49   1.0000      -0.412903       -11.2357
  50   1.0000      -0.377015       -10.2591
  51   1.0000      -0.374423       -10.1886
  52   1.0000      -0.362361        -9.8604
  53   1.0000      -0.358560        -9.7569
  54   1.0000      -0.355471        -9.6729
  55   1.0000      -0.344849        -9.3838
  56   1.0000      -0.339366        -9.2346
  57   1.0000      -0.337747        -9.1906
  58   1.0000      -0.332983        -9.0609
  59   1.0000      -0.328267        -8.9326
  60   1.0000      -0.327756        -8.9187
  61   1.0000      -0.323196        -8.7946
  62   1.0000      -0.319780        -8.7016
  63   1.0000      -0.318041        -8.6543
  64   1.0000      -0.314448        -8.5566
  65   1.0000      -0.310149        -8.4396
  66   1.0000      -0.308247        -8.3878
  67   1.0000      -0.306483        -8.3398
  68   1.0000      -0.304712        -8.2916
  69   1.0000      -0.304509        -8.2861
  70   1.0000      -0.302366        -8.2278
  71   1.0000      -0.297276        -8.0893
  72   1.0000      -0.292823        -7.9681
  73   1.0000      -0.289597        -7.8803
  74   1.0000      -0.287924        -7.8348
  75   1.0000      -0.284944        -7.7537
  76   1.0000      -0.283189        -7.7060
  77   1.0000      -0.282451        -7.6859
  78   1.0000      -0.277631        -7.5547
  79   1.0000      -0.276144        -7.5143
  80   1.0000      -0.274798        -7.4776
  81   1.0000      -0.273771        -7.4497
  82   1.0000      -0.273196        -7.4340
  83   1.0000      -0.273087        -7.4311
  84   1.0000      -0.270490        -7.3604
  85   1.0000      -0.266650        -7.2559
  86   1.0000      -0.265987        -7.2379
  87   1.0000      -0.265077        -7.2131
  88   1.0000      -0.264696        -7.2028
  89   1.0000      -0.261095        -7.1047
  90   1.0000      -0.261018        -7.1027
  91   1.0000      -0.258821        -7.0429
  92   1.0000      -0.255225        -6.9450
  93   1.0000      -0.253367        -6.8945
  94   1.0000      -0.250224        -6.8089
  95   1.0000      -0.248938        -6.7739
  96   1.0000      -0.246207        -6.6996
  97   1.0000      -0.245507        -6.6806
  98   1.0000      -0.245389        -6.6774
  99   1.0000      -0.243751        -6.6328
 100   1.0000      -0.239832        -6.5262
 101   1.0000      -0.233443        -6.3523
 102   1.0000      -0.221607        -6.0302
 103   1.0000      -0.221349        -6.0232
 104   1.0000      -0.203819        -5.5462
 105   0.0000      -0.160235        -4.3602
 106   0.0000      -0.158124        -4.3028
 107   0.0000      -0.148292        -4.0352
 108   0.0000      -0.130231        -3.5438
 109   0.0000      -0.127225        -3.4620

MULLIKEN ATOMIC CHARGES AND SPIN POPULATIONS
--------------------------------------------
   0 Au:   -0.084587    0.033375
   1 Au:    0.440712    0.088322
   2 Au:    0.181702    0.075181
   3 Au:    0.166082    0.087983
   4 Au:    0.208819    0.038103
   5 Au:    0.166735    0.087492
   6 Au:    0.062197    0.032557
   7 Au:    0.072944    0.032547
   8 Au:   -0.420699    0.012255
   9 Au:    0.359125    0.071064
  10 Mn:   -1.153030    4.441120
Sum of atomic charges         :   -0.0000000

LOEWDIN ATOMIC CHARGES AND SPIN POPULATIONS
-------------------------------------------
   0 Au:   -0.008169    0.064320
   1 Au:    0.122023    0.059801
   2 Au:    0.058917    0.068450
   3 Au:    0.061128    0.081879
   4 Au:   -0.014062    0.046395
   5 Au:    0.062355    0.081409
   6 Au:    0.003849    0.053760
   7 Au:    0.004669    0.053207
   8 Au:   -0.141479    0.068115
   9 Au:    0.104552    0.053315
  10 Mn:   -0.253782    4.369349

  Mayer bond orders larger than 0.100000
B(  0-Au,  2-Au) :   0.4906 B(  0-Au,  8-Au) :   0.3303 B(  0-Au,  9-Au) :   0.3713
B(  0-Au, 10-Mn) :   0.5763 B(  1-Au,  6-Au) :   0.2692 B(  1-Au,  7-Au) :   0.2638
B(  1-Au,  8-Au) :   0.5231 B(  2-Au,  4-Au) :   0.2770 B(  2-Au, 10-Mn) :   0.5878
B(  3-Au,  4-Au) :   0.2725 B(  3-Au,  6-Au) :   0.5428 B(  3-Au, 10-Mn) :   0.5859
B(  4-Au,  5-Au) :   0.2708 B(  4-Au, 10-Mn) :   0.3272 B(  5-Au,  7-Au) :   0.5361
B(  5-Au, 10-Mn) :   0.5880 B(  6-Au,  7-Au) :   0.1588 B(  6-Au,  8-Au) :   0.1901
B(  6-Au, 10-Mn) :   0.5398 B(  7-Au,  8-Au) :   0.1949 B(  7-Au, 10-Mn) :   0.5382
B(  8-Au,  9-Au) :   0.6865 B(  8-Au, 10-Mn) :   0.2433

FINAL SINGLE POINT ENERGY     -2509.043570975430

DIPOLE MOMENT
-------------
                                X             Y             Z
Electronic contribution:     -1.12458       1.05186     -28.28574
Nuclear contribution   :      1.08133      -1.00507      27.77286
                        -----------------------------------------
Total Dipole Moment    :     -0.04324       0.04679      -0.51288
                        -----------------------------------------
Magnitude (a.u.)       :      0.51682
Magnitude (Debye)      :      1.31365

Rotational constants in cm-1:     0.001942     0.001413     0.001023
Rotational constants in MHz :    58.218579    42.357142    30.656378

                             ****ORCA TERMINATED NORMALLY****
TOTAL RUN TIME: 0 days 3 hours 31 minutes 33 seconds 33 msec
