                         Program Version 5.0.3 -  RELEASE  -
|  1> !SC-NEVPT2 def2-TZVP def2-TZVP/C
|  2> !MOREAD RIJCOSX def2/J
|  3> %maxcore 4000
|  4> %moinp "casscf.gbw"
|  5> %pal nprocs 8 end
|  6>
|  7> %casscf
|  8>  mult 5,3
|  9>  bweight 1,1
| 10>  nroots 5,45
| 11>  nel 6
| 12>  norb 5
| 13>  ptsettings
| 14>   d4tpre 1e-14 # default = 1e-10
| 15>   d3tpre 1e-14
| 16>  end
| 17>  rel
| 18>    dosoc true
| 19>    gtensor true
| 20>  end
| 21> end
| 22>
| 23>
| 24> *xyzfile 0 5 pbe.xyz
| 25>
| 26>
| 27>                          ****END OF INPUT****

CARTESIAN COORDINATES (ANGSTROEM)
---------------------------------
  Au     6.170119    5.779933    6.541651
  Au    10.335173    6.814664    7.944502
  Au     8.825042    8.657259    9.202237
  Au     8.708488    4.837481    6.637906
  Au     7.779314    5.955327    8.995122
  Au     6.554766    7.860943   10.722244
  Au     4.967138    6.278436    9.130146
  Au     6.746144   10.428378    9.624092
  Au    10.602363    6.450465    5.226920
  Au     6.229863    8.428575    5.234446
  Au     7.214062   10.501604    6.926457
  Au     8.871569    8.428386    6.195655
  Au     4.051640    7.523045    6.783016
  Au     7.939746    6.427342    4.413060
  Cr     6.404925    8.226924    7.982618

 Total Charge           Charge          ....    0
 Multiplicity           Mult            ....    5
 Number of Electrons    NEL             ....  290
 Basis Dimension        Dim             ....  605

ORBITAL ENERGIES
----------------

  NO   OCC          E(Eh)            E(eV)
   0   2.0000    -220.501478     -6000.1502
   1   2.0000     -26.339642      -716.7381
   2   2.0000     -22.274342      -606.1157
   3   2.0000     -22.272199      -606.0574
   4   2.0000     -22.259314      -605.7067
   5   2.0000      -4.718773      -128.4044
   6   2.0000      -4.718634      -128.4006
   7   2.0000      -4.716035      -128.3298
   8   2.0000      -4.714974      -128.3010
   9   2.0000      -4.714461      -128.2870
  10   2.0000      -4.713844      -128.2702
  11   2.0000      -4.713210      -128.2530
  12   2.0000      -4.708239      -128.1177
  13   2.0000      -4.708176      -128.1160
  14   2.0000      -4.707321      -128.0927
  15   2.0000      -4.703811      -127.9972
  16   2.0000      -4.702330      -127.9569
  17   2.0000      -4.700535      -127.9081
  18   2.0000      -4.696691      -127.8035
  19   2.0000      -3.394027       -92.3562
  20   2.0000      -2.758524       -75.0633
  21   2.0000      -2.758108       -75.0519
  22   2.0000      -2.756625       -75.0116
  23   2.0000      -2.756190       -74.9997
  24   2.0000      -2.755791       -74.9889
  25   2.0000      -2.755036       -74.9683
  26   2.0000      -2.754662       -74.9582
  27   2.0000      -2.754117       -74.9433
  28   2.0000      -2.753711       -74.9323
  29   2.0000      -2.753589       -74.9290
  30   2.0000      -2.752136       -74.8894
  31   2.0000      -2.751071       -74.8604
  32   2.0000      -2.750842       -74.8542
  33   2.0000      -2.750165       -74.8358
  34   2.0000      -2.749768       -74.8250
  35   2.0000      -2.749631       -74.8213
  36   2.0000      -2.748721       -74.7965
  37   2.0000      -2.748584       -74.7928
  38   2.0000      -2.748367       -74.7869
  39   2.0000      -2.748193       -74.7821
  40   2.0000      -2.747033       -74.7506
  41   2.0000      -2.745462       -74.7078
  42   2.0000      -2.744771       -74.6890
  43   2.0000      -2.744184       -74.6730
  44   2.0000      -2.743321       -74.6496
  45   2.0000      -2.742634       -74.6309
  46   2.0000      -2.742258       -74.6206
  47   2.0000      -2.741965       -74.6127
  48   2.0000      -2.741687       -74.6051
  49   2.0000      -2.741522       -74.6006
  50   2.0000      -2.740830       -74.5818
  51   2.0000      -2.740367       -74.5692
  52   2.0000      -2.739452       -74.5443
  53   2.0000      -2.738733       -74.5247
  54   2.0000      -2.736771       -74.4713
  55   2.0000      -2.736020       -74.4509
  56   2.0000      -2.735537       -74.4378
  57   2.0000      -2.734925       -74.4211
  58   2.0000      -2.734872       -74.4196
  59   2.0000      -2.732655       -74.3593
  60   2.0000      -2.731178       -74.3191
  61   2.0000      -2.730433       -74.2989
  62   2.0000      -2.160553       -58.7916
  63   2.0000      -2.159189       -58.7545
  64   2.0000      -2.145155       -58.3726
  65   2.0000      -0.559681       -15.2297
  66   2.0000      -0.556877       -15.1534
  67   2.0000      -0.553836       -15.0706
  68   2.0000      -0.548066       -14.9136
  69   2.0000      -0.547182       -14.8896
  70   2.0000      -0.546003       -14.8575
  71   2.0000      -0.544412       -14.8142
  72   2.0000      -0.542232       -14.7549
  73   2.0000      -0.539711       -14.6863
  74   2.0000      -0.538883       -14.6637
  75   2.0000      -0.538796       -14.6614
  76   2.0000      -0.536982       -14.6120
  77   2.0000      -0.532256       -14.4834
  78   2.0000      -0.530708       -14.4413
  79   2.0000      -0.529319       -14.4035
  80   2.0000      -0.528675       -14.3860
  81   2.0000      -0.526269       -14.3205
  82   2.0000      -0.523498       -14.2451
  83   2.0000      -0.519022       -14.1233
  84   2.0000      -0.517427       -14.0799
  85   2.0000      -0.513542       -13.9742
  86   2.0000      -0.511915       -13.9299
  87   2.0000      -0.508528       -13.8377
  88   2.0000      -0.506869       -13.7926
  89   2.0000      -0.504053       -13.7160
  90   2.0000      -0.502503       -13.6738
  91   2.0000      -0.500820       -13.6280
  92   2.0000      -0.499122       -13.5818
  93   2.0000      -0.496295       -13.5049
  94   2.0000      -0.493520       -13.4294
  95   2.0000      -0.489462       -13.3189
  96   2.0000      -0.482175       -13.1207
  97   2.0000      -0.477708       -12.9991
  98   2.0000      -0.476475       -12.9655
  99   2.0000      -0.474087       -12.9006
 100   2.0000      -0.470375       -12.7996
 101   2.0000      -0.467726       -12.7275
 102   2.0000      -0.465982       -12.6800
 103   2.0000      -0.464247       -12.6328
 104   2.0000      -0.463452       -12.6112
 105   2.0000      -0.460730       -12.5371
 106   2.0000      -0.459486       -12.5032
 107   2.0000      -0.456463       -12.4210
 108   2.0000      -0.454067       -12.3558
 109   2.0000      -0.453571       -12.3423
 110   2.0000      -0.449440       -12.2299
 111   2.0000      -0.448093       -12.1932
 112   2.0000      -0.446464       -12.1489
 113   2.0000      -0.445701       -12.1281
 114   2.0000      -0.444014       -12.0822
 115   2.0000      -0.442628       -12.0445
 116   2.0000      -0.442348       -12.0369
 117   2.0000      -0.441049       -12.0016
 118   2.0000      -0.439592       -11.9619
 119   2.0000      -0.438686       -11.9372
 120   2.0000      -0.435819       -11.8592
 121   2.0000      -0.433353       -11.7921
 122   2.0000      -0.431037       -11.7291
 123   2.0000      -0.430037       -11.7019
 124   2.0000      -0.426872       -11.6158
 125   2.0000      -0.426569       -11.6075
 126   2.0000      -0.420453       -11.4411
 127   2.0000      -0.419425       -11.4131
 128   2.0000      -0.414041       -11.2666
 129   2.0000      -0.412396       -11.2219
 130   2.0000      -0.411509       -11.1977
 131   2.0000      -0.409203       -11.1350
 132   2.0000      -0.403872       -10.9899
 133   2.0000      -0.402771       -10.9600
 134   2.0000      -0.400134       -10.8882
 135   2.0000      -0.390820       -10.6348
 136   2.0000      -0.374639       -10.1944
 137   2.0000      -0.347076        -9.4444
 138   2.0000      -0.334213        -9.0944
 139   2.0000      -0.249038        -6.7767
 140   2.0000      -0.236073        -6.4239
 141   2.0000      -0.228368        -6.2142
 142   1.2000      -0.127078        -3.4580
 143   1.2000      -0.104844        -2.8529
 144   1.2000      -0.122499        -3.3334
 145   1.2000      -0.088949        -2.4204
 146   1.2000      -0.087673        -2.3857
 147   0.0000      -0.035301        -0.9606
 148   0.0000      -0.006765        -0.1841
 149   0.0000       0.003741         0.1018
 150   0.0000       0.009897         0.2693
 151   0.0000       0.012287         0.3343

MULLIKEN ATOMIC CHARGES AND SPIN DENSITIES
------------------------------------------
   0 Au:   -0.159076    0.023964
   1 Au:    0.235687    0.013119
   2 Au:    0.214585    0.054582
   3 Au:    0.241540    0.021765
   4 Au:   -0.206826    0.022824
   5 Au:    0.600340    0.024248
   6 Au:    0.608353    0.000739
   7 Au:    0.454459    0.025310
   8 Au:    0.417877    0.011022
   9 Au:    0.393935    0.038072
  10 Au:    0.643468    0.020000
  11 Au:   -0.740086    0.015714
  12 Au:    0.518301    0.019102
  13 Au:    0.221766    0.039194
  14 Cr:   -3.444324    2.670347
Sum of atomic charges       :    0.0000000

LOEWDIN ATOMIC CHARGES AND SPIN DENSITIES
-----------------------------------------
   0 Au:   -0.038259    0.045880
   1 Au:    0.052915    0.021406
   2 Au:    0.035551    0.061252
   3 Au:    0.004556    0.023076
   4 Au:    0.007860    0.043287
   5 Au:    0.113930    0.050548
   6 Au:    0.125289    0.043541
   7 Au:    0.143402    0.057135
   8 Au:    0.089139    0.012689
   9 Au:    0.083035    0.066363
  10 Au:    0.164333    0.075369
  11 Au:   -0.093413    0.036388
  12 Au:    0.198043    0.044235
  13 Au:    0.036390    0.035958
  14 Cr:   -0.922772    2.382873

  Mayer bond orders larger than 0.100000
B(  0-Au,  3-Au) :   0.4426 B(  0-Au,  4-Au) :   0.3543 B(  0-Au,  9-Au) :   0.1034
B(  0-Au, 12-Au) :   0.1809 B(  0-Au, 13-Au) :   0.1699 B(  0-Au, 14-Cr) :   0.2894
B(  1-Au,  2-Au) :   0.3236 B(  1-Au,  4-Au) :   0.1403 B(  1-Au,  8-Au) :   0.1991
B(  1-Au, 11-Au) :   0.3578 B(  1-Au, 14-Cr) :   0.1701 B(  2-Au,  4-Au) :   0.2823
B(  2-Au,  5-Au) :   0.1138 B(  2-Au,  7-Au) :   0.1791 B(  2-Au, 11-Au) :   0.1497
B(  2-Au, 12-Au) :   0.1260 B(  2-Au, 14-Cr) :   0.2530 B(  3-Au,  4-Au) :   0.2238
B(  3-Au,  8-Au) :   0.1465 B(  3-Au, 11-Au) :   0.1275 B(  3-Au, 13-Au) :   0.1506
B(  4-Au,  5-Au) :   0.1661 B(  4-Au,  6-Au) :   0.1146 B(  4-Au, 14-Cr) :   0.3676
B(  5-Au,  6-Au) :   0.1752 B(  5-Au,  7-Au) :   0.1254 B(  5-Au, 14-Cr) :   0.2818
B(  6-Au, 10-Au) :   0.1347 B(  6-Au, 12-Au) :   0.1732 B(  6-Au, 14-Cr) :   0.3099
B(  7-Au, 10-Au) :   0.2178 B(  7-Au, 14-Cr) :   0.4116 B(  8-Au, 11-Au) :   0.4449
B(  8-Au, 13-Au) :   0.1969 B(  9-Au, 10-Au) :   0.1175 B(  9-Au, 11-Au) :   0.3213
B(  9-Au, 12-Au) :   0.1159 B(  9-Au, 13-Au) :   0.1899 B(  9-Au, 14-Cr) :   0.2011
B( 10-Au, 11-Au) :   0.1580 B( 10-Au, 14-Cr) :   0.2490 B( 11-Au, 13-Au) :   0.3450
B( 11-Au, 14-Cr) :   0.3303 B( 12-Au, 14-Cr) :   0.4545 B( 13-Au, 14-Cr) :   0.2255

FINAL SINGLE POINT ENERGY     -2937.569870310993

DIPOLE MOMENT
-------------
                                X             Y             Z
Electronic contribution:     38.13117     -26.85161     -20.47581
Nuclear contribution   :    -38.54656      27.17516      20.57094
                        -----------------------------------------
Total Dipole Moment    :     -0.41539       0.32355       0.09512
                        -----------------------------------------
Magnitude (a.u.)       :      0.53505
Magnitude (Debye)      :      1.35999

Rotational constants in cm-1:     0.001227     0.000921     0.000862
Rotational constants in MHz :    36.792099    27.596282    25.848922

                             ****ORCA TERMINATED NORMALLY****
TOTAL RUN TIME: 0 days 1 hours 19 minutes 37 seconds 123 msec
