                         Program Version 5.0.3 -  RELEASE  -
|  1> !RI-B2PLYP def2-TZVP def2-TZVP/C
|  2> !RIJCOSX VERYSLOWCONV
|  3>
|  4> %scf
|  5>   AutoTRAHIter 200
|  6>   maxiter 400
|  7> end
|  8>
|  9>
| 10> %pal nprocs 6 end
| 11>
| 12> *xyzfile 0 6 pbe.xyz
| 13>
| 14> $new_job
| 15>
| 16> !RI-B2PLYP def2-TZVP def2-TZVP/C
| 17> !RIJCOSX VERYSLOWCONV
| 18>
| 19> %scf
| 20>   AutoTRAHIter 200
| 21>   maxiter 400
| 22> end
| 23>
| 24>
| 25> %pal nprocs 6 end
| 26>
| 27> *xyzfile 0 4 pbe.xyz
| 28>
| 29>
| 30>
| 31>
| 32>
| 33>                          ****END OF INPUT****
 Total Charge           Charge          ....    0
 Multiplicity           Mult            ....    6
 Number of Electrons    NEL             ....  253
MP2 TOTAL ENERGY:    -2777.845886657 Eh
FINAL SINGLE POINT ENERGY     -2777.845886656763

CARTESIAN COORDINATES (ANGSTROEM)
---------------------------------
  Au     7.885834   10.320557    5.741352
  Au     9.608171    7.596603    4.984659
  Au    10.619518   10.211852    5.438320
  Au    11.868337    8.093710    6.639601
  Au    10.284686    6.416290    8.130275
  Au     7.327568    6.345231    5.059626
  Au     9.738235   10.395472    9.644058
  Au     8.540263    7.910657    9.751279
  Au     7.551538    6.254049    7.876996
  Au     5.117690    5.878464    6.629553
  Au     6.160525    8.402738    6.696834
  Au     7.273796   10.079403    8.470003
  Mn     9.384145    8.832404    7.389117

 Multiplicity           Mult            ....    4
 Number of Electrons    NEL             ....  253
 Basis Dimension        Dim             ....  525

ORBITAL ENERGIES
----------------
                 SPIN UP ORBITALS
  NO   OCC          E(Eh)            E(eV)
   0   1.0000    -237.624557     -6466.0929
   1   1.0000     -28.127685      -765.3932
   2   1.0000     -24.046321      -654.3337
   3   1.0000     -24.045151      -654.3018
   4   1.0000     -24.044678      -654.2890
   5   1.0000      -4.407781      -119.9418
   6   1.0000      -4.407423      -119.9321
   7   1.0000      -4.398056      -119.6772
   8   1.0000      -4.397984      -119.6752
   9   1.0000      -4.396978      -119.6479
  10   1.0000      -4.396496      -119.6347
  11   1.0000      -4.396306      -119.6296
  12   1.0000      -4.395793      -119.6156
  13   1.0000      -4.386669      -119.3673
  14   1.0000      -4.386368      -119.3591
  15   1.0000      -4.383089      -119.2699
  16   1.0000      -4.376715      -119.0965
  17   1.0000      -3.605147       -98.1010
  18   1.0000      -2.529126       -68.8210
  19   1.0000      -2.528114       -68.7935
  20   1.0000      -2.527618       -68.7800
  21   1.0000      -2.525999       -68.7359
  22   1.0000      -2.523270       -68.6617
  23   1.0000      -2.521012       -68.6002
  24   1.0000      -2.520522       -68.5869
  25   1.0000      -2.519728       -68.5653
  26   1.0000      -2.518638       -68.5356
  27   1.0000      -2.517887       -68.5152
  28   1.0000      -2.517662       -68.5091
  29   1.0000      -2.516147       -68.4678
  30   1.0000      -2.516032       -68.4647
  31   1.0000      -2.514694       -68.4283
  32   1.0000      -2.514237       -68.4159
  33   1.0000      -2.513090       -68.3847
  34   1.0000      -2.512871       -68.3787
  35   1.0000      -2.512126       -68.3584
  36   1.0000      -2.511483       -68.3409
  37   1.0000      -2.510913       -68.3254
  38   1.0000      -2.510716       -68.3200
  39   1.0000      -2.510190       -68.3057
  40   1.0000      -2.509681       -68.2919
  41   1.0000      -2.509401       -68.2843
  42   1.0000      -2.507006       -68.2191
  43   1.0000      -2.506808       -68.2137
  44   1.0000      -2.504663       -68.1554
  45   1.0000      -2.503055       -68.1116
  46   1.0000      -2.501179       -68.0605
  47   1.0000      -2.501052       -68.0571
  48   1.0000      -2.498465       -67.9867
  49   1.0000      -2.498204       -67.9796
  50   1.0000      -2.497951       -67.9727
  51   1.0000      -2.493640       -67.8554
  52   1.0000      -2.492889       -67.8350
  53   1.0000      -2.490489       -67.7696
  54   1.0000      -2.407596       -65.5140
  55   1.0000      -2.405908       -65.4681
  56   1.0000      -2.405830       -65.4660
  57   1.0000      -0.522710       -14.2237
  58   1.0000      -0.515919       -14.0389
  59   1.0000      -0.513030       -13.9603
  60   1.0000      -0.508557       -13.8386
  61   1.0000      -0.503722       -13.7070
  62   1.0000      -0.485531       -13.2120
  63   1.0000      -0.477490       -12.9932
  64   1.0000      -0.464071       -12.6280
  65   1.0000      -0.463560       -12.6141
  66   1.0000      -0.458801       -12.4846
  67   1.0000      -0.452299       -12.3077
  68   1.0000      -0.449367       -12.2279
  69   1.0000      -0.444245       -12.0885
  70   1.0000      -0.443570       -12.0701
  71   1.0000      -0.442888       -12.0516
  72   1.0000      -0.438107       -11.9215
  73   1.0000      -0.435473       -11.8498
  74   1.0000      -0.430683       -11.7195
  75   1.0000      -0.430007       -11.7011
  76   1.0000      -0.429086       -11.6760
  77   1.0000      -0.426783       -11.6133
  78   1.0000      -0.426259       -11.5991
  79   1.0000      -0.418504       -11.3881
  80   1.0000      -0.417780       -11.3684
  81   1.0000      -0.416434       -11.3318
  82   1.0000      -0.414652       -11.2833
  83   1.0000      -0.411849       -11.2070
  84   1.0000      -0.410642       -11.1741
  85   1.0000      -0.409268       -11.1367
  86   1.0000      -0.408200       -11.1077
  87   1.0000      -0.397325       -10.8118
  88   1.0000      -0.395466       -10.7612
  89   1.0000      -0.393106       -10.6970
  90   1.0000      -0.391750       -10.6601
  91   1.0000      -0.382907       -10.4194
  92   1.0000      -0.382256       -10.4017
  93   1.0000      -0.379907       -10.3378
  94   1.0000      -0.378729       -10.3057
  95   1.0000      -0.375837       -10.2270
  96   1.0000      -0.374765       -10.1979
  97   1.0000      -0.373436       -10.1617
  98   1.0000      -0.372386       -10.1331
  99   1.0000      -0.371054       -10.0969
 100   1.0000      -0.368578       -10.0295
 101   1.0000      -0.367122        -9.9899
 102   1.0000      -0.366954        -9.9853
 103   1.0000      -0.364531        -9.9194
 104   1.0000      -0.360583        -9.8120
 105   1.0000      -0.359464        -9.7815
 106   1.0000      -0.357673        -9.7328
 107   1.0000      -0.357329        -9.7234
 108   1.0000      -0.356041        -9.6884
 109   1.0000      -0.354956        -9.6588
 110   1.0000      -0.354503        -9.6465
 111   1.0000      -0.353303        -9.6139
 112   1.0000      -0.352150        -9.5825
 113   1.0000      -0.350844        -9.5469
 114   1.0000      -0.348348        -9.4790
 115   1.0000      -0.343490        -9.3468
 116   1.0000      -0.340811        -9.2739
 117   1.0000      -0.339411        -9.2358
 118   1.0000      -0.337459        -9.1827
 119   1.0000      -0.326391        -8.8815
 120   1.0000      -0.323318        -8.7979
 121   1.0000      -0.317329        -8.6350
 122   1.0000      -0.314734        -8.5644
 123   1.0000      -0.313464        -8.5298
 124   1.0000      -0.305434        -8.3113
 125   1.0000      -0.284472        -7.7409
 126   1.0000      -0.235786        -6.4161
 127   1.0000      -0.216853        -5.9009
 128   0.0000      -0.121513        -3.3065
 129   0.0000      -0.100633        -2.7384
 130   0.0000      -0.077696        -2.1142
 131   0.0000      -0.067316        -1.8318
 132   0.0000      -0.055628        -1.5137

                 SPIN DOWN ORBITALS
  NO   OCC          E(Eh)            E(eV)
   0   1.0000    -237.622475     -6466.0363
   1   1.0000     -28.026930      -762.6515
   2   1.0000     -23.953085      -651.7966
   3   1.0000     -23.952993      -651.7941
   4   1.0000     -23.952527      -651.7814
   5   1.0000      -4.407599      -119.9369
   6   1.0000      -4.407280      -119.9282
   7   1.0000      -4.398845      -119.6987
   8   1.0000      -4.398423      -119.6872
   9   1.0000      -4.397712      -119.6678
  10   1.0000      -4.396529      -119.6356
  11   1.0000      -4.396399      -119.6321
  12   1.0000      -4.396240      -119.6278
  13   1.0000      -4.386962      -119.3753
  14   1.0000      -4.386208      -119.3548
  15   1.0000      -4.383572      -119.2831
  16   1.0000      -4.376461      -119.0895
  17   1.0000      -3.321805       -90.3909
  18   1.0000      -2.527691       -68.7820
  19   1.0000      -2.527128       -68.7667
  20   1.0000      -2.526835       -68.7587
  21   1.0000      -2.524867       -68.7051
  22   1.0000      -2.523008       -68.6546
  23   1.0000      -2.520960       -68.5988
  24   1.0000      -2.520334       -68.5818
  25   1.0000      -2.519931       -68.5708
  26   1.0000      -2.518441       -68.5303
  27   1.0000      -2.517414       -68.5023
  28   1.0000      -2.517250       -68.4978
  29   1.0000      -2.515237       -68.4431
  30   1.0000      -2.515124       -68.4400
  31   1.0000      -2.514984       -68.4362
  32   1.0000      -2.514382       -68.4198
  33   1.0000      -2.512977       -68.3816
  34   1.0000      -2.512497       -68.3685
  35   1.0000      -2.512176       -68.3598
  36   1.0000      -2.511300       -68.3359
  37   1.0000      -2.511097       -68.3304
  38   1.0000      -2.510615       -68.3173
  39   1.0000      -2.510309       -68.3090
  40   1.0000      -2.508935       -68.2716
  41   1.0000      -2.508838       -68.2689
  42   1.0000      -2.507347       -68.2284
  43   1.0000      -2.505816       -68.1867
  44   1.0000      -2.503838       -68.1329
  45   1.0000      -2.502764       -68.1037
  46   1.0000      -2.500492       -68.0419
  47   1.0000      -2.500277       -68.0360
  48   1.0000      -2.499995       -68.0283
  49   1.0000      -2.498816       -67.9962
  50   1.0000      -2.498657       -67.9919
  51   1.0000      -2.493690       -67.8568
  52   1.0000      -2.492541       -67.8255
  53   1.0000      -2.490691       -67.7751
  54   1.0000      -2.083458       -56.6938
  55   1.0000      -2.082775       -56.6752
  56   1.0000      -2.080360       -56.6095
  57   1.0000      -0.494859       -13.4658
  58   1.0000      -0.483016       -13.1435
  59   1.0000      -0.473510       -12.8849
  60   1.0000      -0.472966       -12.8701
  61   1.0000      -0.466926       -12.7057
  62   1.0000      -0.457773       -12.4566
  63   1.0000      -0.454639       -12.3714
  64   1.0000      -0.451574       -12.2880
  65   1.0000      -0.450266       -12.2524
  66   1.0000      -0.447277       -12.1710
  67   1.0000      -0.444512       -12.0958
  68   1.0000      -0.441549       -12.0151
  69   1.0000      -0.440055       -11.9745
  70   1.0000      -0.436003       -11.8643
  71   1.0000      -0.435356       -11.8466
  72   1.0000      -0.434969       -11.8361
  73   1.0000      -0.431284       -11.7358
  74   1.0000      -0.426722       -11.6117
  75   1.0000      -0.424233       -11.5440
  76   1.0000      -0.421307       -11.4644
  77   1.0000      -0.418326       -11.3832
  78   1.0000      -0.417694       -11.3660
  79   1.0000      -0.416419       -11.3313
  80   1.0000      -0.414146       -11.2695
  81   1.0000      -0.412218       -11.2170
  82   1.0000      -0.400418       -10.8959
  83   1.0000      -0.397657       -10.8208
  84   1.0000      -0.395864       -10.7720
  85   1.0000      -0.393285       -10.7018
  86   1.0000      -0.392240       -10.6734
  87   1.0000      -0.388174       -10.5627
  88   1.0000      -0.386485       -10.5168
  89   1.0000      -0.382805       -10.4166
  90   1.0000      -0.381349       -10.3770
  91   1.0000      -0.379725       -10.3328
  92   1.0000      -0.378096       -10.2885
  93   1.0000      -0.376395       -10.2422
  94   1.0000      -0.374403       -10.1880
  95   1.0000      -0.373311       -10.1583
  96   1.0000      -0.371265       -10.1026
  97   1.0000      -0.370342       -10.0775
  98   1.0000      -0.368510       -10.0277
  99   1.0000      -0.366995        -9.9864
 100   1.0000      -0.363614        -9.8944
 101   1.0000      -0.360446        -9.8082
 102   1.0000      -0.359608        -9.7854
 103   1.0000      -0.358640        -9.7591
 104   1.0000      -0.357277        -9.7220
 105   1.0000      -0.356474        -9.7001
 106   1.0000      -0.355108        -9.6630
 107   1.0000      -0.352992        -9.6054
 108   1.0000      -0.352134        -9.5821
 109   1.0000      -0.349648        -9.5144
 110   1.0000      -0.345910        -9.4127
 111   1.0000      -0.343478        -9.3465
 112   1.0000      -0.342243        -9.3129
 113   1.0000      -0.340340        -9.2611
 114   1.0000      -0.330566        -8.9952
 115   1.0000      -0.326726        -8.8907
 116   1.0000      -0.320879        -8.7316
 117   1.0000      -0.318727        -8.6730
 118   1.0000      -0.315120        -8.5748
 119   1.0000      -0.312960        -8.5161
 120   1.0000      -0.304101        -8.2750
 121   1.0000      -0.249305        -6.7839
 122   1.0000      -0.229223        -6.2375
 123   1.0000      -0.225676        -6.1410
 124   1.0000      -0.195250        -5.3130
 125   0.0000      -0.086588        -2.3562
 126   0.0000      -0.076594        -2.0842
 127   0.0000      -0.060333        -1.6417
 128   0.0000      -0.053375        -1.4524
 129   0.0000      -0.043718        -1.1896

MULLIKEN ATOMIC CHARGES AND SPIN POPULATIONS
--------------------------------------------
   0 Au:    0.174416   -0.240629
   1 Au:   -0.200240   -0.101791
   2 Au:    0.254488   -0.295527
   3 Au:    0.255527   -0.285767
   4 Au:    0.217099   -0.252327
   5 Au:    0.125454    0.091711
   6 Au:    0.176420   -0.056076
   7 Au:    0.287104   -0.137526
   8 Au:   -0.327348   -0.076073
   9 Au:    0.416352   -0.024331
  10 Au:   -0.220854   -0.070214
  11 Au:    0.261175   -0.127483
  12 Mn:   -1.419593    4.576033
Sum of atomic charges         :   -0.0000000

LOEWDIN ATOMIC CHARGES AND SPIN POPULATIONS
-------------------------------------------
   0 Au:    0.059487   -0.202722
   1 Au:   -0.077202   -0.086443
   2 Au:    0.070515   -0.260684
   3 Au:    0.064031   -0.255267
   4 Au:    0.067696   -0.211690
   5 Au:   -0.049996    0.038677
   6 Au:    0.098826   -0.057041
   7 Au:    0.024237   -0.124668
   8 Au:   -0.109515   -0.082110
   9 Au:    0.139555   -0.022646
  10 Au:   -0.100300   -0.077870
  11 Au:    0.015278   -0.120076
  12 Mn:   -0.202612    4.462541

  Mayer bond orders larger than 0.100000
B(  0-Au,  2-Au) :   0.1936 B(  0-Au, 10-Au) :   0.2694 B(  0-Au, 11-Au) :   0.1301
B(  0-Au, 12-Mn) :   0.4812 B(  1-Au,  2-Au) :   0.1430 B(  1-Au,  3-Au) :   0.1535
B(  1-Au,  5-Au) :   0.5857 B(  1-Au, 12-Mn) :   0.5018 B(  2-Au,  3-Au) :   0.2745
B(  2-Au, 12-Mn) :   0.4392 B(  3-Au,  4-Au) :   0.1912 B(  3-Au, 12-Mn) :   0.4423
B(  4-Au,  7-Au) :   0.1130 B(  4-Au,  8-Au) :   0.2747 B(  4-Au, 12-Mn) :   0.4752
B(  5-Au,  8-Au) :   0.2539 B(  5-Au,  9-Au) :   0.2335 B(  5-Au, 10-Au) :   0.2093
B(  5-Au, 12-Mn) :   0.1040 B(  6-Au,  7-Au) :   0.2159 B(  6-Au, 11-Au) :   0.2309
B(  6-Au, 12-Mn) :   0.4771 B(  7-Au,  8-Au) :   0.3765 B(  7-Au, 11-Au) :   0.1730
B(  7-Au, 12-Mn) :   0.4505 B(  8-Au,  9-Au) :   0.3794 B(  8-Au, 10-Au) :   0.3544
B(  8-Au, 12-Mn) :   0.2210 B(  9-Au, 10-Au) :   0.3655 B( 10-Au, 11-Au) :   0.3891
B( 10-Au, 12-Mn) :   0.1902 B( 11-Au, 12-Mn) :   0.4525

MP2 TOTAL ENERGY:    -2777.836938633 Eh
FINAL SINGLE POINT ENERGY     -2777.836938633280

DIPOLE MOMENT
-------------
                                X             Y             Z
Electronic contribution:    -32.11201     -24.23023     -10.51982
Nuclear contribution   :     32.23969      24.50916      10.93552
                        -----------------------------------------
Total Dipole Moment    :      0.12768       0.27893       0.41571
                        -----------------------------------------
Magnitude (a.u.)       :      0.51664
Magnitude (Debye)      :      1.31320

Rotational constants in cm-1:     0.001506     0.001134     0.001041
Rotational constants in MHz :    45.154908    33.996459    31.194614

                             ****ORCA TERMINATED NORMALLY****
TOTAL RUN TIME: 0 days 0 hours 41 minutes 16 seconds 191 msec
