                         Program Version 5.0.3 -  RELEASE  -
|  1> !PBE def2-TZVP VERYSLOWCONV
|  2> !KDIIS
|  3>
|  4> %scf
|  5>   AutoTRAHIter 200
|  6>   maxiter 400
|  7> end
|  8>
|  9>
| 10> %pal nprocs 6 end
| 11>
| 12> *xyzfile 0 6 pbe.xyz
| 13>
| 14> $new_job
| 15>
| 16> !PBE def2-TZVP VERYSLOWCONV
| 17> !KDIIS
| 18>
| 19> %scf
| 20>   AutoTRAHIter 200
| 21>   maxiter 400
| 22> end
| 23>
| 24>
| 25> %pal nprocs 6 end
| 26>
| 27> *xyzfile 0 4 pbe.xyz
| 28>
| 29>
| 30>
| 31>
| 32>
| 33>                          ****END OF INPUT****
 Total Charge           Charge          ....    0
 Multiplicity           Mult            ....    6
 Number of Electrons    NEL             ....  253
FINAL SINGLE POINT ENERGY     -2780.681498170795

CARTESIAN COORDINATES (ANGSTROEM)
---------------------------------
  Au     7.885834   10.320557    5.741352
  Au     9.608171    7.596603    4.984659
  Au    10.619518   10.211852    5.438320
  Au    11.868337    8.093710    6.639601
  Au    10.284686    6.416290    8.130275
  Au     7.327568    6.345231    5.059626
  Au     9.738235   10.395472    9.644058
  Au     8.540263    7.910657    9.751279
  Au     7.551538    6.254049    7.876996
  Au     5.117690    5.878464    6.629553
  Au     6.160525    8.402738    6.696834
  Au     7.273796   10.079403    8.470003
  Mn     9.384145    8.832404    7.389117

 Multiplicity           Mult            ....    4
 Number of Electrons    NEL             ....  253
 Basis Dimension        Dim             ....  525

ORBITAL ENERGIES
----------------
                 SPIN UP ORBITALS
  NO   OCC          E(Eh)            E(eV)
   0   1.0000    -234.204695     -6373.0337
   1   1.0000     -26.899992      -731.9860
   2   1.0000     -23.050279      -627.2300
   3   1.0000     -23.048436      -627.1798
   4   1.0000     -23.047093      -627.1433
   5   1.0000      -4.034518      -109.7848
   6   1.0000      -4.034401      -109.7816
   7   1.0000      -4.027404      -109.5912
   8   1.0000      -4.025538      -109.5404
   9   1.0000      -4.024641      -109.5160
  10   1.0000      -4.023989      -109.4983
  11   1.0000      -4.023933      -109.4968
  12   1.0000      -4.023736      -109.4914
  13   1.0000      -4.020048      -109.3911
  14   1.0000      -4.014785      -109.2478
  15   1.0000      -4.014071      -109.2284
  16   1.0000      -4.011304      -109.1531
  17   1.0000      -3.107252       -84.5526
  18   1.0000      -2.250813       -61.2477
  19   1.0000      -2.250513       -61.2396
  20   1.0000      -2.250141       -61.2295
  21   1.0000      -2.248862       -61.1946
  22   1.0000      -2.245688       -61.1083
  23   1.0000      -2.244304       -61.0706
  24   1.0000      -2.243781       -61.0564
  25   1.0000      -2.242763       -61.0287
  26   1.0000      -2.242531       -61.0224
  27   1.0000      -2.240686       -60.9722
  28   1.0000      -2.240031       -60.9544
  29   1.0000      -2.239855       -60.9496
  30   1.0000      -2.239759       -60.9469
  31   1.0000      -2.238524       -60.9133
  32   1.0000      -2.238338       -60.9083
  33   1.0000      -2.238186       -60.9041
  34   1.0000      -2.237043       -60.8730
  35   1.0000      -2.236332       -60.8537
  36   1.0000      -2.235584       -60.8333
  37   1.0000      -2.234868       -60.8138
  38   1.0000      -2.234681       -60.8088
  39   1.0000      -2.233706       -60.7822
  40   1.0000      -2.233118       -60.7662
  41   1.0000      -2.232795       -60.7574
  42   1.0000      -2.232070       -60.7377
  43   1.0000      -2.232044       -60.7370
  44   1.0000      -2.231987       -60.7355
  45   1.0000      -2.231448       -60.7208
  46   1.0000      -2.227324       -60.6086
  47   1.0000      -2.226985       -60.5993
  48   1.0000      -2.225224       -60.5514
  49   1.0000      -2.225162       -60.5497
  50   1.0000      -2.224736       -60.5382
  51   1.0000      -2.223538       -60.5055
  52   1.0000      -2.222887       -60.4878
  53   1.0000      -2.220210       -60.4150
  54   1.0000      -2.013493       -54.7899
  55   1.0000      -2.008756       -54.6610
  56   1.0000      -2.006892       -54.6103
  57   1.0000      -0.420207       -11.4344
  58   1.0000      -0.393176       -10.6989
  59   1.0000      -0.382030       -10.3956
  60   1.0000      -0.377672       -10.2770
  61   1.0000      -0.373887       -10.1740
  62   1.0000      -0.359690        -9.7877
  63   1.0000      -0.358662        -9.7597
  64   1.0000      -0.356132        -9.6908
  65   1.0000      -0.350990        -9.5509
  66   1.0000      -0.347826        -9.4648
  67   1.0000      -0.347483        -9.4555
  68   1.0000      -0.342099        -9.3090
  69   1.0000      -0.338272        -9.2049
  70   1.0000      -0.336671        -9.1613
  71   1.0000      -0.335484        -9.1290
  72   1.0000      -0.334169        -9.0932
  73   1.0000      -0.333554        -9.0765
  74   1.0000      -0.326488        -8.8842
  75   1.0000      -0.325021        -8.8443
  76   1.0000      -0.322498        -8.7756
  77   1.0000      -0.318394        -8.6639
  78   1.0000      -0.317392        -8.6367
  79   1.0000      -0.315930        -8.5969
  80   1.0000      -0.313599        -8.5335
  81   1.0000      -0.311868        -8.4863
  82   1.0000      -0.306997        -8.3538
  83   1.0000      -0.306403        -8.3377
  84   1.0000      -0.301674        -8.2090
  85   1.0000      -0.300244        -8.1700
  86   1.0000      -0.298263        -8.1162
  87   1.0000      -0.295267        -8.0346
  88   1.0000      -0.293907        -7.9976
  89   1.0000      -0.290336        -7.9004
  90   1.0000      -0.283209        -7.7065
  91   1.0000      -0.282492        -7.6870
  92   1.0000      -0.281266        -7.6536
  93   1.0000      -0.280278        -7.6268
  94   1.0000      -0.278278        -7.5723
  95   1.0000      -0.276492        -7.5237
  96   1.0000      -0.275196        -7.4885
  97   1.0000      -0.273893        -7.4530
  98   1.0000      -0.272261        -7.4086
  99   1.0000      -0.270152        -7.3512
 100   1.0000      -0.269732        -7.3398
 101   1.0000      -0.268724        -7.3124
 102   1.0000      -0.266191        -7.2434
 103   1.0000      -0.263135        -7.1603
 104   1.0000      -0.262932        -7.1547
 105   1.0000      -0.261792        -7.1237
 106   1.0000      -0.261321        -7.1109
 107   1.0000      -0.260329        -7.0839
 108   1.0000      -0.257742        -7.0135
 109   1.0000      -0.256771        -6.9871
 110   1.0000      -0.256009        -6.9664
 111   1.0000      -0.253322        -6.8932
 112   1.0000      -0.251726        -6.8498
 113   1.0000      -0.250805        -6.8247
 114   1.0000      -0.250389        -6.8134
 115   1.0000      -0.248141        -6.7523
 116   1.0000      -0.246890        -6.7182
 117   1.0000      -0.243604        -6.6288
 118   1.0000      -0.242997        -6.6123
 119   1.0000      -0.241222        -6.5640
 120   1.0000      -0.240043        -6.5319
 121   1.0000      -0.238096        -6.4789
 122   1.0000      -0.236269        -6.4292
 123   1.0000      -0.233250        -6.3471
 124   1.0000      -0.232534        -6.3276
 125   1.0000      -0.230406        -6.2697
 126   1.0000      -0.211099        -5.7443
 127   1.0000      -0.197386        -5.3711
 128   0.0000      -0.185662        -5.0521
 129   0.0000      -0.166506        -4.5308
 130   0.0000      -0.144928        -3.9437
 131   0.0000      -0.132218        -3.5978
 132   0.0000      -0.122906        -3.3444

                 SPIN DOWN ORBITALS
  NO   OCC          E(Eh)            E(eV)
   0   1.0000    -234.203983     -6373.0144
   1   1.0000     -26.835409      -730.2286
   2   1.0000     -23.000396      -625.8726
   3   1.0000     -22.999881      -625.8586
   4   1.0000     -22.998389      -625.8180
   5   1.0000      -4.034284      -109.7785
   6   1.0000      -4.034146      -109.7747
   7   1.0000      -4.027707      -109.5995
   8   1.0000      -4.025887      -109.5499
   9   1.0000      -4.024680      -109.5171
  10   1.0000      -4.023821      -109.4937
  11   1.0000      -4.023513      -109.4854
  12   1.0000      -4.023427      -109.4830
  13   1.0000      -4.020086      -109.3921
  14   1.0000      -4.014509      -109.2404
  15   1.0000      -4.013906      -109.2239
  16   1.0000      -4.011468      -109.1576
  17   1.0000      -2.948822       -80.2415
  18   1.0000      -2.250839       -61.2485
  19   1.0000      -2.250325       -61.2344
  20   1.0000      -2.249496       -61.2119
  21   1.0000      -2.248054       -61.1727
  22   1.0000      -2.246004       -61.1169
  23   1.0000      -2.244386       -61.0728
  24   1.0000      -2.244090       -61.0648
  25   1.0000      -2.242814       -61.0301
  26   1.0000      -2.242410       -61.0191
  27   1.0000      -2.240480       -60.9666
  28   1.0000      -2.239932       -60.9516
  29   1.0000      -2.239281       -60.9339
  30   1.0000      -2.239014       -60.9267
  31   1.0000      -2.238644       -60.9166
  32   1.0000      -2.238551       -60.9141
  33   1.0000      -2.238191       -60.9043
  34   1.0000      -2.237049       -60.8732
  35   1.0000      -2.236518       -60.8588
  36   1.0000      -2.235897       -60.8419
  37   1.0000      -2.235096       -60.8201
  38   1.0000      -2.234765       -60.8111
  39   1.0000      -2.233538       -60.7777
  40   1.0000      -2.232662       -60.7538
  41   1.0000      -2.232222       -60.7419
  42   1.0000      -2.231762       -60.7293
  43   1.0000      -2.231558       -60.7238
  44   1.0000      -2.231471       -60.7214
  45   1.0000      -2.230931       -60.7067
  46   1.0000      -2.227950       -60.6256
  47   1.0000      -2.227670       -60.6180
  48   1.0000      -2.225398       -60.5561
  49   1.0000      -2.224358       -60.5279
  50   1.0000      -2.224145       -60.5221
  51   1.0000      -2.223863       -60.5144
  52   1.0000      -2.222801       -60.4855
  53   1.0000      -2.220551       -60.4243
  54   1.0000      -1.856601       -50.5207
  55   1.0000      -1.855935       -50.5026
  56   1.0000      -1.850009       -50.3413
  57   1.0000      -0.415753       -11.3132
  58   1.0000      -0.389465       -10.5979
  59   1.0000      -0.381326       -10.3764
  60   1.0000      -0.378019       -10.2864
  61   1.0000      -0.369424       -10.0525
  62   1.0000      -0.356826        -9.7097
  63   1.0000      -0.356552        -9.7023
  64   1.0000      -0.350302        -9.5322
  65   1.0000      -0.348757        -9.4902
  66   1.0000      -0.346715        -9.4346
  67   1.0000      -0.344069        -9.3626
  68   1.0000      -0.342199        -9.3117
  69   1.0000      -0.336891        -9.1673
  70   1.0000      -0.335122        -9.1191
  71   1.0000      -0.334200        -9.0940
  72   1.0000      -0.333831        -9.0840
  73   1.0000      -0.330462        -8.9923
  74   1.0000      -0.326045        -8.8721
  75   1.0000      -0.324813        -8.8386
  76   1.0000      -0.318799        -8.6750
  77   1.0000      -0.317517        -8.6401
  78   1.0000      -0.316653        -8.6166
  79   1.0000      -0.315740        -8.5917
  80   1.0000      -0.314137        -8.5481
  81   1.0000      -0.311551        -8.4777
  82   1.0000      -0.303392        -8.2557
  83   1.0000      -0.300824        -8.1858
  84   1.0000      -0.297207        -8.0874
  85   1.0000      -0.295633        -8.0446
  86   1.0000      -0.293819        -7.9952
  87   1.0000      -0.292689        -7.9645
  88   1.0000      -0.290740        -7.9114
  89   1.0000      -0.286039        -7.7835
  90   1.0000      -0.283035        -7.7018
  91   1.0000      -0.282285        -7.6814
  92   1.0000      -0.279676        -7.6104
  93   1.0000      -0.278923        -7.5899
  94   1.0000      -0.276914        -7.5352
  95   1.0000      -0.275849        -7.5062
  96   1.0000      -0.275693        -7.5020
  97   1.0000      -0.273364        -7.4386
  98   1.0000      -0.272309        -7.4099
  99   1.0000      -0.271022        -7.3749
 100   1.0000      -0.269655        -7.3377
 101   1.0000      -0.268273        -7.3001
 102   1.0000      -0.266198        -7.2436
 103   1.0000      -0.263320        -7.1653
 104   1.0000      -0.262397        -7.1402
 105   1.0000      -0.262222        -7.1354
 106   1.0000      -0.261125        -7.1056
 107   1.0000      -0.259291        -7.0557
 108   1.0000      -0.257638        -7.0107
 109   1.0000      -0.256872        -6.9898
 110   1.0000      -0.254973        -6.9382
 111   1.0000      -0.253303        -6.8927
 112   1.0000      -0.252242        -6.8638
 113   1.0000      -0.248687        -6.7671
 114   1.0000      -0.248013        -6.7488
 115   1.0000      -0.246739        -6.7141
 116   1.0000      -0.241596        -6.5742
 117   1.0000      -0.239881        -6.5275
 118   1.0000      -0.236414        -6.4331
 119   1.0000      -0.234632        -6.3847
 120   1.0000      -0.231367        -6.2958
 121   1.0000      -0.222218        -6.0469
 122   1.0000      -0.206838        -5.6283
 123   1.0000      -0.204658        -5.5690
 124   1.0000      -0.182388        -4.9630
 125   0.0000      -0.156399        -4.2558
 126   0.0000      -0.148461        -4.0398
 127   0.0000      -0.136889        -3.7249
 128   0.0000      -0.131289        -3.5726
 129   0.0000      -0.125858        -3.4248

MULLIKEN ATOMIC CHARGES AND SPIN POPULATIONS
--------------------------------------------
   0 Au:    0.202536   -0.142609
   1 Au:   -0.124310   -0.072757
   2 Au:    0.292857   -0.189431
   3 Au:    0.294202   -0.177533
   4 Au:    0.247068   -0.145830
   5 Au:    0.142968    0.063822
   6 Au:    0.230287    0.008229
   7 Au:    0.279738   -0.099210
   8 Au:   -0.294141   -0.074958
   9 Au:    0.431380   -0.034648
  10 Au:   -0.193109   -0.062851
  11 Au:    0.257098   -0.092755
  12 Mn:   -1.766574    4.020530
Sum of atomic charges         :    0.0000000

LOEWDIN ATOMIC CHARGES AND SPIN POPULATIONS
-------------------------------------------
   0 Au:    0.083045   -0.123302
   1 Au:   -0.025681   -0.054181
   2 Au:    0.086968   -0.174216
   3 Au:    0.080143   -0.166957
   4 Au:    0.091145   -0.129219
   5 Au:   -0.028678    0.019316
   6 Au:    0.113160   -0.010857
   7 Au:    0.047569   -0.084984
   8 Au:   -0.089794   -0.066248
   9 Au:    0.114265   -0.034066
  10 Au:   -0.083270   -0.062695
  11 Au:    0.039990   -0.080650
  12 Mn:   -0.428864    3.968057

  Mayer bond orders larger than 0.100000
B(  0-Au,  2-Au) :   0.2349 B(  0-Au, 10-Au) :   0.2954 B(  0-Au, 11-Au) :   0.1613
B(  0-Au, 12-Mn) :   0.5579 B(  1-Au,  2-Au) :   0.1789 B(  1-Au,  3-Au) :   0.1896
B(  1-Au,  5-Au) :   0.5762 B(  1-Au,  8-Au) :   0.1010 B(  1-Au,  9-Au) :   0.1032
B(  1-Au, 12-Mn) :   0.5761 B(  2-Au,  3-Au) :   0.2953 B(  2-Au, 12-Mn) :   0.4947
B(  3-Au,  4-Au) :   0.2341 B(  3-Au, 12-Mn) :   0.4942 B(  4-Au,  7-Au) :   0.1513
B(  4-Au,  8-Au) :   0.3017 B(  4-Au, 12-Mn) :   0.5504 B(  5-Au,  8-Au) :   0.2848
B(  5-Au,  9-Au) :   0.2856 B(  5-Au, 10-Au) :   0.2418 B(  5-Au, 12-Mn) :   0.1241
B(  6-Au,  7-Au) :   0.2454 B(  6-Au,  8-Au) :   0.1002 B(  6-Au, 11-Au) :   0.2609
B(  6-Au, 12-Mn) :   0.5113 B(  7-Au,  8-Au) :   0.3828 B(  7-Au, 11-Au) :   0.2065
B(  7-Au, 12-Mn) :   0.5193 B(  8-Au,  9-Au) :   0.3889 B(  8-Au, 10-Au) :   0.3413
B(  8-Au, 12-Mn) :   0.2305 B(  9-Au, 10-Au) :   0.3849 B( 10-Au, 11-Au) :   0.4013
B( 10-Au, 12-Mn) :   0.1951 B( 11-Au, 12-Mn) :   0.5158

FINAL SINGLE POINT ENERGY     -2780.676737879646

DIPOLE MOMENT
-------------
                                X             Y             Z
Electronic contribution:    -32.09985     -24.28690     -10.63803
Nuclear contribution   :     32.23969      24.50916      10.93552
                        -----------------------------------------
Total Dipole Moment    :      0.13984       0.22226       0.29749
                        -----------------------------------------
Magnitude (a.u.)       :      0.39680
Magnitude (Debye)      :      1.00859

Rotational constants in cm-1:     0.001506     0.001134     0.001041
Rotational constants in MHz :    45.154908    33.996459    31.194614

                             ****ORCA TERMINATED NORMALLY****
TOTAL RUN TIME: 0 days 0 hours 4 minutes 46 seconds 510 msec
