                         Program Version 5.0.3 -  RELEASE  -
|  1> !R2SCAN def2-TZVP VERYSLOWCONV
|  2> !KDIIS
|  3> %scf
|  4>   AutoTRAHIter 200
|  5>   maxiter 400
|  6> end
|  7>
|  8> %pal nprocs 6 end
|  9>
| 10> *xyzfile 0 6 pbe.xyz
| 11>
| 12> $new_job
| 13>
| 14> !R2SCAN def2-TZVP VERYSLOWCONV
| 15> !KDIIS
| 16> %scf
| 17>   AutoTRAHIter 200
| 18>   maxiter 400
| 19> end
| 20>
| 21>
| 22> %pal nprocs 6 end
| 23>
| 24> *xyzfile 0 4 pbe.xyz
| 25>
| 26>
| 27>
| 28>
| 29>
| 30>                          ****END OF INPUT****
 Total Charge           Charge          ....    0
 Multiplicity           Mult            ....    6
 Number of Electrons    NEL             ....  253
FINAL SINGLE POINT ENERGY     -2781.133041739832

CARTESIAN COORDINATES (ANGSTROEM)
---------------------------------
  Au     7.885834   10.320557    5.741352
  Au     9.608171    7.596603    4.984659
  Au    10.619518   10.211852    5.438320
  Au    11.868337    8.093710    6.639601
  Au    10.284686    6.416290    8.130275
  Au     7.327568    6.345231    5.059626
  Au     9.738235   10.395472    9.644058
  Au     8.540263    7.910657    9.751279
  Au     7.551538    6.254049    7.876996
  Au     5.117690    5.878464    6.629553
  Au     6.160525    8.402738    6.696834
  Au     7.273796   10.079403    8.470003
  Mn     9.384145    8.832404    7.389117

 Multiplicity           Mult            ....    4
 Number of Electrons    NEL             ....  253
 Basis Dimension        Dim             ....  525

ORBITAL ENERGIES
----------------
                 SPIN UP ORBITALS
  NO   OCC          E(Eh)            E(eV)
   0   1.0000    -235.045817     -6395.9219
   1   1.0000     -27.225000      -740.8299
   2   1.0000     -23.273474      -633.3034
   3   1.0000     -23.271506      -633.2499
   4   1.0000     -23.270534      -633.2234
   5   1.0000      -4.125891      -112.2712
   6   1.0000      -4.125770      -112.2679
   7   1.0000      -4.118274      -112.0639
   8   1.0000      -4.116363      -112.0119
   9   1.0000      -4.116207      -112.0077
  10   1.0000      -4.115328      -111.9838
  11   1.0000      -4.115232      -111.9811
  12   1.0000      -4.115111      -111.9779
  13   1.0000      -4.110469      -111.8515
  14   1.0000      -4.106014      -111.7303
  15   1.0000      -4.104863      -111.6990
  16   1.0000      -4.101153      -111.5980
  17   1.0000      -3.245556       -88.3161
  18   1.0000      -2.314945       -62.9929
  19   1.0000      -2.314807       -62.9891
  20   1.0000      -2.314418       -62.9785
  21   1.0000      -2.312990       -62.9397
  22   1.0000      -2.309398       -62.8419
  23   1.0000      -2.308610       -62.8205
  24   1.0000      -2.307470       -62.7895
  25   1.0000      -2.307027       -62.7774
  26   1.0000      -2.306948       -62.7752
  27   1.0000      -2.305024       -62.7229
  28   1.0000      -2.304276       -62.7025
  29   1.0000      -2.303954       -62.6938
  30   1.0000      -2.303806       -62.6897
  31   1.0000      -2.302583       -62.6565
  32   1.0000      -2.302095       -62.6432
  33   1.0000      -2.301427       -62.6250
  34   1.0000      -2.300958       -62.6122
  35   1.0000      -2.300339       -62.5954
  36   1.0000      -2.299331       -62.5680
  37   1.0000      -2.298864       -62.5553
  38   1.0000      -2.298525       -62.5460
  39   1.0000      -2.298094       -62.5343
  40   1.0000      -2.297190       -62.5097
  41   1.0000      -2.296409       -62.4885
  42   1.0000      -2.296209       -62.4830
  43   1.0000      -2.296119       -62.4806
  44   1.0000      -2.295867       -62.4737
  45   1.0000      -2.294702       -62.4420
  46   1.0000      -2.290180       -62.3190
  47   1.0000      -2.289741       -62.3070
  48   1.0000      -2.289152       -62.2910
  49   1.0000      -2.288743       -62.2799
  50   1.0000      -2.288648       -62.2773
  51   1.0000      -2.286827       -62.2277
  52   1.0000      -2.285499       -62.1916
  53   1.0000      -2.282849       -62.1195
  54   1.0000      -2.105431       -57.2917
  55   1.0000      -2.100849       -57.1670
  56   1.0000      -2.099649       -57.1343
  57   1.0000      -0.426599       -11.6083
  58   1.0000      -0.401106       -10.9146
  59   1.0000      -0.390891       -10.6367
  60   1.0000      -0.384993       -10.4762
  61   1.0000      -0.384339       -10.4584
  62   1.0000      -0.371701       -10.1145
  63   1.0000      -0.370642       -10.0857
  64   1.0000      -0.364577        -9.9206
  65   1.0000      -0.360855        -9.8194
  66   1.0000      -0.358110        -9.7447
  67   1.0000      -0.357302        -9.7227
  68   1.0000      -0.351966        -9.5775
  69   1.0000      -0.348914        -9.4944
  70   1.0000      -0.347068        -9.4442
  71   1.0000      -0.344897        -9.3851
  72   1.0000      -0.343839        -9.3563
  73   1.0000      -0.343501        -9.3471
  74   1.0000      -0.336072        -9.1450
  75   1.0000      -0.334292        -9.0965
  76   1.0000      -0.333397        -9.0722
  77   1.0000      -0.328145        -8.9293
  78   1.0000      -0.327352        -8.9077
  79   1.0000      -0.324635        -8.8338
  80   1.0000      -0.322559        -8.7773
  81   1.0000      -0.321790        -8.7563
  82   1.0000      -0.317881        -8.6500
  83   1.0000      -0.317574        -8.6416
  84   1.0000      -0.312251        -8.4968
  85   1.0000      -0.309751        -8.4288
  86   1.0000      -0.308053        -8.3825
  87   1.0000      -0.305318        -8.3081
  88   1.0000      -0.303260        -8.2521
  89   1.0000      -0.300041        -8.1645
  90   1.0000      -0.294625        -8.0172
  91   1.0000      -0.291628        -7.9356
  92   1.0000      -0.290197        -7.8967
  93   1.0000      -0.288685        -7.8555
  94   1.0000      -0.287727        -7.8294
  95   1.0000      -0.285617        -7.7720
  96   1.0000      -0.284339        -7.7373
  97   1.0000      -0.282798        -7.6953
  98   1.0000      -0.281010        -7.6467
  99   1.0000      -0.279120        -7.5952
 100   1.0000      -0.278462        -7.5773
 101   1.0000      -0.277346        -7.5470
 102   1.0000      -0.275098        -7.4858
 103   1.0000      -0.273502        -7.4424
 104   1.0000      -0.272160        -7.4059
 105   1.0000      -0.270778        -7.3682
 106   1.0000      -0.270378        -7.3574
 107   1.0000      -0.269053        -7.3213
 108   1.0000      -0.267027        -7.2662
 109   1.0000      -0.266474        -7.2511
 110   1.0000      -0.264472        -7.1967
 111   1.0000      -0.263837        -7.1794
 112   1.0000      -0.260805        -7.0969
 113   1.0000      -0.260308        -7.0833
 114   1.0000      -0.259159        -7.0521
 115   1.0000      -0.256083        -6.9684
 116   1.0000      -0.255567        -6.9543
 117   1.0000      -0.254995        -6.9388
 118   1.0000      -0.252759        -6.8779
 119   1.0000      -0.251595        -6.8462
 120   1.0000      -0.248576        -6.7641
 121   1.0000      -0.246278        -6.7016
 122   1.0000      -0.243842        -6.6353
 123   1.0000      -0.239310        -6.5119
 124   1.0000      -0.238756        -6.4969
 125   1.0000      -0.236887        -6.4460
 126   1.0000      -0.214017        -5.8237
 127   1.0000      -0.200064        -5.4440
 128   0.0000      -0.184013        -5.0073
 129   0.0000      -0.163625        -4.4525
 130   0.0000      -0.141142        -3.8407
 131   0.0000      -0.126503        -3.4423
 132   0.0000      -0.117481        -3.1968

                 SPIN DOWN ORBITALS
  NO   OCC          E(Eh)            E(eV)
   0   1.0000    -235.044796     -6395.8940
   1   1.0000     -27.137940      -738.4609
   2   1.0000     -23.205593      -631.4563
   3   1.0000     -23.205313      -631.4487
   4   1.0000     -23.204246      -631.4196
   5   1.0000      -4.125783      -112.2683
   6   1.0000      -4.125648      -112.2646
   7   1.0000      -4.118721      -112.0761
   8   1.0000      -4.116834      -112.0247
   9   1.0000      -4.116608      -112.0186
  10   1.0000      -4.115666      -111.9930
  11   1.0000      -4.114986      -111.9745
  12   1.0000      -4.114941      -111.9732
  13   1.0000      -4.110764      -111.8596
  14   1.0000      -4.105396      -111.7135
  15   1.0000      -4.105254      -111.7096
  16   1.0000      -4.101234      -111.6003
  17   1.0000      -3.037728       -82.6608
  18   1.0000      -2.314839       -62.9900
  19   1.0000      -2.314385       -62.9776
  20   1.0000      -2.313840       -62.9628
  21   1.0000      -2.312221       -62.9187
  22   1.0000      -2.309708       -62.8504
  23   1.0000      -2.308761       -62.8246
  24   1.0000      -2.307783       -62.7980
  25   1.0000      -2.307211       -62.7824
  26   1.0000      -2.307163       -62.7811
  27   1.0000      -2.304891       -62.7193
  28   1.0000      -2.304234       -62.7014
  29   1.0000      -2.303375       -62.6780
  30   1.0000      -2.303086       -62.6702
  31   1.0000      -2.302613       -62.6573
  32   1.0000      -2.302449       -62.6528
  33   1.0000      -2.301816       -62.6356
  34   1.0000      -2.301000       -62.6134
  35   1.0000      -2.300485       -62.5994
  36   1.0000      -2.299738       -62.5790
  37   1.0000      -2.299140       -62.5628
  38   1.0000      -2.298657       -62.5496
  39   1.0000      -2.298041       -62.5329
  40   1.0000      -2.297095       -62.5071
  41   1.0000      -2.295803       -62.4720
  42   1.0000      -2.295722       -62.4698
  43   1.0000      -2.295543       -62.4649
  44   1.0000      -2.294963       -62.4491
  45   1.0000      -2.294733       -62.4429
  46   1.0000      -2.291483       -62.3544
  47   1.0000      -2.290212       -62.3198
  48   1.0000      -2.288981       -62.2863
  49   1.0000      -2.288237       -62.2661
  50   1.0000      -2.287862       -62.2559
  51   1.0000      -2.287462       -62.2450
  52   1.0000      -2.285346       -62.1874
  53   1.0000      -2.283180       -62.1285
  54   1.0000      -1.897481       -51.6331
  55   1.0000      -1.896688       -51.6115
  56   1.0000      -1.892114       -51.4870
  57   1.0000      -0.422454       -11.4956
  58   1.0000      -0.397229       -10.8092
  59   1.0000      -0.389726       -10.6050
  60   1.0000      -0.385882       -10.5004
  61   1.0000      -0.378779       -10.3071
  62   1.0000      -0.366017        -9.9598
  63   1.0000      -0.365622        -9.9491
  64   1.0000      -0.359305        -9.7772
  65   1.0000      -0.358370        -9.7517
  66   1.0000      -0.356292        -9.6952
  67   1.0000      -0.353294        -9.6136
  68   1.0000      -0.351815        -9.5734
  69   1.0000      -0.347050        -9.4437
  70   1.0000      -0.344447        -9.3729
  71   1.0000      -0.343980        -9.3602
  72   1.0000      -0.343568        -9.3490
  73   1.0000      -0.339968        -9.2510
  74   1.0000      -0.335697        -9.1348
  75   1.0000      -0.334355        -9.0983
  76   1.0000      -0.328405        -8.9364
  77   1.0000      -0.327304        -8.9064
  78   1.0000      -0.326221        -8.8769
  79   1.0000      -0.324845        -8.8395
  80   1.0000      -0.322843        -8.7850
  81   1.0000      -0.321391        -8.7455
  82   1.0000      -0.312306        -8.4983
  83   1.0000      -0.309698        -8.4273
  84   1.0000      -0.306398        -8.3375
  85   1.0000      -0.304523        -8.2865
  86   1.0000      -0.302861        -8.2413
  87   1.0000      -0.301294        -8.1986
  88   1.0000      -0.299836        -8.1590
  89   1.0000      -0.294892        -8.0244
  90   1.0000      -0.291827        -7.9410
  91   1.0000      -0.291205        -7.9241
  92   1.0000      -0.288637        -7.8542
  93   1.0000      -0.287607        -7.8262
  94   1.0000      -0.286243        -7.7891
  95   1.0000      -0.284722        -7.7477
  96   1.0000      -0.284512        -7.7420
  97   1.0000      -0.282169        -7.6782
  98   1.0000      -0.281103        -7.6492
  99   1.0000      -0.279980        -7.6186
 100   1.0000      -0.278050        -7.5661
 101   1.0000      -0.276817        -7.5326
 102   1.0000      -0.274925        -7.4811
 103   1.0000      -0.271904        -7.3989
 104   1.0000      -0.271203        -7.3798
 105   1.0000      -0.270775        -7.3682
 106   1.0000      -0.269485        -7.3331
 107   1.0000      -0.267567        -7.2809
 108   1.0000      -0.265957        -7.2370
 109   1.0000      -0.265053        -7.2125
 110   1.0000      -0.262836        -7.1521
 111   1.0000      -0.261375        -7.1124
 112   1.0000      -0.260164        -7.0794
 113   1.0000      -0.256426        -6.9777
 114   1.0000      -0.255376        -6.9491
 115   1.0000      -0.254469        -6.9245
 116   1.0000      -0.248148        -6.7525
 117   1.0000      -0.246898        -6.7184
 118   1.0000      -0.243085        -6.6147
 119   1.0000      -0.240814        -6.5529
 120   1.0000      -0.238040        -6.4774
 121   1.0000      -0.225091        -6.1250
 122   1.0000      -0.208617        -5.6768
 123   1.0000      -0.207430        -5.6445
 124   1.0000      -0.182434        -4.9643
 125   0.0000      -0.151483        -4.1221
 126   0.0000      -0.140336        -3.8187
 127   0.0000      -0.128268        -3.4903
 128   0.0000      -0.116132        -3.1601
 129   0.0000      -0.109852        -2.9892

MULLIKEN ATOMIC CHARGES AND SPIN POPULATIONS
--------------------------------------------
   0 Au:    0.174499   -0.178253
   1 Au:   -0.137161   -0.082156
   2 Au:    0.271353   -0.232528
   3 Au:    0.271180   -0.219227
   4 Au:    0.215762   -0.184646
   5 Au:    0.122711    0.071610
   6 Au:    0.186689   -0.014486
   7 Au:    0.273236   -0.116985
   8 Au:   -0.271035   -0.076536
   9 Au:    0.393175   -0.035892
  10 Au:   -0.179668   -0.066679
  11 Au:    0.252408   -0.108677
  12 Mn:   -1.573150    4.244455
Sum of atomic charges         :   -0.0000000

LOEWDIN ATOMIC CHARGES AND SPIN POPULATIONS
-------------------------------------------
   0 Au:    0.074724   -0.149972
   1 Au:   -0.036432   -0.067156
   2 Au:    0.081244   -0.206015
   3 Au:    0.074212   -0.198221
   4 Au:    0.082511   -0.157148
   5 Au:   -0.035335    0.024302
   6 Au:    0.101764   -0.029588
   7 Au:    0.043541   -0.098965
   8 Au:   -0.089861   -0.073181
   9 Au:    0.111514   -0.034611
  10 Au:   -0.083597   -0.069423
  11 Au:    0.035958   -0.094381
  12 Mn:   -0.360242    4.154360

  Mayer bond orders larger than 0.100000
B(  0-Au,  2-Au) :   0.2192 B(  0-Au, 10-Au) :   0.2867 B(  0-Au, 11-Au) :   0.1480
B(  0-Au, 12-Mn) :   0.5408 B(  1-Au,  2-Au) :   0.1550 B(  1-Au,  3-Au) :   0.1662
B(  1-Au,  5-Au) :   0.5964 B(  1-Au,  9-Au) :   0.1021 B(  1-Au, 12-Mn) :   0.5420
B(  2-Au,  3-Au) :   0.2927 B(  2-Au, 12-Mn) :   0.4769 B(  3-Au,  4-Au) :   0.2175
B(  3-Au, 12-Mn) :   0.4772 B(  4-Au,  7-Au) :   0.1367 B(  4-Au,  8-Au) :   0.2951
B(  4-Au, 12-Mn) :   0.5357 B(  5-Au,  8-Au) :   0.2556 B(  5-Au,  9-Au) :   0.2683
B(  5-Au, 10-Au) :   0.2104 B(  5-Au, 12-Mn) :   0.1162 B(  6-Au,  7-Au) :   0.2305
B(  6-Au, 11-Au) :   0.2462 B(  6-Au, 12-Mn) :   0.5076 B(  7-Au,  8-Au) :   0.3864
B(  7-Au, 11-Au) :   0.1983 B(  7-Au, 12-Mn) :   0.4980 B(  8-Au,  9-Au) :   0.3838
B(  8-Au, 10-Au) :   0.3197 B(  8-Au, 12-Mn) :   0.2095 B(  9-Au, 10-Au) :   0.3795
B( 10-Au, 11-Au) :   0.4041 B( 10-Au, 12-Mn) :   0.1775 B( 11-Au, 12-Mn) :   0.4961

FINAL SINGLE POINT ENERGY     -2781.126412814500

DIPOLE MOMENT
-------------
                                X             Y             Z
Electronic contribution:    -32.09627     -24.26614     -10.60157
Nuclear contribution   :     32.23969      24.50916      10.93552
                        -----------------------------------------
Total Dipole Moment    :      0.14342       0.24301       0.33396
                        -----------------------------------------
Magnitude (a.u.)       :      0.43721
Magnitude (Debye)      :      1.11130

Rotational constants in cm-1:     0.001506     0.001134     0.001041
Rotational constants in MHz :    45.154908    33.996459    31.194614

                             ****ORCA TERMINATED NORMALLY****
TOTAL RUN TIME: 0 days 0 hours 7 minutes 54 seconds 78 msec
