                         Program Version 5.0.3 -  RELEASE  -
|  1> !SC-NEVPT2 def2-TZVP def2-TZVP/C
|  2> !MOREAD RIJCOSX def2/J
|  3> %maxcore 4000
|  4> %moinp "casscf.gbw"
|  5> %pal nprocs 6 end
|  6>
|  7> %casscf
|  8>  mult 6,4
|  9>  bweight 1,1
| 10>  nroots 1,24
| 11>  nel 5
| 12>  norb 5
| 13>  ptsettings
| 14>   d4tpre 1e-14 # default = 1e-10
| 15>   d3tpre 1e-14
| 16>  end
| 17>  rel
| 18>    dosoc true
| 19>    gtensor true
| 20>  end
| 21> end
| 22>
| 23>
| 24> *xyzfile 0 6 pbe.xyz
| 25>
| 26>
| 27>                          ****END OF INPUT****

CARTESIAN COORDINATES (ANGSTROEM)
---------------------------------
  Au     8.540415    7.027828    6.612175
  Au    10.232287    7.231159    8.783996
  Au     4.932279    7.367892    9.159027
  Au     7.583595    7.424770    9.443698
  Au     8.807187    4.895024    8.721297
  Au     5.224996    3.909529    6.112766
  Au     4.025880    5.528157    4.258677
  Au     6.477461    6.462413    5.112889
  Au     4.001826    6.434493    6.840730
  Au     7.000768    3.098103    7.930429
  Mn     6.441947    5.702552    7.715984

 Total Charge           Charge          ....    0
 Multiplicity           Mult            ....    6
 Number of Electrons    NEL             ....  215
 Basis Dimension        Dim             ....  445

ORBITAL ENERGIES
----------------

  NO   OCC          E(Eh)            E(eV)
   0   2.0000    -240.478732     -6543.7590
   1   2.0000     -29.049817      -790.4857
   2   2.0000     -24.758718      -673.7190
   3   2.0000     -24.753829      -673.5859
   4   2.0000     -24.753330      -673.5724
   5   2.0000      -4.712222      -128.2261
   6   2.0000      -4.712203      -128.2256
   7   2.0000      -4.712078      -128.2222
   8   2.0000      -4.712064      -128.2218
   9   2.0000      -4.706113      -128.0598
  10   2.0000      -4.706113      -128.0598
  11   2.0000      -4.697083      -127.8141
  12   2.0000      -4.696918      -127.8096
  13   2.0000      -4.693096      -127.7056
  14   2.0000      -4.692569      -127.6913
  15   2.0000      -3.742346      -101.8344
  16   2.0000      -2.753910       -74.9377
  17   2.0000      -2.753184       -74.9179
  18   2.0000      -2.752270       -74.8931
  19   2.0000      -2.751455       -74.8709
  20   2.0000      -2.751123       -74.8619
  21   2.0000      -2.751026       -74.8592
  22   2.0000      -2.748406       -74.7879
  23   2.0000      -2.748400       -74.7878
  24   2.0000      -2.745811       -74.7173
  25   2.0000      -2.745741       -74.7154
  26   2.0000      -2.744714       -74.6875
  27   2.0000      -2.744699       -74.6871
  28   2.0000      -2.743092       -74.6433
  29   2.0000      -2.742814       -74.6358
  30   2.0000      -2.740330       -74.5682
  31   2.0000      -2.740078       -74.5613
  32   2.0000      -2.739676       -74.5504
  33   2.0000      -2.739567       -74.5474
  34   2.0000      -2.734862       -74.4194
  35   2.0000      -2.733974       -74.3952
  36   2.0000      -2.733804       -74.3906
  37   2.0000      -2.732137       -74.3452
  38   2.0000      -2.731986       -74.3411
  39   2.0000      -2.728698       -74.2516
  40   2.0000      -2.728674       -74.2510
  41   2.0000      -2.728522       -74.2468
  42   2.0000      -2.728250       -74.2395
  43   2.0000      -2.724787       -74.1452
  44   2.0000      -2.724265       -74.1310
  45   2.0000      -2.723954       -74.1226
  46   2.0000      -2.414852       -65.7115
  47   2.0000      -2.412874       -65.6576
  48   2.0000      -2.411161       -65.6110
  49   2.0000      -0.558202       -15.1894
  50   2.0000      -0.548430       -14.9235
  51   2.0000      -0.539341       -14.6762
  52   2.0000      -0.538079       -14.6419
  53   2.0000      -0.537345       -14.6219
  54   2.0000      -0.535820       -14.5804
  55   2.0000      -0.533648       -14.5213
  56   2.0000      -0.523621       -14.2485
  57   2.0000      -0.520623       -14.1669
  58   2.0000      -0.517767       -14.0892
  59   2.0000      -0.513837       -13.9822
  60   2.0000      -0.513513       -13.9734
  61   2.0000      -0.503538       -13.7020
  62   2.0000      -0.502752       -13.6806
  63   2.0000      -0.498299       -13.5594
  64   2.0000      -0.497555       -13.5392
  65   2.0000      -0.494025       -13.4431
  66   2.0000      -0.491481       -13.3739
  67   2.0000      -0.488183       -13.2841
  68   2.0000      -0.486137       -13.2285
  69   2.0000      -0.485457       -13.2099
  70   2.0000      -0.476045       -12.9538
  71   2.0000      -0.469718       -12.7817
  72   2.0000      -0.466473       -12.6934
  73   2.0000      -0.466198       -12.6859
  74   2.0000      -0.464457       -12.6385
  75   2.0000      -0.462366       -12.5816
  76   2.0000      -0.457552       -12.4506
  77   2.0000      -0.456706       -12.4276
  78   2.0000      -0.456179       -12.4133
  79   2.0000      -0.451542       -12.2871
  80   2.0000      -0.450310       -12.2536
  81   2.0000      -0.447644       -12.1810
  82   2.0000      -0.444307       -12.0902
  83   2.0000      -0.441970       -12.0266
  84   2.0000      -0.439375       -11.9560
  85   2.0000      -0.438954       -11.9445
  86   2.0000      -0.436101       -11.8669
  87   2.0000      -0.435952       -11.8629
  88   2.0000      -0.435233       -11.8433
  89   2.0000      -0.434387       -11.8203
  90   2.0000      -0.428988       -11.6733
  91   2.0000      -0.427864       -11.6428
  92   2.0000      -0.426657       -11.6099
  93   2.0000      -0.418794       -11.3960
  94   2.0000      -0.416311       -11.3284
  95   2.0000      -0.415989       -11.3196
  96   2.0000      -0.408990       -11.1292
  97   2.0000      -0.401905       -10.9364
  98   2.0000      -0.394132       -10.7249
  99   2.0000      -0.381602       -10.3839
 100   2.0000      -0.363099        -9.8804
 101   2.0000      -0.302526        -8.2321
 102   2.0000      -0.294083        -8.0024
 103   2.0000      -0.286610        -7.7991
 104   2.0000      -0.248358        -6.7582
 105   1.0000      -0.062510        -1.7010
 106   1.0000      -0.102347        -2.7850
 107   1.0000      -0.082834        -2.2540
 108   1.0000      -0.078444        -2.1346
 109   1.0000      -0.079050        -2.1511
 110   0.0000      -0.027920        -0.7597
 111   0.0000      -0.004578        -0.1246
 112   0.0000       0.003678         0.1001
 113   0.0000       0.013189         0.3589
 114   0.0000       0.038212         1.0398

MULLIKEN ATOMIC CHARGES AND SPIN DENSITIES
------------------------------------------
   0 Au:   -0.079383    0.039381
   1 Au:    0.402648    0.085757
   2 Au:    0.201343    0.025135
   3 Au:    0.039402    0.115274
   4 Au:    0.039124    0.116201
   5 Au:    0.041345    0.115879
   6 Au:    0.402257    0.086775
   7 Au:   -0.086937    0.039151
   8 Au:    0.040537    0.115253
   9 Au:    0.200592    0.025443
  10 Mn:   -1.200928    3.235751
Sum of atomic charges       :    0.0000000

LOEWDIN ATOMIC CHARGES AND SPIN DENSITIES
-----------------------------------------
   0 Au:   -0.067140    0.053516
   1 Au:    0.144535    0.091762
   2 Au:    0.112009    0.091316
   3 Au:   -0.014219    0.086880
   4 Au:   -0.014758    0.087417
   5 Au:   -0.014318    0.087383
   6 Au:    0.144163    0.092507
   7 Au:   -0.067401    0.053566
   8 Au:   -0.014082    0.087069
   9 Au:    0.111430    0.091869
  10 Mn:   -0.320219    3.176715

  Mayer bond orders larger than 0.100000
B(  0-Au,  1-Au) :   0.2554 B(  0-Au,  3-Au) :   0.1574 B(  0-Au,  4-Au) :   0.1574
B(  0-Au,  7-Au) :   0.6676 B(  0-Au, 10-Mn) :   0.3693 B(  1-Au,  3-Au) :   0.3158
B(  1-Au,  4-Au) :   0.3152 B(  2-Au,  3-Au) :   0.3144 B(  2-Au,  8-Au) :   0.3135
B(  2-Au, 10-Mn) :   0.4640 B(  3-Au,  4-Au) :   0.2682 B(  3-Au, 10-Mn) :   0.4223
B(  4-Au,  9-Au) :   0.3147 B(  4-Au, 10-Mn) :   0.4218 B(  5-Au,  6-Au) :   0.3143
B(  5-Au,  7-Au) :   0.1573 B(  5-Au,  8-Au) :   0.2686 B(  5-Au,  9-Au) :   0.3132
B(  5-Au, 10-Mn) :   0.4206 B(  6-Au,  7-Au) :   0.2575 B(  6-Au,  8-Au) :   0.3152
B(  7-Au,  8-Au) :   0.1570 B(  7-Au, 10-Mn) :   0.3729 B(  8-Au, 10-Mn) :   0.4215
B(  9-Au, 10-Mn) :   0.4642

FINAL SINGLE POINT ENERGY     -2502.863629246735

DIPOLE MOMENT
-------------
                                X             Y             Z
Electronic contribution:      8.59070       8.40516     -14.93274
Nuclear contribution   :     -8.71847      -8.52515      15.15415
                        -----------------------------------------
Total Dipole Moment    :     -0.12777      -0.12000       0.22141
                        -----------------------------------------
Magnitude (a.u.)       :      0.28239
Magnitude (Debye)      :      0.71779

Rotational constants in cm-1:     0.002381     0.001214     0.001135
Rotational constants in MHz :    71.382518    36.403831    34.039746

                             ****ORCA TERMINATED NORMALLY****
TOTAL RUN TIME: 0 days 0 hours 29 minutes 16 seconds 706 msec
