                         Program Version 5.0.3 -  RELEASE  -
|  1> %pal nprocs 1 end
|  2>
|  3> !PBE def2-TZVP OPT UNO
|  4> !SLOWCONV
|  5>
|  6> *xyzfile 0 6 3.xyz                           ****END OF INPUT****
 Total Charge           Charge          ....    0
 Multiplicity           Mult            ....    6
 Number of Electrons    NEL             ....  311
FINAL SINGLE POINT ENERGY     -3300.906589450291
FINAL SINGLE POINT ENERGY     -3300.908456887209
FINAL SINGLE POINT ENERGY     -3300.909031177542
FINAL SINGLE POINT ENERGY     -3300.910096669218
FINAL SINGLE POINT ENERGY     -3300.911165863640
FINAL SINGLE POINT ENERGY     -3300.912212443770
FINAL SINGLE POINT ENERGY     -3300.912976706071
FINAL SINGLE POINT ENERGY     -3300.913544434609
FINAL SINGLE POINT ENERGY     -3300.913950622312
FINAL SINGLE POINT ENERGY     -3300.914170253953
FINAL SINGLE POINT ENERGY     -3300.914247893094
FINAL SINGLE POINT ENERGY     -3300.914272614014
FINAL SINGLE POINT ENERGY     -3300.914295115817
FINAL SINGLE POINT ENERGY     -3300.914310792218
FINAL SINGLE POINT ENERGY     -3300.914324033083
FINAL SINGLE POINT ENERGY     -3300.914334370915
FINAL SINGLE POINT ENERGY     -3300.914344827691
FINAL SINGLE POINT ENERGY     -3300.914350525420
FINAL SINGLE POINT ENERGY     -3300.914353295448
                    ***********************HURRAY********************

CARTESIAN COORDINATES (ANGSTROEM)
---------------------------------
  Au     7.199995   11.295055    8.386422
  Au     4.111157    8.266685    8.088506
  Au     5.307869    6.510382    9.876920
  Au     6.183686    9.107953    9.737834
  Au     8.920419    9.549246    9.748702
  Au     8.141791    6.838977    9.780569
  Au    10.395038    7.732136    8.338224
  Au     6.763064    4.706310    8.475481
  Au     8.917761    5.726333    7.115372
  Au     6.528172    5.276844    5.767524
  Au     7.474136    7.823860    4.999766
  Au     4.774137    7.375446    5.581616
  Au     5.907592    9.761122    6.499622
  Au     8.703410    9.549788    6.874272
  Au    10.166821    7.628976    5.546462
  Fe     6.708028    7.381235    7.590821

 Multiplicity           Mult            ....    6
 Number of Electrons    NEL             ....  311
 Basis Dimension        Dim             ....  645

ORBITAL ENERGIES
----------------
                 SPIN UP ORBITALS
  NO   OCC          E(Eh)            E(eV)
   0   1.0000    -254.776059     -6932.8090
   1   1.0000     -29.615295      -805.8731
   2   1.0000     -25.552305      -695.3136
   3   1.0000     -25.551755      -695.2986
   4   1.0000     -25.546272      -695.1494
   5   1.0000      -4.037029      -109.8531
   6   1.0000      -4.035282      -109.8056
   7   1.0000      -4.035031      -109.7988
   8   1.0000      -4.034987      -109.7976
   9   1.0000      -4.034080      -109.7729
  10   1.0000      -4.033938      -109.7690
  11   1.0000      -4.029451      -109.6469
  12   1.0000      -4.026177      -109.5578
  13   1.0000      -4.025983      -109.5526
  14   1.0000      -4.025133      -109.5294
  15   1.0000      -4.025131      -109.5294
  16   1.0000      -4.024534      -109.5131
  17   1.0000      -4.024503      -109.5123
  18   1.0000      -4.024000      -109.4986
  19   1.0000      -4.023830      -109.4940
  20   1.0000      -3.396051       -92.4113
  21   1.0000      -2.253030       -61.3081
  22   1.0000      -2.252652       -61.2978
  23   1.0000      -2.251799       -61.2746
  24   1.0000      -2.251353       -61.2624
  25   1.0000      -2.251232       -61.2591
  26   1.0000      -2.250673       -61.2439
  27   1.0000      -2.250037       -61.2266
  28   1.0000      -2.249775       -61.2195
  29   1.0000      -2.247749       -61.1643
  30   1.0000      -2.247069       -61.1459
  31   1.0000      -2.246771       -61.1378
  32   1.0000      -2.245812       -61.1116
  33   1.0000      -2.245495       -61.1030
  34   1.0000      -2.244855       -61.0856
  35   1.0000      -2.244205       -61.0679
  36   1.0000      -2.244147       -61.0663
  37   1.0000      -2.244067       -61.0642
  38   1.0000      -2.244014       -61.0627
  39   1.0000      -2.243922       -61.0602
  40   1.0000      -2.243423       -61.0466
  41   1.0000      -2.242181       -61.0128
  42   1.0000      -2.241466       -60.9934
  43   1.0000      -2.241039       -60.9818
  44   1.0000      -2.241013       -60.9811
  45   1.0000      -2.240378       -60.9638
  46   1.0000      -2.239369       -60.9363
  47   1.0000      -2.239238       -60.9328
  48   1.0000      -2.239194       -60.9316
  49   1.0000      -2.238817       -60.9213
  50   1.0000      -2.238486       -60.9123
  51   1.0000      -2.238197       -60.9044
  52   1.0000      -2.238143       -60.9030
  53   1.0000      -2.237750       -60.8923
  54   1.0000      -2.237351       -60.8814
  55   1.0000      -2.236806       -60.8666
  56   1.0000      -2.236393       -60.8553
  57   1.0000      -2.236098       -60.8473
  58   1.0000      -2.236035       -60.8456
  59   1.0000      -2.235757       -60.8380
  60   1.0000      -2.235698       -60.8364
  61   1.0000      -2.235603       -60.8339
  62   1.0000      -2.234640       -60.8076
  63   1.0000      -2.234540       -60.8049
  64   1.0000      -2.234469       -60.8030
  65   1.0000      -2.233879       -60.7869
  66   1.0000      -2.213911       -60.2436
  67   1.0000      -2.213073       -60.2208
  68   1.0000      -2.201198       -59.8976
  69   1.0000      -0.438823       -11.9410
  70   1.0000      -0.396693       -10.7946
  71   1.0000      -0.394905       -10.7459
  72   1.0000      -0.394011       -10.7216
  73   1.0000      -0.382293       -10.4027
  74   1.0000      -0.382132       -10.3983
  75   1.0000      -0.374599       -10.1934
  76   1.0000      -0.374232       -10.1834
  77   1.0000      -0.370525       -10.0825
  78   1.0000      -0.367114        -9.9897
  79   1.0000      -0.366542        -9.9741
  80   1.0000      -0.362365        -9.8605
  81   1.0000      -0.357819        -9.7367
  82   1.0000      -0.354434        -9.6446
  83   1.0000      -0.354323        -9.6416
  84   1.0000      -0.352505        -9.5921
  85   1.0000      -0.352318        -9.5871
  86   1.0000      -0.349347        -9.5062
  87   1.0000      -0.347352        -9.4519
  88   1.0000      -0.345812        -9.4100
  89   1.0000      -0.343262        -9.3406
  90   1.0000      -0.342669        -9.3245
  91   1.0000      -0.337779        -9.1914
  92   1.0000      -0.336248        -9.1498
  93   1.0000      -0.335572        -9.1314
  94   1.0000      -0.331769        -9.0279
  95   1.0000      -0.330865        -9.0033
  96   1.0000      -0.326862        -8.8944
  97   1.0000      -0.326425        -8.8825
  98   1.0000      -0.324724        -8.8362
  99   1.0000      -0.324322        -8.8253
 100   1.0000      -0.321230        -8.7411
 101   1.0000      -0.319876        -8.7043
 102   1.0000      -0.317612        -8.6427
 103   1.0000      -0.314401        -8.5553
 104   1.0000      -0.311605        -8.4792
 105   1.0000      -0.309364        -8.4182
 106   1.0000      -0.308972        -8.4076
 107   1.0000      -0.306116        -8.3298
 108   1.0000      -0.299930        -8.1615
 109   1.0000      -0.299320        -8.1449
 110   1.0000      -0.295420        -8.0388
 111   1.0000      -0.294712        -8.0195
 112   1.0000      -0.291925        -7.9437
 113   1.0000      -0.290190        -7.8965
 114   1.0000      -0.288799        -7.8586
 115   1.0000      -0.286811        -7.8045
 116   1.0000      -0.284202        -7.7335
 117   1.0000      -0.281448        -7.6586
 118   1.0000      -0.279635        -7.6093
 119   1.0000      -0.279286        -7.5998
 120   1.0000      -0.279191        -7.5972
 121   1.0000      -0.277423        -7.5491
 122   1.0000      -0.274227        -7.4621
 123   1.0000      -0.273941        -7.4543
 124   1.0000      -0.272984        -7.4283
 125   1.0000      -0.272134        -7.4051
 126   1.0000      -0.269272        -7.3273
 127   1.0000      -0.268648        -7.3103
 128   1.0000      -0.268570        -7.3082
 129   1.0000      -0.267917        -7.2904
 130   1.0000      -0.266886        -7.2623
 131   1.0000      -0.265261        -7.2181
 132   1.0000      -0.265067        -7.2128
 133   1.0000      -0.263182        -7.1615
 134   1.0000      -0.261656        -7.1200
 135   1.0000      -0.261557        -7.1173
 136   1.0000      -0.260545        -7.0898
 137   1.0000      -0.258835        -7.0432
 138   1.0000      -0.258401        -7.0315
 139   1.0000      -0.256251        -6.9729
 140   1.0000      -0.256224        -6.9722
 141   1.0000      -0.255052        -6.9403
 142   1.0000      -0.254293        -6.9197
 143   1.0000      -0.251656        -6.8479
 144   1.0000      -0.249690        -6.7944
 145   1.0000      -0.248253        -6.7553
 146   1.0000      -0.247229        -6.7274
 147   1.0000      -0.246169        -6.6986
 148   1.0000      -0.244212        -6.6453
 149   1.0000      -0.243754        -6.6329
 150   1.0000      -0.243230        -6.6186
 151   1.0000      -0.241741        -6.5781
 152   1.0000      -0.228296        -6.2122
 153   1.0000      -0.226344        -6.1591
 154   1.0000      -0.215436        -5.8623
 155   1.0000      -0.202340        -5.5060
 156   1.0000      -0.200322        -5.4510
 157   1.0000      -0.187782        -5.1098
 158   0.0000      -0.158730        -4.3193
 159   0.0000      -0.139945        -3.8081
 160   0.0000      -0.136222        -3.7068
 161   0.0000      -0.128510        -3.4969
 162   0.0000      -0.122860        -3.3432

                 SPIN DOWN ORBITALS
  NO   OCC          E(Eh)            E(eV)
   0   1.0000    -254.775311     -6932.7887
   1   1.0000     -29.552907      -804.1755
   2   1.0000     -25.504158      -694.0034
   3   1.0000     -25.504014      -693.9995
   4   1.0000     -25.500795      -693.9119
   5   1.0000      -4.035489      -109.8113
   6   1.0000      -4.034349      -109.7802
   7   1.0000      -4.034021      -109.7713
   8   1.0000      -4.033971      -109.7699
   9   1.0000      -4.032829      -109.7388
  10   1.0000      -4.032695      -109.7352
  11   1.0000      -4.028752      -109.6279
  12   1.0000      -4.025431      -109.5375
  13   1.0000      -4.025237      -109.5323
  14   1.0000      -4.024329      -109.5076
  15   1.0000      -4.024326      -109.5075
  16   1.0000      -4.023926      -109.4966
  17   1.0000      -4.023897      -109.4958
  18   1.0000      -4.023528      -109.4858
  19   1.0000      -4.023359      -109.4812
  20   1.0000      -3.255251       -88.5799
  21   1.0000      -2.251513       -61.2668
  22   1.0000      -2.250954       -61.2516
  23   1.0000      -2.250545       -61.2404
  24   1.0000      -2.249819       -61.2207
  25   1.0000      -2.249713       -61.2178
  26   1.0000      -2.249415       -61.2097
  27   1.0000      -2.248647       -61.1888
  28   1.0000      -2.248176       -61.1760
  29   1.0000      -2.246391       -61.1274
  30   1.0000      -2.245958       -61.1156
  31   1.0000      -2.245632       -61.1067
  32   1.0000      -2.244307       -61.0707
  33   1.0000      -2.244085       -61.0647
  34   1.0000      -2.243963       -61.0613
  35   1.0000      -2.243518       -61.0492
  36   1.0000      -2.243373       -61.0453
  37   1.0000      -2.243269       -61.0425
  38   1.0000      -2.243081       -61.0373
  39   1.0000      -2.242900       -61.0324
  40   1.0000      -2.242676       -61.0263
  41   1.0000      -2.241614       -60.9974
  42   1.0000      -2.241010       -60.9810
  43   1.0000      -2.240069       -60.9554
  44   1.0000      -2.239930       -60.9516
  45   1.0000      -2.239586       -60.9422
  46   1.0000      -2.238813       -60.9212
  47   1.0000      -2.238192       -60.9043
  48   1.0000      -2.238144       -60.9030
  49   1.0000      -2.238019       -60.8996
  50   1.0000      -2.237762       -60.8926
  51   1.0000      -2.237615       -60.8886
  52   1.0000      -2.237415       -60.8831
  53   1.0000      -2.237252       -60.8787
  54   1.0000      -2.236778       -60.8658
  55   1.0000      -2.236336       -60.8538
  56   1.0000      -2.235676       -60.8358
  57   1.0000      -2.235346       -60.8268
  58   1.0000      -2.235339       -60.8267
  59   1.0000      -2.235007       -60.8176
  60   1.0000      -2.234908       -60.8150
  61   1.0000      -2.234772       -60.8112
  62   1.0000      -2.234131       -60.7938
  63   1.0000      -2.233728       -60.7828
  64   1.0000      -2.233650       -60.7807
  65   1.0000      -2.233351       -60.7726
  66   1.0000      -2.073165       -56.4137
  67   1.0000      -2.073114       -56.4123
  68   1.0000      -2.068322       -56.2819
  69   1.0000      -0.433511       -11.7964
  70   1.0000      -0.393915       -10.7190
  71   1.0000      -0.392117       -10.6700
  72   1.0000      -0.391877       -10.6635
  73   1.0000      -0.375205       -10.2098
  74   1.0000      -0.374125       -10.1805
  75   1.0000      -0.369184       -10.0460
  76   1.0000      -0.367401        -9.9975
  77   1.0000      -0.365725        -9.9519
  78   1.0000      -0.360910        -9.8209
  79   1.0000      -0.360672        -9.8144
  80   1.0000      -0.358753        -9.7622
  81   1.0000      -0.353055        -9.6071
  82   1.0000      -0.352964        -9.6046
  83   1.0000      -0.351527        -9.5655
  84   1.0000      -0.349322        -9.5055
  85   1.0000      -0.348741        -9.4897
  86   1.0000      -0.346907        -9.4398
  87   1.0000      -0.345004        -9.3880
  88   1.0000      -0.343516        -9.3475
  89   1.0000      -0.340723        -9.2715
  90   1.0000      -0.339187        -9.2298
  91   1.0000      -0.335040        -9.1169
  92   1.0000      -0.334021        -9.0892
  93   1.0000      -0.332538        -9.0488
  94   1.0000      -0.329828        -8.9751
  95   1.0000      -0.327627        -8.9152
  96   1.0000      -0.323919        -8.8143
  97   1.0000      -0.323142        -8.7931
  98   1.0000      -0.321704        -8.7540
  99   1.0000      -0.320301        -8.7158
 100   1.0000      -0.313403        -8.5281
 101   1.0000      -0.313120        -8.5204
 102   1.0000      -0.310445        -8.4476
 103   1.0000      -0.308031        -8.3820
 104   1.0000      -0.305614        -8.3162
 105   1.0000      -0.301554        -8.2057
 106   1.0000      -0.297857        -8.1051
 107   1.0000      -0.296214        -8.0604
 108   1.0000      -0.294798        -8.0219
 109   1.0000      -0.294026        -8.0009
 110   1.0000      -0.291812        -7.9406
 111   1.0000      -0.289927        -7.8893
 112   1.0000      -0.285333        -7.7643
 113   1.0000      -0.283923        -7.7259
 114   1.0000      -0.282875        -7.6974
 115   1.0000      -0.282646        -7.6912
 116   1.0000      -0.279487        -7.6052
 117   1.0000      -0.279388        -7.6025
 118   1.0000      -0.276287        -7.5182
 119   1.0000      -0.275996        -7.5102
 120   1.0000      -0.275115        -7.4863
 121   1.0000      -0.273310        -7.4372
 122   1.0000      -0.272009        -7.4018
 123   1.0000      -0.271430        -7.3860
 124   1.0000      -0.270188        -7.3522
 125   1.0000      -0.269813        -7.3420
 126   1.0000      -0.266729        -7.2581
 127   1.0000      -0.266282        -7.2459
 128   1.0000      -0.266190        -7.2434
 129   1.0000      -0.262982        -7.1561
 130   1.0000      -0.262954        -7.1553
 131   1.0000      -0.260395        -7.0857
 132   1.0000      -0.260187        -7.0800
 133   1.0000      -0.258994        -7.0476
 134   1.0000      -0.258108        -7.0235
 135   1.0000      -0.256151        -6.9702
 136   1.0000      -0.253373        -6.8946
 137   1.0000      -0.253279        -6.8921
 138   1.0000      -0.249854        -6.7989
 139   1.0000      -0.248426        -6.7600
 140   1.0000      -0.246920        -6.7190
 141   1.0000      -0.246057        -6.6955
 142   1.0000      -0.245211        -6.6725
 143   1.0000      -0.243054        -6.6138
 144   1.0000      -0.242745        -6.6054
 145   1.0000      -0.241840        -6.5808
 146   1.0000      -0.241113        -6.5610
 147   1.0000      -0.228559        -6.2194
 148   1.0000      -0.227000        -6.1770
 149   1.0000      -0.218332        -5.9411
 150   1.0000      -0.211124        -5.7450
 151   1.0000      -0.208797        -5.6817
 152   1.0000      -0.197558        -5.3758
 153   0.0000      -0.176478        -4.8022
 154   0.0000      -0.172282        -4.6880
 155   0.0000      -0.169510        -4.6126
 156   0.0000      -0.166449        -4.5293
 157   0.0000      -0.163348        -4.4449

MULLIKEN ATOMIC CHARGES AND SPIN POPULATIONS
--------------------------------------------
   0 Au:    0.497323    0.101181
   1 Au:    0.325998    0.091225
   2 Au:    0.349892    0.125105
   3 Au:   -0.197769    0.164890
   4 Au:    0.230449    0.098693
   5 Au:   -0.068504    0.136341
   6 Au:    0.232005    0.099027
   7 Au:    0.350080    0.125467
   8 Au:   -0.199256    0.165383
   9 Au:    0.326507    0.091261
  10 Au:    0.019581    0.114521
  11 Au:    0.402360    0.069455
  12 Au:    0.019893    0.114305
  13 Au:   -0.602711    0.158326
  14 Au:    0.497916    0.101226
  15 Fe:   -2.183766    3.243593
Sum of atomic charges         :    0.0000000

LOEWDIN ATOMIC CHARGES AND SPIN POPULATIONS
-------------------------------------------
   0 Au:    0.099730    0.116210
   1 Au:    0.068319    0.085493
   2 Au:    0.070570    0.105205
   3 Au:   -0.036022    0.122113
   4 Au:    0.013069    0.116278
   5 Au:    0.017257    0.113999
   6 Au:    0.013379    0.116577
   7 Au:    0.070721    0.105423
   8 Au:   -0.035979    0.122488
   9 Au:    0.068238    0.085540
  10 Au:    0.006899    0.092813
  11 Au:    0.080089    0.065923
  12 Au:    0.007043    0.092712
  13 Au:   -0.079728    0.134269
  14 Au:    0.099825    0.116407
  15 Fe:   -0.463410    3.408551

  Mayer bond orders larger than 0.100000
B(  0-Au,  3-Au) :   0.2475 B(  0-Au,  4-Au) :   0.1996 B(  0-Au, 12-Au) :   0.2738
B(  0-Au, 13-Au) :   0.3904 B(  1-Au,  2-Au) :   0.1951 B(  1-Au,  3-Au) :   0.2019
B(  1-Au, 11-Au) :   0.2368 B(  1-Au, 12-Au) :   0.1628 B(  1-Au, 15-Fe) :   0.4407
B(  2-Au,  3-Au) :   0.2676 B(  2-Au,  5-Au) :   0.1756 B(  2-Au,  7-Au) :   0.2489
B(  2-Au, 15-Fe) :   0.4037 B(  3-Au,  4-Au) :   0.2930 B(  3-Au,  5-Au) :   0.1403
B(  3-Au, 12-Au) :   0.1312 B(  3-Au, 13-Au) :   0.1006 B(  3-Au, 15-Fe) :   0.5038
B(  4-Au,  5-Au) :   0.2367 B(  4-Au,  6-Au) :   0.3251 B(  4-Au, 13-Au) :   0.2838
B(  4-Au, 15-Fe) :   0.1162 B(  5-Au,  6-Au) :   0.2366 B(  5-Au,  7-Au) :   0.1748
B(  5-Au,  8-Au) :   0.1417 B(  5-Au, 15-Fe) :   0.6034 B(  6-Au,  8-Au) :   0.2916
B(  6-Au, 13-Au) :   0.2837 B(  6-Au, 14-Au) :   0.2003 B(  6-Au, 15-Fe) :   0.1157
B(  7-Au,  8-Au) :   0.2681 B(  7-Au,  9-Au) :   0.1956 B(  7-Au, 15-Fe) :   0.4039
B(  8-Au,  9-Au) :   0.2014 B(  8-Au, 10-Au) :   0.1314 B(  8-Au, 13-Au) :   0.1008
B(  8-Au, 14-Au) :   0.2477 B(  8-Au, 15-Fe) :   0.5051 B(  9-Au, 10-Au) :   0.1639
B(  9-Au, 11-Au) :   0.2373 B(  9-Au, 15-Fe) :   0.4394 B( 10-Au, 11-Au) :   0.2026
B( 10-Au, 12-Au) :   0.1582 B( 10-Au, 13-Au) :   0.2164 B( 10-Au, 14-Au) :   0.2732
B( 10-Au, 15-Fe) :   0.5455 B( 11-Au, 12-Au) :   0.2036 B( 11-Au, 15-Fe) :   0.3959
B( 12-Au, 13-Au) :   0.2163 B( 12-Au, 15-Fe) :   0.5452 B( 13-Au, 14-Au) :   0.3900
B( 13-Au, 15-Fe) :   0.3129

FINAL SINGLE POINT ENERGY     -3300.914354920866

DIPOLE MOMENT
-------------
                                X             Y             Z
Electronic contribution:     22.66647      16.52362       2.30783
Nuclear contribution   :    -22.61812     -16.38915      -2.43387
                        -----------------------------------------
Total Dipole Moment    :      0.04835       0.13448      -0.12604
                        -----------------------------------------
Magnitude (a.u.)       :      0.19055
Magnitude (Debye)      :      0.48433

Rotational constants in cm-1:     0.000973     0.000956     0.000847
Rotational constants in MHz :    29.160644    28.663220    25.391746

                             ****ORCA TERMINATED NORMALLY****
TOTAL RUN TIME: 0 days 4 hours 23 minutes 15 seconds 787 msec
