                         Program Version 5.0.3 -  RELEASE  -
|  1> !RI-B2PLYP def2-TZVP def2-TZVP/C
|  2> !RIJCOSX VERYSLOWCONV
|  3>
|  4> %scf
|  5>   AutoTRAHIter 200
|  6>   maxiter 400
|  7> end
|  8>
|  9>
| 10> %pal nprocs 6 end
| 11>
| 12> *xyzfile 0 6 pbe.xyz
| 13>
| 14> $new_job
| 15>
| 16> !RI-B2PLYP def2-TZVP def2-TZVP/C
| 17> !RIJCOSX VERYSLOWCONV
| 18>
| 19> %scf
| 20>   AutoTRAHIter 200
| 21>   maxiter 400
| 22> end
| 23>
| 24>
| 25> %pal nprocs 6 end
| 26>
| 27> *xyzfile 0 4 pbe.xyz
| 28>
| 29>
| 30>
| 31>
| 32>
| 33>                          ****END OF INPUT****
 Total Charge           Charge          ....    0
 Multiplicity           Mult            ....    6
 Number of Electrons    NEL             ....  311
MP2 TOTAL ENERGY:    -3297.356467019 Eh
FINAL SINGLE POINT ENERGY     -3297.356467019220

CARTESIAN COORDINATES (ANGSTROEM)
---------------------------------
  Au     7.053111    5.384571    6.158967
  Au     5.223044    7.494023    5.736880
  Au     4.927615    5.797164    8.001622
  Au     5.822883    7.220239   10.297219
  Au     4.548188    8.613124    8.295370
  Au     6.872710    9.690084    9.599218
  Au     7.570389    5.068845    8.880199
  Au     7.784557    5.765847   11.534708
  Au     8.875272    7.624248    9.900912
  Au     9.455176    6.424513    7.328404
  Au     6.200767    9.953093    6.573172
  Au     8.732046   10.439827    5.416072
  Au     8.014627    7.807278    5.235501
  Au     7.996374   11.560983    7.963775
  Au     9.355387    9.147013    7.753528
  Fe     7.040081    7.600804    7.817222

 Multiplicity           Mult            ....    4
 Number of Electrons    NEL             ....  311
 Basis Dimension        Dim             ....  645

ORBITAL ENERGIES
----------------
                 SPIN UP ORBITALS
  NO   OCC          E(Eh)            E(eV)
   0   1.0000    -258.344243     -7029.9042
   1   1.0000     -30.903017      -840.9138
   2   1.0000     -26.621380      -724.4046
   3   1.0000     -26.595351      -723.6963
   4   1.0000     -26.587140      -723.4728
   5   1.0000      -4.412443      -120.0687
   6   1.0000      -4.406396      -119.9041
   7   1.0000      -4.405353      -119.8758
   8   1.0000      -4.401826      -119.7798
   9   1.0000      -4.401419      -119.7687
  10   1.0000      -4.401226      -119.7635
  11   1.0000      -4.400592      -119.7462
  12   1.0000      -4.399375      -119.7131
  13   1.0000      -4.397090      -119.6509
  14   1.0000      -4.396966      -119.6475
  15   1.0000      -4.396332      -119.6303
  16   1.0000      -4.395590      -119.6101
  17   1.0000      -4.392396      -119.5232
  18   1.0000      -4.390248      -119.4647
  19   1.0000      -4.389647      -119.4484
  20   1.0000      -3.917238      -106.5935
  21   1.0000      -2.667429       -72.5844
  22   1.0000      -2.613891       -71.1276
  23   1.0000      -2.597168       -70.6725
  24   1.0000      -2.534386       -68.9641
  25   1.0000      -2.528723       -68.8100
  26   1.0000      -2.527713       -68.7826
  27   1.0000      -2.527376       -68.7734
  28   1.0000      -2.524732       -68.7014
  29   1.0000      -2.523768       -68.6752
  30   1.0000      -2.523134       -68.6580
  31   1.0000      -2.522858       -68.6505
  32   1.0000      -2.522137       -68.6308
  33   1.0000      -2.521714       -68.6193
  34   1.0000      -2.520934       -68.5981
  35   1.0000      -2.520165       -68.5772
  36   1.0000      -2.519739       -68.5656
  37   1.0000      -2.519661       -68.5635
  38   1.0000      -2.519204       -68.5510
  39   1.0000      -2.519072       -68.5474
  40   1.0000      -2.518274       -68.5257
  41   1.0000      -2.518201       -68.5237
  42   1.0000      -2.517692       -68.5099
  43   1.0000      -2.517570       -68.5066
  44   1.0000      -2.517294       -68.4990
  45   1.0000      -2.516313       -68.4724
  46   1.0000      -2.516150       -68.4679
  47   1.0000      -2.515362       -68.4465
  48   1.0000      -2.514958       -68.4355
  49   1.0000      -2.514279       -68.4170
  50   1.0000      -2.514140       -68.4132
  51   1.0000      -2.513891       -68.4065
  52   1.0000      -2.513267       -68.3895
  53   1.0000      -2.512823       -68.3774
  54   1.0000      -2.512335       -68.3641
  55   1.0000      -2.512293       -68.3630
  56   1.0000      -2.511973       -68.3543
  57   1.0000      -2.511412       -68.3390
  58   1.0000      -2.510692       -68.3194
  59   1.0000      -2.510258       -68.3076
  60   1.0000      -2.509465       -68.2860
  61   1.0000      -2.509337       -68.2825
  62   1.0000      -2.508918       -68.2711
  63   1.0000      -2.507583       -68.2348
  64   1.0000      -2.507288       -68.2268
  65   1.0000      -2.506113       -68.1948
  66   1.0000      -2.506083       -68.1940
  67   1.0000      -2.504878       -68.1612
  68   1.0000      -2.504864       -68.1608
  69   1.0000      -0.569214       -15.4891
  70   1.0000      -0.564082       -15.3495
  71   1.0000      -0.558327       -15.1929
  72   1.0000      -0.540594       -14.7103
  73   1.0000      -0.525943       -14.3116
  74   1.0000      -0.513956       -13.9855
  75   1.0000      -0.483316       -13.1517
  76   1.0000      -0.474797       -12.9199
  77   1.0000      -0.472965       -12.8700
  78   1.0000      -0.470535       -12.8039
  79   1.0000      -0.465211       -12.6590
  80   1.0000      -0.464522       -12.6403
  81   1.0000      -0.460955       -12.5432
  82   1.0000      -0.458599       -12.4791
  83   1.0000      -0.457758       -12.4562
  84   1.0000      -0.456071       -12.4103
  85   1.0000      -0.455083       -12.3834
  86   1.0000      -0.453518       -12.3409
  87   1.0000      -0.451033       -12.2732
  88   1.0000      -0.449726       -12.2377
  89   1.0000      -0.448708       -12.2100
  90   1.0000      -0.446614       -12.1530
  91   1.0000      -0.444382       -12.0922
  92   1.0000      -0.444085       -12.0842
  93   1.0000      -0.442675       -12.0458
  94   1.0000      -0.441339       -12.0094
  95   1.0000      -0.437908       -11.9161
  96   1.0000      -0.436596       -11.8804
  97   1.0000      -0.435202       -11.8424
  98   1.0000      -0.432078       -11.7574
  99   1.0000      -0.429635       -11.6910
 100   1.0000      -0.427000       -11.6193
 101   1.0000      -0.420524       -11.4430
 102   1.0000      -0.419062       -11.4033
 103   1.0000      -0.416892       -11.3442
 104   1.0000      -0.415456       -11.3051
 105   1.0000      -0.411660       -11.2018
 106   1.0000      -0.408320       -11.1110
 107   1.0000      -0.405567       -11.0360
 108   1.0000      -0.404521       -11.0076
 109   1.0000      -0.400602       -10.9009
 110   1.0000      -0.392323       -10.6756
 111   1.0000      -0.388254       -10.5649
 112   1.0000      -0.384357       -10.4589
 113   1.0000      -0.381332       -10.3766
 114   1.0000      -0.379619       -10.3300
 115   1.0000      -0.378093       -10.2884
 116   1.0000      -0.377435       -10.2705
 117   1.0000      -0.376462       -10.2440
 118   1.0000      -0.375687       -10.2230
 119   1.0000      -0.374168       -10.1816
 120   1.0000      -0.371900       -10.1199
 121   1.0000      -0.371703       -10.1146
 122   1.0000      -0.371033       -10.0963
 123   1.0000      -0.369843       -10.0639
 124   1.0000      -0.368812       -10.0359
 125   1.0000      -0.366606        -9.9758
 126   1.0000      -0.365894        -9.9565
 127   1.0000      -0.364628        -9.9220
 128   1.0000      -0.363758        -9.8984
 129   1.0000      -0.363210        -9.8835
 130   1.0000      -0.362685        -9.8692
 131   1.0000      -0.362258        -9.8575
 132   1.0000      -0.360962        -9.8223
 133   1.0000      -0.359701        -9.7880
 134   1.0000      -0.358536        -9.7563
 135   1.0000      -0.358061        -9.7433
 136   1.0000      -0.353535        -9.6202
 137   1.0000      -0.352539        -9.5931
 138   1.0000      -0.351483        -9.5643
 139   1.0000      -0.350140        -9.5278
 140   1.0000      -0.347581        -9.4582
 141   1.0000      -0.345826        -9.4104
 142   1.0000      -0.344819        -9.3830
 143   1.0000      -0.342006        -9.3065
 144   1.0000      -0.341896        -9.3035
 145   1.0000      -0.338979        -9.2241
 146   1.0000      -0.337112        -9.1733
 147   1.0000      -0.331598        -9.0232
 148   1.0000      -0.325152        -8.8478
 149   1.0000      -0.318833        -8.6759
 150   1.0000      -0.315274        -8.5790
 151   1.0000      -0.314038        -8.5454
 152   1.0000      -0.306703        -8.3458
 153   1.0000      -0.252896        -6.8816
 154   1.0000      -0.237479        -6.4621
 155   1.0000      -0.219869        -5.9829
 156   1.0000      -0.200916        -5.4672
 157   0.0000      -0.129646        -3.5278
 158   0.0000      -0.095781        -2.6063
 159   0.0000      -0.079302        -2.1579
 160   0.0000      -0.064674        -1.7599
 161   0.0000      -0.056180        -1.5287

                 SPIN DOWN ORBITALS
  NO   OCC          E(Eh)            E(eV)
   0   1.0000    -258.342261     -7029.8503
   1   1.0000     -30.810274      -838.3902
   2   1.0000     -26.522256      -721.7073
   3   1.0000     -26.515049      -721.5112
   4   1.0000     -26.512560      -721.4434
   5   1.0000      -4.412229      -120.0629
   6   1.0000      -4.406189      -119.8985
   7   1.0000      -4.405412      -119.8773
   8   1.0000      -4.401621      -119.7742
   9   1.0000      -4.401320      -119.7660
  10   1.0000      -4.401086      -119.7596
  11   1.0000      -4.400506      -119.7439
  12   1.0000      -4.399274      -119.7103
  13   1.0000      -4.397400      -119.6593
  14   1.0000      -4.397274      -119.6559
  15   1.0000      -4.396275      -119.6287
  16   1.0000      -4.395712      -119.6134
  17   1.0000      -4.392279      -119.5200
  18   1.0000      -4.390195      -119.4633
  19   1.0000      -4.389731      -119.4506
  20   1.0000      -3.672692       -99.9390
  21   1.0000      -2.533717       -68.9459
  22   1.0000      -2.528063       -68.7921
  23   1.0000      -2.526903       -68.7605
  24   1.0000      -2.526858       -68.7593
  25   1.0000      -2.524264       -68.6887
  26   1.0000      -2.523290       -68.6622
  27   1.0000      -2.522600       -68.6434
  28   1.0000      -2.522129       -68.6306
  29   1.0000      -2.521257       -68.6069
  30   1.0000      -2.521118       -68.6031
  31   1.0000      -2.520333       -68.5817
  32   1.0000      -2.519934       -68.5709
  33   1.0000      -2.519281       -68.5531
  34   1.0000      -2.518992       -68.5453
  35   1.0000      -2.518800       -68.5400
  36   1.0000      -2.518405       -68.5293
  37   1.0000      -2.518131       -68.5218
  38   1.0000      -2.517737       -68.5111
  39   1.0000      -2.517442       -68.5031
  40   1.0000      -2.517268       -68.4983
  41   1.0000      -2.517071       -68.4930
  42   1.0000      -2.515833       -68.4593
  43   1.0000      -2.515691       -68.4554
  44   1.0000      -2.515336       -68.4458
  45   1.0000      -2.514749       -68.4298
  46   1.0000      -2.514296       -68.4175
  47   1.0000      -2.514285       -68.4172
  48   1.0000      -2.514080       -68.4116
  49   1.0000      -2.513234       -68.3886
  50   1.0000      -2.512967       -68.3813
  51   1.0000      -2.512270       -68.3623
  52   1.0000      -2.511829       -68.3503
  53   1.0000      -2.511786       -68.3492
  54   1.0000      -2.511664       -68.3459
  55   1.0000      -2.510849       -68.3237
  56   1.0000      -2.510236       -68.3070
  57   1.0000      -2.510027       -68.3013
  58   1.0000      -2.509395       -68.2841
  59   1.0000      -2.508996       -68.2732
  60   1.0000      -2.507690       -68.2377
  61   1.0000      -2.507618       -68.2358
  62   1.0000      -2.506194       -68.1970
  63   1.0000      -2.506169       -68.1963
  64   1.0000      -2.505242       -68.1711
  65   1.0000      -2.505051       -68.1659
  66   1.0000      -2.352478       -64.0142
  67   1.0000      -2.350055       -63.9483
  68   1.0000      -2.338616       -63.6370
  69   1.0000      -0.523613       -14.2482
  70   1.0000      -0.485998       -13.2247
  71   1.0000      -0.479676       -13.0526
  72   1.0000      -0.476791       -12.9741
  73   1.0000      -0.473555       -12.8861
  74   1.0000      -0.472244       -12.8504
  75   1.0000      -0.470312       -12.7978
  76   1.0000      -0.468040       -12.7360
  77   1.0000      -0.465855       -12.6766
  78   1.0000      -0.464125       -12.6295
  79   1.0000      -0.461371       -12.5545
  80   1.0000      -0.458784       -12.4842
  81   1.0000      -0.457799       -12.4574
  82   1.0000      -0.455585       -12.3971
  83   1.0000      -0.454483       -12.3671
  84   1.0000      -0.453167       -12.3313
  85   1.0000      -0.451565       -12.2877
  86   1.0000      -0.451103       -12.2751
  87   1.0000      -0.450468       -12.2579
  88   1.0000      -0.447676       -12.1819
  89   1.0000      -0.445054       -12.1105
  90   1.0000      -0.442720       -12.0470
  91   1.0000      -0.442406       -12.0385
  92   1.0000      -0.440191       -11.9782
  93   1.0000      -0.438710       -11.9379
  94   1.0000      -0.435016       -11.8374
  95   1.0000      -0.427965       -11.6455
  96   1.0000      -0.422232       -11.4895
  97   1.0000      -0.420912       -11.4536
  98   1.0000      -0.419965       -11.4278
  99   1.0000      -0.417524       -11.3614
 100   1.0000      -0.414795       -11.2871
 101   1.0000      -0.412544       -11.2259
 102   1.0000      -0.409136       -11.1332
 103   1.0000      -0.406739       -11.0679
 104   1.0000      -0.401445       -10.9239
 105   1.0000      -0.397390       -10.8135
 106   1.0000      -0.393167       -10.6986
 107   1.0000      -0.389881       -10.6092
 108   1.0000      -0.386678       -10.5221
 109   1.0000      -0.383423       -10.4335
 110   1.0000      -0.382197       -10.4001
 111   1.0000      -0.381412       -10.3788
 112   1.0000      -0.379957       -10.3392
 113   1.0000      -0.377963       -10.2849
 114   1.0000      -0.376832       -10.2541
 115   1.0000      -0.375754       -10.2248
 116   1.0000      -0.375134       -10.2079
 117   1.0000      -0.372516       -10.1367
 118   1.0000      -0.371730       -10.1153
 119   1.0000      -0.371045       -10.0967
 120   1.0000      -0.368874       -10.0376
 121   1.0000      -0.367440        -9.9985
 122   1.0000      -0.365396        -9.9429
 123   1.0000      -0.365004        -9.9323
 124   1.0000      -0.364707        -9.9242
 125   1.0000      -0.363750        -9.8981
 126   1.0000      -0.363143        -9.8816
 127   1.0000      -0.362356        -9.8602
 128   1.0000      -0.361434        -9.8351
 129   1.0000      -0.359598        -9.7851
 130   1.0000      -0.359042        -9.7700
 131   1.0000      -0.356653        -9.7050
 132   1.0000      -0.354133        -9.6364
 133   1.0000      -0.353030        -9.6064
 134   1.0000      -0.351279        -9.5588
 135   1.0000      -0.348777        -9.4907
 136   1.0000      -0.346558        -9.4303
 137   1.0000      -0.345737        -9.4080
 138   1.0000      -0.343823        -9.3559
 139   1.0000      -0.343016        -9.3339
 140   1.0000      -0.341599        -9.2954
 141   1.0000      -0.338702        -9.2166
 142   1.0000      -0.332150        -9.0383
 143   1.0000      -0.329538        -8.9672
 144   1.0000      -0.325878        -8.8676
 145   1.0000      -0.321876        -8.7587
 146   1.0000      -0.318313        -8.6617
 147   1.0000      -0.317741        -8.6462
 148   1.0000      -0.314408        -8.5555
 149   1.0000      -0.257189        -6.9985
 150   1.0000      -0.242960        -6.6113
 151   1.0000      -0.227782        -6.1983
 152   1.0000      -0.225266        -6.1298
 153   1.0000      -0.200398        -5.4531
 154   0.0000      -0.098316        -2.6753
 155   0.0000      -0.080638        -2.1943
 156   0.0000      -0.066092        -1.7985
 157   0.0000      -0.059290        -1.6134
 158   0.0000      -0.052888        -1.4392

MULLIKEN ATOMIC CHARGES AND SPIN POPULATIONS
--------------------------------------------
   0 Au:    0.304499   -0.045985
   1 Au:    0.291685   -0.110390
   2 Au:    0.233984   -0.118288
   3 Au:    0.016559   -0.025781
   4 Au:    0.311670   -0.032329
   5 Au:    0.031563   -0.120697
   6 Au:   -0.028622    0.009703
   7 Au:    0.442353    0.063164
   8 Au:    0.064704   -0.097618
   9 Au:    0.276099   -0.043675
  10 Au:   -0.227314    0.013297
  11 Au:    0.375271    0.067112
  12 Au:   -0.016443   -0.074324
  13 Au:    0.381803    0.062029
  14 Au:   -0.128017   -0.114939
  15 Fe:   -2.329793    3.568720
Sum of atomic charges         :   -0.0000000

LOEWDIN ATOMIC CHARGES AND SPIN POPULATIONS
-------------------------------------------
   0 Au:    0.041372   -0.069919
   1 Au:    0.045754   -0.078872
   2 Au:    0.062294   -0.077584
   3 Au:   -0.024116   -0.036806
   4 Au:    0.062032   -0.079119
   5 Au:    0.006970   -0.070622
   6 Au:   -0.055239   -0.012082
   7 Au:    0.148873    0.030158
   8 Au:   -0.022951   -0.063571
   9 Au:    0.078285   -0.083604
  10 Au:   -0.081146   -0.006106
  11 Au:    0.098450    0.034018
  12 Au:   -0.008479   -0.045255
  13 Au:    0.086360    0.022277
  14 Au:   -0.052187   -0.056204
  15 Fe:   -0.386271    3.593291

  Mayer bond orders larger than 0.100000
B(  0-Au,  1-Au) :   0.2145 B(  0-Au,  2-Au) :   0.1806 B(  0-Au,  6-Au) :   0.2044
B(  0-Au, 12-Au) :   0.2357 B(  0-Au, 15-Fe) :   0.3801 B(  1-Au,  2-Au) :   0.1317
B(  1-Au, 10-Au) :   0.2104 B(  1-Au, 12-Au) :   0.2038 B(  1-Au, 15-Fe) :   0.4067
B(  2-Au,  3-Au) :   0.2024 B(  2-Au,  4-Au) :   0.1192 B(  2-Au,  6-Au) :   0.1090
B(  2-Au, 15-Fe) :   0.4372 B(  3-Au,  4-Au) :   0.2304 B(  3-Au,  5-Au) :   0.1682
B(  3-Au,  6-Au) :   0.1404 B(  3-Au,  7-Au) :   0.2871 B(  3-Au,  8-Au) :   0.1964
B(  3-Au, 15-Fe) :   0.3820 B(  4-Au, 10-Au) :   0.3229 B(  4-Au, 15-Fe) :   0.4606
B(  5-Au,  8-Au) :   0.1414 B(  5-Au, 10-Au) :   0.1068 B(  5-Au, 13-Au) :   0.3330
B(  5-Au, 14-Au) :   0.1455 B(  5-Au, 15-Fe) :   0.4721 B(  6-Au,  7-Au) :   0.2887
B(  6-Au,  8-Au) :   0.1752 B(  6-Au,  9-Au) :   0.2576 B(  6-Au, 15-Fe) :   0.3287
B(  7-Au,  8-Au) :   0.3801 B(  8-Au, 14-Au) :   0.3137 B(  8-Au, 15-Fe) :   0.3891
B(  9-Au, 14-Au) :   0.1871 B(  9-Au, 15-Fe) :   0.5048 B( 10-Au, 11-Au) :   0.2131
B( 10-Au, 13-Au) :   0.2813 B( 10-Au, 14-Au) :   0.1673 B( 10-Au, 15-Fe) :   0.3449
B( 11-Au, 12-Au) :   0.3040 B( 11-Au, 13-Au) :   0.1342 B( 11-Au, 14-Au) :   0.3232
B( 12-Au, 14-Au) :   0.1808 B( 12-Au, 15-Fe) :   0.4495 B( 13-Au, 14-Au) :   0.2390
B( 14-Au, 15-Fe) :   0.3705

MP2 TOTAL ENERGY:    -3297.346338863 Eh
FINAL SINGLE POINT ENERGY     -3297.346338862747

DIPOLE MOMENT
-------------
                                X             Y             Z
Electronic contribution:      7.33267      10.20412       3.79359
Nuclear contribution   :     -7.21496     -10.14046      -3.61196
                        -----------------------------------------
Total Dipole Moment    :      0.11771       0.06367       0.18163
                        -----------------------------------------
Magnitude (a.u.)       :      0.22560
Magnitude (Debye)      :      0.57344

Rotational constants in cm-1:     0.001138     0.000856     0.000795
Rotational constants in MHz :    34.113824    25.672221    23.835243

                             ****ORCA TERMINATED NORMALLY****
TOTAL RUN TIME: 0 days 1 hours 0 minutes 8 seconds 133 msec
