                         Program Version 5.0.3 -  RELEASE  -
|  1> !PBE def2-TZVP VERYSLOWCONV
|  2>
|  3> %scf
|  4>   AutoTRAHIter 200
|  5>   maxiter 400
|  6> end
|  7>
|  8>
|  9> %pal nprocs 6 end
| 10>
| 11> *xyzfile 0 6 pbe.xyz
| 12>
| 13> $new_job
| 14>
| 15> !PBE def2-TZVP VERYSLOWCONV
| 16>
| 17> %scf
| 18>   AutoTRAHIter 200
| 19>   maxiter 400
| 20> end
| 21>
| 22>
| 23> %pal nprocs 6 end
| 24>
| 25> *xyzfile 0 4 pbe.xyz
| 26>
| 27>
| 28>
| 29>
| 30>
| 31>                          ****END OF INPUT****
 Total Charge           Charge          ....    0
 Multiplicity           Mult            ....    6
 Number of Electrons    NEL             ....  311
FINAL SINGLE POINT ENERGY     -3300.922047158337

CARTESIAN COORDINATES (ANGSTROEM)
---------------------------------
  Au     7.053111    5.384571    6.158967
  Au     5.223044    7.494023    5.736880
  Au     4.927615    5.797164    8.001622
  Au     5.822883    7.220239   10.297219
  Au     4.548188    8.613124    8.295370
  Au     6.872710    9.690084    9.599218
  Au     7.570389    5.068845    8.880199
  Au     7.784557    5.765847   11.534708
  Au     8.875272    7.624248    9.900912
  Au     9.455176    6.424513    7.328404
  Au     6.200767    9.953093    6.573172
  Au     8.732046   10.439827    5.416072
  Au     8.014627    7.807278    5.235501
  Au     7.996374   11.560983    7.963775
  Au     9.355387    9.147013    7.753528
  Fe     7.040081    7.600804    7.817222

 Multiplicity           Mult            ....    4
 Number of Electrons    NEL             ....  311
 Basis Dimension        Dim             ....  645

ORBITAL ENERGIES
----------------
                 SPIN UP ORBITALS
  NO   OCC          E(Eh)            E(eV)
   0   1.0000    -254.755551     -6932.2510
   1   1.0000     -29.592330      -805.2482
   2   1.0000     -25.535859      -694.8660
   3   1.0000     -25.526668      -694.6160
   4   1.0000     -25.520652      -694.4523
   5   1.0000      -4.037425      -109.8639
   6   1.0000      -4.034576      -109.7864
   7   1.0000      -4.032941      -109.7419
   8   1.0000      -4.031781      -109.7103
   9   1.0000      -4.031249      -109.6959
  10   1.0000      -4.030138      -109.6656
  11   1.0000      -4.029161      -109.6390
  12   1.0000      -4.028582      -109.6233
  13   1.0000      -4.028122      -109.6108
  14   1.0000      -4.027884      -109.6043
  15   1.0000      -4.026876      -109.5769
  16   1.0000      -4.022853      -109.4674
  17   1.0000      -4.020557      -109.4049
  18   1.0000      -4.020525      -109.4040
  19   1.0000      -4.020099      -109.3925
  20   1.0000      -3.371415       -91.7409
  21   1.0000      -2.256631       -61.4060
  22   1.0000      -2.251302       -61.2610
  23   1.0000      -2.248535       -61.1857
  24   1.0000      -2.248141       -61.1750
  25   1.0000      -2.248105       -61.1740
  26   1.0000      -2.247854       -61.1672
  27   1.0000      -2.247267       -61.1512
  28   1.0000      -2.246882       -61.1408
  29   1.0000      -2.246533       -61.1313
  30   1.0000      -2.246071       -61.1187
  31   1.0000      -2.245239       -61.0960
  32   1.0000      -2.244949       -61.0882
  33   1.0000      -2.244863       -61.0858
  34   1.0000      -2.244449       -61.0746
  35   1.0000      -2.243906       -61.0598
  36   1.0000      -2.243702       -61.0542
  37   1.0000      -2.243418       -61.0465
  38   1.0000      -2.243245       -61.0418
  39   1.0000      -2.242600       -61.0242
  40   1.0000      -2.242215       -61.0138
  41   1.0000      -2.241832       -61.0034
  42   1.0000      -2.241418       -60.9921
  43   1.0000      -2.241131       -60.9843
  44   1.0000      -2.240970       -60.9799
  45   1.0000      -2.240452       -60.9658
  46   1.0000      -2.240158       -60.9578
  47   1.0000      -2.240054       -60.9550
  48   1.0000      -2.239550       -60.9413
  49   1.0000      -2.239499       -60.9399
  50   1.0000      -2.239226       -60.9324
  51   1.0000      -2.238802       -60.9209
  52   1.0000      -2.237072       -60.8738
  53   1.0000      -2.236696       -60.8636
  54   1.0000      -2.236375       -60.8549
  55   1.0000      -2.236080       -60.8468
  56   1.0000      -2.235123       -60.8208
  57   1.0000      -2.234564       -60.8056
  58   1.0000      -2.234382       -60.8006
  59   1.0000      -2.234084       -60.7925
  60   1.0000      -2.233564       -60.7784
  61   1.0000      -2.232361       -60.7456
  62   1.0000      -2.231946       -60.7343
  63   1.0000      -2.231865       -60.7321
  64   1.0000      -2.231217       -60.7145
  65   1.0000      -2.231152       -60.7127
  66   1.0000      -2.201688       -59.9110
  67   1.0000      -2.183760       -59.4231
  68   1.0000      -2.170251       -59.0555
  69   1.0000      -0.442976       -12.0540
  70   1.0000      -0.397685       -10.8216
  71   1.0000      -0.392761       -10.6876
  72   1.0000      -0.391225       -10.6458
  73   1.0000      -0.381894       -10.3919
  74   1.0000      -0.380105       -10.3432
  75   1.0000      -0.378054       -10.2874
  76   1.0000      -0.374765       -10.1979
  77   1.0000      -0.374512       -10.1910
  78   1.0000      -0.364779        -9.9261
  79   1.0000      -0.363173        -9.8824
  80   1.0000      -0.357096        -9.7171
  81   1.0000      -0.354214        -9.6386
  82   1.0000      -0.352023        -9.5790
  83   1.0000      -0.350776        -9.5451
  84   1.0000      -0.350497        -9.5375
  85   1.0000      -0.349147        -9.5008
  86   1.0000      -0.347873        -9.4661
  87   1.0000      -0.345526        -9.4022
  88   1.0000      -0.344477        -9.3737
  89   1.0000      -0.342073        -9.3083
  90   1.0000      -0.340896        -9.2763
  91   1.0000      -0.340290        -9.2598
  92   1.0000      -0.338590        -9.2135
  93   1.0000      -0.336340        -9.1523
  94   1.0000      -0.333691        -9.0802
  95   1.0000      -0.328111        -8.9284
  96   1.0000      -0.325632        -8.8609
  97   1.0000      -0.324125        -8.8199
  98   1.0000      -0.321684        -8.7535
  99   1.0000      -0.317924        -8.6511
 100   1.0000      -0.316327        -8.6077
 101   1.0000      -0.315054        -8.5731
 102   1.0000      -0.313061        -8.5188
 103   1.0000      -0.307461        -8.3664
 104   1.0000      -0.306212        -8.3325
 105   1.0000      -0.303322        -8.2538
 106   1.0000      -0.301252        -8.1975
 107   1.0000      -0.299786        -8.1576
 108   1.0000      -0.297446        -8.0939
 109   1.0000      -0.294857        -8.0235
 110   1.0000      -0.292733        -7.9657
 111   1.0000      -0.288525        -7.8512
 112   1.0000      -0.285387        -7.7658
 113   1.0000      -0.283652        -7.7186
 114   1.0000      -0.283225        -7.7070
 115   1.0000      -0.280087        -7.6216
 116   1.0000      -0.279366        -7.6019
 117   1.0000      -0.278671        -7.5830
 118   1.0000      -0.277676        -7.5559
 119   1.0000      -0.277085        -7.5399
 120   1.0000      -0.275643        -7.5006
 121   1.0000      -0.273593        -7.4449
 122   1.0000      -0.272076        -7.4036
 123   1.0000      -0.271278        -7.3819
 124   1.0000      -0.270771        -7.3680
 125   1.0000      -0.268731        -7.3126
 126   1.0000      -0.268239        -7.2991
 127   1.0000      -0.267860        -7.2888
 128   1.0000      -0.267743        -7.2857
 129   1.0000      -0.266033        -7.2391
 130   1.0000      -0.264853        -7.2070
 131   1.0000      -0.262714        -7.1488
 132   1.0000      -0.261965        -7.1284
 133   1.0000      -0.261650        -7.1199
 134   1.0000      -0.259893        -7.0720
 135   1.0000      -0.259049        -7.0491
 136   1.0000      -0.257598        -7.0096
 137   1.0000      -0.255871        -6.9626
 138   1.0000      -0.255460        -6.9514
 139   1.0000      -0.255251        -6.9457
 140   1.0000      -0.252792        -6.8788
 141   1.0000      -0.251980        -6.8567
 142   1.0000      -0.251574        -6.8457
 143   1.0000      -0.250006        -6.8030
 144   1.0000      -0.249560        -6.7909
 145   1.0000      -0.247610        -6.7378
 146   1.0000      -0.247354        -6.7309
 147   1.0000      -0.245960        -6.6929
 148   1.0000      -0.244869        -6.6632
 149   1.0000      -0.239351        -6.5131
 150   1.0000      -0.237693        -6.4680
 151   1.0000      -0.235491        -6.4080
 152   1.0000      -0.230944        -6.2843
 153   1.0000      -0.220305        -5.9948
 154   1.0000      -0.213130        -5.7996
 155   1.0000      -0.200094        -5.4448
 156   1.0000      -0.191318        -5.2060
 157   0.0000      -0.188322        -5.1245
 158   0.0000      -0.154879        -4.2145
 159   0.0000      -0.140093        -3.8121
 160   0.0000      -0.129249        -3.5170
 161   0.0000      -0.124219        -3.3802

                 SPIN DOWN ORBITALS
  NO   OCC          E(Eh)            E(eV)
   0   1.0000    -254.754895     -6932.2331
   1   1.0000     -29.534217      -803.6669
   2   1.0000     -25.488424      -693.5753
   3   1.0000     -25.483271      -693.4351
   4   1.0000     -25.479869      -693.3425
   5   1.0000      -4.037041      -109.8535
   6   1.0000      -4.034007      -109.7709
   7   1.0000      -4.032757      -109.7369
   8   1.0000      -4.031792      -109.7106
   9   1.0000      -4.031222      -109.6951
  10   1.0000      -4.029962      -109.6608
  11   1.0000      -4.029380      -109.6450
  12   1.0000      -4.028918      -109.6324
  13   1.0000      -4.027930      -109.6055
  14   1.0000      -4.027180      -109.5851
  15   1.0000      -4.026716      -109.5725
  16   1.0000      -4.022833      -109.4669
  17   1.0000      -4.021317      -109.4256
  18   1.0000      -4.021008      -109.4172
  19   1.0000      -4.020245      -109.3964
  20   1.0000      -3.239817       -88.1599
  21   1.0000      -2.256106       -61.3918
  22   1.0000      -2.250734       -61.2456
  23   1.0000      -2.248370       -61.1813
  24   1.0000      -2.248243       -61.1778
  25   1.0000      -2.248124       -61.1746
  26   1.0000      -2.247753       -61.1645
  27   1.0000      -2.246917       -61.1417
  28   1.0000      -2.246180       -61.1217
  29   1.0000      -2.245743       -61.1098
  30   1.0000      -2.245493       -61.1030
  31   1.0000      -2.244993       -61.0894
  32   1.0000      -2.244879       -61.0863
  33   1.0000      -2.244674       -61.0807
  34   1.0000      -2.244612       -61.0790
  35   1.0000      -2.243831       -61.0578
  36   1.0000      -2.243736       -61.0552
  37   1.0000      -2.243449       -61.0474
  38   1.0000      -2.243059       -61.0367
  39   1.0000      -2.242449       -61.0201
  40   1.0000      -2.242168       -61.0125
  41   1.0000      -2.241893       -61.0050
  42   1.0000      -2.241012       -60.9810
  43   1.0000      -2.240934       -60.9789
  44   1.0000      -2.240732       -60.9734
  45   1.0000      -2.240365       -60.9634
  46   1.0000      -2.240086       -60.9559
  47   1.0000      -2.239915       -60.9512
  48   1.0000      -2.239619       -60.9431
  49   1.0000      -2.239270       -60.9336
  50   1.0000      -2.239194       -60.9316
  51   1.0000      -2.238189       -60.9042
  52   1.0000      -2.236912       -60.8695
  53   1.0000      -2.236699       -60.8637
  54   1.0000      -2.236639       -60.8620
  55   1.0000      -2.236202       -60.8501
  56   1.0000      -2.235304       -60.8257
  57   1.0000      -2.235261       -60.8246
  58   1.0000      -2.234607       -60.8067
  59   1.0000      -2.234515       -60.8043
  60   1.0000      -2.233743       -60.7832
  61   1.0000      -2.233098       -60.7657
  62   1.0000      -2.232457       -60.7482
  63   1.0000      -2.232206       -60.7414
  64   1.0000      -2.231782       -60.7299
  65   1.0000      -2.231353       -60.7182
  66   1.0000      -2.062562       -56.1252
  67   1.0000      -2.057079       -55.9760
  68   1.0000      -2.049568       -55.7716
  69   1.0000      -0.439114       -11.9489
  70   1.0000      -0.396789       -10.7972
  71   1.0000      -0.393120       -10.6973
  72   1.0000      -0.390412       -10.6237
  73   1.0000      -0.378852       -10.3091
  74   1.0000      -0.375252       -10.2111
  75   1.0000      -0.372616       -10.1394
  76   1.0000      -0.368760       -10.0345
  77   1.0000      -0.368130       -10.0173
  78   1.0000      -0.362273        -9.8579
  79   1.0000      -0.360269        -9.8034
  80   1.0000      -0.355070        -9.6620
  81   1.0000      -0.354091        -9.6353
  82   1.0000      -0.351590        -9.5673
  83   1.0000      -0.349918        -9.5218
  84   1.0000      -0.348975        -9.4961
  85   1.0000      -0.348412        -9.4808
  86   1.0000      -0.347423        -9.4539
  87   1.0000      -0.345518        -9.4020
  88   1.0000      -0.344211        -9.3665
  89   1.0000      -0.341374        -9.2892
  90   1.0000      -0.340016        -9.2523
  91   1.0000      -0.338648        -9.2151
  92   1.0000      -0.338245        -9.2041
  93   1.0000      -0.336179        -9.1479
  94   1.0000      -0.332624        -9.0512
  95   1.0000      -0.327812        -8.9202
  96   1.0000      -0.325142        -8.8476
  97   1.0000      -0.322474        -8.7750
  98   1.0000      -0.320765        -8.7284
  99   1.0000      -0.317756        -8.6466
 100   1.0000      -0.315247        -8.5783
 101   1.0000      -0.312877        -8.5138
 102   1.0000      -0.310623        -8.4525
 103   1.0000      -0.306273        -8.3341
 104   1.0000      -0.302293        -8.2258
 105   1.0000      -0.299247        -8.1429
 106   1.0000      -0.296747        -8.0749
 107   1.0000      -0.291845        -7.9415
 108   1.0000      -0.291285        -7.9263
 109   1.0000      -0.288875        -7.8607
 110   1.0000      -0.286276        -7.7900
 111   1.0000      -0.284733        -7.7480
 112   1.0000      -0.282877        -7.6975
 113   1.0000      -0.282669        -7.6918
 114   1.0000      -0.280990        -7.6461
 115   1.0000      -0.279205        -7.5975
 116   1.0000      -0.279127        -7.5954
 117   1.0000      -0.277136        -7.5413
 118   1.0000      -0.276804        -7.5322
 119   1.0000      -0.276083        -7.5126
 120   1.0000      -0.274741        -7.4761
 121   1.0000      -0.272292        -7.4094
 122   1.0000      -0.271533        -7.3888
 123   1.0000      -0.270778        -7.3682
 124   1.0000      -0.269895        -7.3442
 125   1.0000      -0.268263        -7.2998
 126   1.0000      -0.268028        -7.2934
 127   1.0000      -0.267365        -7.2754
 128   1.0000      -0.267099        -7.2681
 129   1.0000      -0.265688        -7.2297
 130   1.0000      -0.264712        -7.2032
 131   1.0000      -0.262067        -7.1312
 132   1.0000      -0.261730        -7.1220
 133   1.0000      -0.260788        -7.0964
 134   1.0000      -0.259038        -7.0488
 135   1.0000      -0.257860        -7.0167
 136   1.0000      -0.256261        -6.9732
 137   1.0000      -0.253584        -6.9004
 138   1.0000      -0.252997        -6.8844
 139   1.0000      -0.252186        -6.8623
 140   1.0000      -0.251299        -6.8382
 141   1.0000      -0.249691        -6.7944
 142   1.0000      -0.247781        -6.7425
 143   1.0000      -0.246616        -6.7108
 144   1.0000      -0.245622        -6.6837
 145   1.0000      -0.240036        -6.5317
 146   1.0000      -0.236958        -6.4479
 147   1.0000      -0.232076        -6.3151
 148   1.0000      -0.226907        -6.1744
 149   1.0000      -0.219003        -5.9594
 150   1.0000      -0.207527        -5.6471
 151   1.0000      -0.204703        -5.5703
 152   1.0000      -0.203681        -5.5424
 153   1.0000      -0.176215        -4.7951
 154   0.0000      -0.162244        -4.4149
 155   0.0000      -0.157075        -4.2742
 156   0.0000      -0.155708        -4.2370
 157   0.0000      -0.150868        -4.1053
 158   0.0000      -0.145297        -3.9537

MULLIKEN ATOMIC CHARGES AND SPIN POPULATIONS
--------------------------------------------
   0 Au:    0.326120    0.029511
   1 Au:    0.300462    0.004302
   2 Au:    0.242033    0.013879
   3 Au:    0.053888    0.070130
   4 Au:    0.410863   -0.053072
   5 Au:    0.005686    0.081319
   6 Au:    0.060983   -0.066992
   7 Au:    0.443932   -0.036935
   8 Au:    0.072892    0.027689
   9 Au:    0.397183   -0.087710
  10 Au:   -0.138978   -0.064063
  11 Au:    0.398043    0.016795
  12 Au:   -0.018079    0.073346
  13 Au:    0.385418   -0.039910
  14 Au:   -0.135900    0.050792
  15 Fe:   -2.804547    2.980920
Sum of atomic charges         :    0.0000000

LOEWDIN ATOMIC CHARGES AND SPIN POPULATIONS
-------------------------------------------
   0 Au:    0.074173   -0.015437
   1 Au:    0.076769   -0.015490
   2 Au:    0.068698   -0.001311
   3 Au:   -0.016084    0.030445
   4 Au:    0.088477   -0.023694
   5 Au:    0.032470    0.032648
   6 Au:   -0.008939   -0.053911
   7 Au:    0.128680   -0.032368
   8 Au:    0.010698    0.009499
   9 Au:    0.112873   -0.040124
  10 Au:   -0.031306   -0.045131
  11 Au:    0.077637    0.011719
  12 Au:    0.006870    0.030689
  13 Au:    0.077748   -0.040053
  14 Au:   -0.033234    0.022958
  15 Fe:   -0.665530    3.129562

  Mayer bond orders larger than 0.100000
B(  0-Au,  1-Au) :   0.1470 B(  0-Au,  2-Au) :   0.1586 B(  0-Au,  6-Au) :   0.2740
B(  0-Au,  9-Au) :   0.1389 B(  0-Au, 12-Au) :   0.2807 B(  0-Au, 15-Fe) :   0.4132
B(  1-Au,  2-Au) :   0.1764 B(  1-Au,  4-Au) :   0.1531 B(  1-Au, 10-Au) :   0.3076
B(  1-Au, 12-Au) :   0.1408 B(  1-Au, 15-Fe) :   0.4645 B(  2-Au,  3-Au) :   0.1673
B(  2-Au,  4-Au) :   0.1833 B(  2-Au,  6-Au) :   0.1789 B(  2-Au, 15-Fe) :   0.4869
B(  3-Au,  4-Au) :   0.2682 B(  3-Au,  5-Au) :   0.2350 B(  3-Au,  6-Au) :   0.1568
B(  3-Au,  7-Au) :   0.3082 B(  3-Au,  8-Au) :   0.1636 B(  3-Au, 15-Fe) :   0.3951
B(  4-Au,  5-Au) :   0.1242 B(  4-Au, 10-Au) :   0.2516 B(  4-Au, 15-Fe) :   0.4371
B(  5-Au, 10-Au) :   0.1414 B(  5-Au, 13-Au) :   0.3612 B(  5-Au, 14-Au) :   0.1005
B(  5-Au, 15-Fe) :   0.5540 B(  6-Au,  7-Au) :   0.3486 B(  6-Au,  8-Au) :   0.1936
B(  6-Au,  9-Au) :   0.1895 B(  6-Au, 15-Fe) :   0.3548 B(  7-Au,  8-Au) :   0.4131
B(  8-Au,  9-Au) :   0.1233 B(  8-Au, 14-Au) :   0.3762 B(  8-Au, 15-Fe) :   0.4510
B(  9-Au, 12-Au) :   0.1410 B(  9-Au, 14-Au) :   0.2444 B(  9-Au, 15-Fe) :   0.4850
B( 10-Au, 11-Au) :   0.2413 B( 10-Au, 12-Au) :   0.1365 B( 10-Au, 13-Au) :   0.3253
B( 10-Au, 14-Au) :   0.1605 B( 10-Au, 15-Fe) :   0.3645 B( 11-Au, 12-Au) :   0.3307
B( 11-Au, 13-Au) :   0.1851 B( 11-Au, 14-Au) :   0.3480 B( 12-Au, 14-Au) :   0.1529
B( 12-Au, 15-Fe) :   0.5038 B( 13-Au, 14-Au) :   0.2665 B( 14-Au, 15-Fe) :   0.3986

FINAL SINGLE POINT ENERGY     -3300.911739270285

DIPOLE MOMENT
-------------
                                X             Y             Z
Electronic contribution:      7.29782      10.08310       3.68345
Nuclear contribution   :     -7.21496     -10.14046      -3.61196
                        -----------------------------------------
Total Dipole Moment    :      0.08286      -0.05736       0.07149
                        -----------------------------------------
Magnitude (a.u.)       :      0.12356
Magnitude (Debye)      :      0.31406

Rotational constants in cm-1:     0.001138     0.000856     0.000795
Rotational constants in MHz :    34.113824    25.672221    23.835243

                             ****ORCA TERMINATED NORMALLY****
TOTAL RUN TIME: 0 days 0 hours 13 minutes 56 seconds 356 msec
