                         Program Version 5.0.3 -  RELEASE  -
|  1> !R2SCAN def2-TZVP VERYSLOWCONV
|  2>
|  3> %scf
|  4>   AutoTRAHIter 200
|  5>   maxiter 400
|  6> end
|  7>
|  8> %pal nprocs 6 end
|  9>
| 10> *xyzfile 0 6 pbe.xyz
| 11>
| 12> $new_job
| 13>
| 14> !R2SCAN def2-TZVP VERYSLOWCONV
| 15> %scf
| 16>   AutoTRAHIter 200
| 17>   maxiter 400
| 18> end
| 19>
| 20>
| 21> %pal nprocs 6 end
| 22>
| 23> *xyzfile 0 4 pbe.xyz
| 24>
| 25>
| 26>
| 27>
| 28>
| 29>                          ****END OF INPUT****
 Total Charge           Charge          ....    0
 Multiplicity           Mult            ....    6
 Number of Electrons    NEL             ....  311
FINAL SINGLE POINT ENERGY     -3301.439103810435

CARTESIAN COORDINATES (ANGSTROEM)
---------------------------------
  Au     7.053111    5.384571    6.158967
  Au     5.223044    7.494023    5.736880
  Au     4.927615    5.797164    8.001622
  Au     5.822883    7.220239   10.297219
  Au     4.548188    8.613124    8.295370
  Au     6.872710    9.690084    9.599218
  Au     7.570389    5.068845    8.880199
  Au     7.784557    5.765847   11.534708
  Au     8.875272    7.624248    9.900912
  Au     9.455176    6.424513    7.328404
  Au     6.200767    9.953093    6.573172
  Au     8.732046   10.439827    5.416072
  Au     8.014627    7.807278    5.235501
  Au     7.996374   11.560983    7.963775
  Au     9.355387    9.147013    7.753528
  Fe     7.040081    7.600804    7.817222

 Multiplicity           Mult            ....    4
 Number of Electrons    NEL             ....  311
 Basis Dimension        Dim             ....  645

ORBITAL ENERGIES
----------------
                 SPIN UP ORBITALS
  NO   OCC          E(Eh)            E(eV)
   0   1.0000    -255.638264     -6956.2708
   1   1.0000     -29.935837      -814.5956
   2   1.0000     -25.775560      -701.3886
   3   1.0000     -25.765710      -701.1206
   4   1.0000     -25.757012      -700.8839
   5   1.0000      -4.128350      -112.3381
   6   1.0000      -4.125556      -112.2621
   7   1.0000      -4.124100      -112.2225
   8   1.0000      -4.122636      -112.1826
   9   1.0000      -4.122253      -112.1722
  10   1.0000      -4.120877      -112.1348
  11   1.0000      -4.119637      -112.1010
  12   1.0000      -4.119241      -112.0902
  13   1.0000      -4.119063      -112.0854
  14   1.0000      -4.118567      -112.0719
  15   1.0000      -4.117343      -112.0386
  16   1.0000      -4.113273      -111.9279
  17   1.0000      -4.111670      -111.8842
  18   1.0000      -4.111186      -111.8711
  19   1.0000      -4.110723      -111.8585
  20   1.0000      -3.516965       -95.7015
  21   1.0000      -2.320228       -63.1366
  22   1.0000      -2.314778       -62.9883
  23   1.0000      -2.312275       -62.9202
  24   1.0000      -2.312101       -62.9155
  25   1.0000      -2.311809       -62.9075
  26   1.0000      -2.311558       -62.9007
  27   1.0000      -2.311113       -62.8886
  28   1.0000      -2.310835       -62.8810
  29   1.0000      -2.310440       -62.8703
  30   1.0000      -2.310091       -62.8608
  31   1.0000      -2.308985       -62.8307
  32   1.0000      -2.308733       -62.8238
  33   1.0000      -2.308475       -62.8168
  34   1.0000      -2.308090       -62.8063
  35   1.0000      -2.307561       -62.7919
  36   1.0000      -2.307233       -62.7830
  37   1.0000      -2.306914       -62.7743
  38   1.0000      -2.306859       -62.7728
  39   1.0000      -2.306188       -62.7546
  40   1.0000      -2.305720       -62.7418
  41   1.0000      -2.305330       -62.7312
  42   1.0000      -2.304915       -62.7199
  43   1.0000      -2.304801       -62.7168
  44   1.0000      -2.304437       -62.7069
  45   1.0000      -2.303952       -62.6937
  46   1.0000      -2.303641       -62.6853
  47   1.0000      -2.303534       -62.6824
  48   1.0000      -2.303115       -62.6709
  49   1.0000      -2.302994       -62.6676
  50   1.0000      -2.302817       -62.6628
  51   1.0000      -2.302277       -62.6482
  52   1.0000      -2.301106       -62.6163
  53   1.0000      -2.300501       -62.5998
  54   1.0000      -2.299883       -62.5830
  55   1.0000      -2.299761       -62.5797
  56   1.0000      -2.299525       -62.5732
  57   1.0000      -2.298149       -62.5358
  58   1.0000      -2.297912       -62.5294
  59   1.0000      -2.297481       -62.5176
  60   1.0000      -2.297362       -62.5144
  61   1.0000      -2.296890       -62.5015
  62   1.0000      -2.295737       -62.4702
  63   1.0000      -2.295618       -62.4669
  64   1.0000      -2.295213       -62.4559
  65   1.0000      -2.294998       -62.4501
  66   1.0000      -2.294459       -62.4354
  67   1.0000      -2.281771       -62.0901
  68   1.0000      -2.262641       -61.5696
  69   1.0000      -0.448607       -12.2072
  70   1.0000      -0.404914       -11.0183
  71   1.0000      -0.398647       -10.8477
  72   1.0000      -0.397392       -10.8136
  73   1.0000      -0.392671       -10.6851
  74   1.0000      -0.389984       -10.6120
  75   1.0000      -0.388999       -10.5852
  76   1.0000      -0.386033       -10.5045
  77   1.0000      -0.385156       -10.4806
  78   1.0000      -0.374635       -10.1943
  79   1.0000      -0.372387       -10.1332
  80   1.0000      -0.366778        -9.9805
  81   1.0000      -0.363485        -9.8909
  82   1.0000      -0.361748        -9.8437
  83   1.0000      -0.360593        -9.8122
  84   1.0000      -0.360049        -9.7974
  85   1.0000      -0.358719        -9.7612
  86   1.0000      -0.357193        -9.7197
  87   1.0000      -0.354912        -9.6576
  88   1.0000      -0.353769        -9.6265
  89   1.0000      -0.351627        -9.5682
  90   1.0000      -0.350056        -9.5255
  91   1.0000      -0.349942        -9.5224
  92   1.0000      -0.347735        -9.4623
  93   1.0000      -0.345436        -9.3998
  94   1.0000      -0.343236        -9.3399
  95   1.0000      -0.337123        -9.1736
  96   1.0000      -0.334162        -9.0930
  97   1.0000      -0.333970        -9.0878
  98   1.0000      -0.330827        -9.0023
  99   1.0000      -0.327564        -8.9135
 100   1.0000      -0.326244        -8.8776
 101   1.0000      -0.324161        -8.8209
 102   1.0000      -0.323245        -8.7960
 103   1.0000      -0.319762        -8.7012
 104   1.0000      -0.316198        -8.6042
 105   1.0000      -0.314050        -8.5457
 106   1.0000      -0.312580        -8.5057
 107   1.0000      -0.310577        -8.4512
 108   1.0000      -0.308569        -8.3966
 109   1.0000      -0.304284        -8.2800
 110   1.0000      -0.302415        -8.2291
 111   1.0000      -0.298487        -8.1223
 112   1.0000      -0.293823        -7.9953
 113   1.0000      -0.292308        -7.9541
 114   1.0000      -0.291117        -7.9217
 115   1.0000      -0.288685        -7.8555
 116   1.0000      -0.287974        -7.8362
 117   1.0000      -0.287311        -7.8181
 118   1.0000      -0.286271        -7.7898
 119   1.0000      -0.285593        -7.7714
 120   1.0000      -0.284362        -7.7379
 121   1.0000      -0.282417        -7.6850
 122   1.0000      -0.280285        -7.6269
 123   1.0000      -0.280014        -7.6196
 124   1.0000      -0.279365        -7.6019
 125   1.0000      -0.277557        -7.5527
 126   1.0000      -0.277081        -7.5398
 127   1.0000      -0.276427        -7.5220
 128   1.0000      -0.275872        -7.5068
 129   1.0000      -0.274883        -7.4799
 130   1.0000      -0.273066        -7.4305
 131   1.0000      -0.272163        -7.4059
 132   1.0000      -0.271169        -7.3789
 133   1.0000      -0.270504        -7.3608
 134   1.0000      -0.269390        -7.3305
 135   1.0000      -0.268872        -7.3164
 136   1.0000      -0.267301        -7.2736
 137   1.0000      -0.266544        -7.2530
 138   1.0000      -0.265317        -7.2196
 139   1.0000      -0.263829        -7.1792
 140   1.0000      -0.262257        -7.1364
 141   1.0000      -0.260480        -7.0880
 142   1.0000      -0.260371        -7.0851
 143   1.0000      -0.258155        -7.0248
 144   1.0000      -0.257405        -7.0043
 145   1.0000      -0.256840        -6.9890
 146   1.0000      -0.254597        -6.9279
 147   1.0000      -0.253367        -6.8945
 148   1.0000      -0.251922        -6.8551
 149   1.0000      -0.248947        -6.7742
 150   1.0000      -0.246009        -6.6942
 151   1.0000      -0.241982        -6.5847
 152   1.0000      -0.237285        -6.4569
 153   1.0000      -0.224535        -6.1099
 154   1.0000      -0.215764        -5.8712
 155   1.0000      -0.201736        -5.4895
 156   1.0000      -0.192892        -5.2488
 157   0.0000      -0.186852        -5.0845
 158   0.0000      -0.151551        -4.1239
 159   0.0000      -0.136001        -3.7008
 160   0.0000      -0.125043        -3.4026
 161   0.0000      -0.120174        -3.2701

                 SPIN DOWN ORBITALS
  NO   OCC          E(Eh)            E(eV)
   0   1.0000    -255.637298     -6956.2445
   1   1.0000     -29.857211      -812.4560
   2   1.0000     -25.710275      -699.6121
   3   1.0000     -25.705746      -699.4889
   4   1.0000     -25.702377      -699.3972
   5   1.0000      -4.128022      -112.3292
   6   1.0000      -4.125016      -112.2474
   7   1.0000      -4.123945      -112.2182
   8   1.0000      -4.122741      -112.1855
   9   1.0000      -4.122374      -112.1755
  10   1.0000      -4.120713      -112.1303
  11   1.0000      -4.120119      -112.1141
  12   1.0000      -4.119796      -112.1053
  13   1.0000      -4.118958      -112.0825
  14   1.0000      -4.117823      -112.0517
  15   1.0000      -4.117231      -112.0356
  16   1.0000      -4.113362      -111.9303
  17   1.0000      -4.112241      -111.8998
  18   1.0000      -4.112100      -111.8959
  19   1.0000      -4.110837      -111.8616
  20   1.0000      -3.343010       -90.9679
  21   1.0000      -2.319750       -63.1236
  22   1.0000      -2.314247       -62.9739
  23   1.0000      -2.312128       -62.9162
  24   1.0000      -2.311960       -62.9116
  25   1.0000      -2.311865       -62.9090
  26   1.0000      -2.311466       -62.8982
  27   1.0000      -2.310784       -62.8796
  28   1.0000      -2.310068       -62.8602
  29   1.0000      -2.309624       -62.8481
  30   1.0000      -2.309352       -62.8407
  31   1.0000      -2.308815       -62.8260
  32   1.0000      -2.308611       -62.8205
  33   1.0000      -2.308381       -62.8142
  34   1.0000      -2.308276       -62.8114
  35   1.0000      -2.307555       -62.7918
  36   1.0000      -2.307414       -62.7879
  37   1.0000      -2.307016       -62.7771
  38   1.0000      -2.306689       -62.7682
  39   1.0000      -2.306063       -62.7512
  40   1.0000      -2.305828       -62.7448
  41   1.0000      -2.305400       -62.7331
  42   1.0000      -2.304494       -62.7085
  43   1.0000      -2.304462       -62.7076
  44   1.0000      -2.304284       -62.7027
  45   1.0000      -2.304021       -62.6956
  46   1.0000      -2.303689       -62.6866
  47   1.0000      -2.303508       -62.6816
  48   1.0000      -2.303255       -62.6748
  49   1.0000      -2.302849       -62.6637
  50   1.0000      -2.302681       -62.6591
  51   1.0000      -2.301521       -62.6276
  52   1.0000      -2.300509       -62.6000
  53   1.0000      -2.300306       -62.5945
  54   1.0000      -2.299926       -62.5842
  55   1.0000      -2.299528       -62.5734
  56   1.0000      -2.298827       -62.5543
  57   1.0000      -2.298468       -62.5445
  58   1.0000      -2.297913       -62.5294
  59   1.0000      -2.297861       -62.5280
  60   1.0000      -2.297124       -62.5079
  61   1.0000      -2.296577       -62.4930
  62   1.0000      -2.296176       -62.4821
  63   1.0000      -2.295763       -62.4709
  64   1.0000      -2.295690       -62.4689
  65   1.0000      -2.294662       -62.4409
  66   1.0000      -2.117492       -57.6199
  67   1.0000      -2.112155       -57.4747
  68   1.0000      -2.103067       -57.2274
  69   1.0000      -0.445716       -12.1285
  70   1.0000      -0.403866       -10.9897
  71   1.0000      -0.398996       -10.8572
  72   1.0000      -0.396820       -10.7980
  73   1.0000      -0.387508       -10.5446
  74   1.0000      -0.383275       -10.4294
  75   1.0000      -0.380886       -10.3644
  76   1.0000      -0.377107       -10.2616
  77   1.0000      -0.376119       -10.2347
  78   1.0000      -0.370999       -10.0954
  79   1.0000      -0.368979       -10.0404
  80   1.0000      -0.364165        -9.9094
  81   1.0000      -0.363266        -9.8850
  82   1.0000      -0.361130        -9.8268
  83   1.0000      -0.359114        -9.7720
  84   1.0000      -0.358498        -9.7552
  85   1.0000      -0.357861        -9.7379
  86   1.0000      -0.356584        -9.7031
  87   1.0000      -0.354717        -9.6523
  88   1.0000      -0.353537        -9.6202
  89   1.0000      -0.350624        -9.5410
  90   1.0000      -0.349418        -9.5081
  91   1.0000      -0.348088        -9.4720
  92   1.0000      -0.347431        -9.4541
  93   1.0000      -0.345489        -9.4012
  94   1.0000      -0.341714        -9.2985
  95   1.0000      -0.336904        -9.1676
  96   1.0000      -0.333649        -9.0790
  97   1.0000      -0.331356        -9.0167
  98   1.0000      -0.329734        -8.9725
  99   1.0000      -0.326661        -8.8889
 100   1.0000      -0.324214        -8.8223
 101   1.0000      -0.321617        -8.7516
 102   1.0000      -0.319374        -8.6906
 103   1.0000      -0.315317        -8.5802
 104   1.0000      -0.311147        -8.4668
 105   1.0000      -0.307503        -8.3676
 106   1.0000      -0.305407        -8.3105
 107   1.0000      -0.300103        -8.1662
 108   1.0000      -0.299513        -8.1502
 109   1.0000      -0.297352        -8.0914
 110   1.0000      -0.294376        -8.0104
 111   1.0000      -0.292959        -7.9718
 112   1.0000      -0.291200        -7.9240
 113   1.0000      -0.290899        -7.9158
 114   1.0000      -0.289025        -7.8648
 115   1.0000      -0.287636        -7.8270
 116   1.0000      -0.287303        -7.8179
 117   1.0000      -0.285341        -7.7645
 118   1.0000      -0.285022        -7.7558
 119   1.0000      -0.284221        -7.7341
 120   1.0000      -0.283097        -7.7035
 121   1.0000      -0.280393        -7.6299
 122   1.0000      -0.279773        -7.6130
 123   1.0000      -0.279035        -7.5929
 124   1.0000      -0.277993        -7.5646
 125   1.0000      -0.276538        -7.5250
 126   1.0000      -0.276364        -7.5203
 127   1.0000      -0.275377        -7.4934
 128   1.0000      -0.275224        -7.4892
 129   1.0000      -0.273835        -7.4514
 130   1.0000      -0.272865        -7.4250
 131   1.0000      -0.270205        -7.3527
 132   1.0000      -0.269436        -7.3317
 133   1.0000      -0.268721        -7.3123
 134   1.0000      -0.266997        -7.2654
 135   1.0000      -0.265281        -7.2187
 136   1.0000      -0.264162        -7.1882
 137   1.0000      -0.261486        -7.1154
 138   1.0000      -0.260885        -7.0990
 139   1.0000      -0.259666        -7.0659
 140   1.0000      -0.258730        -7.0404
 141   1.0000      -0.257121        -6.9966
 142   1.0000      -0.254735        -6.9317
 143   1.0000      -0.253209        -6.8902
 144   1.0000      -0.252641        -6.8747
 145   1.0000      -0.246954        -6.7200
 146   1.0000      -0.243704        -6.6315
 147   1.0000      -0.238226        -6.4825
 148   1.0000      -0.230380        -6.2690
 149   1.0000      -0.221166        -6.0182
 150   1.0000      -0.208459        -5.6725
 151   1.0000      -0.205203        -5.5839
 152   1.0000      -0.204107        -5.5540
 153   1.0000      -0.181273        -4.9327
 154   0.0000      -0.155994        -4.2448
 155   0.0000      -0.149723        -4.0742
 156   0.0000      -0.144846        -3.9415
 157   0.0000      -0.142386        -3.8745
 158   0.0000      -0.136236        -3.7072

MULLIKEN ATOMIC CHARGES AND SPIN POPULATIONS
--------------------------------------------
   0 Au:    0.293737    0.021343
   1 Au:    0.273544   -0.011356
   2 Au:    0.207741    0.004387
   3 Au:    0.040119    0.068188
   4 Au:    0.393958   -0.063556
   5 Au:   -0.011918    0.073460
   6 Au:    0.056399   -0.081575
   7 Au:    0.408988   -0.032501
   8 Au:    0.061803    0.014825
   9 Au:    0.381525   -0.107171
  10 Au:   -0.119536   -0.083270
  11 Au:    0.363017    0.019758
  12 Au:   -0.038362    0.070528
  13 Au:    0.351588   -0.039545
  14 Au:   -0.121398    0.044311
  15 Fe:   -2.541204    3.102173
Sum of atomic charges         :   -0.0000000

LOEWDIN ATOMIC CHARGES AND SPIN POPULATIONS
-------------------------------------------
   0 Au:    0.067632   -0.026996
   1 Au:    0.070961   -0.028924
   2 Au:    0.061122   -0.009728
   3 Au:   -0.022008    0.026780
   4 Au:    0.084385   -0.031901
   5 Au:    0.024581    0.021025
   6 Au:   -0.013099   -0.063688
   7 Au:    0.128162   -0.029377
   8 Au:    0.005190   -0.003511
   9 Au:    0.109588   -0.051152
  10 Au:   -0.035067   -0.057786
  11 Au:    0.075175    0.013294
  12 Au:   -0.001203    0.023942
  13 Au:    0.076197   -0.041356
  14 Au:   -0.037892    0.014979
  15 Fe:   -0.593726    3.244398

  Mayer bond orders larger than 0.100000
B(  0-Au,  1-Au) :   0.1293 B(  0-Au,  2-Au) :   0.1421 B(  0-Au,  6-Au) :   0.2717
B(  0-Au,  9-Au) :   0.1278 B(  0-Au, 12-Au) :   0.2786 B(  0-Au, 15-Fe) :   0.4089
B(  1-Au,  2-Au) :   0.1628 B(  1-Au,  4-Au) :   0.1432 B(  1-Au, 10-Au) :   0.3135
B(  1-Au, 12-Au) :   0.1254 B(  1-Au, 15-Fe) :   0.4587 B(  2-Au,  3-Au) :   0.1577
B(  2-Au,  4-Au) :   0.1729 B(  2-Au,  6-Au) :   0.1702 B(  2-Au, 15-Fe) :   0.4745
B(  3-Au,  4-Au) :   0.2614 B(  3-Au,  5-Au) :   0.2411 B(  3-Au,  6-Au) :   0.1317
B(  3-Au,  7-Au) :   0.2967 B(  3-Au,  8-Au) :   0.1329 B(  3-Au, 15-Fe) :   0.3831
B(  4-Au,  5-Au) :   0.1137 B(  4-Au, 10-Au) :   0.2503 B(  4-Au, 15-Fe) :   0.4392
B(  5-Au, 10-Au) :   0.1225 B(  5-Au, 13-Au) :   0.3612 B(  5-Au, 15-Fe) :   0.5484
B(  6-Au,  7-Au) :   0.3497 B(  6-Au,  8-Au) :   0.1730 B(  6-Au,  9-Au) :   0.1850
B(  6-Au, 15-Fe) :   0.3273 B(  7-Au,  8-Au) :   0.4111 B(  8-Au,  9-Au) :   0.1165
B(  8-Au, 14-Au) :   0.3841 B(  8-Au, 15-Fe) :   0.4478 B(  9-Au, 12-Au) :   0.1294
B(  9-Au, 14-Au) :   0.2382 B(  9-Au, 15-Fe) :   0.4841 B( 10-Au, 11-Au) :   0.2279
B( 10-Au, 12-Au) :   0.1112 B( 10-Au, 13-Au) :   0.3256 B( 10-Au, 14-Au) :   0.1287
B( 10-Au, 15-Fe) :   0.3388 B( 11-Au, 12-Au) :   0.3303 B( 11-Au, 13-Au) :   0.1673
B( 11-Au, 14-Au) :   0.3457 B( 12-Au, 14-Au) :   0.1286 B( 12-Au, 15-Fe) :   0.4897
B( 13-Au, 14-Au) :   0.2524 B( 14-Au, 15-Fe) :   0.3902

FINAL SINGLE POINT ENERGY     -3301.429421501790

DIPOLE MOMENT
-------------
                                X             Y             Z
Electronic contribution:      7.30944      10.07799       3.70552
Nuclear contribution   :     -7.21496     -10.14046      -3.61196
                        -----------------------------------------
Total Dipole Moment    :      0.09448      -0.06247       0.09356
                        -----------------------------------------
Magnitude (a.u.)       :      0.14691
Magnitude (Debye)      :      0.37341

Rotational constants in cm-1:     0.001138     0.000856     0.000795
Rotational constants in MHz :    34.113824    25.672221    23.835243

                             ****ORCA TERMINATED NORMALLY****
TOTAL RUN TIME: 0 days 0 hours 24 minutes 40 seconds 574 msec
