                         Program Version 5.0.3 -  RELEASE  -
|  1> !RI-B2PLYP def2-TZVP def2-TZVP/C
|  2> !RIJCOSX VERYSLOWCONV
|  3>
|  4> %scf
|  5>   AutoTRAHIter 200
|  6>   maxiter 400
|  7> end
|  8>
|  9>
| 10> %pal nprocs 6 end
| 11>
| 12> *xyzfile 0 5 pbe.xyz
| 13>
| 14> $new_job
| 15>
| 16> !RI-B2PLYP def2-TZVP def2-TZVP/C
| 17> !RIJCOSX VERYSLOWCONV
| 18>
| 19> %scf
| 20>   AutoTRAHIter 200
| 21>   maxiter 400
| 22> end
| 23>
| 24>
| 25> %pal nprocs 6 end
| 26>
| 27> *xyzfile 0 3 pbe.xyz
| 28>
| 29>
| 30>
| 31>
| 32>
| 33>                          ****END OF INPUT****
 Total Charge           Charge          ....    0
 Multiplicity           Mult            ....    5
 Number of Electrons    NEL             ....  216
MP2 TOTAL ENERGY:    -2619.352757045 Eh
FINAL SINGLE POINT ENERGY     -2619.352757045252

CARTESIAN COORDINATES (ANGSTROEM)
---------------------------------
  Au    10.788500    4.506201    5.448827
  Au     7.192219    7.399365    6.254779
  Au     8.139969    5.119141    5.066326
  Au     8.753750    3.962804    7.525500
  Au     9.047262    8.799559    7.693733
  Au     7.775593    6.306510    8.752401
  Au    10.179692    5.198206    9.504697
  Au    12.781900    5.980777   10.054816
  Au    11.174281    7.831432    8.871463
  Au    12.245121    5.254140    7.489687
  Fe     9.750651    6.371215    6.988769

 Multiplicity           Mult            ....    3
 Number of Electrons    NEL             ....  216
 Basis Dimension        Dim             ....  445

ORBITAL ENERGIES
----------------
                 SPIN UP ORBITALS
  NO   OCC          E(Eh)            E(eV)
   0   1.0000    -258.333259     -7029.6054
   1   1.0000     -30.892528      -840.6284
   2   1.0000     -26.610284      -724.1026
   3   1.0000     -26.582572      -723.3486
   4   1.0000     -26.579457      -723.2638
   5   1.0000      -4.399719      -119.7224
   6   1.0000      -4.399344      -119.7122
   7   1.0000      -4.398707      -119.6949
   8   1.0000      -4.396437      -119.6331
   9   1.0000      -4.394544      -119.5816
  10   1.0000      -4.394285      -119.5746
  11   1.0000      -4.389574      -119.4464
  12   1.0000      -4.388935      -119.4290
  13   1.0000      -4.388529      -119.4179
  14   1.0000      -4.386899      -119.3736
  15   1.0000      -3.903686      -106.2247
  16   1.0000      -2.653107       -72.1947
  17   1.0000      -2.594755       -70.6069
  18   1.0000      -2.588479       -70.4361
  19   1.0000      -2.524064       -68.6833
  20   1.0000      -2.522593       -68.6433
  21   1.0000      -2.520982       -68.5994
  22   1.0000      -2.519527       -68.5598
  23   1.0000      -2.517562       -68.5063
  24   1.0000      -2.516720       -68.4834
  25   1.0000      -2.516440       -68.4758
  26   1.0000      -2.514945       -68.4351
  27   1.0000      -2.514507       -68.4232
  28   1.0000      -2.514099       -68.4121
  29   1.0000      -2.512784       -68.3763
  30   1.0000      -2.512389       -68.3656
  31   1.0000      -2.511598       -68.3441
  32   1.0000      -2.511315       -68.3364
  33   1.0000      -2.510756       -68.3211
  34   1.0000      -2.509645       -68.2909
  35   1.0000      -2.509235       -68.2798
  36   1.0000      -2.508957       -68.2722
  37   1.0000      -2.508497       -68.2597
  38   1.0000      -2.508413       -68.2574
  39   1.0000      -2.507787       -68.2403
  40   1.0000      -2.507176       -68.2237
  41   1.0000      -2.506176       -68.1965
  42   1.0000      -2.505769       -68.1854
  43   1.0000      -2.504664       -68.1554
  44   1.0000      -2.504158       -68.1416
  45   1.0000      -2.502628       -68.1000
  46   1.0000      -2.502180       -68.0878
  47   1.0000      -2.501901       -68.0802
  48   1.0000      -2.500577       -68.0442
  49   1.0000      -0.556168       -15.1341
  50   1.0000      -0.545924       -14.8553
  51   1.0000      -0.540262       -14.7013
  52   1.0000      -0.525005       -14.2861
  53   1.0000      -0.494958       -13.4685
  54   1.0000      -0.489317       -13.3150
  55   1.0000      -0.476340       -12.9619
  56   1.0000      -0.459568       -12.5055
  57   1.0000      -0.458294       -12.4708
  58   1.0000      -0.455385       -12.3916
  59   1.0000      -0.446584       -12.1522
  60   1.0000      -0.445802       -12.1309
  61   1.0000      -0.440762       -11.9937
  62   1.0000      -0.435213       -11.8427
  63   1.0000      -0.434075       -11.8118
  64   1.0000      -0.430268       -11.7082
  65   1.0000      -0.428693       -11.6653
  66   1.0000      -0.426005       -11.5922
  67   1.0000      -0.424121       -11.5409
  68   1.0000      -0.421224       -11.4621
  69   1.0000      -0.418601       -11.3907
  70   1.0000      -0.413636       -11.2556
  71   1.0000      -0.413133       -11.2419
  72   1.0000      -0.409304       -11.1377
  73   1.0000      -0.402890       -10.9632
  74   1.0000      -0.400099       -10.8872
  75   1.0000      -0.399753       -10.8778
  76   1.0000      -0.395556       -10.7636
  77   1.0000      -0.393358       -10.7038
  78   1.0000      -0.386433       -10.5154
  79   1.0000      -0.385349       -10.4859
  80   1.0000      -0.381612       -10.3842
  81   1.0000      -0.378702       -10.3050
  82   1.0000      -0.377342       -10.2680
  83   1.0000      -0.375552       -10.2193
  84   1.0000      -0.373927       -10.1751
  85   1.0000      -0.370844       -10.0912
  86   1.0000      -0.369803       -10.0628
  87   1.0000      -0.368496       -10.0273
  88   1.0000      -0.367588       -10.0026
  89   1.0000      -0.363507        -9.8915
  90   1.0000      -0.362122        -9.8538
  91   1.0000      -0.360297        -9.8042
  92   1.0000      -0.359999        -9.7961
  93   1.0000      -0.355297        -9.6681
  94   1.0000      -0.353590        -9.6217
  95   1.0000      -0.353098        -9.6083
  96   1.0000      -0.351106        -9.5541
  97   1.0000      -0.348151        -9.4737
  98   1.0000      -0.342782        -9.3276
  99   1.0000      -0.339002        -9.2247
 100   1.0000      -0.338011        -9.1977
 101   1.0000      -0.334071        -9.0905
 102   1.0000      -0.329414        -8.9638
 103   1.0000      -0.327569        -8.9136
 104   1.0000      -0.315876        -8.5954
 105   1.0000      -0.311705        -8.4819
 106   1.0000      -0.286659        -7.8004
 107   1.0000      -0.251274        -6.8375
 108   1.0000      -0.227771        -6.1980
 109   0.0000      -0.121707        -3.3118
 110   0.0000      -0.082452        -2.2436
 111   0.0000      -0.073223        -1.9925
 112   0.0000      -0.071770        -1.9530
 113   0.0000      -0.050537        -1.3752

                 SPIN DOWN ORBITALS
  NO   OCC          E(Eh)            E(eV)
   0   1.0000    -258.331171     -7029.5485
   1   1.0000     -30.800413      -838.1219
   2   1.0000     -26.512174      -721.4329
   3   1.0000     -26.504361      -721.2203
   4   1.0000     -26.503479      -721.1963
   5   1.0000      -4.399839      -119.7257
   6   1.0000      -4.399431      -119.7146
   7   1.0000      -4.399001      -119.7029
   8   1.0000      -4.396286      -119.6290
   9   1.0000      -4.394973      -119.5933
  10   1.0000      -4.394356      -119.5765
  11   1.0000      -4.390783      -119.4793
  12   1.0000      -4.390235      -119.4644
  13   1.0000      -4.389500      -119.4444
  14   1.0000      -4.388039      -119.4046
  15   1.0000      -3.660937       -99.6192
  16   1.0000      -2.523454       -68.6667
  17   1.0000      -2.522082       -68.6293
  18   1.0000      -2.520771       -68.5937
  19   1.0000      -2.518680       -68.5368
  20   1.0000      -2.516857       -68.4872
  21   1.0000      -2.515804       -68.4585
  22   1.0000      -2.515505       -68.4504
  23   1.0000      -2.514889       -68.4336
  24   1.0000      -2.514525       -68.4237
  25   1.0000      -2.513577       -68.3979
  26   1.0000      -2.512901       -68.3795
  27   1.0000      -2.512432       -68.3668
  28   1.0000      -2.511802       -68.3496
  29   1.0000      -2.511261       -68.3349
  30   1.0000      -2.510341       -68.3098
  31   1.0000      -2.509879       -68.2973
  32   1.0000      -2.509404       -68.2844
  33   1.0000      -2.509038       -68.2744
  34   1.0000      -2.508893       -68.2705
  35   1.0000      -2.508411       -68.2573
  36   1.0000      -2.507990       -68.2459
  37   1.0000      -2.507813       -68.2411
  38   1.0000      -2.506093       -68.1943
  39   1.0000      -2.505876       -68.1883
  40   1.0000      -2.505091       -68.1670
  41   1.0000      -2.504583       -68.1532
  42   1.0000      -2.503613       -68.1268
  43   1.0000      -2.503370       -68.1202
  44   1.0000      -2.503007       -68.1103
  45   1.0000      -2.501856       -68.0790
  46   1.0000      -2.340556       -63.6898
  47   1.0000      -2.339055       -63.6489
  48   1.0000      -2.325801       -63.2883
  49   1.0000      -0.494405       -13.4534
  50   1.0000      -0.479865       -13.0578
  51   1.0000      -0.466549       -12.6954
  52   1.0000      -0.463730       -12.6187
  53   1.0000      -0.461909       -12.5692
  54   1.0000      -0.457191       -12.4408
  55   1.0000      -0.454817       -12.3762
  56   1.0000      -0.452191       -12.3047
  57   1.0000      -0.448401       -12.2016
  58   1.0000      -0.442497       -12.0410
  59   1.0000      -0.441086       -12.0026
  60   1.0000      -0.433503       -11.7962
  61   1.0000      -0.429554       -11.6888
  62   1.0000      -0.428590       -11.6625
  63   1.0000      -0.425120       -11.5681
  64   1.0000      -0.424492       -11.5510
  65   1.0000      -0.420017       -11.4292
  66   1.0000      -0.419340       -11.4108
  67   1.0000      -0.415199       -11.2981
  68   1.0000      -0.412485       -11.2243
  69   1.0000      -0.406837       -11.0706
  70   1.0000      -0.406562       -11.0631
  71   1.0000      -0.401638       -10.9291
  72   1.0000      -0.398340       -10.8394
  73   1.0000      -0.390647       -10.6300
  74   1.0000      -0.388167       -10.5626
  75   1.0000      -0.387164       -10.5353
  76   1.0000      -0.385049       -10.4777
  77   1.0000      -0.384835       -10.4719
  78   1.0000      -0.379478       -10.3261
  79   1.0000      -0.379019       -10.3136
  80   1.0000      -0.378014       -10.2863
  81   1.0000      -0.373773       -10.1709
  82   1.0000      -0.369944       -10.0667
  83   1.0000      -0.369296       -10.0491
  84   1.0000      -0.367819       -10.0089
  85   1.0000      -0.366025        -9.9601
  86   1.0000      -0.363796        -9.8994
  87   1.0000      -0.363024        -9.8784
  88   1.0000      -0.359265        -9.7761
  89   1.0000      -0.356724        -9.7069
  90   1.0000      -0.356230        -9.6935
  91   1.0000      -0.353318        -9.6143
  92   1.0000      -0.352143        -9.5823
  93   1.0000      -0.345019        -9.3884
  94   1.0000      -0.343307        -9.3419
  95   1.0000      -0.340580        -9.2676
  96   1.0000      -0.338253        -9.2043
  97   1.0000      -0.334410        -9.0998
  98   1.0000      -0.332339        -9.0434
  99   1.0000      -0.325910        -8.8685
 100   1.0000      -0.322398        -8.7729
 101   1.0000      -0.316663        -8.6168
 102   1.0000      -0.309016        -8.4087
 103   1.0000      -0.269400        -7.3308
 104   1.0000      -0.238240        -6.4828
 105   1.0000      -0.225157        -6.1268
 106   1.0000      -0.176326        -4.7981
 107   0.0000      -0.089969        -2.4482
 108   0.0000      -0.079166        -2.1542
 109   0.0000      -0.050886        -1.3847
 110   0.0000      -0.045476        -1.2375
 111   0.0000      -0.035581        -0.9682

MULLIKEN ATOMIC CHARGES AND SPIN POPULATIONS
--------------------------------------------
   0 Au:    0.153571   -0.135551
   1 Au:    0.156222   -0.173287
   2 Au:    0.138020   -0.165912
   3 Au:    0.074842   -0.286869
   4 Au:    0.138117   -0.170139
   5 Au:    0.067159   -0.280180
   6 Au:   -0.008951    0.027665
   7 Au:    0.347043    0.040427
   8 Au:   -0.027469   -0.240744
   9 Au:   -0.006861   -0.247803
  10 Fe:   -1.031692    3.632393
Sum of atomic charges         :   -0.0000000

LOEWDIN ATOMIC CHARGES AND SPIN POPULATIONS
-------------------------------------------
   0 Au:    0.047553   -0.199417
   1 Au:    0.020803   -0.160466
   2 Au:    0.023155   -0.145706
   3 Au:   -0.011992   -0.200662
   4 Au:    0.036987   -0.211501
   5 Au:   -0.007069   -0.192197
   6 Au:   -0.067324   -0.067563
   7 Au:    0.137112   -0.027463
   8 Au:   -0.026216   -0.138498
   9 Au:   -0.026985   -0.144537
  10 Fe:   -0.126024    3.488009

  Mayer bond orders larger than 0.100000
B(  0-Au,  2-Au) :   0.1934 B(  0-Au,  9-Au) :   0.4690 B(  0-Au, 10-Fe) :   0.5938
B(  1-Au,  2-Au) :   0.3399 B(  1-Au,  4-Au) :   0.2122 B(  1-Au,  5-Au) :   0.1621
B(  1-Au, 10-Fe) :   0.3522 B(  2-Au,  3-Au) :   0.1570 B(  2-Au, 10-Fe) :   0.3780
B(  3-Au,  5-Au) :   0.1397 B(  3-Au,  6-Au) :   0.3746 B(  3-Au, 10-Fe) :   0.4670
B(  4-Au,  8-Au) :   0.4579 B(  4-Au, 10-Fe) :   0.5988 B(  5-Au,  6-Au) :   0.3488
B(  5-Au, 10-Fe) :   0.4892 B(  6-Au,  7-Au) :   0.3087 B(  6-Au,  8-Au) :   0.2087
B(  6-Au,  9-Au) :   0.2118 B(  6-Au, 10-Fe) :   0.2552 B(  7-Au,  8-Au) :   0.3407
B(  7-Au,  9-Au) :   0.3505 B(  8-Au,  9-Au) :   0.1292 B(  8-Au, 10-Fe) :   0.4461
B(  9-Au, 10-Fe) :   0.4303

MP2 TOTAL ENERGY:    -2619.328483333 Eh
FINAL SINGLE POINT ENERGY     -2619.328483332922

DIPOLE MOMENT
-------------
                                X             Y             Z
Electronic contribution:      2.39246     -12.77589      25.90677
Nuclear contribution   :     -2.16580      12.70435     -25.66062
                        -----------------------------------------
Total Dipole Moment    :      0.22666      -0.07154       0.24615
                        -----------------------------------------
Magnitude (a.u.)       :      0.34217
Magnitude (Debye)      :      0.86974

Rotational constants in cm-1:     0.002273     0.001569     0.001248
Rotational constants in MHz :    68.143328    47.038427    37.424704

                             ****ORCA TERMINATED NORMALLY****
TOTAL RUN TIME: 0 days 0 hours 10 minutes 36 seconds 944 msec
