                         Program Version 5.0.3 -  RELEASE  -
|  1> !PBE def2-TZVP VERYSLOWCONV
|  2>
|  3> %scf
|  4>   AutoTRAHIter 200
|  5>   maxiter 400
|  6> end
|  7>
|  8>
|  9> %pal nprocs 6 end
| 10>
| 11> *xyzfile 0 5 pbe.xyz
| 12>
| 13> $new_job
| 14>
| 15> !PBE def2-TZVP VERYSLOWCONV
| 16>
| 17> %scf
| 18>   AutoTRAHIter 200
| 19>   maxiter 400
| 20> end
| 21>
| 22>
| 23> %pal nprocs 6 end
| 24>
| 25> *xyzfile 0 3 pbe.xyz
| 26>
| 27>
| 28>
| 29>
| 30>
| 31>                          ****END OF INPUT****
 Total Charge           Charge          ....    0
 Multiplicity           Mult            ....    5
 Number of Electrons    NEL             ....  216
FINAL SINGLE POINT ENERGY     -2621.734803021529

CARTESIAN COORDINATES (ANGSTROEM)
---------------------------------
  Au    10.788500    4.506201    5.448827
  Au     7.192219    7.399365    6.254779
  Au     8.139969    5.119141    5.066326
  Au     8.753750    3.962804    7.525500
  Au     9.047262    8.799559    7.693733
  Au     7.775593    6.306510    8.752401
  Au    10.179692    5.198206    9.504697
  Au    12.781900    5.980777   10.054816
  Au    11.174281    7.831432    8.871463
  Au    12.245121    5.254140    7.489687
  Fe     9.750651    6.371215    6.988769

 Multiplicity           Mult            ....    3
 Number of Electrons    NEL             ....  216
 Basis Dimension        Dim             ....  445

ORBITAL ENERGIES
----------------
                 SPIN UP ORBITALS
  NO   OCC          E(Eh)            E(eV)
   0   1.0000    -254.735942     -6931.7174
   1   1.0000     -29.568740      -804.6063
   2   1.0000     -25.508679      -694.1264
   3   1.0000     -25.506432      -694.0653
   4   1.0000     -25.499368      -693.8731
   5   1.0000      -4.025819      -109.5481
   6   1.0000      -4.020822      -109.4121
   7   1.0000      -4.020652      -109.4075
   8   1.0000      -4.020095      -109.3923
   9   1.0000      -4.019588      -109.3786
  10   1.0000      -4.019384      -109.3730
  11   1.0000      -4.019004      -109.3627
  12   1.0000      -4.018771      -109.3563
  13   1.0000      -4.015821      -109.2760
  14   1.0000      -4.015071      -109.2556
  15   1.0000      -3.344822       -91.0172
  16   1.0000      -2.243671       -61.0534
  17   1.0000      -2.241750       -61.0011
  18   1.0000      -2.241161       -60.9851
  19   1.0000      -2.238762       -60.9198
  20   1.0000      -2.236661       -60.8626
  21   1.0000      -2.236481       -60.8577
  22   1.0000      -2.235686       -60.8361
  23   1.0000      -2.235367       -60.8274
  24   1.0000      -2.234789       -60.8117
  25   1.0000      -2.234366       -60.8002
  26   1.0000      -2.234201       -60.7957
  27   1.0000      -2.234082       -60.7925
  28   1.0000      -2.233686       -60.7817
  29   1.0000      -2.233499       -60.7766
  30   1.0000      -2.233318       -60.7717
  31   1.0000      -2.232859       -60.7592
  32   1.0000      -2.231473       -60.7215
  33   1.0000      -2.231157       -60.7129
  34   1.0000      -2.230157       -60.6857
  35   1.0000      -2.230001       -60.6814
  36   1.0000      -2.229390       -60.6648
  37   1.0000      -2.228863       -60.6504
  38   1.0000      -2.227978       -60.6264
  39   1.0000      -2.227820       -60.6221
  40   1.0000      -2.227685       -60.6184
  41   1.0000      -2.227513       -60.6137
  42   1.0000      -2.226514       -60.5865
  43   1.0000      -2.225773       -60.5664
  44   1.0000      -2.225207       -60.5510
  45   1.0000      -2.224602       -60.5345
  46   1.0000      -2.166751       -58.9603
  47   1.0000      -2.162231       -58.8373
  48   1.0000      -2.148175       -58.4548
  49   1.0000      -0.411913       -11.2087
  50   1.0000      -0.381506       -10.3813
  51   1.0000      -0.372450       -10.1349
  52   1.0000      -0.365504        -9.9459
  53   1.0000      -0.362046        -9.8518
  54   1.0000      -0.356638        -9.7046
  55   1.0000      -0.354927        -9.6581
  56   1.0000      -0.347824        -9.4648
  57   1.0000      -0.345831        -9.4105
  58   1.0000      -0.335926        -9.1410
  59   1.0000      -0.334623        -9.1056
  60   1.0000      -0.331338        -9.0162
  61   1.0000      -0.325529        -8.8581
  62   1.0000      -0.321864        -8.7584
  63   1.0000      -0.319919        -8.7054
  64   1.0000      -0.319738        -8.7005
  65   1.0000      -0.317312        -8.6345
  66   1.0000      -0.316336        -8.6079
  67   1.0000      -0.312634        -8.5072
  68   1.0000      -0.311557        -8.4779
  69   1.0000      -0.308068        -8.3830
  70   1.0000      -0.306403        -8.3377
  71   1.0000      -0.300721        -8.1830
  72   1.0000      -0.297183        -8.0868
  73   1.0000      -0.295888        -8.0515
  74   1.0000      -0.293020        -7.9735
  75   1.0000      -0.286838        -7.8053
  76   1.0000      -0.284592        -7.7441
  77   1.0000      -0.283657        -7.7187
  78   1.0000      -0.282944        -7.6993
  79   1.0000      -0.278221        -7.5708
  80   1.0000      -0.277971        -7.5640
  81   1.0000      -0.275741        -7.5033
  82   1.0000      -0.273868        -7.4523
  83   1.0000      -0.268727        -7.3124
  84   1.0000      -0.268178        -7.2975
  85   1.0000      -0.266861        -7.2617
  86   1.0000      -0.266006        -7.2384
  87   1.0000      -0.265217        -7.2169
  88   1.0000      -0.262283        -7.1371
  89   1.0000      -0.260758        -7.0956
  90   1.0000      -0.256145        -6.9701
  91   1.0000      -0.254735        -6.9317
  92   1.0000      -0.254128        -6.9152
  93   1.0000      -0.249336        -6.7848
  94   1.0000      -0.248054        -6.7499
  95   1.0000      -0.247491        -6.7346
  96   1.0000      -0.246790        -6.7155
  97   1.0000      -0.245588        -6.6828
  98   1.0000      -0.243156        -6.6166
  99   1.0000      -0.241692        -6.5768
 100   1.0000      -0.239475        -6.5165
 101   1.0000      -0.237643        -6.4666
 102   1.0000      -0.237313        -6.4576
 103   1.0000      -0.236132        -6.4255
 104   1.0000      -0.228903        -6.2288
 105   1.0000      -0.225719        -6.1421
 106   1.0000      -0.223896        -6.0925
 107   1.0000      -0.217653        -5.9226
 108   1.0000      -0.203997        -5.5510
 109   0.0000      -0.182807        -4.9744
 110   0.0000      -0.145440        -3.9576
 111   0.0000      -0.142683        -3.8826
 112   0.0000      -0.139616        -3.7991
 113   0.0000      -0.111196        -3.0258

                 SPIN DOWN ORBITALS
  NO   OCC          E(Eh)            E(eV)
   0   1.0000    -254.735297     -6931.6998
   1   1.0000     -29.515652      -803.1617
   2   1.0000     -25.467753      -693.0128
   3   1.0000     -25.465467      -692.9506
   4   1.0000     -25.460993      -692.8288
   5   1.0000      -4.025855      -109.5491
   6   1.0000      -4.020937      -109.4153
   7   1.0000      -4.020736      -109.4098
   8   1.0000      -4.020614      -109.4065
   9   1.0000      -4.019859      -109.3859
  10   1.0000      -4.019371      -109.3727
  11   1.0000      -4.019266      -109.3698
  12   1.0000      -4.018670      -109.3536
  13   1.0000      -4.016167      -109.2855
  14   1.0000      -4.015521      -109.2679
  15   1.0000      -3.223870       -87.7260
  16   1.0000      -2.243712       -61.0545
  17   1.0000      -2.241745       -61.0010
  18   1.0000      -2.241060       -60.9823
  19   1.0000      -2.238458       -60.9115
  20   1.0000      -2.237104       -60.8747
  21   1.0000      -2.236979       -60.8713
  22   1.0000      -2.235678       -60.8359
  23   1.0000      -2.235251       -60.8243
  24   1.0000      -2.234604       -60.8067
  25   1.0000      -2.234443       -60.8023
  26   1.0000      -2.234078       -60.7923
  27   1.0000      -2.233904       -60.7876
  28   1.0000      -2.233723       -60.7827
  29   1.0000      -2.233502       -60.7767
  30   1.0000      -2.233324       -60.7718
  31   1.0000      -2.232971       -60.7622
  32   1.0000      -2.231923       -60.7337
  33   1.0000      -2.231640       -60.7260
  34   1.0000      -2.230670       -60.6996
  35   1.0000      -2.230309       -60.6898
  36   1.0000      -2.229678       -60.6726
  37   1.0000      -2.229144       -60.6581
  38   1.0000      -2.228423       -60.6385
  39   1.0000      -2.228124       -60.6303
  40   1.0000      -2.227944       -60.6254
  41   1.0000      -2.227839       -60.6226
  42   1.0000      -2.226671       -60.5908
  43   1.0000      -2.225928       -60.5706
  44   1.0000      -2.225834       -60.5680
  45   1.0000      -2.225316       -60.5539
  46   1.0000      -2.044808       -55.6420
  47   1.0000      -2.041166       -55.5430
  48   1.0000      -2.035538       -55.3898
  49   1.0000      -0.409575       -11.1451
  50   1.0000      -0.380669       -10.3585
  51   1.0000      -0.368835       -10.0365
  52   1.0000      -0.366766        -9.9802
  53   1.0000      -0.357342        -9.7238
  54   1.0000      -0.356474        -9.7002
  55   1.0000      -0.353671        -9.6239
  56   1.0000      -0.345733        -9.4079
  57   1.0000      -0.342364        -9.3162
  58   1.0000      -0.334953        -9.1145
  59   1.0000      -0.334648        -9.1062
  60   1.0000      -0.330561        -8.9950
  61   1.0000      -0.325706        -8.8629
  62   1.0000      -0.321721        -8.7545
  63   1.0000      -0.321203        -8.7404
  64   1.0000      -0.320985        -8.7345
  65   1.0000      -0.315832        -8.5942
  66   1.0000      -0.315653        -8.5894
  67   1.0000      -0.310475        -8.4484
  68   1.0000      -0.309592        -8.4244
  69   1.0000      -0.305720        -8.3191
  70   1.0000      -0.304954        -8.2982
  71   1.0000      -0.297747        -8.1021
  72   1.0000      -0.296639        -8.0720
  73   1.0000      -0.290211        -7.8970
  74   1.0000      -0.290039        -7.8924
  75   1.0000      -0.286716        -7.8019
  76   1.0000      -0.284213        -7.7338
  77   1.0000      -0.283918        -7.7258
  78   1.0000      -0.283036        -7.7018
  79   1.0000      -0.277181        -7.5425
  80   1.0000      -0.276094        -7.5129
  81   1.0000      -0.275703        -7.5023
  82   1.0000      -0.273049        -7.4300
  83   1.0000      -0.269266        -7.3271
  84   1.0000      -0.268171        -7.2973
  85   1.0000      -0.267494        -7.2789
  86   1.0000      -0.266218        -7.2442
  87   1.0000      -0.265736        -7.2311
  88   1.0000      -0.260679        -7.0934
  89   1.0000      -0.260500        -7.0886
  90   1.0000      -0.257365        -7.0032
  91   1.0000      -0.256137        -6.9698
  92   1.0000      -0.254234        -6.9181
  93   1.0000      -0.249248        -6.7824
  94   1.0000      -0.248789        -6.7699
  95   1.0000      -0.247322        -6.7300
  96   1.0000      -0.246018        -6.6945
  97   1.0000      -0.244548        -6.6545
  98   1.0000      -0.240008        -6.5310
  99   1.0000      -0.239450        -6.5158
 100   1.0000      -0.238427        -6.4879
 101   1.0000      -0.229040        -6.2325
 102   1.0000      -0.225722        -6.1422
 103   1.0000      -0.212633        -5.7860
 104   1.0000      -0.201800        -5.4912
 105   1.0000      -0.174991        -4.7617
 106   1.0000      -0.170502        -4.6396
 107   0.0000      -0.155387        -4.2283
 108   0.0000      -0.143256        -3.8982
 109   0.0000      -0.137072        -3.7299
 110   0.0000      -0.134274        -3.6538
 111   0.0000      -0.132451        -3.6042

MULLIKEN ATOMIC CHARGES AND SPIN POPULATIONS
--------------------------------------------
   0 Au:    0.186250   -0.057150
   1 Au:    0.189576   -0.125660
   2 Au:    0.182008   -0.127422
   3 Au:    0.138742   -0.097827
   4 Au:    0.182912   -0.052375
   5 Au:    0.135315   -0.098784
   6 Au:   -0.038529   -0.023982
   7 Au:    0.372215    0.022622
   8 Au:    0.005224   -0.178901
   9 Au:    0.015823   -0.178056
  10 Fe:   -1.369536    2.917536
Sum of atomic charges         :    0.0000000

LOEWDIN ATOMIC CHARGES AND SPIN POPULATIONS
-------------------------------------------
   0 Au:    0.086318   -0.102696
   1 Au:    0.041105   -0.112622
   2 Au:    0.041157   -0.109776
   3 Au:    0.046187   -0.080458
   4 Au:    0.083246   -0.095796
   5 Au:    0.046875   -0.078879
   6 Au:   -0.038791   -0.036337
   7 Au:    0.109739   -0.034405
   8 Au:   -0.002199   -0.103958
   9 Au:   -0.001843   -0.104454
  10 Fe:   -0.411794    2.859379

  Mayer bond orders larger than 0.100000
B(  0-Au,  2-Au) :   0.2246 B(  0-Au,  3-Au) :   0.1188 B(  0-Au,  9-Au) :   0.4793
B(  0-Au, 10-Fe) :   0.6295 B(  1-Au,  2-Au) :   0.3830 B(  1-Au,  4-Au) :   0.2373
B(  1-Au,  5-Au) :   0.2378 B(  1-Au, 10-Fe) :   0.4127 B(  2-Au,  3-Au) :   0.2318
B(  2-Au, 10-Fe) :   0.4364 B(  3-Au,  5-Au) :   0.2326 B(  3-Au,  6-Au) :   0.3489
B(  3-Au, 10-Fe) :   0.5527 B(  4-Au,  5-Au) :   0.1058 B(  4-Au,  8-Au) :   0.4822
B(  4-Au, 10-Fe) :   0.6334 B(  5-Au,  6-Au) :   0.3397 B(  5-Au, 10-Fe) :   0.5637
B(  6-Au,  7-Au) :   0.3469 B(  6-Au,  8-Au) :   0.2112 B(  6-Au,  9-Au) :   0.2089
B(  6-Au, 10-Fe) :   0.3570 B(  7-Au,  8-Au) :   0.3614 B(  7-Au,  9-Au) :   0.3662
B(  8-Au,  9-Au) :   0.1468 B(  8-Au, 10-Fe) :   0.5272 B(  9-Au, 10-Fe) :   0.5211

FINAL SINGLE POINT ENERGY     -2621.722972775804

DIPOLE MOMENT
-------------
                                X             Y             Z
Electronic contribution:      2.16325     -12.84442      25.89105
Nuclear contribution   :     -2.16580      12.70435     -25.66062
                        -----------------------------------------
Total Dipole Moment    :     -0.00255      -0.14007       0.23043
                        -----------------------------------------
Magnitude (a.u.)       :      0.26968
Magnitude (Debye)      :      0.68546

Rotational constants in cm-1:     0.002273     0.001569     0.001248
Rotational constants in MHz :    68.143328    47.038427    37.424704

                             ****ORCA TERMINATED NORMALLY****
TOTAL RUN TIME: 0 days 0 hours 9 minutes 8 seconds 835 msec
