                         Program Version 5.0.3 -  RELEASE  -
|  1> !R2SCAN def2-TZVP VERYSLOWCONV
|  2>
|  3> %scf
|  4>   AutoTRAHIter 400
|  5>   maxiter 800
|  6> end
|  7>
|  8> %pal nprocs 6 end
|  9>
| 10> *xyzfile 0 5 pbe.xyz
| 11>
| 12> $new_job
| 13>
| 14> !R2SCAN def2-TZVP VERYSLOWCONV
| 15> %scf
| 16>   AutoTRAHIter 400
| 17>   maxiter 800
| 18> end
| 19>
| 20>
| 21> %pal nprocs 6 end
| 22>
| 23> *xyzfile 0 3 pbe.xyz
| 24>
| 25>
| 26>
| 27>
| 28>
| 29>                          ****END OF INPUT****
 Total Charge           Charge          ....    0
 Multiplicity           Mult            ....    5
 Number of Electrons    NEL             ....  216
FINAL SINGLE POINT ENERGY     -2622.139665741461

CARTESIAN COORDINATES (ANGSTROEM)
---------------------------------
  Au    10.788500    4.506201    5.448827
  Au     7.192219    7.399365    6.254779
  Au     8.139969    5.119141    5.066326
  Au     8.753750    3.962804    7.525500
  Au     9.047262    8.799559    7.693733
  Au     7.775593    6.306510    8.752401
  Au    10.179692    5.198206    9.504697
  Au    12.781900    5.980777   10.054816
  Au    11.174281    7.831432    8.871463
  Au    12.245121    5.254140    7.489687
  Fe     9.750651    6.371215    6.988769

 Multiplicity           Mult            ....    3
 Number of Electrons    NEL             ....  216
 Basis Dimension        Dim             ....  445

ORBITAL ENERGIES
----------------
                 SPIN UP ORBITALS
  NO   OCC          E(Eh)            E(eV)
   0   1.0000    -255.613747     -6955.6037
   1   1.0000     -29.906709      -813.8029
   2   1.0000     -25.741802      -700.4700
   3   1.0000     -25.739148      -700.3978
   4   1.0000     -25.732244      -700.2100
   5   1.0000      -4.117113      -112.0324
   6   1.0000      -4.111220      -111.8720
   7   1.0000      -4.111066      -111.8678
   8   1.0000      -4.110934      -111.8642
   9   1.0000      -4.110785      -111.8602
  10   1.0000      -4.110533      -111.8533
  11   1.0000      -4.110104      -111.8416
  12   1.0000      -4.109809      -111.8336
  13   1.0000      -4.106157      -111.7342
  14   1.0000      -4.105340      -111.7120
  15   1.0000      -3.484755       -94.8250
  16   1.0000      -2.307713       -62.7961
  17   1.0000      -2.305201       -62.7277
  18   1.0000      -2.304581       -62.7108
  19   1.0000      -2.302906       -62.6653
  20   1.0000      -2.300835       -62.6089
  21   1.0000      -2.300176       -62.5910
  22   1.0000      -2.299750       -62.5794
  23   1.0000      -2.299287       -62.5668
  24   1.0000      -2.298580       -62.5476
  25   1.0000      -2.298137       -62.5355
  26   1.0000      -2.297658       -62.5225
  27   1.0000      -2.297394       -62.5153
  28   1.0000      -2.297299       -62.5127
  29   1.0000      -2.296833       -62.5000
  30   1.0000      -2.296720       -62.4969
  31   1.0000      -2.296516       -62.4914
  32   1.0000      -2.294637       -62.4402
  33   1.0000      -2.294459       -62.4354
  34   1.0000      -2.293900       -62.4202
  35   1.0000      -2.293761       -62.4164
  36   1.0000      -2.292840       -62.3913
  37   1.0000      -2.292236       -62.3749
  38   1.0000      -2.291688       -62.3600
  39   1.0000      -2.291463       -62.3539
  40   1.0000      -2.291200       -62.3467
  41   1.0000      -2.290578       -62.3298
  42   1.0000      -2.290540       -62.3288
  43   1.0000      -2.289718       -62.3064
  44   1.0000      -2.288520       -62.2738
  45   1.0000      -2.287796       -62.2541
  46   1.0000      -2.258784       -61.4646
  47   1.0000      -2.253354       -61.3169
  48   1.0000      -2.238747       -60.9194
  49   1.0000      -0.417026       -11.3478
  50   1.0000      -0.388605       -10.5745
  51   1.0000      -0.382177       -10.3996
  52   1.0000      -0.373077       -10.1519
  53   1.0000      -0.371557       -10.1106
  54   1.0000      -0.365037        -9.9332
  55   1.0000      -0.364462        -9.9175
  56   1.0000      -0.357655        -9.7323
  57   1.0000      -0.355573        -9.6756
  58   1.0000      -0.345574        -9.4036
  59   1.0000      -0.344007        -9.3609
  60   1.0000      -0.340751        -9.2723
  61   1.0000      -0.334580        -9.1044
  62   1.0000      -0.331871        -9.0307
  63   1.0000      -0.328835        -8.9481
  64   1.0000      -0.328463        -8.9379
  65   1.0000      -0.327292        -8.9061
  66   1.0000      -0.325755        -8.8642
  67   1.0000      -0.323137        -8.7930
  68   1.0000      -0.320639        -8.7250
  69   1.0000      -0.317538        -8.6406
  70   1.0000      -0.315870        -8.5953
  71   1.0000      -0.310919        -8.4605
  72   1.0000      -0.306263        -8.3338
  73   1.0000      -0.304839        -8.2951
  74   1.0000      -0.302267        -8.2251
  75   1.0000      -0.295963        -8.0536
  76   1.0000      -0.293646        -7.9905
  77   1.0000      -0.292457        -7.9582
  78   1.0000      -0.291918        -7.9435
  79   1.0000      -0.287949        -7.8355
  80   1.0000      -0.287190        -7.8148
  81   1.0000      -0.283262        -7.7079
  82   1.0000      -0.282540        -7.6883
  83   1.0000      -0.277452        -7.5499
  84   1.0000      -0.277082        -7.5398
  85   1.0000      -0.275158        -7.4874
  86   1.0000      -0.274384        -7.4664
  87   1.0000      -0.273576        -7.4444
  88   1.0000      -0.270899        -7.3715
  89   1.0000      -0.268991        -7.3196
  90   1.0000      -0.264896        -7.2082
  91   1.0000      -0.264181        -7.1887
  92   1.0000      -0.262535        -7.1440
  93   1.0000      -0.261860        -7.1256
  94   1.0000      -0.257562        -7.0086
  95   1.0000      -0.256660        -6.9841
  96   1.0000      -0.255242        -6.9455
  97   1.0000      -0.253658        -6.9024
  98   1.0000      -0.251616        -6.8468
  99   1.0000      -0.250352        -6.8124
 100   1.0000      -0.249594        -6.7918
 101   1.0000      -0.246592        -6.7101
 102   1.0000      -0.244121        -6.6429
 103   1.0000      -0.241343        -6.5673
 104   1.0000      -0.239997        -6.5306
 105   1.0000      -0.237000        -6.4491
 106   1.0000      -0.232078        -6.3152
 107   1.0000      -0.221327        -6.0226
 108   1.0000      -0.205890        -5.6025
 109   0.0000      -0.180731        -4.9179
 110   0.0000      -0.141634        -3.8541
 111   0.0000      -0.138064        -3.7569
 112   0.0000      -0.135750        -3.6939
 113   0.0000      -0.104308        -2.8384

                 SPIN DOWN ORBITALS
  NO   OCC          E(Eh)            E(eV)
   0   1.0000    -255.612794     -6955.5777
   1   1.0000     -29.834010      -811.8247
   2   1.0000     -25.684764      -698.9180
   3   1.0000     -25.682613      -698.8594
   4   1.0000     -25.679426      -698.7727
   5   1.0000      -4.117258      -112.0363
   6   1.0000      -4.111929      -111.8913
   7   1.0000      -4.111357      -111.8757
   8   1.0000      -4.111311      -111.8745
   9   1.0000      -4.111262      -111.8731
  10   1.0000      -4.110683      -111.8574
  11   1.0000      -4.110568      -111.8542
  12   1.0000      -4.109840      -111.8344
  13   1.0000      -4.106805      -111.7519
  14   1.0000      -4.106104      -111.7328
  15   1.0000      -3.321752       -90.3895
  16   1.0000      -2.307834       -62.7994
  17   1.0000      -2.305324       -62.7311
  18   1.0000      -2.304533       -62.7095
  19   1.0000      -2.302593       -62.6568
  20   1.0000      -2.301398       -62.6242
  21   1.0000      -2.300742       -62.6064
  22   1.0000      -2.299755       -62.5795
  23   1.0000      -2.299210       -62.5647
  24   1.0000      -2.298375       -62.5420
  25   1.0000      -2.298079       -62.5339
  26   1.0000      -2.297935       -62.5300
  27   1.0000      -2.297562       -62.5199
  28   1.0000      -2.297094       -62.5071
  29   1.0000      -2.297029       -62.5053
  30   1.0000      -2.296769       -62.4983
  31   1.0000      -2.296622       -62.4943
  32   1.0000      -2.295386       -62.4606
  33   1.0000      -2.295146       -62.4541
  34   1.0000      -2.294547       -62.4378
  35   1.0000      -2.294395       -62.4337
  36   1.0000      -2.293114       -62.3988
  37   1.0000      -2.292857       -62.3918
  38   1.0000      -2.292042       -62.3696
  39   1.0000      -2.291824       -62.3637
  40   1.0000      -2.291584       -62.3572
  41   1.0000      -2.291210       -62.3470
  42   1.0000      -2.290793       -62.3356
  43   1.0000      -2.289894       -62.3112
  44   1.0000      -2.289290       -62.2948
  45   1.0000      -2.288652       -62.2774
  46   1.0000      -2.093933       -56.9788
  47   1.0000      -2.090243       -56.8784
  48   1.0000      -2.086614       -56.7797
  49   1.0000      -0.415669       -11.3109
  50   1.0000      -0.387937       -10.5563
  51   1.0000      -0.377107       -10.2616
  52   1.0000      -0.374496       -10.1906
  53   1.0000      -0.365845        -9.9551
  54   1.0000      -0.364739        -9.9250
  55   1.0000      -0.362509        -9.8644
  56   1.0000      -0.355252        -9.6669
  57   1.0000      -0.351457        -9.5636
  58   1.0000      -0.344534        -9.3752
  59   1.0000      -0.344076        -9.3628
  60   1.0000      -0.339644        -9.2422
  61   1.0000      -0.334989        -9.1155
  62   1.0000      -0.331400        -9.0179
  63   1.0000      -0.330756        -9.0003
  64   1.0000      -0.330188        -8.9849
  65   1.0000      -0.325213        -8.8495
  66   1.0000      -0.324908        -8.8412
  67   1.0000      -0.319846        -8.7035
  68   1.0000      -0.319258        -8.6875
  69   1.0000      -0.315008        -8.5718
  70   1.0000      -0.313722        -8.5368
  71   1.0000      -0.306605        -8.3432
  72   1.0000      -0.305658        -8.3174
  73   1.0000      -0.298865        -8.1325
  74   1.0000      -0.298159        -8.1133
  75   1.0000      -0.295485        -8.0405
  76   1.0000      -0.293193        -7.9782
  77   1.0000      -0.292903        -7.9703
  78   1.0000      -0.291767        -7.9394
  79   1.0000      -0.286273        -7.7899
  80   1.0000      -0.284920        -7.7531
  81   1.0000      -0.283122        -7.7041
  82   1.0000      -0.281568        -7.6619
  83   1.0000      -0.278194        -7.5700
  84   1.0000      -0.276811        -7.5324
  85   1.0000      -0.276102        -7.5131
  86   1.0000      -0.274795        -7.4775
  87   1.0000      -0.273998        -7.4559
  88   1.0000      -0.268736        -7.3127
  89   1.0000      -0.268563        -7.3080
  90   1.0000      -0.265799        -7.2328
  91   1.0000      -0.264553        -7.1989
  92   1.0000      -0.262194        -7.1347
  93   1.0000      -0.257129        -6.9968
  94   1.0000      -0.256868        -6.9897
  95   1.0000      -0.255245        -6.9456
  96   1.0000      -0.253173        -6.8892
  97   1.0000      -0.252341        -6.8666
  98   1.0000      -0.246802        -6.7158
  99   1.0000      -0.246570        -6.7095
 100   1.0000      -0.245539        -6.6815
 101   1.0000      -0.236239        -6.4284
 102   1.0000      -0.229909        -6.2561
 103   1.0000      -0.214762        -5.8440
 104   1.0000      -0.202733        -5.5166
 105   1.0000      -0.175345        -4.7714
 106   1.0000      -0.172256        -4.6873
 107   0.0000      -0.147782        -4.0213
 108   0.0000      -0.136839        -3.7236
 109   0.0000      -0.134109        -3.6493
 110   0.0000      -0.117839        -3.2066
 111   0.0000      -0.114822        -3.1245

MULLIKEN ATOMIC CHARGES AND SPIN POPULATIONS
--------------------------------------------
   0 Au:    0.173464   -0.062522
   1 Au:    0.158469   -0.153057
   2 Au:    0.151430   -0.158175
   3 Au:    0.133997   -0.111184
   4 Au:    0.170425   -0.058120
   5 Au:    0.128706   -0.115798
   6 Au:   -0.028722   -0.016658
   7 Au:    0.330281    0.019527
   8 Au:    0.002358   -0.208657
   9 Au:    0.009288   -0.213161
  10 Fe:   -1.229697    3.077806
Sum of atomic charges         :   -0.0000000

LOEWDIN ATOMIC CHARGES AND SPIN POPULATIONS
-------------------------------------------
   0 Au:    0.079464   -0.120995
   1 Au:    0.033040   -0.129733
   2 Au:    0.032597   -0.128545
   3 Au:    0.043403   -0.090613
   4 Au:    0.076064   -0.113136
   5 Au:    0.042959   -0.090864
   6 Au:   -0.039613   -0.039918
   7 Au:    0.105032   -0.039487
   8 Au:   -0.007688   -0.122614
   9 Au:   -0.007949   -0.125565
  10 Fe:   -0.357310    3.001469

  Mayer bond orders larger than 0.100000
B(  0-Au,  2-Au) :   0.2079 B(  0-Au,  9-Au) :   0.4818 B(  0-Au, 10-Fe) :   0.6131
B(  1-Au,  2-Au) :   0.3754 B(  1-Au,  4-Au) :   0.2172 B(  1-Au,  5-Au) :   0.2184
B(  1-Au, 10-Fe) :   0.3858 B(  2-Au,  3-Au) :   0.2112 B(  2-Au, 10-Fe) :   0.4067
B(  3-Au,  5-Au) :   0.2160 B(  3-Au,  6-Au) :   0.3524 B(  3-Au, 10-Fe) :   0.5305
B(  4-Au,  8-Au) :   0.4879 B(  4-Au, 10-Fe) :   0.6163 B(  5-Au,  6-Au) :   0.3414
B(  5-Au, 10-Fe) :   0.5430 B(  6-Au,  7-Au) :   0.3423 B(  6-Au,  8-Au) :   0.1877
B(  6-Au,  9-Au) :   0.1837 B(  6-Au, 10-Fe) :   0.3273 B(  7-Au,  8-Au) :   0.3504
B(  7-Au,  9-Au) :   0.3537 B(  8-Au,  9-Au) :   0.1216 B(  8-Au, 10-Fe) :   0.4971
B(  9-Au, 10-Fe) :   0.4920

FINAL SINGLE POINT ENERGY     -2622.123682445947

DIPOLE MOMENT
-------------
                                X             Y             Z
Electronic contribution:      2.15353     -12.86092      25.90315
Nuclear contribution   :     -2.16580      12.70435     -25.66062
                        -----------------------------------------
Total Dipole Moment    :     -0.01227      -0.15657       0.24253
                        -----------------------------------------
Magnitude (a.u.)       :      0.28894
Magnitude (Debye)      :      0.73443

Rotational constants in cm-1:     0.002273     0.001569     0.001248
Rotational constants in MHz :    68.143328    47.038427    37.424704

                             ****ORCA TERMINATED NORMALLY****
TOTAL RUN TIME: 0 days 0 hours 51 minutes 56 seconds 333 msec
