                         Program Version 5.0.3 -  RELEASE  -
|  1> !RI-B2PLYP def2-TZVP def2-TZVP/C
|  2> !RIJCOSX VERYSLOWCONV
|  3>
|  4> %scf
|  5>   AutoTRAHIter 200
|  6>   maxiter 400
|  7> end
|  8>
|  9>
| 10> %pal nprocs 6 end
| 11>
| 12> *xyzfile 0 5 pbe.xyz
| 13>
| 14> $new_job
| 15>
| 16> !RI-B2PLYP def2-TZVP def2-TZVP/C
| 17> !RIJCOSX VERYSLOWCONV
| 18>
| 19> %scf
| 20>   AutoTRAHIter 200
| 21>   maxiter 400
| 22> end
| 23>
| 24>
| 25> %pal nprocs 6 end
| 26>
| 27> *xyzfile 0 3 pbe.xyz
| 28>
| 29>
| 30>
| 31>
| 32>
| 33>                          ****END OF INPUT****
 Total Charge           Charge          ....    0
 Multiplicity           Mult            ....    5
 Number of Electrons    NEL             ....  290
MP2 TOTAL ENERGY:    -2942.497381126 Eh
FINAL SINGLE POINT ENERGY     -2942.497381126074

CARTESIAN COORDINATES (ANGSTROEM)
---------------------------------
  Au     5.697073    7.389463    6.449546
  Au     5.422189    9.302488    8.463576
  Au     8.050630   10.240546    8.550103
  Au     7.825668    5.592484    6.392399
  Au     7.379487    7.435189    8.809886
  Au     9.505017    5.792541    8.641380
  Au    10.236171    8.509547    8.566879
  Au     9.441710   10.683490    6.182232
  Au    11.741726    9.107410    6.297997
  Au     6.752294   10.013767    5.995450
  Au     9.927090    8.739097    4.202428
  Au     7.220118    7.949812    4.187457
  Au     9.245886    6.034198    4.032037
  Au    10.789760    6.497782    6.292237
  Cr     8.642764    8.116631    6.479821

 Multiplicity           Mult            ....    3
 Number of Electrons    NEL             ....  290
 Basis Dimension        Dim             ....  605

ORBITAL ENERGIES
----------------
                 SPIN UP ORBITALS
  NO   OCC          E(Eh)            E(eV)
   0   1.0000    -217.744163     -5925.1199
   1   1.0000     -25.428274      -691.9385
   2   1.0000     -21.567575      -586.8835
   3   1.0000     -21.567041      -586.8690
   4   1.0000     -21.562943      -586.7575
   5   1.0000      -4.404318      -119.8476
   6   1.0000      -4.400654      -119.7479
   7   1.0000      -4.398913      -119.7005
   8   1.0000      -4.398679      -119.6942
   9   1.0000      -4.397754      -119.6690
  10   1.0000      -4.397489      -119.6618
  11   1.0000      -4.395964      -119.6203
  12   1.0000      -4.395461      -119.6066
  13   1.0000      -4.394366      -119.5768
  14   1.0000      -4.389516      -119.4448
  15   1.0000      -4.389162      -119.4352
  16   1.0000      -4.386465      -119.3618
  17   1.0000      -4.385374      -119.3321
  18   1.0000      -4.385366      -119.3319
  19   1.0000      -3.218929       -87.5915
  20   1.0000      -2.525195       -68.7140
  21   1.0000      -2.523267       -68.6616
  22   1.0000      -2.520940       -68.5983
  23   1.0000      -2.519417       -68.5568
  24   1.0000      -2.519039       -68.5465
  25   1.0000      -2.518772       -68.5393
  26   1.0000      -2.518519       -68.5324
  27   1.0000      -2.518340       -68.5275
  28   1.0000      -2.518183       -68.5232
  29   1.0000      -2.517552       -68.5061
  30   1.0000      -2.517380       -68.5014
  31   1.0000      -2.517082       -68.4933
  32   1.0000      -2.515657       -68.4545
  33   1.0000      -2.515433       -68.4484
  34   1.0000      -2.515041       -68.4378
  35   1.0000      -2.514969       -68.4358
  36   1.0000      -2.514654       -68.4272
  37   1.0000      -2.514205       -68.4150
  38   1.0000      -2.513713       -68.4016
  39   1.0000      -2.513511       -68.3961
  40   1.0000      -2.512337       -68.3642
  41   1.0000      -2.512196       -68.3603
  42   1.0000      -2.511818       -68.3500
  43   1.0000      -2.510893       -68.3249
  44   1.0000      -2.510168       -68.3052
  45   1.0000      -2.509825       -68.2958
  46   1.0000      -2.509639       -68.2908
  47   1.0000      -2.507498       -68.2325
  48   1.0000      -2.507226       -68.2251
  49   1.0000      -2.506820       -68.2140
  50   1.0000      -2.506534       -68.2063
  51   1.0000      -2.505093       -68.1670
  52   1.0000      -2.504733       -68.1573
  53   1.0000      -2.504016       -68.1377
  54   1.0000      -2.503224       -68.1162
  55   1.0000      -2.503092       -68.1126
  56   1.0000      -2.502795       -68.1045
  57   1.0000      -2.502305       -68.0912
  58   1.0000      -2.501772       -68.0767
  59   1.0000      -2.501276       -68.0632
  60   1.0000      -2.501214       -68.0615
  61   1.0000      -2.500838       -68.0513
  62   1.0000      -2.110669       -57.4342
  63   1.0000      -2.102695       -57.2172
  64   1.0000      -2.102132       -57.2019
  65   1.0000      -0.496610       -13.5135
  66   1.0000      -0.481281       -13.0963
  67   1.0000      -0.478538       -13.0217
  68   1.0000      -0.470404       -12.8004
  69   1.0000      -0.462095       -12.5742
  70   1.0000      -0.459766       -12.5109
  71   1.0000      -0.457610       -12.4522
  72   1.0000      -0.456700       -12.4274
  73   1.0000      -0.454636       -12.3713
  74   1.0000      -0.454054       -12.3554
  75   1.0000      -0.452029       -12.3003
  76   1.0000      -0.451689       -12.2911
  77   1.0000      -0.448205       -12.1963
  78   1.0000      -0.446379       -12.1466
  79   1.0000      -0.445335       -12.1182
  80   1.0000      -0.444882       -12.1059
  81   1.0000      -0.442472       -12.0403
  82   1.0000      -0.439208       -11.9515
  83   1.0000      -0.439068       -11.9477
  84   1.0000      -0.438103       -11.9214
  85   1.0000      -0.432862       -11.7788
  86   1.0000      -0.432336       -11.7645
  87   1.0000      -0.431519       -11.7422
  88   1.0000      -0.429302       -11.6819
  89   1.0000      -0.428057       -11.6480
  90   1.0000      -0.424150       -11.5417
  91   1.0000      -0.421685       -11.4746
  92   1.0000      -0.419321       -11.4103
  93   1.0000      -0.417439       -11.3591
  94   1.0000      -0.416345       -11.3293
  95   1.0000      -0.415598       -11.3090
  96   1.0000      -0.412660       -11.2291
  97   1.0000      -0.406383       -11.0582
  98   1.0000      -0.401728       -10.9316
  99   1.0000      -0.400776       -10.9057
 100   1.0000      -0.395478       -10.7615
 101   1.0000      -0.394104       -10.7241
 102   1.0000      -0.388213       -10.5638
 103   1.0000      -0.381107       -10.3704
 104   1.0000      -0.379086       -10.3155
 105   1.0000      -0.375886       -10.2284
 106   1.0000      -0.374520       -10.1912
 107   1.0000      -0.374162       -10.1815
 108   1.0000      -0.373449       -10.1621
 109   1.0000      -0.370250       -10.0750
 110   1.0000      -0.369608       -10.0575
 111   1.0000      -0.367735       -10.0066
 112   1.0000      -0.366006        -9.9595
 113   1.0000      -0.365272        -9.9396
 114   1.0000      -0.364491        -9.9183
 115   1.0000      -0.363985        -9.9045
 116   1.0000      -0.361047        -9.8246
 117   1.0000      -0.359586        -9.7848
 118   1.0000      -0.358220        -9.7477
 119   1.0000      -0.357943        -9.7401
 120   1.0000      -0.354628        -9.6499
 121   1.0000      -0.353682        -9.6242
 122   1.0000      -0.352736        -9.5984
 123   1.0000      -0.351982        -9.5779
 124   1.0000      -0.348580        -9.4853
 125   1.0000      -0.348001        -9.4696
 126   1.0000      -0.345803        -9.4098
 127   1.0000      -0.344740        -9.3809
 128   1.0000      -0.344202        -9.3662
 129   1.0000      -0.341102        -9.2818
 130   1.0000      -0.339997        -9.2518
 131   1.0000      -0.339933        -9.2501
 132   1.0000      -0.336821        -9.1654
 133   1.0000      -0.335824        -9.1382
 134   1.0000      -0.331238        -9.0135
 135   1.0000      -0.329956        -8.9786
 136   1.0000      -0.324714        -8.8359
 137   1.0000      -0.319186        -8.6855
 138   1.0000      -0.312555        -8.5050
 139   1.0000      -0.311973        -8.4892
 140   1.0000      -0.302704        -8.2370
 141   1.0000      -0.301309        -8.1990
 142   1.0000      -0.296379        -8.0649
 143   1.0000      -0.235798        -6.4164
 144   1.0000      -0.224853        -6.1186
 145   1.0000      -0.219220        -5.9653
 146   0.0000      -0.119987        -3.2650
 147   0.0000      -0.117382        -3.1941
 148   0.0000      -0.077618        -2.1121
 149   0.0000      -0.076776        -2.0892
 150   0.0000      -0.057344        -1.5604

                 SPIN DOWN ORBITALS
  NO   OCC          E(Eh)            E(eV)
   0   1.0000    -217.742891     -5925.0853
   1   1.0000     -25.357667      -690.0172
   2   1.0000     -21.507067      -585.2370
   3   1.0000     -21.504985      -585.1804
   4   1.0000     -21.489998      -584.7726
   5   1.0000      -4.405219      -119.8721
   6   1.0000      -4.401204      -119.7629
   7   1.0000      -4.399267      -119.7101
   8   1.0000      -4.399022      -119.7035
   9   1.0000      -4.398043      -119.6768
  10   1.0000      -4.397718      -119.6680
  11   1.0000      -4.396271      -119.6286
  12   1.0000      -4.395733      -119.6140
  13   1.0000      -4.395596      -119.6103
  14   1.0000      -4.389309      -119.4392
  15   1.0000      -4.388922      -119.4286
  16   1.0000      -4.387140      -119.3801
  17   1.0000      -4.386077      -119.3512
  18   1.0000      -4.385869      -119.3456
  19   1.0000      -3.001144       -81.6653
  20   1.0000      -2.526444       -68.7480
  21   1.0000      -2.521999       -68.6271
  22   1.0000      -2.519757       -68.5661
  23   1.0000      -2.519525       -68.5598
  24   1.0000      -2.519169       -68.5501
  25   1.0000      -2.518587       -68.5342
  26   1.0000      -2.518140       -68.5221
  27   1.0000      -2.517803       -68.5129
  28   1.0000      -2.517718       -68.5106
  29   1.0000      -2.517313       -68.4996
  30   1.0000      -2.516993       -68.4909
  31   1.0000      -2.516957       -68.4899
  32   1.0000      -2.515730       -68.4565
  33   1.0000      -2.515496       -68.4501
  34   1.0000      -2.514999       -68.4366
  35   1.0000      -2.514671       -68.4277
  36   1.0000      -2.514563       -68.4247
  37   1.0000      -2.514003       -68.4095
  38   1.0000      -2.513692       -68.4010
  39   1.0000      -2.513441       -68.3942
  40   1.0000      -2.513303       -68.3905
  41   1.0000      -2.512061       -68.3567
  42   1.0000      -2.511938       -68.3533
  43   1.0000      -2.511701       -68.3469
  44   1.0000      -2.510169       -68.3052
  45   1.0000      -2.509770       -68.2943
  46   1.0000      -2.509603       -68.2898
  47   1.0000      -2.507264       -68.2261
  48   1.0000      -2.507020       -68.2195
  49   1.0000      -2.506102       -68.1945
  50   1.0000      -2.505714       -68.1839
  51   1.0000      -2.505116       -68.1677
  52   1.0000      -2.504715       -68.1568
  53   1.0000      -2.504674       -68.1556
  54   1.0000      -2.504311       -68.1458
  55   1.0000      -2.503627       -68.1271
  56   1.0000      -2.503486       -68.1233
  57   1.0000      -2.502980       -68.1095
  58   1.0000      -2.502301       -68.0911
  59   1.0000      -2.502144       -68.0868
  60   1.0000      -2.501894       -68.0800
  61   1.0000      -2.501093       -68.0582
  62   1.0000      -1.868913       -50.8557
  63   1.0000      -1.864189       -50.7272
  64   1.0000      -1.830946       -49.8226
  65   1.0000      -0.493814       -13.4374
  66   1.0000      -0.471517       -12.8306
  67   1.0000      -0.468394       -12.7456
  68   1.0000      -0.463064       -12.6006
  69   1.0000      -0.460897       -12.5416
  70   1.0000      -0.457202       -12.4411
  71   1.0000      -0.457060       -12.4372
  72   1.0000      -0.456281       -12.4160
  73   1.0000      -0.454990       -12.3809
  74   1.0000      -0.451997       -12.2995
  75   1.0000      -0.450070       -12.2470
  76   1.0000      -0.449355       -12.2276
  77   1.0000      -0.448979       -12.2173
  78   1.0000      -0.447755       -12.1840
  79   1.0000      -0.445784       -12.1304
  80   1.0000      -0.444995       -12.1089
  81   1.0000      -0.443943       -12.0803
  82   1.0000      -0.440897       -11.9974
  83   1.0000      -0.439731       -11.9657
  84   1.0000      -0.439255       -11.9527
  85   1.0000      -0.434552       -11.8248
  86   1.0000      -0.433350       -11.7921
  87   1.0000      -0.432454       -11.7677
  88   1.0000      -0.429805       -11.6956
  89   1.0000      -0.428130       -11.6500
  90   1.0000      -0.423142       -11.5143
  91   1.0000      -0.420697       -11.4478
  92   1.0000      -0.418388       -11.3849
  93   1.0000      -0.418027       -11.3751
  94   1.0000      -0.413837       -11.2611
  95   1.0000      -0.413590       -11.2544
  96   1.0000      -0.408583       -11.1181
  97   1.0000      -0.402797       -10.9607
  98   1.0000      -0.400617       -10.9013
  99   1.0000      -0.398477       -10.8431
 100   1.0000      -0.392774       -10.6879
 101   1.0000      -0.388656       -10.5759
 102   1.0000      -0.385858       -10.4997
 103   1.0000      -0.382664       -10.4128
 104   1.0000      -0.381561       -10.3828
 105   1.0000      -0.376740       -10.2516
 106   1.0000      -0.375298       -10.2124
 107   1.0000      -0.374326       -10.1859
 108   1.0000      -0.374088       -10.1795
 109   1.0000      -0.370676       -10.0866
 110   1.0000      -0.369718       -10.0605
 111   1.0000      -0.367499       -10.0001
 112   1.0000      -0.366689        -9.9781
 113   1.0000      -0.366286        -9.9671
 114   1.0000      -0.364351        -9.9145
 115   1.0000      -0.363975        -9.9043
 116   1.0000      -0.362896        -9.8749
 117   1.0000      -0.360172        -9.8008
 118   1.0000      -0.357711        -9.7338
 119   1.0000      -0.356725        -9.7070
 120   1.0000      -0.355768        -9.6809
 121   1.0000      -0.354389        -9.6434
 122   1.0000      -0.353009        -9.6059
 123   1.0000      -0.351955        -9.5772
 124   1.0000      -0.348977        -9.4962
 125   1.0000      -0.347381        -9.4527
 126   1.0000      -0.345893        -9.4122
 127   1.0000      -0.342878        -9.3302
 128   1.0000      -0.342498        -9.3198
 129   1.0000      -0.342151        -9.3104
 130   1.0000      -0.338135        -9.2011
 131   1.0000      -0.336973        -9.1695
 132   1.0000      -0.332530        -9.0486
 133   1.0000      -0.331674        -9.0253
 134   1.0000      -0.328079        -8.9275
 135   1.0000      -0.322120        -8.7653
 136   1.0000      -0.314643        -8.5619
 137   1.0000      -0.312793        -8.5115
 138   1.0000      -0.311028        -8.4635
 139   1.0000      -0.235944        -6.4204
 140   1.0000      -0.232426        -6.3246
 141   1.0000      -0.222381        -6.0513
 142   1.0000      -0.217848        -5.9279
 143   1.0000      -0.214968        -5.8496
 144   0.0000      -0.085411        -2.3241
 145   0.0000      -0.059514        -1.6195
 146   0.0000      -0.057212        -1.5568
 147   0.0000      -0.050672        -1.3789
 148   0.0000      -0.044351        -1.2068

MULLIKEN ATOMIC CHARGES AND SPIN POPULATIONS
--------------------------------------------
   0 Au:    0.390007   -0.002705
   1 Au:    0.324997    0.032463
   2 Au:    0.385222   -0.008343
   3 Au:    0.488213   -0.120282
   4 Au:    0.231763   -0.138741
   5 Au:    0.487962   -0.216763
   6 Au:    0.488891   -0.108775
   7 Au:    0.455590   -0.041142
   8 Au:    0.452500   -0.006979
   9 Au:    0.480582   -0.143241
  10 Au:    0.395313   -0.158575
  11 Au:    0.462208   -0.049187
  12 Au:    0.445021   -0.010019
  13 Au:    0.461912   -0.105197
  14 Cr:   -5.950181    3.077487
Sum of atomic charges         :    0.0000000

LOEWDIN ATOMIC CHARGES AND SPIN POPULATIONS
-------------------------------------------
   0 Au:    0.077261   -0.072054
   1 Au:    0.127973   -0.022403
   2 Au:    0.080166   -0.081017
   3 Au:    0.092387   -0.147794
   4 Au:    0.030455   -0.110942
   5 Au:    0.167879   -0.201189
   6 Au:    0.093262   -0.146563
   7 Au:    0.110165   -0.127227
   8 Au:    0.137100   -0.081331
   9 Au:    0.073101   -0.117468
  10 Au:    0.083584   -0.136610
  11 Au:    0.110338   -0.130036
  12 Au:    0.141238   -0.092423
  13 Au:    0.065003   -0.123213
  14 Cr:   -1.389912    3.590271

  Mayer bond orders larger than 0.100000
B(  0-Au,  1-Au) :   0.1897 B(  0-Au,  3-Au) :   0.1833 B(  0-Au,  4-Au) :   0.1450
B(  0-Au,  9-Au) :   0.1281 B(  0-Au, 11-Au) :   0.1675 B(  0-Au, 14-Cr) :   0.4608
B(  1-Au,  2-Au) :   0.1874 B(  1-Au,  4-Au) :   0.3541 B(  1-Au, 14-Cr) :   0.4550
B(  2-Au,  4-Au) :   0.1444 B(  2-Au,  6-Au) :   0.1847 B(  2-Au,  7-Au) :   0.1698
B(  2-Au,  9-Au) :   0.1240 B(  2-Au, 14-Cr) :   0.4645 B(  3-Au,  5-Au) :   0.1221
B(  3-Au,  7-Au) :   0.1135 B(  3-Au, 12-Au) :   0.1765 B(  3-Au, 14-Cr) :   0.5342
B(  4-Au,  5-Au) :   0.2841 B(  4-Au, 14-Cr) :   0.5017 B(  5-Au,  6-Au) :   0.1240
B(  5-Au, 13-Au) :   0.1131 B(  5-Au, 14-Cr) :   0.4973 B(  6-Au,  8-Au) :   0.1756
B(  6-Au, 11-Au) :   0.1151 B(  6-Au, 14-Cr) :   0.5390 B(  7-Au,  8-Au) :   0.1769
B(  7-Au,  9-Au) :   0.1947 B(  7-Au, 10-Au) :   0.1709 B(  7-Au, 14-Cr) :   0.5675
B(  8-Au, 10-Au) :   0.1940 B(  8-Au, 13-Au) :   0.2006 B(  8-Au, 14-Cr) :   0.4343
B(  9-Au, 11-Au) :   0.1914 B(  9-Au, 13-Au) :   0.1656 B(  9-Au, 14-Cr) :   0.3768
B( 10-Au, 11-Au) :   0.1706 B( 10-Au, 12-Au) :   0.1950 B( 10-Au, 13-Au) :   0.1149
B( 10-Au, 14-Cr) :   0.4148 B( 11-Au, 12-Au) :   0.1778 B( 11-Au, 14-Cr) :   0.5614
B( 12-Au, 13-Au) :   0.2019 B( 12-Au, 14-Cr) :   0.4390 B( 13-Au, 14-Cr) :   0.2909

MP2 TOTAL ENERGY:    -2942.513386933 Eh
FINAL SINGLE POINT ENERGY     -2942.513386932641

DIPOLE MOMENT
-------------
                                X             Y             Z
Electronic contribution:     -4.32504      -1.02704       5.97816
Nuclear contribution   :      4.43620       0.86775      -5.90057
                        -----------------------------------------
Total Dipole Moment    :      0.11116      -0.15929       0.07759
                        -----------------------------------------
Magnitude (a.u.)       :      0.20916
Magnitude (Debye)      :      0.53165

Rotational constants in cm-1:     0.001200     0.000989     0.000956
Rotational constants in MHz :    35.960629    29.653927    28.668786

                             ****ORCA TERMINATED NORMALLY****
TOTAL RUN TIME: 0 days 3 hours 48 minutes 14 seconds 151 msec
