                         Program Version 5.0.3 -  RELEASE  -
|  1> !PBE def2-TZVP VERYSLOWCONV
|  2>
|  3> %scf
|  4>   AutoTRAHIter 200
|  5>   maxiter 400
|  6> end
|  7>
|  8>
|  9> %pal nprocs 6 end
| 10>
| 11> *xyzfile 0 5 pbe.xyz
| 12>
| 13> $new_job
| 14>
| 15> !PBE def2-TZVP VERYSLOWCONV
| 16>
| 17> %scf
| 18>   AutoTRAHIter 200
| 19>   maxiter 400
| 20> end
| 21>
| 22>
| 23> %pal nprocs 6 end
| 24>
| 25> *xyzfile 0 3 pbe.xyz
| 26>
| 27>
| 28>
| 29>
| 30>
| 31>                          ****END OF INPUT****
 Total Charge           Charge          ....    0
 Multiplicity           Mult            ....    5
 Number of Electrons    NEL             ....  290
FINAL SINGLE POINT ENERGY     -2945.817866545464

CARTESIAN COORDINATES (ANGSTROEM)
---------------------------------
  Au     5.697073    7.389463    6.449546
  Au     5.422189    9.302488    8.463576
  Au     8.050630   10.240546    8.550103
  Au     7.825668    5.592484    6.392399
  Au     7.379487    7.435189    8.809886
  Au     9.505017    5.792541    8.641380
  Au    10.236171    8.509547    8.566879
  Au     9.441710   10.683490    6.182232
  Au    11.741726    9.107410    6.297997
  Au     6.752294   10.013767    5.995450
  Au     9.927090    8.739097    4.202428
  Au     7.220118    7.949812    4.187457
  Au     9.245886    6.034198    4.032037
  Au    10.789760    6.497782    6.292237
  Cr     8.642764    8.116631    6.479821

 Multiplicity           Mult            ....    3
 Number of Electrons    NEL             ....  290
 Basis Dimension        Dim             ....  605

ORBITAL ENERGIES
----------------
                 SPIN UP ORBITALS
  NO   OCC          E(Eh)            E(eV)
   0   1.0000    -214.509073     -5837.0886
   1   1.0000     -24.310321      -661.5175
   2   1.0000     -20.675244      -562.6020
   3   1.0000     -20.674241      -562.5747
   4   1.0000     -20.672362      -562.5236
   5   1.0000      -4.036118      -109.8284
   6   1.0000      -4.030819      -109.6842
   7   1.0000      -4.030490      -109.6752
   8   1.0000      -4.030460      -109.6744
   9   1.0000      -4.029745      -109.6549
  10   1.0000      -4.028648      -109.6251
  11   1.0000      -4.027808      -109.6022
  12   1.0000      -4.027621      -109.5971
  13   1.0000      -4.020543      -109.4045
  14   1.0000      -4.019350      -109.3721
  15   1.0000      -4.019314      -109.3711
  16   1.0000      -4.015124      -109.2571
  17   1.0000      -4.014689      -109.2452
  18   1.0000      -4.014590      -109.2425
  19   1.0000      -2.809113       -76.4398
  20   1.0000      -2.252799       -61.3018
  21   1.0000      -2.249871       -61.2221
  22   1.0000      -2.246967       -61.1431
  23   1.0000      -2.246912       -61.1416
  24   1.0000      -2.246286       -61.1246
  25   1.0000      -2.246140       -61.1206
  26   1.0000      -2.244854       -61.0856
  27   1.0000      -2.244284       -61.0701
  28   1.0000      -2.244142       -61.0662
  29   1.0000      -2.243615       -61.0519
  30   1.0000      -2.242999       -61.0351
  31   1.0000      -2.242893       -61.0322
  32   1.0000      -2.242488       -61.0212
  33   1.0000      -2.241979       -61.0074
  34   1.0000      -2.241622       -60.9976
  35   1.0000      -2.241534       -60.9953
  36   1.0000      -2.241436       -60.9926
  37   1.0000      -2.241381       -60.9911
  38   1.0000      -2.241350       -60.9902
  39   1.0000      -2.240386       -60.9640
  40   1.0000      -2.240055       -60.9550
  41   1.0000      -2.237794       -60.8935
  42   1.0000      -2.236849       -60.8677
  43   1.0000      -2.236552       -60.8597
  44   1.0000      -2.235299       -60.8256
  45   1.0000      -2.234007       -60.7904
  46   1.0000      -2.233872       -60.7867
  47   1.0000      -2.232689       -60.7546
  48   1.0000      -2.231968       -60.7349
  49   1.0000      -2.231516       -60.7226
  50   1.0000      -2.231345       -60.7180
  51   1.0000      -2.231035       -60.7096
  52   1.0000      -2.230969       -60.7078
  53   1.0000      -2.229773       -60.6752
  54   1.0000      -2.227832       -60.6224
  55   1.0000      -2.227683       -60.6183
  56   1.0000      -2.227675       -60.6181
  57   1.0000      -2.227567       -60.6152
  58   1.0000      -2.227401       -60.6107
  59   1.0000      -2.226826       -60.5950
  60   1.0000      -2.226681       -60.5911
  61   1.0000      -2.226317       -60.5812
  62   1.0000      -1.799992       -48.9803
  63   1.0000      -1.798646       -48.9436
  64   1.0000      -1.796767       -48.8925
  65   1.0000      -0.428963       -11.6727
  66   1.0000      -0.386855       -10.5268
  67   1.0000      -0.382686       -10.4134
  68   1.0000      -0.377173       -10.2634
  69   1.0000      -0.371133       -10.0991
  70   1.0000      -0.369284       -10.0487
  71   1.0000      -0.363783        -9.8990
  72   1.0000      -0.361563        -9.8386
  73   1.0000      -0.360428        -9.8077
  74   1.0000      -0.357840        -9.7373
  75   1.0000      -0.351788        -9.5726
  76   1.0000      -0.351275        -9.5587
  77   1.0000      -0.347595        -9.4585
  78   1.0000      -0.344420        -9.3721
  79   1.0000      -0.344165        -9.3652
  80   1.0000      -0.342590        -9.3224
  81   1.0000      -0.342375        -9.3165
  82   1.0000      -0.337608        -9.1868
  83   1.0000      -0.337328        -9.1792
  84   1.0000      -0.336281        -9.1507
  85   1.0000      -0.331361        -9.0168
  86   1.0000      -0.330361        -8.9896
  87   1.0000      -0.328832        -8.9480
  88   1.0000      -0.327280        -8.9057
  89   1.0000      -0.326645        -8.8885
  90   1.0000      -0.324143        -8.8204
  91   1.0000      -0.323198        -8.7947
  92   1.0000      -0.320984        -8.7344
  93   1.0000      -0.320774        -8.7287
  94   1.0000      -0.318477        -8.6662
  95   1.0000      -0.316722        -8.6184
  96   1.0000      -0.314848        -8.5675
  97   1.0000      -0.305331        -8.3085
  98   1.0000      -0.303065        -8.2468
  99   1.0000      -0.301944        -8.2163
 100   1.0000      -0.297587        -8.0977
 101   1.0000      -0.295702        -8.0465
 102   1.0000      -0.291764        -7.9393
 103   1.0000      -0.290797        -7.9130
 104   1.0000      -0.285095        -7.7578
 105   1.0000      -0.284835        -7.7508
 106   1.0000      -0.280628        -7.6363
 107   1.0000      -0.278643        -7.5823
 108   1.0000      -0.277859        -7.5609
 109   1.0000      -0.275388        -7.4937
 110   1.0000      -0.274946        -7.4817
 111   1.0000      -0.271547        -7.3892
 112   1.0000      -0.270790        -7.3686
 113   1.0000      -0.270392        -7.3577
 114   1.0000      -0.269928        -7.3451
 115   1.0000      -0.267242        -7.2720
 116   1.0000      -0.266352        -7.2478
 117   1.0000      -0.265400        -7.2219
 118   1.0000      -0.264306        -7.1921
 119   1.0000      -0.263317        -7.1652
 120   1.0000      -0.262815        -7.1516
 121   1.0000      -0.260383        -7.0854
 122   1.0000      -0.259818        -7.0700
 123   1.0000      -0.257550        -7.0083
 124   1.0000      -0.256033        -6.9670
 125   1.0000      -0.255126        -6.9423
 126   1.0000      -0.254165        -6.9162
 127   1.0000      -0.253240        -6.8910
 128   1.0000      -0.250351        -6.8124
 129   1.0000      -0.249406        -6.7867
 130   1.0000      -0.248660        -6.7664
 131   1.0000      -0.245924        -6.6919
 132   1.0000      -0.244807        -6.6615
 133   1.0000      -0.243115        -6.6155
 134   1.0000      -0.242853        -6.6084
 135   1.0000      -0.240547        -6.5456
 136   1.0000      -0.238680        -6.4948
 137   1.0000      -0.238505        -6.4901
 138   1.0000      -0.227982        -6.2037
 139   1.0000      -0.224118        -6.0986
 140   1.0000      -0.223151        -6.0723
 141   1.0000      -0.216400        -5.8885
 142   1.0000      -0.213450        -5.8083
 143   1.0000      -0.212429        -5.7805
 144   1.0000      -0.197290        -5.3685
 145   1.0000      -0.196828        -5.3560
 146   0.0000      -0.178459        -4.8561
 147   0.0000      -0.173288        -4.7154
 148   0.0000      -0.171254        -4.6600
 149   0.0000      -0.144192        -3.9237
 150   0.0000      -0.124170        -3.3788

                 SPIN DOWN ORBITALS
  NO   OCC          E(Eh)            E(eV)
   0   1.0000    -214.508672     -5837.0777
   1   1.0000     -24.266594      -660.3276
   2   1.0000     -20.643457      -561.7370
   3   1.0000     -20.641294      -561.6782
   4   1.0000     -20.636873      -561.5579
   5   1.0000      -4.036477      -109.8381
   6   1.0000      -4.030908      -109.6866
   7   1.0000      -4.030345      -109.6713
   8   1.0000      -4.030315      -109.6705
   9   1.0000      -4.029825      -109.6571
  10   1.0000      -4.028606      -109.6240
  11   1.0000      -4.027739      -109.6004
  12   1.0000      -4.027545      -109.5951
  13   1.0000      -4.021146      -109.4210
  14   1.0000      -4.019201      -109.3680
  15   1.0000      -4.019151      -109.3667
  16   1.0000      -4.015592      -109.2698
  17   1.0000      -4.015144      -109.2576
  18   1.0000      -4.015035      -109.2546
  19   1.0000      -2.691707       -73.2451
  20   1.0000      -2.253602       -61.3236
  21   1.0000      -2.249691       -61.2172
  22   1.0000      -2.246409       -61.1279
  23   1.0000      -2.246358       -61.1265
  24   1.0000      -2.245912       -61.1144
  25   1.0000      -2.245794       -61.1112
  26   1.0000      -2.244642       -61.0798
  27   1.0000      -2.244471       -61.0752
  28   1.0000      -2.244125       -61.0658
  29   1.0000      -2.243723       -61.0548
  30   1.0000      -2.243431       -61.0468
  31   1.0000      -2.242684       -61.0265
  32   1.0000      -2.242669       -61.0261
  33   1.0000      -2.242143       -61.0118
  34   1.0000      -2.241746       -61.0010
  35   1.0000      -2.241567       -60.9961
  36   1.0000      -2.241416       -60.9920
  37   1.0000      -2.241337       -60.9899
  38   1.0000      -2.241310       -60.9891
  39   1.0000      -2.240600       -60.9698
  40   1.0000      -2.240184       -60.9585
  41   1.0000      -2.237906       -60.8965
  42   1.0000      -2.236848       -60.8677
  43   1.0000      -2.236569       -60.8601
  44   1.0000      -2.235964       -60.8437
  45   1.0000      -2.233824       -60.7854
  46   1.0000      -2.233715       -60.7825
  47   1.0000      -2.233346       -60.7724
  48   1.0000      -2.232487       -60.7491
  49   1.0000      -2.231390       -60.7192
  50   1.0000      -2.231167       -60.7131
  51   1.0000      -2.231117       -60.7118
  52   1.0000      -2.230902       -60.7059
  53   1.0000      -2.230130       -60.6849
  54   1.0000      -2.228336       -60.6361
  55   1.0000      -2.228207       -60.6326
  56   1.0000      -2.228028       -60.6277
  57   1.0000      -2.227898       -60.6242
  58   1.0000      -2.227584       -60.6156
  59   1.0000      -2.227410       -60.6109
  60   1.0000      -2.227251       -60.6066
  61   1.0000      -2.226938       -60.5981
  62   1.0000      -1.689569       -45.9755
  63   1.0000      -1.684520       -45.8381
  64   1.0000      -1.674572       -45.5674
  65   1.0000      -0.423632       -11.5276
  66   1.0000      -0.386407       -10.5147
  67   1.0000      -0.381820       -10.3898
  68   1.0000      -0.376733       -10.2514
  69   1.0000      -0.367113        -9.9896
  70   1.0000      -0.365628        -9.9492
  71   1.0000      -0.361798        -9.8450
  72   1.0000      -0.359278        -9.7765
  73   1.0000      -0.358089        -9.7441
  74   1.0000      -0.356137        -9.6910
  75   1.0000      -0.352490        -9.5917
  76   1.0000      -0.349930        -9.5221
  77   1.0000      -0.346961        -9.4413
  78   1.0000      -0.344887        -9.3848
  79   1.0000      -0.344836        -9.3835
  80   1.0000      -0.343284        -9.3412
  81   1.0000      -0.343092        -9.3360
  82   1.0000      -0.337893        -9.1945
  83   1.0000      -0.337753        -9.1907
  84   1.0000      -0.336969        -9.1694
  85   1.0000      -0.332137        -9.0379
  86   1.0000      -0.330954        -9.0057
  87   1.0000      -0.329624        -8.9695
  88   1.0000      -0.327347        -8.9076
  89   1.0000      -0.326540        -8.8856
  90   1.0000      -0.324504        -8.8302
  91   1.0000      -0.323538        -8.8039
  92   1.0000      -0.319909        -8.7052
  93   1.0000      -0.319631        -8.6976
  94   1.0000      -0.317432        -8.6378
  95   1.0000      -0.316800        -8.6206
  96   1.0000      -0.313011        -8.5175
  97   1.0000      -0.305102        -8.3023
  98   1.0000      -0.301786        -8.2120
  99   1.0000      -0.301566        -8.2060
 100   1.0000      -0.297657        -8.0997
 101   1.0000      -0.294227        -8.0063
 102   1.0000      -0.292971        -7.9721
 103   1.0000      -0.290987        -7.9181
 104   1.0000      -0.286222        -7.7885
 105   1.0000      -0.285433        -7.7670
 106   1.0000      -0.281404        -7.6574
 107   1.0000      -0.279701        -7.6111
 108   1.0000      -0.277936        -7.5630
 109   1.0000      -0.276335        -7.5194
 110   1.0000      -0.275655        -7.5009
 111   1.0000      -0.272266        -7.4087
 112   1.0000      -0.271993        -7.4013
 113   1.0000      -0.271272        -7.3817
 114   1.0000      -0.270282        -7.3547
 115   1.0000      -0.267908        -7.2902
 116   1.0000      -0.267321        -7.2742
 117   1.0000      -0.266343        -7.2476
 118   1.0000      -0.264982        -7.2105
 119   1.0000      -0.264080        -7.1860
 120   1.0000      -0.263198        -7.1620
 121   1.0000      -0.261373        -7.1123
 122   1.0000      -0.260612        -7.0916
 123   1.0000      -0.258224        -7.0266
 124   1.0000      -0.256546        -6.9810
 125   1.0000      -0.255888        -6.9631
 126   1.0000      -0.255054        -6.9404
 127   1.0000      -0.254023        -6.9123
 128   1.0000      -0.250788        -6.8243
 129   1.0000      -0.250462        -6.8154
 130   1.0000      -0.249242        -6.7822
 131   1.0000      -0.246706        -6.7132
 132   1.0000      -0.245425        -6.6783
 133   1.0000      -0.244198        -6.6450
 134   1.0000      -0.243911        -6.6372
 135   1.0000      -0.241420        -6.5694
 136   1.0000      -0.239763        -6.5243
 137   1.0000      -0.239483        -6.5167
 138   1.0000      -0.228409        -6.2153
 139   1.0000      -0.212366        -5.7788
 140   1.0000      -0.209224        -5.6933
 141   1.0000      -0.202002        -5.4968
 142   1.0000      -0.200523        -5.4565
 143   1.0000      -0.196720        -5.3530
 144   0.0000      -0.148032        -4.0282
 145   0.0000      -0.126619        -3.4455
 146   0.0000      -0.124774        -3.3953
 147   0.0000      -0.122624        -3.3368
 148   0.0000      -0.120538        -3.2800

MULLIKEN ATOMIC CHARGES AND SPIN POPULATIONS
--------------------------------------------
   0 Au:    0.396215    0.008978
   1 Au:    0.354307    0.001514
   2 Au:    0.398444    0.007568
   3 Au:    0.504441   -0.058782
   4 Au:    0.262656   -0.068745
   5 Au:    0.473907   -0.117573
   6 Au:    0.508501   -0.056262
   7 Au:    0.485423   -0.025772
   8 Au:    0.462359   -0.009276
   9 Au:    0.476484   -0.067134
  10 Au:    0.421379   -0.083750
  11 Au:    0.489215   -0.026639
  12 Au:    0.461570   -0.009384
  13 Au:    0.476262   -0.039275
  14 Cr:   -6.171162    2.544533
Sum of atomic charges         :    0.0000000

LOEWDIN ATOMIC CHARGES AND SPIN POPULATIONS
-------------------------------------------
   0 Au:    0.081059   -0.036263
   1 Au:    0.112405   -0.023847
   2 Au:    0.081523   -0.036810
   3 Au:    0.110706   -0.091140
   4 Au:    0.057372   -0.073682
   5 Au:    0.152746   -0.126388
   6 Au:    0.111455   -0.090918
   7 Au:    0.123833   -0.077166
   8 Au:    0.128162   -0.057586
   9 Au:    0.096101   -0.075000
  10 Au:    0.104993   -0.084909
  11 Au:    0.123702   -0.077759
  12 Au:    0.128502   -0.057851
  13 Au:    0.082794   -0.068697
  14 Cr:   -1.495352    2.978017

  Mayer bond orders larger than 0.100000
B(  0-Au,  1-Au) :   0.2430 B(  0-Au,  3-Au) :   0.2233 B(  0-Au,  4-Au) :   0.1661
B(  0-Au,  9-Au) :   0.1534 B(  0-Au, 11-Au) :   0.2027 B(  0-Au, 14-Cr) :   0.4835
B(  1-Au,  2-Au) :   0.2415 B(  1-Au,  4-Au) :   0.3674 B(  1-Au,  9-Au) :   0.1332
B(  1-Au, 14-Cr) :   0.4087 B(  2-Au,  4-Au) :   0.1663 B(  2-Au,  6-Au) :   0.2236
B(  2-Au,  7-Au) :   0.2050 B(  2-Au,  9-Au) :   0.1493 B(  2-Au, 14-Cr) :   0.4831
B(  3-Au,  5-Au) :   0.1714 B(  3-Au,  7-Au) :   0.1199 B(  3-Au, 12-Au) :   0.2309
B(  3-Au, 14-Cr) :   0.6213 B(  4-Au,  5-Au) :   0.3619 B(  4-Au,  6-Au) :   0.1026
B(  4-Au, 14-Cr) :   0.5839 B(  5-Au,  6-Au) :   0.1733 B(  5-Au, 13-Au) :   0.1685
B(  5-Au, 14-Cr) :   0.5343 B(  6-Au,  8-Au) :   0.2313 B(  6-Au, 11-Au) :   0.1207
B(  6-Au, 14-Cr) :   0.6199 B(  7-Au,  8-Au) :   0.2207 B(  7-Au,  9-Au) :   0.2417
B(  7-Au, 10-Au) :   0.2090 B(  7-Au, 14-Cr) :   0.6178 B(  8-Au, 10-Au) :   0.2323
B(  8-Au, 13-Au) :   0.2489 B(  8-Au, 14-Cr) :   0.4399 B(  9-Au, 11-Au) :   0.2373
B(  9-Au, 13-Au) :   0.1787 B(  9-Au, 14-Cr) :   0.5173 B( 10-Au, 11-Au) :   0.2082
B( 10-Au, 12-Au) :   0.2336 B( 10-Au, 13-Au) :   0.1244 B( 10-Au, 14-Cr) :   0.5413
B( 11-Au, 12-Au) :   0.2214 B( 11-Au, 14-Cr) :   0.6168 B( 12-Au, 13-Au) :   0.2497
B( 12-Au, 14-Cr) :   0.4366 B( 13-Au, 14-Cr) :   0.4058

FINAL SINGLE POINT ENERGY     -2945.833761516157

DIPOLE MOMENT
-------------
                                X             Y             Z
Electronic contribution:     -4.37808      -0.94990       5.93852
Nuclear contribution   :      4.43620       0.86775      -5.90057
                        -----------------------------------------
Total Dipole Moment    :      0.05812      -0.08215       0.03796
                        -----------------------------------------
Magnitude (a.u.)       :      0.10755
Magnitude (Debye)      :      0.27337

Rotational constants in cm-1:     0.001200     0.000989     0.000956
Rotational constants in MHz :    35.960629    29.653927    28.668786

                             ****ORCA TERMINATED NORMALLY****
TOTAL RUN TIME: 0 days 1 hours 54 minutes 5 seconds 925 msec
