                         Program Version 5.0.3 -  RELEASE  -
|  1> !R2SCAN def2-TZVP VERYSLOWCONV
|  2> !KDIIS
|  3> %scf
|  4>   AutoTRAHIter 200
|  5>   maxiter 400
|  6> end
|  7>
|  8> %pal nprocs 6 end
|  9>
| 10> *xyzfile 0 5 pbe.xyz
| 11>
| 12> $new_job
| 13>
| 14> !R2SCAN def2-TZVP VERYSLOWCONV
| 15> !KDIIS
| 16> %scf
| 17>   AutoTRAHIter 200
| 18>   maxiter 400
| 19> end
| 20>
| 21>
| 22> %pal nprocs 6 end
| 23>
| 24> *xyzfile 0 3 pbe.xyz
| 25>
| 26>
| 27>
| 28>
| 29>
| 30>                          ****END OF INPUT****
 Total Charge           Charge          ....    0
 Multiplicity           Mult            ....    5
 Number of Electrons    NEL             ....  290
FINAL SINGLE POINT ENERGY     -2946.300491682195

CARTESIAN COORDINATES (ANGSTROEM)
---------------------------------
  Au     5.697073    7.389463    6.449546
  Au     5.422189    9.302488    8.463576
  Au     8.050630   10.240546    8.550103
  Au     7.825668    5.592484    6.392399
  Au     7.379487    7.435189    8.809886
  Au     9.505017    5.792541    8.641380
  Au    10.236171    8.509547    8.566879
  Au     9.441710   10.683490    6.182232
  Au    11.741726    9.107410    6.297997
  Au     6.752294   10.013767    5.995450
  Au     9.927090    8.739097    4.202428
  Au     7.220118    7.949812    4.187457
  Au     9.245886    6.034198    4.032037
  Au    10.789760    6.497782    6.292237
  Cr     8.642764    8.116631    6.479821

 Multiplicity           Mult            ....    3
 Number of Electrons    NEL             ....  290
 Basis Dimension        Dim             ....  605

ORBITAL ENERGIES
----------------
                 SPIN UP ORBITALS
  NO   OCC          E(Eh)            E(eV)
   0   1.0000    -215.303587     -5858.7085
   1   1.0000     -24.604751      -669.5293
   2   1.0000     -20.872281      -567.9636
   3   1.0000     -20.870962      -567.9277
   4   1.0000     -20.870116      -567.9047
   5   1.0000      -4.126575      -112.2898
   6   1.0000      -4.120942      -112.1365
   7   1.0000      -4.120736      -112.1309
   8   1.0000      -4.120714      -112.1303
   9   1.0000      -4.119857      -112.1070
  10   1.0000      -4.118918      -112.0815
  11   1.0000      -4.118160      -112.0608
  12   1.0000      -4.117972      -112.0557
  13   1.0000      -4.111609      -111.8826
  14   1.0000      -4.109750      -111.8320
  15   1.0000      -4.109711      -111.8309
  16   1.0000      -4.105551      -111.7177
  17   1.0000      -4.105326      -111.7116
  18   1.0000      -4.105217      -111.7086
  19   1.0000      -2.921717       -79.5040
  20   1.0000      -2.315873       -63.0181
  21   1.0000      -2.313099       -62.9426
  22   1.0000      -2.309940       -62.8567
  23   1.0000      -2.309917       -62.8560
  24   1.0000      -2.309113       -62.8342
  25   1.0000      -2.309091       -62.8336
  26   1.0000      -2.307891       -62.8009
  27   1.0000      -2.307717       -62.7962
  28   1.0000      -2.307427       -62.7883
  29   1.0000      -2.306871       -62.7732
  30   1.0000      -2.306007       -62.7496
  31   1.0000      -2.305945       -62.7479
  32   1.0000      -2.305748       -62.7426
  33   1.0000      -2.305200       -62.7277
  34   1.0000      -2.304941       -62.7206
  35   1.0000      -2.304799       -62.7168
  36   1.0000      -2.304745       -62.7153
  37   1.0000      -2.304500       -62.7086
  38   1.0000      -2.304453       -62.7074
  39   1.0000      -2.303469       -62.6806
  40   1.0000      -2.303081       -62.6700
  41   1.0000      -2.301194       -62.6187
  42   1.0000      -2.300299       -62.5943
  43   1.0000      -2.299954       -62.5849
  44   1.0000      -2.299080       -62.5611
  45   1.0000      -2.297132       -62.5082
  46   1.0000      -2.296995       -62.5044
  47   1.0000      -2.296525       -62.4916
  48   1.0000      -2.295884       -62.4742
  49   1.0000      -2.294823       -62.4453
  50   1.0000      -2.294674       -62.4413
  51   1.0000      -2.294240       -62.4294
  52   1.0000      -2.294175       -62.4277
  53   1.0000      -2.292876       -62.3923
  54   1.0000      -2.291187       -62.3464
  55   1.0000      -2.291041       -62.3424
  56   1.0000      -2.290989       -62.3410
  57   1.0000      -2.290868       -62.3377
  58   1.0000      -2.290496       -62.3276
  59   1.0000      -2.290197       -62.3194
  60   1.0000      -2.290042       -62.3152
  61   1.0000      -2.289497       -62.3004
  62   1.0000      -1.869032       -50.8590
  63   1.0000      -1.868422       -50.8423
  64   1.0000      -1.867512       -50.8176
  65   1.0000      -0.432940       -11.7809
  66   1.0000      -0.391823       -10.6621
  67   1.0000      -0.388352       -10.5676
  68   1.0000      -0.382108       -10.3977
  69   1.0000      -0.379589       -10.3291
  70   1.0000      -0.377042       -10.2598
  71   1.0000      -0.371524       -10.1097
  72   1.0000      -0.369226       -10.0471
  73   1.0000      -0.367946       -10.0123
  74   1.0000      -0.365963        -9.9583
  75   1.0000      -0.360699        -9.8151
  76   1.0000      -0.359947        -9.7947
  77   1.0000      -0.356269        -9.6946
  78   1.0000      -0.353162        -9.6100
  79   1.0000      -0.353106        -9.6085
  80   1.0000      -0.351373        -9.5614
  81   1.0000      -0.351243        -9.5578
  82   1.0000      -0.346358        -9.4249
  83   1.0000      -0.346218        -9.4211
  84   1.0000      -0.344987        -9.3876
  85   1.0000      -0.340059        -9.2535
  86   1.0000      -0.339109        -9.2276
  87   1.0000      -0.337961        -9.1964
  88   1.0000      -0.336406        -9.1541
  89   1.0000      -0.335446        -9.1279
  90   1.0000      -0.332138        -9.0379
  91   1.0000      -0.331797        -9.0287
  92   1.0000      -0.329725        -8.9723
  93   1.0000      -0.329467        -8.9652
  94   1.0000      -0.327289        -8.9060
  95   1.0000      -0.324997        -8.8436
  96   1.0000      -0.323185        -8.7943
  97   1.0000      -0.313775        -8.5383
  98   1.0000      -0.311370        -8.4728
  99   1.0000      -0.310605        -8.4520
 100   1.0000      -0.305839        -8.3223
 101   1.0000      -0.303696        -8.2640
 102   1.0000      -0.299192        -8.1414
 103   1.0000      -0.298680        -8.1275
 104   1.0000      -0.292763        -7.9665
 105   1.0000      -0.292215        -7.9516
 106   1.0000      -0.288056        -7.8384
 107   1.0000      -0.286335        -7.7916
 108   1.0000      -0.286027        -7.7832
 109   1.0000      -0.283476        -7.7138
 110   1.0000      -0.282790        -7.6951
 111   1.0000      -0.279544        -7.6068
 112   1.0000      -0.278736        -7.5848
 113   1.0000      -0.278208        -7.5704
 114   1.0000      -0.277534        -7.5521
 115   1.0000      -0.275181        -7.4881
 116   1.0000      -0.273979        -7.4553
 117   1.0000      -0.272739        -7.4216
 118   1.0000      -0.272110        -7.4045
 119   1.0000      -0.270726        -7.3668
 120   1.0000      -0.270201        -7.3525
 121   1.0000      -0.267700        -7.2845
 122   1.0000      -0.267548        -7.2803
 123   1.0000      -0.265224        -7.2171
 124   1.0000      -0.263526        -7.1709
 125   1.0000      -0.262249        -7.1362
 126   1.0000      -0.261426        -7.1138
 127   1.0000      -0.260076        -7.0770
 128   1.0000      -0.257652        -7.0111
 129   1.0000      -0.256415        -6.9774
 130   1.0000      -0.255600        -6.9552
 131   1.0000      -0.252886        -6.8814
 132   1.0000      -0.251177        -6.8349
 133   1.0000      -0.250025        -6.8035
 134   1.0000      -0.249679        -6.7941
 135   1.0000      -0.246767        -6.7149
 136   1.0000      -0.244648        -6.6572
 137   1.0000      -0.244300        -6.6477
 138   1.0000      -0.236578        -6.4376
 139   1.0000      -0.234583        -6.3833
 140   1.0000      -0.233031        -6.3411
 141   1.0000      -0.220999        -6.0137
 142   1.0000      -0.217679        -5.9233
 143   1.0000      -0.215158        -5.8547
 144   1.0000      -0.200364        -5.4522
 145   1.0000      -0.200157        -5.4465
 146   0.0000      -0.176995        -4.8163
 147   0.0000      -0.170693        -4.6448
 148   0.0000      -0.169311        -4.6072
 149   0.0000      -0.138686        -3.7738
 150   0.0000      -0.119974        -3.2647

                 SPIN DOWN ORBITALS
  NO   OCC          E(Eh)            E(eV)
   0   1.0000    -215.302988     -5858.6922
   1   1.0000     -24.544500      -667.8898
   2   1.0000     -20.827917      -566.7564
   3   1.0000     -20.824672      -566.6681
   4   1.0000     -20.821582      -566.5840
   5   1.0000      -4.127251      -112.3082
   6   1.0000      -4.121276      -112.1456
   7   1.0000      -4.120797      -112.1326
   8   1.0000      -4.120775      -112.1320
   9   1.0000      -4.120156      -112.1151
  10   1.0000      -4.119114      -112.0868
  11   1.0000      -4.118235      -112.0629
  12   1.0000      -4.118036      -112.0574
  13   1.0000      -4.112461      -111.9058
  14   1.0000      -4.109663      -111.8296
  15   1.0000      -4.109614      -111.8283
  16   1.0000      -4.106087      -111.7323
  17   1.0000      -4.105890      -111.7270
  18   1.0000      -4.105770      -111.7237
  19   1.0000      -2.764349       -75.2218
  20   1.0000      -2.316960       -63.0477
  21   1.0000      -2.313163       -62.9444
  22   1.0000      -2.309534       -62.8456
  23   1.0000      -2.309528       -62.8454
  24   1.0000      -2.309041       -62.8322
  25   1.0000      -2.308821       -62.8262
  26   1.0000      -2.308337       -62.8130
  27   1.0000      -2.307694       -62.7955
  28   1.0000      -2.307369       -62.7867
  29   1.0000      -2.306965       -62.7757
  30   1.0000      -2.306576       -62.7651
  31   1.0000      -2.305946       -62.7480
  32   1.0000      -2.305777       -62.7434
  33   1.0000      -2.305272       -62.7296
  34   1.0000      -2.304918       -62.7200
  35   1.0000      -2.304896       -62.7194
  36   1.0000      -2.304768       -62.7159
  37   1.0000      -2.304525       -62.7093
  38   1.0000      -2.304448       -62.7072
  39   1.0000      -2.303669       -62.6860
  40   1.0000      -2.303148       -62.6718
  41   1.0000      -2.301293       -62.6214
  42   1.0000      -2.300281       -62.5938
  43   1.0000      -2.299990       -62.5859
  44   1.0000      -2.299923       -62.5841
  45   1.0000      -2.297337       -62.5137
  46   1.0000      -2.296934       -62.5027
  47   1.0000      -2.296788       -62.4988
  48   1.0000      -2.296510       -62.4912
  49   1.0000      -2.294690       -62.4417
  50   1.0000      -2.294423       -62.4344
  51   1.0000      -2.294384       -62.4334
  52   1.0000      -2.294252       -62.4298
  53   1.0000      -2.293389       -62.4063
  54   1.0000      -2.291766       -62.3621
  55   1.0000      -2.291633       -62.3585
  56   1.0000      -2.291566       -62.3567
  57   1.0000      -2.291422       -62.3528
  58   1.0000      -2.290851       -62.3372
  59   1.0000      -2.290744       -62.3343
  60   1.0000      -2.290681       -62.3326
  61   1.0000      -2.290187       -62.3192
  62   1.0000      -1.718406       -46.7602
  63   1.0000      -1.711144       -46.5626
  64   1.0000      -1.704360       -46.3780
  65   1.0000      -0.427626       -11.6363
  66   1.0000      -0.392050       -10.6682
  67   1.0000      -0.387625       -10.5478
  68   1.0000      -0.382372       -10.4049
  69   1.0000      -0.374990       -10.2040
  70   1.0000      -0.373019       -10.1504
  71   1.0000      -0.369642       -10.0585
  72   1.0000      -0.367172        -9.9913
  73   1.0000      -0.366397        -9.9702
  74   1.0000      -0.363969        -9.9041
  75   1.0000      -0.361632        -9.8405
  76   1.0000      -0.358753        -9.7622
  77   1.0000      -0.355898        -9.6845
  78   1.0000      -0.354201        -9.6383
  79   1.0000      -0.353813        -9.6277
  80   1.0000      -0.352378        -9.5887
  81   1.0000      -0.352178        -9.5832
  82   1.0000      -0.347088        -9.4447
  83   1.0000      -0.346641        -9.4326
  84   1.0000      -0.346061        -9.4168
  85   1.0000      -0.341270        -9.2864
  86   1.0000      -0.339970        -9.2511
  87   1.0000      -0.339076        -9.2267
  88   1.0000      -0.336626        -9.1600
  89   1.0000      -0.335749        -9.1362
  90   1.0000      -0.333223        -9.0674
  91   1.0000      -0.332523        -9.0484
  92   1.0000      -0.328985        -8.9521
  93   1.0000      -0.328670        -8.9436
  94   1.0000      -0.325790        -8.8652
  95   1.0000      -0.325567        -8.8591
  96   1.0000      -0.321300        -8.7430
  97   1.0000      -0.313623        -8.5341
  98   1.0000      -0.310454        -8.4479
  99   1.0000      -0.310077        -8.4376
 100   1.0000      -0.306137        -8.3304
 101   1.0000      -0.302110        -8.2208
 102   1.0000      -0.300616        -8.1802
 103   1.0000      -0.299633        -8.1534
 104   1.0000      -0.294379        -8.0105
 105   1.0000      -0.293668        -7.9911
 106   1.0000      -0.289709        -7.8834
 107   1.0000      -0.288134        -7.8405
 108   1.0000      -0.286355        -7.7921
 109   1.0000      -0.284931        -7.7534
 110   1.0000      -0.283764        -7.7216
 111   1.0000      -0.280781        -7.6404
 112   1.0000      -0.280520        -7.6333
 113   1.0000      -0.279482        -7.6051
 114   1.0000      -0.278290        -7.5727
 115   1.0000      -0.276195        -7.5156
 116   1.0000      -0.275356        -7.4928
 117   1.0000      -0.274275        -7.4634
 118   1.0000      -0.273214        -7.4345
 119   1.0000      -0.271841        -7.3972
 120   1.0000      -0.271223        -7.3804
 121   1.0000      -0.269152        -7.3240
 122   1.0000      -0.268656        -7.3105
 123   1.0000      -0.266267        -7.2455
 124   1.0000      -0.264411        -7.1950
 125   1.0000      -0.263610        -7.1732
 126   1.0000      -0.262690        -7.1481
 127   1.0000      -0.261241        -7.1087
 128   1.0000      -0.258506        -7.0343
 129   1.0000      -0.258125        -7.0239
 130   1.0000      -0.256560        -6.9814
 131   1.0000      -0.254008        -6.9119
 132   1.0000      -0.252142        -6.8611
 133   1.0000      -0.251777        -6.8512
 134   1.0000      -0.251003        -6.8301
 135   1.0000      -0.248363        -6.7583
 136   1.0000      -0.246520        -6.7081
 137   1.0000      -0.246267        -6.7013
 138   1.0000      -0.234706        -6.3867
 139   1.0000      -0.214303        -5.8315
 140   1.0000      -0.210966        -5.7407
 141   1.0000      -0.202929        -5.5220
 142   1.0000      -0.201330        -5.4785
 143   1.0000      -0.197733        -5.3806
 144   0.0000      -0.143152        -3.8954
 145   0.0000      -0.121359        -3.3023
 146   0.0000      -0.120699        -3.2844
 147   0.0000      -0.114576        -3.1178
 148   0.0000      -0.109301        -2.9742

MULLIKEN ATOMIC CHARGES AND SPIN POPULATIONS
--------------------------------------------
   0 Au:    0.351305    0.001586
   1 Au:    0.319799    0.003629
   2 Au:    0.353113   -0.000694
   3 Au:    0.445212   -0.102841
   4 Au:    0.232698   -0.095720
   5 Au:    0.440490   -0.151032
   6 Au:    0.449528   -0.099677
   7 Au:    0.435215   -0.053227
   8 Au:    0.413499   -0.011571
   9 Au:    0.437741   -0.103281
  10 Au:    0.373643   -0.125632
  11 Au:    0.438278   -0.054392
  12 Au:    0.413129   -0.011507
  13 Au:    0.416265   -0.069554
  14 Cr:   -5.519916    2.873915
Sum of atomic charges         :    0.0000000

LOEWDIN ATOMIC CHARGES AND SPIN POPULATIONS
-------------------------------------------
   0 Au:    0.077883   -0.050454
   1 Au:    0.109864   -0.026180
   2 Au:    0.078322   -0.051363
   3 Au:    0.105513   -0.115488
   4 Au:    0.053789   -0.089886
   5 Au:    0.152790   -0.150615
   6 Au:    0.106298   -0.115203
   7 Au:    0.119752   -0.096794
   8 Au:    0.125449   -0.068942
   9 Au:    0.091446   -0.092751
  10 Au:    0.100324   -0.105133
  11 Au:    0.119642   -0.097570
  12 Au:    0.125874   -0.069168
  13 Au:    0.076665   -0.085984
  14 Cr:   -1.443610    3.215533

  Mayer bond orders larger than 0.100000
B(  0-Au,  1-Au) :   0.2329 B(  0-Au,  3-Au) :   0.2214 B(  0-Au,  4-Au) :   0.1535
B(  0-Au,  9-Au) :   0.1421 B(  0-Au, 11-Au) :   0.1996 B(  0-Au, 14-Cr) :   0.4863
B(  1-Au,  2-Au) :   0.2314 B(  1-Au,  4-Au) :   0.3689 B(  1-Au,  9-Au) :   0.1186
B(  1-Au, 14-Cr) :   0.3839 B(  2-Au,  4-Au) :   0.1538 B(  2-Au,  6-Au) :   0.2216
B(  2-Au,  7-Au) :   0.2020 B(  2-Au,  9-Au) :   0.1382 B(  2-Au, 14-Cr) :   0.4869
B(  3-Au,  5-Au) :   0.1612 B(  3-Au, 12-Au) :   0.2213 B(  3-Au, 14-Cr) :   0.6581
B(  4-Au,  5-Au) :   0.3605 B(  4-Au, 14-Cr) :   0.6048 B(  5-Au,  6-Au) :   0.1629
B(  5-Au, 13-Au) :   0.1595 B(  5-Au, 14-Cr) :   0.5171 B(  6-Au,  8-Au) :   0.2216
B(  6-Au, 14-Cr) :   0.6577 B(  7-Au,  8-Au) :   0.2094 B(  7-Au,  9-Au) :   0.2388
B(  7-Au, 10-Au) :   0.1987 B(  7-Au, 14-Cr) :   0.6497 B(  8-Au, 10-Au) :   0.2276
B(  8-Au, 13-Au) :   0.2457 B(  8-Au, 14-Cr) :   0.4303 B(  9-Au, 11-Au) :   0.2344
B(  9-Au, 13-Au) :   0.1377 B(  9-Au, 14-Cr) :   0.5609 B( 10-Au, 11-Au) :   0.1979
B( 10-Au, 12-Au) :   0.2288 B( 10-Au, 13-Au) :   0.1130 B( 10-Au, 14-Cr) :   0.5582
B( 11-Au, 12-Au) :   0.2103 B( 11-Au, 14-Cr) :   0.6496 B( 12-Au, 13-Au) :   0.2463
B( 12-Au, 14-Cr) :   0.4266 B( 13-Au, 14-Cr) :   0.4585

FINAL SINGLE POINT ENERGY     -2946.314920322573

DIPOLE MOMENT
-------------
                                X             Y             Z
Electronic contribution:     -4.37128      -0.96114       5.94640
Nuclear contribution   :      4.43620       0.86775      -5.90057
                        -----------------------------------------
Total Dipole Moment    :      0.06492      -0.09339       0.04584
                        -----------------------------------------
Magnitude (a.u.)       :      0.12263
Magnitude (Debye)      :      0.31170

Rotational constants in cm-1:     0.001200     0.000989     0.000956
Rotational constants in MHz :    35.960629    29.653927    28.668786

                             ****ORCA TERMINATED NORMALLY****
TOTAL RUN TIME: 0 days 0 hours 41 minutes 58 seconds 557 msec
