                         Program Version 5.0.3 -  RELEASE  -
|  1> %pal nprocs 1 end
|  2>
|  3> !PBE def2-TZVP OPT UNO
|  4> !SLOWCONV KDIIS
|  5>
|  6> %geom maxiter 300 end
|  7>
|  8> *xyzfile 0 3 6.xyz                           ****END OF INPUT****
 Total Charge           Charge          ....    0
 Multiplicity           Mult            ....    3
 Number of Electrons    NEL             ....  252
FINAL SINGLE POINT ENERGY     -2674.141610770152
FINAL SINGLE POINT ENERGY     -2674.143652830419
FINAL SINGLE POINT ENERGY     -2674.145314919640
FINAL SINGLE POINT ENERGY     -2674.147277183987
FINAL SINGLE POINT ENERGY     -2674.148548126424
FINAL SINGLE POINT ENERGY     -2674.149584335209
FINAL SINGLE POINT ENERGY     -2674.150848169378
FINAL SINGLE POINT ENERGY     -2674.152264004894
FINAL SINGLE POINT ENERGY     -2674.153459902854
FINAL SINGLE POINT ENERGY     -2674.154488225532
FINAL SINGLE POINT ENERGY     -2674.157271995700
FINAL SINGLE POINT ENERGY     -2674.157293640148
FINAL SINGLE POINT ENERGY     -2674.157308057069
FINAL SINGLE POINT ENERGY     -2674.157318854925
FINAL SINGLE POINT ENERGY     -2674.157325616855
FINAL SINGLE POINT ENERGY     -2674.157329401220
FINAL SINGLE POINT ENERGY     -2674.157334729121
FINAL SINGLE POINT ENERGY     -2674.157338832134
FINAL SINGLE POINT ENERGY     -2674.157341404081
                    ***********************HURRAY********************

CARTESIAN COORDINATES (ANGSTROEM)
---------------------------------
  Au     9.323155    4.053740    7.345375
  Au     9.392476    6.653874    6.433883
  Au     5.837264    7.794274    7.336388
  Au     6.757499    5.279753    7.126872
  Au     6.217629   10.480425    7.793897
  Au     8.577967    9.113692    7.050736
  Au     8.580511   10.902230    9.247583
  Au     6.767471    8.954823   10.047320
  Au     7.862891    4.454733    9.662726
  Au     6.726518    6.481426   10.988812
  Au     9.869503    8.531714    9.746996
  Au    10.312272    5.930660    9.249333
  Cr     7.999354    7.020461    8.650912

 Multiplicity           Mult            ....    3
 Number of Electrons    NEL             ....  252
 Basis Dimension        Dim             ....  525

ORBITAL ENERGIES
----------------
                 SPIN UP ORBITALS
  NO   OCC          E(Eh)            E(eV)
   0   1.0000    -214.510907     -5837.1385
   1   1.0000     -24.315122      -661.6481
   2   1.0000     -20.679531      -562.7186
   3   1.0000     -20.679160      -562.7085
   4   1.0000     -20.677787      -562.6712
   5   1.0000      -4.027748      -109.6006
   6   1.0000      -4.027209      -109.5859
   7   1.0000      -4.023258      -109.4784
   8   1.0000      -4.023192      -109.4766
   9   1.0000      -4.022782      -109.4655
  10   1.0000      -4.022671      -109.4624
  11   1.0000      -4.020906      -109.4144
  12   1.0000      -4.020129      -109.3933
  13   1.0000      -4.019633      -109.3798
  14   1.0000      -4.018660      -109.3533
  15   1.0000      -4.016201      -109.2864
  16   1.0000      -4.011055      -109.1464
  17   1.0000      -2.809369       -76.4468
  18   1.0000      -2.246259       -61.1238
  19   1.0000      -2.245692       -61.1084
  20   1.0000      -2.243186       -61.0402
  21   1.0000      -2.243140       -61.0389
  22   1.0000      -2.240558       -60.9687
  23   1.0000      -2.240045       -60.9547
  24   1.0000      -2.239985       -60.9531
  25   1.0000      -2.239955       -60.9523
  26   1.0000      -2.238292       -60.9070
  27   1.0000      -2.238246       -60.9058
  28   1.0000      -2.237945       -60.8976
  29   1.0000      -2.236660       -60.8626
  30   1.0000      -2.236574       -60.8603
  31   1.0000      -2.235862       -60.8409
  32   1.0000      -2.235633       -60.8347
  33   1.0000      -2.235373       -60.8276
  34   1.0000      -2.235160       -60.8218
  35   1.0000      -2.234778       -60.8114
  36   1.0000      -2.233227       -60.7692
  37   1.0000      -2.233028       -60.7638
  38   1.0000      -2.232681       -60.7543
  39   1.0000      -2.232218       -60.7417
  40   1.0000      -2.231186       -60.7137
  41   1.0000      -2.230606       -60.6979
  42   1.0000      -2.229950       -60.6800
  43   1.0000      -2.229713       -60.6736
  44   1.0000      -2.229307       -60.6625
  45   1.0000      -2.228628       -60.6440
  46   1.0000      -2.228220       -60.6330
  47   1.0000      -2.228145       -60.6309
  48   1.0000      -2.228108       -60.6299
  49   1.0000      -2.227923       -60.6249
  50   1.0000      -2.227005       -60.5999
  51   1.0000      -2.226713       -60.5919
  52   1.0000      -2.225951       -60.5712
  53   1.0000      -2.216588       -60.3164
  54   1.0000      -1.799220       -48.9593
  55   1.0000      -1.799182       -48.9582
  56   1.0000      -1.796678       -48.8901
  57   1.0000      -0.412937       -11.2366
  58   1.0000      -0.384071       -10.4511
  59   1.0000      -0.369543       -10.0558
  60   1.0000      -0.365185        -9.9372
  61   1.0000      -0.364897        -9.9294
  62   1.0000      -0.361557        -9.8385
  63   1.0000      -0.358429        -9.7533
  64   1.0000      -0.350204        -9.5295
  65   1.0000      -0.349930        -9.5221
  66   1.0000      -0.344880        -9.3847
  67   1.0000      -0.341708        -9.2984
  68   1.0000      -0.338187        -9.2025
  69   1.0000      -0.335779        -9.1370
  70   1.0000      -0.334274        -9.0961
  71   1.0000      -0.332456        -9.0466
  72   1.0000      -0.329780        -8.9738
  73   1.0000      -0.329754        -8.9731
  74   1.0000      -0.327299        -8.9063
  75   1.0000      -0.326667        -8.8891
  76   1.0000      -0.321915        -8.7598
  77   1.0000      -0.321596        -8.7511
  78   1.0000      -0.317719        -8.6456
  79   1.0000      -0.315106        -8.5745
  80   1.0000      -0.310572        -8.4511
  81   1.0000      -0.309456        -8.4207
  82   1.0000      -0.306875        -8.3505
  83   1.0000      -0.303006        -8.2452
  84   1.0000      -0.299776        -8.1573
  85   1.0000      -0.296649        -8.0722
  86   1.0000      -0.295523        -8.0416
  87   1.0000      -0.288477        -7.8499
  88   1.0000      -0.287999        -7.8369
  89   1.0000      -0.285640        -7.7727
  90   1.0000      -0.285279        -7.7628
  91   1.0000      -0.282589        -7.6896
  92   1.0000      -0.280564        -7.6345
  93   1.0000      -0.278033        -7.5657
  94   1.0000      -0.276215        -7.5162
  95   1.0000      -0.275842        -7.5060
  96   1.0000      -0.274635        -7.4732
  97   1.0000      -0.271047        -7.3756
  98   1.0000      -0.270039        -7.3481
  99   1.0000      -0.268929        -7.3179
 100   1.0000      -0.267936        -7.2909
 101   1.0000      -0.265441        -7.2230
 102   1.0000      -0.264287        -7.1916
 103   1.0000      -0.262055        -7.1309
 104   1.0000      -0.260799        -7.0967
 105   1.0000      -0.260387        -7.0855
 106   1.0000      -0.257295        -7.0014
 107   1.0000      -0.255442        -6.9509
 108   1.0000      -0.254304        -6.9200
 109   1.0000      -0.252964        -6.8835
 110   1.0000      -0.252413        -6.8685
 111   1.0000      -0.250182        -6.8078
 112   1.0000      -0.247479        -6.7342
 113   1.0000      -0.244963        -6.6658
 114   1.0000      -0.243867        -6.6359
 115   1.0000      -0.241755        -6.5785
 116   1.0000      -0.240521        -6.5449
 117   1.0000      -0.238127        -6.4798
 118   1.0000      -0.237668        -6.4673
 119   1.0000      -0.234288        -6.3753
 120   1.0000      -0.232608        -6.3296
 121   1.0000      -0.225440        -6.1345
 122   1.0000      -0.217031        -5.9057
 123   1.0000      -0.213805        -5.8179
 124   1.0000      -0.208060        -5.6616
 125   1.0000      -0.206975        -5.6321
 126   1.0000      -0.202316        -5.5053
 127   0.0000      -0.178736        -4.8636
 128   0.0000      -0.171432        -4.6649
 129   0.0000      -0.163123        -4.4388
 130   0.0000      -0.135022        -3.6741
 131   0.0000      -0.128096        -3.4857

                 SPIN DOWN ORBITALS
  NO   OCC          E(Eh)            E(eV)
   0   1.0000    -214.510496     -5837.1273
   1   1.0000     -24.273632      -660.5191
   2   1.0000     -20.648592      -561.8767
   3   1.0000     -20.647186      -561.8385
   4   1.0000     -20.645563      -561.7943
   5   1.0000      -4.027369      -109.5903
   6   1.0000      -4.027272      -109.5876
   7   1.0000      -4.023237      -109.4779
   8   1.0000      -4.023175      -109.4762
   9   1.0000      -4.022579      -109.4599
  10   1.0000      -4.022445      -109.4563
  11   1.0000      -4.020739      -109.4099
  12   1.0000      -4.020587      -109.4057
  13   1.0000      -4.020102      -109.3925
  14   1.0000      -4.018326      -109.3442
  15   1.0000      -4.016313      -109.2894
  16   1.0000      -4.010717      -109.1372
  17   1.0000      -2.698120       -73.4196
  18   1.0000      -2.245861       -61.1130
  19   1.0000      -2.245622       -61.1065
  20   1.0000      -2.242882       -61.0319
  21   1.0000      -2.242832       -61.0306
  22   1.0000      -2.240063       -60.9552
  23   1.0000      -2.239534       -60.9408
  24   1.0000      -2.239431       -60.9380
  25   1.0000      -2.239049       -60.9276
  26   1.0000      -2.238229       -60.9053
  27   1.0000      -2.237946       -60.8976
  28   1.0000      -2.237715       -60.8913
  29   1.0000      -2.237003       -60.8720
  30   1.0000      -2.236894       -60.8690
  31   1.0000      -2.236210       -60.8504
  32   1.0000      -2.235694       -60.8363
  33   1.0000      -2.235589       -60.8335
  34   1.0000      -2.235229       -60.8237
  35   1.0000      -2.235077       -60.8195
  36   1.0000      -2.233533       -60.7775
  37   1.0000      -2.233024       -60.7637
  38   1.0000      -2.232724       -60.7555
  39   1.0000      -2.232451       -60.7481
  40   1.0000      -2.231739       -60.7287
  41   1.0000      -2.231180       -60.7135
  42   1.0000      -2.229972       -60.6806
  43   1.0000      -2.229764       -60.6750
  44   1.0000      -2.229406       -60.6652
  45   1.0000      -2.228760       -60.6476
  46   1.0000      -2.228159       -60.6313
  47   1.0000      -2.227938       -60.6253
  48   1.0000      -2.227724       -60.6194
  49   1.0000      -2.227637       -60.6171
  50   1.0000      -2.226940       -60.5981
  51   1.0000      -2.226585       -60.5885
  52   1.0000      -2.225842       -60.5683
  53   1.0000      -2.216108       -60.3034
  54   1.0000      -1.692148       -46.0457
  55   1.0000      -1.689231       -45.9663
  56   1.0000      -1.685317       -45.8598
  57   1.0000      -0.408540       -11.1169
  58   1.0000      -0.383394       -10.4327
  59   1.0000      -0.366799        -9.9811
  60   1.0000      -0.365130        -9.9357
  61   1.0000      -0.363873        -9.9015
  62   1.0000      -0.360210        -9.8018
  63   1.0000      -0.355952        -9.6859
  64   1.0000      -0.347967        -9.4687
  65   1.0000      -0.347616        -9.4591
  66   1.0000      -0.341287        -9.2869
  67   1.0000      -0.338893        -9.2218
  68   1.0000      -0.337526        -9.1845
  69   1.0000      -0.334607        -9.1051
  70   1.0000      -0.334279        -9.0962
  71   1.0000      -0.332954        -9.0601
  72   1.0000      -0.328309        -8.9338
  73   1.0000      -0.327770        -8.9191
  74   1.0000      -0.325583        -8.8596
  75   1.0000      -0.324467        -8.8292
  76   1.0000      -0.320944        -8.7333
  77   1.0000      -0.319356        -8.6901
  78   1.0000      -0.316961        -8.6249
  79   1.0000      -0.314234        -8.5507
  80   1.0000      -0.310645        -8.4531
  81   1.0000      -0.310486        -8.4487
  82   1.0000      -0.306775        -8.3478
  83   1.0000      -0.303142        -8.2489
  84   1.0000      -0.299288        -8.1440
  85   1.0000      -0.296512        -8.0685
  86   1.0000      -0.294663        -8.0182
  87   1.0000      -0.288630        -7.8540
  88   1.0000      -0.287779        -7.8309
  89   1.0000      -0.286323        -7.7912
  90   1.0000      -0.285178        -7.7601
  91   1.0000      -0.282412        -7.6848
  92   1.0000      -0.280426        -7.6308
  93   1.0000      -0.277035        -7.5385
  94   1.0000      -0.276448        -7.5225
  95   1.0000      -0.275845        -7.5061
  96   1.0000      -0.274654        -7.4737
  97   1.0000      -0.272012        -7.4018
  98   1.0000      -0.270187        -7.3522
  99   1.0000      -0.269665        -7.3380
 100   1.0000      -0.268802        -7.3145
 101   1.0000      -0.266596        -7.2544
 102   1.0000      -0.265018        -7.2115
 103   1.0000      -0.262728        -7.1492
 104   1.0000      -0.261329        -7.1111
 105   1.0000      -0.260883        -7.0990
 106   1.0000      -0.258164        -7.0250
 107   1.0000      -0.255917        -6.9639
 108   1.0000      -0.254934        -6.9371
 109   1.0000      -0.253811        -6.9066
 110   1.0000      -0.252851        -6.8804
 111   1.0000      -0.250738        -6.8229
 112   1.0000      -0.247960        -6.7473
 113   1.0000      -0.244889        -6.6638
 114   1.0000      -0.244316        -6.6482
 115   1.0000      -0.242089        -6.5876
 116   1.0000      -0.241405        -6.5690
 117   1.0000      -0.239219        -6.5095
 118   1.0000      -0.239099        -6.5062
 119   1.0000      -0.236073        -6.4239
 120   1.0000      -0.233482        -6.3534
 121   1.0000      -0.222015        -6.0413
 122   1.0000      -0.201317        -5.4781
 123   1.0000      -0.201005        -5.4696
 124   1.0000      -0.194023        -5.2796
 125   0.0000      -0.142259        -3.8711
 126   0.0000      -0.138803        -3.7770
 127   0.0000      -0.130424        -3.5490
 128   0.0000      -0.126111        -3.4317
 129   0.0000      -0.122771        -3.3408

MULLIKEN ATOMIC CHARGES AND SPIN POPULATIONS
--------------------------------------------
   0 Au:    0.452932   -0.031957
   1 Au:    0.375341   -0.071823
   2 Au:    0.240464   -0.049978
   3 Au:    0.236301   -0.076316
   4 Au:    0.335449   -0.089718
   5 Au:    0.255978   -0.107935
   6 Au:    0.327923   -0.090490
   7 Au:    0.123259   -0.089945
   8 Au:    0.355454   -0.108800
   9 Au:    0.169356   -0.034540
  10 Au:    0.244360   -0.050020
  11 Au:    0.244977   -0.076238
  12 Cr:   -3.361794    2.877760
Sum of atomic charges         :   -0.0000000

LOEWDIN ATOMIC CHARGES AND SPIN POPULATIONS
-------------------------------------------
   0 Au:    0.089153   -0.055814
   1 Au:    0.116077   -0.066883
   2 Au:    0.127159   -0.061093
   3 Au:    0.115392   -0.070945
   4 Au:    0.087242   -0.091045
   5 Au:    0.049678   -0.074620
   6 Au:    0.085232   -0.091516
   7 Au:    0.017752   -0.058345
   8 Au:    0.060066   -0.078127
   9 Au:    0.169987   -0.068190
  10 Au:    0.127932   -0.060696
  11 Au:    0.114676   -0.071880
  12 Cr:   -1.160346    2.849153

  Mayer bond orders larger than 0.100000
B(  0-Au,  1-Au) :   0.2911 B(  0-Au,  3-Au) :   0.1894 B(  0-Au,  8-Au) :   0.2363
B(  0-Au, 11-Au) :   0.1901 B(  0-Au, 12-Cr) :   0.2795 B(  1-Au,  5-Au) :   0.3651
B(  1-Au, 12-Cr) :   0.9148 B(  2-Au,  3-Au) :   0.4952 B(  2-Au,  4-Au) :   0.2592
B(  2-Au, 12-Cr) :   0.7670 B(  3-Au,  8-Au) :   0.1317 B(  3-Au, 12-Cr) :   0.6637
B(  4-Au,  5-Au) :   0.2333 B(  4-Au,  6-Au) :   0.1948 B(  4-Au,  7-Au) :   0.2670
B(  4-Au, 12-Cr) :   0.3413 B(  5-Au,  6-Au) :   0.2306 B(  5-Au, 12-Cr) :   0.6246
B(  6-Au,  7-Au) :   0.2631 B(  6-Au, 10-Au) :   0.2621 B(  6-Au, 12-Cr) :   0.3491
B(  7-Au,  9-Au) :   0.5031 B(  7-Au, 12-Cr) :   0.5151 B(  8-Au,  9-Au) :   0.3842
B(  8-Au, 11-Au) :   0.1293 B(  8-Au, 12-Cr) :   0.4809 B(  9-Au, 12-Cr) :   0.7187
B( 10-Au, 11-Au) :   0.4931 B( 10-Au, 12-Cr) :   0.7716 B( 11-Au, 12-Cr) :   0.6649

FINAL SINGLE POINT ENERGY     -2674.157342853873

DIPOLE MOMENT
-------------
                                X             Y             Z
Electronic contribution:      0.74159      12.99543      -5.37266
Nuclear contribution   :     -0.68129     -12.82929       5.20981
                        -----------------------------------------
Total Dipole Moment    :      0.06029       0.16614      -0.16286
                        -----------------------------------------
Magnitude (a.u.)       :      0.24034
Magnitude (Debye)      :      0.61089

Rotational constants in cm-1:     0.001793     0.001040     0.001036
Rotational constants in MHz :    53.756573    31.180733    31.053669

                             ****ORCA TERMINATED NORMALLY****
TOTAL RUN TIME: 0 days 3 hours 9 minutes 43 seconds 394 msec
