                         Program Version 5.0.3 -  RELEASE  -
|  1> !RI-B2PLYP def2-TZVP def2-TZVP/C
|  2> !RIJCOSX VERYSLOWCONV
|  3>
|  4> %scf
|  5>   AutoTRAHIter 200
|  6>   maxiter 400
|  7> end
|  8>
|  9>
| 10> %pal nprocs 6 end
| 11>
| 12> *xyzfile 0 5 pbe.xyz
| 13>
| 14> $new_job
| 15>
| 16> !RI-B2PLYP def2-TZVP def2-TZVP/C
| 17> !RIJCOSX VERYSLOWCONV
| 18>
| 19> %scf
| 20>   AutoTRAHIter 200
| 21>   maxiter 400
| 22> end
| 23>
| 24>
| 25> %pal nprocs 6 end
| 26>
| 27> *xyzfile 0 3 pbe.xyz
| 28>
| 29>
| 30>
| 31>
| 32>
| 33>                          ****END OF INPUT****
 Total Charge           Charge          ....    0
 Multiplicity           Mult            ....    5
 Number of Electrons    NEL             ....  216
MP2 TOTAL ENERGY:    -2619.328435630 Eh
FINAL SINGLE POINT ENERGY     -2619.328435630307

CARTESIAN COORDINATES (ANGSTROEM)
---------------------------------
  Au    10.746341    5.002736    5.049143
  Au     8.340528    7.443499    9.470186
  Au     7.254991    7.519236    6.774852
  Au     7.827527    5.275404    5.484041
  Au     9.614442    3.545775    7.131058
  Au     9.494827    5.009934    9.397671
  Au    11.075911    7.443816    8.825104
  Au     7.379847    9.760691    8.416175
  Au    11.432212    7.484836    5.884043
  Au     9.659249    9.127979    7.071932
  Fe     9.542505    6.227423    7.116707

 Multiplicity           Mult            ....    3
 Number of Electrons    NEL             ....  216
 Basis Dimension        Dim             ....  445

ORBITAL ENERGIES
----------------
                 SPIN UP ORBITALS
  NO   OCC          E(Eh)            E(eV)
   0   1.0000    -258.324883     -7029.3774
   1   1.0000     -30.886836      -840.4735
   2   1.0000     -26.597377      -723.7514
   3   1.0000     -26.591102      -723.5807
   4   1.0000     -26.566330      -722.9066
   5   1.0000      -4.398977      -119.7023
   6   1.0000      -4.398487      -119.6889
   7   1.0000      -4.398433      -119.6874
   8   1.0000      -4.395926      -119.6192
   9   1.0000      -4.395853      -119.6172
  10   1.0000      -4.393033      -119.5405
  11   1.0000      -4.389362      -119.4406
  12   1.0000      -4.384998      -119.3219
  13   1.0000      -4.383291      -119.2754
  14   1.0000      -4.383123      -119.2708
  15   1.0000      -3.898462      -106.0825
  16   1.0000      -2.633224       -71.6537
  17   1.0000      -2.619328       -71.2755
  18   1.0000      -2.568230       -69.8851
  19   1.0000      -2.522508       -68.6409
  20   1.0000      -2.521518       -68.6140
  21   1.0000      -2.520663       -68.5907
  22   1.0000      -2.517358       -68.5008
  23   1.0000      -2.516817       -68.4861
  24   1.0000      -2.516754       -68.4844
  25   1.0000      -2.516171       -68.4685
  26   1.0000      -2.515389       -68.4472
  27   1.0000      -2.515065       -68.4384
  28   1.0000      -2.514580       -68.4252
  29   1.0000      -2.513207       -68.3878
  30   1.0000      -2.512811       -68.3771
  31   1.0000      -2.512064       -68.3567
  32   1.0000      -2.511875       -68.3516
  33   1.0000      -2.510611       -68.3172
  34   1.0000      -2.508768       -68.2670
  35   1.0000      -2.508633       -68.2634
  36   1.0000      -2.507526       -68.2333
  37   1.0000      -2.506531       -68.2062
  38   1.0000      -2.505944       -68.1902
  39   1.0000      -2.504990       -68.1643
  40   1.0000      -2.504917       -68.1622
  41   1.0000      -2.503159       -68.1144
  42   1.0000      -2.502925       -68.1081
  43   1.0000      -2.501194       -68.0610
  44   1.0000      -2.500354       -68.0381
  45   1.0000      -2.499039       -68.0023
  46   1.0000      -2.497592       -67.9629
  47   1.0000      -2.497079       -67.9490
  48   1.0000      -2.496285       -67.9274
  49   1.0000      -0.550450       -14.9785
  50   1.0000      -0.549624       -14.9560
  51   1.0000      -0.532981       -14.5031
  52   1.0000      -0.522571       -14.2199
  53   1.0000      -0.499625       -13.5955
  54   1.0000      -0.483632       -13.1603
  55   1.0000      -0.469329       -12.7711
  56   1.0000      -0.457691       -12.4544
  57   1.0000      -0.454551       -12.3689
  58   1.0000      -0.447464       -12.1761
  59   1.0000      -0.445086       -12.1114
  60   1.0000      -0.443037       -12.0556
  61   1.0000      -0.437391       -11.9020
  62   1.0000      -0.435685       -11.8556
  63   1.0000      -0.434904       -11.8343
  64   1.0000      -0.428124       -11.6498
  65   1.0000      -0.427153       -11.6234
  66   1.0000      -0.425300       -11.5730
  67   1.0000      -0.423789       -11.5319
  68   1.0000      -0.416593       -11.3361
  69   1.0000      -0.414390       -11.2761
  70   1.0000      -0.410275       -11.1641
  71   1.0000      -0.401845       -10.9348
  72   1.0000      -0.399541       -10.8721
  73   1.0000      -0.398626       -10.8472
  74   1.0000      -0.397564       -10.8183
  75   1.0000      -0.394498       -10.7348
  76   1.0000      -0.392508       -10.6807
  77   1.0000      -0.388499       -10.5716
  78   1.0000      -0.384556       -10.4643
  79   1.0000      -0.383104       -10.4248
  80   1.0000      -0.380413       -10.3516
  81   1.0000      -0.379539       -10.3278
  82   1.0000      -0.378303       -10.2941
  83   1.0000      -0.376482       -10.2446
  84   1.0000      -0.370870       -10.0919
  85   1.0000      -0.370641       -10.0856
  86   1.0000      -0.365260        -9.9392
  87   1.0000      -0.364734        -9.9249
  88   1.0000      -0.364095        -9.9075
  89   1.0000      -0.362431        -9.8623
  90   1.0000      -0.361008        -9.8235
  91   1.0000      -0.358759        -9.7623
  92   1.0000      -0.355940        -9.6856
  93   1.0000      -0.355203        -9.6656
  94   1.0000      -0.353089        -9.6080
  95   1.0000      -0.352301        -9.5866
  96   1.0000      -0.351990        -9.5781
  97   1.0000      -0.347588        -9.4584
  98   1.0000      -0.346191        -9.4203
  99   1.0000      -0.343331        -9.3425
 100   1.0000      -0.341418        -9.2905
 101   1.0000      -0.331043        -9.0081
 102   1.0000      -0.329419        -8.9639
 103   1.0000      -0.322437        -8.7740
 104   1.0000      -0.319952        -8.7063
 105   1.0000      -0.309419        -8.4197
 106   1.0000      -0.276901        -7.5349
 107   1.0000      -0.269290        -7.3278
 108   1.0000      -0.220569        -6.0020
 109   0.0000      -0.110235        -2.9996
 110   0.0000      -0.095750        -2.6055
 111   0.0000      -0.071627        -1.9491
 112   0.0000      -0.064850        -1.7647
 113   0.0000      -0.055632        -1.5138

                 SPIN DOWN ORBITALS
  NO   OCC          E(Eh)            E(eV)
   0   1.0000    -258.322820     -7029.3213
   1   1.0000     -30.794746      -837.9676
   2   1.0000     -26.504246      -721.2172
   3   1.0000     -26.502691      -721.1749
   4   1.0000     -26.495551      -720.9806
   5   1.0000      -4.399756      -119.7234
   6   1.0000      -4.399092      -119.7054
   7   1.0000      -4.399040      -119.7040
   8   1.0000      -4.395828      -119.6166
   9   1.0000      -4.395754      -119.6145
  10   1.0000      -4.393234      -119.5460
  11   1.0000      -4.390196      -119.4633
  12   1.0000      -4.384704      -119.3139
  13   1.0000      -4.384104      -119.2975
  14   1.0000      -4.383936      -119.2930
  15   1.0000      -3.656008       -99.4850
  16   1.0000      -2.521956       -68.6259
  17   1.0000      -2.521265       -68.6071
  18   1.0000      -2.519778       -68.5667
  19   1.0000      -2.516892       -68.4881
  20   1.0000      -2.516523       -68.4781
  21   1.0000      -2.515845       -68.4596
  22   1.0000      -2.515387       -68.4472
  23   1.0000      -2.514959       -68.4355
  24   1.0000      -2.514596       -68.4256
  25   1.0000      -2.514338       -68.4186
  26   1.0000      -2.513575       -68.3978
  27   1.0000      -2.512924       -68.3801
  28   1.0000      -2.512814       -68.3771
  29   1.0000      -2.512387       -68.3655
  30   1.0000      -2.510546       -68.3154
  31   1.0000      -2.508727       -68.2659
  32   1.0000      -2.508285       -68.2539
  33   1.0000      -2.508139       -68.2499
  34   1.0000      -2.506641       -68.2092
  35   1.0000      -2.505909       -68.1892
  36   1.0000      -2.505363       -68.1744
  37   1.0000      -2.504537       -68.1519
  38   1.0000      -2.503916       -68.1350
  39   1.0000      -2.502315       -68.0914
  40   1.0000      -2.501441       -68.0677
  41   1.0000      -2.500463       -68.0410
  42   1.0000      -2.499641       -68.0187
  43   1.0000      -2.497478       -67.9598
  44   1.0000      -2.497096       -67.9494
  45   1.0000      -2.496372       -67.9297
  46   1.0000      -2.336551       -63.5808
  47   1.0000      -2.327929       -63.3462
  48   1.0000      -2.325633       -63.2837
  49   1.0000      -0.493577       -13.4309
  50   1.0000      -0.473410       -12.8821
  51   1.0000      -0.468311       -12.7434
  52   1.0000      -0.460622       -12.5342
  53   1.0000      -0.453562       -12.3420
  54   1.0000      -0.450098       -12.2478
  55   1.0000      -0.449665       -12.2360
  56   1.0000      -0.445789       -12.1305
  57   1.0000      -0.441346       -12.0096
  58   1.0000      -0.439681       -11.9643
  59   1.0000      -0.438367       -11.9286
  60   1.0000      -0.433062       -11.7842
  61   1.0000      -0.432085       -11.7576
  62   1.0000      -0.427774       -11.6403
  63   1.0000      -0.425088       -11.5672
  64   1.0000      -0.422229       -11.4894
  65   1.0000      -0.419639       -11.4190
  66   1.0000      -0.412276       -11.2186
  67   1.0000      -0.409634       -11.1467
  68   1.0000      -0.409554       -11.1445
  69   1.0000      -0.406991       -11.0748
  70   1.0000      -0.406552       -11.0628
  71   1.0000      -0.401202       -10.9173
  72   1.0000      -0.398129       -10.8337
  73   1.0000      -0.393432       -10.7058
  74   1.0000      -0.387568       -10.5463
  75   1.0000      -0.386765       -10.5244
  76   1.0000      -0.383456       -10.4344
  77   1.0000      -0.381333       -10.3766
  78   1.0000      -0.381264       -10.3747
  79   1.0000      -0.376360       -10.2413
  80   1.0000      -0.374601       -10.1934
  81   1.0000      -0.369481       -10.0541
  82   1.0000      -0.367919       -10.0116
  83   1.0000      -0.366389        -9.9699
  84   1.0000      -0.366351        -9.9689
  85   1.0000      -0.363891        -9.9020
  86   1.0000      -0.362751        -9.8710
  87   1.0000      -0.359340        -9.7781
  88   1.0000      -0.358068        -9.7435
  89   1.0000      -0.354919        -9.6578
  90   1.0000      -0.354790        -9.6543
  91   1.0000      -0.352754        -9.5989
  92   1.0000      -0.350499        -9.5376
  93   1.0000      -0.349688        -9.5155
  94   1.0000      -0.347633        -9.4596
  95   1.0000      -0.346140        -9.4189
  96   1.0000      -0.335294        -9.1238
  97   1.0000      -0.332879        -9.0581
  98   1.0000      -0.328701        -8.9444
  99   1.0000      -0.323246        -8.7960
 100   1.0000      -0.322157        -8.7663
 101   1.0000      -0.317458        -8.6385
 102   1.0000      -0.295049        -8.0287
 103   1.0000      -0.281034        -7.6473
 104   1.0000      -0.231571        -6.3014
 105   1.0000      -0.212784        -5.7901
 106   1.0000      -0.198210        -5.3936
 107   0.0000      -0.082853        -2.2546
 108   0.0000      -0.072268        -1.9665
 109   0.0000      -0.071471        -1.9448
 110   0.0000      -0.043162        -1.1745
 111   0.0000      -0.013629        -0.3709

MULLIKEN ATOMIC CHARGES AND SPIN POPULATIONS
--------------------------------------------
   0 Au:    0.166190   -0.265793
   1 Au:    0.000703   -0.193580
   2 Au:   -0.058096    0.006648
   3 Au:    0.208689   -0.089840
   4 Au:    0.163119   -0.263297
   5 Au:    0.186463   -0.179222
   6 Au:    0.215468   -0.260462
   7 Au:    0.313100    0.045713
   8 Au:    0.186172   -0.181941
   9 Au:    0.000710   -0.188475
  10 Fe:   -1.382518    3.570250
Sum of atomic charges         :   -0.0000000

LOEWDIN ATOMIC CHARGES AND SPIN POPULATIONS
-------------------------------------------
   0 Au:    0.010286   -0.241698
   1 Au:   -0.050730   -0.144975
   2 Au:   -0.027351   -0.015153
   3 Au:    0.048623   -0.081759
   4 Au:    0.011156   -0.239623
   5 Au:    0.066487   -0.195564
   6 Au:    0.070720   -0.187252
   7 Au:    0.112690   -0.026351
   8 Au:    0.066708   -0.195487
   9 Au:   -0.049902   -0.142162
  10 Fe:   -0.258687    3.470023

  Mayer bond orders larger than 0.100000
B(  0-Au,  4-Au) :   0.2830 B(  0-Au,  8-Au) :   0.2442 B(  0-Au, 10-Fe) :   0.4506
B(  1-Au,  2-Au) :   0.1882 B(  1-Au,  5-Au) :   0.3304 B(  1-Au,  6-Au) :   0.1903
B(  1-Au,  7-Au) :   0.3809 B(  1-Au,  9-Au) :   0.1626 B(  1-Au, 10-Fe) :   0.3433
B(  2-Au,  3-Au) :   0.4369 B(  2-Au,  7-Au) :   0.2900 B(  2-Au,  9-Au) :   0.1879
B(  2-Au, 10-Fe) :   0.4800 B(  3-Au, 10-Fe) :   0.5802 B(  4-Au,  5-Au) :   0.2461
B(  4-Au, 10-Fe) :   0.4533 B(  5-Au, 10-Fe) :   0.5199 B(  6-Au,  9-Au) :   0.1903
B(  6-Au, 10-Fe) :   0.5416 B(  7-Au,  9-Au) :   0.3811 B(  8-Au,  9-Au) :   0.3294
B(  8-Au, 10-Fe) :   0.5222 B(  9-Au, 10-Fe) :   0.3446

MP2 TOTAL ENERGY:    -2619.332489622 Eh
FINAL SINGLE POINT ENERGY     -2619.332489621723

DIPOLE MOMENT
-------------
                                X             Y             Z
Electronic contribution:     -9.78300      20.55688       9.11658
Nuclear contribution   :      9.84517     -20.22563      -8.85262
                        -----------------------------------------
Total Dipole Moment    :      0.06217       0.33126       0.26396
                        -----------------------------------------
Magnitude (a.u.)       :      0.42810
Magnitude (Debye)      :      1.08815

Rotational constants in cm-1:     0.002231     0.001434     0.001389
Rotational constants in MHz :    66.892468    42.982824    41.632414

                             ****ORCA TERMINATED NORMALLY****
TOTAL RUN TIME: 0 days 0 hours 17 minutes 9 seconds 367 msec
