                         Program Version 5.0.3 -  RELEASE  -
|  1> !PBE def2-TZVP VERYSLOWCONV
|  2>
|  3> %scf
|  4>   AutoTRAHIter 200
|  5>   maxiter 400
|  6> end
|  7>
|  8>
|  9> %pal nprocs 6 end
| 10>
| 11> *xyzfile 0 5 pbe.xyz
| 12>
| 13> $new_job
| 14>
| 15> !PBE def2-TZVP VERYSLOWCONV
| 16>
| 17> %scf
| 18>   AutoTRAHIter 200
| 19>   maxiter 400
| 20> end
| 21>
| 22>
| 23> %pal nprocs 6 end
| 24>
| 25> *xyzfile 0 3 pbe.xyz
| 26>
| 27>
| 28>
| 29>
| 30>
| 31>                          ****END OF INPUT****
 Total Charge           Charge          ....    0
 Multiplicity           Mult            ....    5
 Number of Electrons    NEL             ....  216
FINAL SINGLE POINT ENERGY     -2621.725974318805

CARTESIAN COORDINATES (ANGSTROEM)
---------------------------------
  Au    10.746341    5.002736    5.049143
  Au     8.340528    7.443499    9.470186
  Au     7.254991    7.519236    6.774852
  Au     7.827527    5.275404    5.484041
  Au     9.614442    3.545775    7.131058
  Au     9.494827    5.009934    9.397671
  Au    11.075911    7.443816    8.825104
  Au     7.379847    9.760691    8.416175
  Au    11.432212    7.484836    5.884043
  Au     9.659249    9.127979    7.071932
  Fe     9.542505    6.227423    7.116707

 Multiplicity           Mult            ....    3
 Number of Electrons    NEL             ....  216
 Basis Dimension        Dim             ....  445

ORBITAL ENERGIES
----------------
                 SPIN UP ORBITALS
  NO   OCC          E(Eh)            E(eV)
   0   1.0000    -254.742565     -6931.8976
   1   1.0000     -29.580666      -804.9308
   2   1.0000     -25.520394      -694.4452
   3   1.0000     -25.518887      -694.4042
   4   1.0000     -25.509685      -694.1538
   5   1.0000      -4.024496      -109.5121
   6   1.0000      -4.024438      -109.5105
   7   1.0000      -4.021957      -109.4430
   8   1.0000      -4.021783      -109.4383
   9   1.0000      -4.021611      -109.4336
  10   1.0000      -4.020907      -109.4144
  11   1.0000      -4.020552      -109.4048
  12   1.0000      -4.011704      -109.1640
  13   1.0000      -4.011586      -109.1608
  14   1.0000      -4.011455      -109.1572
  15   1.0000      -3.356732       -91.3413
  16   1.0000      -2.243780       -61.0563
  17   1.0000      -2.243292       -61.0431
  18   1.0000      -2.239898       -60.9507
  19   1.0000      -2.239087       -60.9287
  20   1.0000      -2.238123       -60.9024
  21   1.0000      -2.237890       -60.8961
  22   1.0000      -2.237482       -60.8850
  23   1.0000      -2.236795       -60.8663
  24   1.0000      -2.236717       -60.8642
  25   1.0000      -2.236530       -60.8591
  26   1.0000      -2.235362       -60.8273
  27   1.0000      -2.234776       -60.8113
  28   1.0000      -2.234594       -60.8064
  29   1.0000      -2.233595       -60.7792
  30   1.0000      -2.232961       -60.7620
  31   1.0000      -2.232552       -60.7508
  32   1.0000      -2.231560       -60.7238
  33   1.0000      -2.229954       -60.6801
  34   1.0000      -2.229630       -60.6713
  35   1.0000      -2.229269       -60.6615
  36   1.0000      -2.229104       -60.6570
  37   1.0000      -2.228746       -60.6473
  38   1.0000      -2.228541       -60.6417
  39   1.0000      -2.227135       -60.6034
  40   1.0000      -2.226341       -60.5818
  41   1.0000      -2.224865       -60.5416
  42   1.0000      -2.224427       -60.5297
  43   1.0000      -2.219673       -60.4004
  44   1.0000      -2.219442       -60.3941
  45   1.0000      -2.218755       -60.3754
  46   1.0000      -2.178917       -59.2913
  47   1.0000      -2.175354       -59.1944
  48   1.0000      -2.157259       -58.7020
  49   1.0000      -0.411170       -11.1885
  50   1.0000      -0.377197       -10.2641
  51   1.0000      -0.373748       -10.1702
  52   1.0000      -0.362524        -9.8648
  53   1.0000      -0.356695        -9.7062
  54   1.0000      -0.352206        -9.5840
  55   1.0000      -0.349473        -9.5097
  56   1.0000      -0.348722        -9.4892
  57   1.0000      -0.343801        -9.3553
  58   1.0000      -0.337394        -9.1810
  59   1.0000      -0.331821        -9.0293
  60   1.0000      -0.330671        -8.9980
  61   1.0000      -0.328747        -8.9457
  62   1.0000      -0.325551        -8.8587
  63   1.0000      -0.325292        -8.8516
  64   1.0000      -0.321466        -8.7475
  65   1.0000      -0.318658        -8.6711
  66   1.0000      -0.317381        -8.6364
  67   1.0000      -0.311591        -8.4788
  68   1.0000      -0.311358        -8.4725
  69   1.0000      -0.307103        -8.3567
  70   1.0000      -0.306690        -8.3455
  71   1.0000      -0.298941        -8.1346
  72   1.0000      -0.297737        -8.1018
  73   1.0000      -0.293779        -7.9941
  74   1.0000      -0.292667        -7.9639
  75   1.0000      -0.287852        -7.8328
  76   1.0000      -0.283990        -7.7277
  77   1.0000      -0.282841        -7.6965
  78   1.0000      -0.281935        -7.6718
  79   1.0000      -0.279176        -7.5968
  80   1.0000      -0.277038        -7.5386
  81   1.0000      -0.276421        -7.5218
  82   1.0000      -0.273113        -7.4318
  83   1.0000      -0.270458        -7.3595
  84   1.0000      -0.269846        -7.3429
  85   1.0000      -0.267126        -7.2689
  86   1.0000      -0.265762        -7.2317
  87   1.0000      -0.261219        -7.1081
  88   1.0000      -0.260886        -7.0991
  89   1.0000      -0.258713        -7.0399
  90   1.0000      -0.256777        -6.9873
  91   1.0000      -0.255704        -6.9581
  92   1.0000      -0.254538        -6.9263
  93   1.0000      -0.254339        -6.9209
  94   1.0000      -0.252604        -6.8737
  95   1.0000      -0.250184        -6.8078
  96   1.0000      -0.248992        -6.7754
  97   1.0000      -0.246522        -6.7082
  98   1.0000      -0.242464        -6.5978
  99   1.0000      -0.241361        -6.5678
 100   1.0000      -0.240262        -6.5379
 101   1.0000      -0.237505        -6.4628
 102   1.0000      -0.236998        -6.4490
 103   1.0000      -0.235266        -6.4019
 104   1.0000      -0.232391        -6.3237
 105   1.0000      -0.228785        -6.2256
 106   1.0000      -0.228131        -6.2078
 107   1.0000      -0.219852        -5.9825
 108   1.0000      -0.197891        -5.3849
 109   0.0000      -0.176037        -4.7902
 110   0.0000      -0.162348        -4.4177
 111   0.0000      -0.140473        -3.8225
 112   0.0000      -0.128979        -3.5097
 113   0.0000      -0.125371        -3.4115

                 SPIN DOWN ORBITALS
  NO   OCC          E(Eh)            E(eV)
   0   1.0000    -254.741893     -6931.8793
   1   1.0000     -29.525504      -803.4298
   2   1.0000     -25.477322      -693.2732
   3   1.0000     -25.476516      -693.2512
   4   1.0000     -25.470142      -693.0778
   5   1.0000      -4.024730      -109.5185
   6   1.0000      -4.024669      -109.5168
   7   1.0000      -4.022170      -109.4488
   8   1.0000      -4.021404      -109.4280
   9   1.0000      -4.021231      -109.4232
  10   1.0000      -4.021202      -109.4225
  11   1.0000      -4.020728      -109.4096
  12   1.0000      -4.011724      -109.1646
  13   1.0000      -4.011563      -109.1602
  14   1.0000      -4.011199      -109.1503
  15   1.0000      -3.231688       -87.9387
  16   1.0000      -2.243953       -61.0611
  17   1.0000      -2.243402       -61.0461
  18   1.0000      -2.239737       -60.9463
  19   1.0000      -2.238813       -60.9212
  20   1.0000      -2.237398       -60.8827
  21   1.0000      -2.237227       -60.8780
  22   1.0000      -2.236839       -60.8675
  23   1.0000      -2.236569       -60.8601
  24   1.0000      -2.236477       -60.8576
  25   1.0000      -2.236333       -60.8537
  26   1.0000      -2.235798       -60.8392
  27   1.0000      -2.235275       -60.8249
  28   1.0000      -2.234729       -60.8101
  29   1.0000      -2.233601       -60.7794
  30   1.0000      -2.233390       -60.7736
  31   1.0000      -2.233104       -60.7659
  32   1.0000      -2.232085       -60.7381
  33   1.0000      -2.230493       -60.6948
  34   1.0000      -2.229198       -60.6596
  35   1.0000      -2.229038       -60.6552
  36   1.0000      -2.228856       -60.6503
  37   1.0000      -2.228778       -60.6481
  38   1.0000      -2.227887       -60.6239
  39   1.0000      -2.226779       -60.5937
  40   1.0000      -2.226603       -60.5889
  41   1.0000      -2.225268       -60.5526
  42   1.0000      -2.224469       -60.5309
  43   1.0000      -2.219825       -60.4045
  44   1.0000      -2.219438       -60.3940
  45   1.0000      -2.218681       -60.3734
  46   1.0000      -2.052868       -55.8614
  47   1.0000      -2.050848       -55.8064
  48   1.0000      -2.040592       -55.5273
  49   1.0000      -0.408079       -11.1044
  50   1.0000      -0.375980       -10.2309
  51   1.0000      -0.371337       -10.1046
  52   1.0000      -0.362310        -9.8590
  53   1.0000      -0.353877        -9.6295
  54   1.0000      -0.350131        -9.5275
  55   1.0000      -0.345227        -9.3941
  56   1.0000      -0.342714        -9.3257
  57   1.0000      -0.338336        -9.2066
  58   1.0000      -0.337269        -9.1776
  59   1.0000      -0.332551        -9.0492
  60   1.0000      -0.330779        -9.0010
  61   1.0000      -0.323881        -8.8132
  62   1.0000      -0.323161        -8.7937
  63   1.0000      -0.320101        -8.7104
  64   1.0000      -0.318593        -8.6694
  65   1.0000      -0.317306        -8.6343
  66   1.0000      -0.311146        -8.4667
  67   1.0000      -0.308460        -8.3936
  68   1.0000      -0.307983        -8.3807
  69   1.0000      -0.306230        -8.3329
  70   1.0000      -0.304215        -8.2781
  71   1.0000      -0.300324        -8.1722
  72   1.0000      -0.295462        -8.0399
  73   1.0000      -0.294236        -8.0066
  74   1.0000      -0.291701        -7.9376
  75   1.0000      -0.285184        -7.7603
  76   1.0000      -0.285152        -7.7594
  77   1.0000      -0.283041        -7.7019
  78   1.0000      -0.281503        -7.6601
  79   1.0000      -0.279906        -7.6166
  80   1.0000      -0.276263        -7.5175
  81   1.0000      -0.273944        -7.4544
  82   1.0000      -0.269795        -7.3415
  83   1.0000      -0.269080        -7.3220
  84   1.0000      -0.268091        -7.2951
  85   1.0000      -0.267069        -7.2673
  86   1.0000      -0.266979        -7.2649
  87   1.0000      -0.261448        -7.1144
  88   1.0000      -0.261044        -7.1034
  89   1.0000      -0.259434        -7.0596
  90   1.0000      -0.256837        -6.9889
  91   1.0000      -0.256433        -6.9779
  92   1.0000      -0.254701        -6.9308
  93   1.0000      -0.253276        -6.8920
  94   1.0000      -0.252918        -6.8822
  95   1.0000      -0.251004        -6.8302
  96   1.0000      -0.246016        -6.6944
  97   1.0000      -0.245568        -6.6822
  98   1.0000      -0.241180        -6.5629
  99   1.0000      -0.236810        -6.4439
 100   1.0000      -0.235160        -6.3990
 101   1.0000      -0.234988        -6.3944
 102   1.0000      -0.232071        -6.3150
 103   1.0000      -0.207663        -5.6508
 104   1.0000      -0.194721        -5.2986
 105   1.0000      -0.186997        -5.0884
 106   1.0000      -0.170273        -4.6334
 107   0.0000      -0.152915        -4.1610
 108   0.0000      -0.151463        -4.1215
 109   0.0000      -0.143924        -3.9164
 110   0.0000      -0.142234        -3.8704
 111   0.0000      -0.136496        -3.7142

MULLIKEN ATOMIC CHARGES AND SPIN POPULATIONS
--------------------------------------------
   0 Au:    0.211531   -0.152760
   1 Au:    0.005073   -0.148957
   2 Au:    0.007392    0.000022
   3 Au:    0.214352   -0.042413
   4 Au:    0.207829   -0.149036
   5 Au:    0.251198   -0.071886
   6 Au:    0.240434   -0.165549
   7 Au:    0.352537    0.037451
   8 Au:    0.252364   -0.073403
   9 Au:    0.003896   -0.147060
  10 Fe:   -1.746606    2.913591
Sum of atomic charges         :   -0.0000000

LOEWDIN ATOMIC CHARGES AND SPIN POPULATIONS
-------------------------------------------
   0 Au:    0.044112   -0.150647
   1 Au:   -0.025290   -0.099541
   2 Au:    0.009804   -0.005177
   3 Au:    0.080488   -0.041152
   4 Au:    0.045113   -0.147268
   5 Au:    0.099270   -0.108542
   6 Au:    0.096538   -0.136328
   7 Au:    0.100135   -0.012885
   8 Au:    0.099734   -0.109513
   9 Au:   -0.024986   -0.098399
  10 Fe:   -0.524918    2.909452

  Mayer bond orders larger than 0.100000
B(  0-Au,  3-Au) :   0.1016 B(  0-Au,  4-Au) :   0.3139 B(  0-Au,  8-Au) :   0.2765
B(  0-Au, 10-Fe) :   0.5321 B(  1-Au,  2-Au) :   0.1994 B(  1-Au,  5-Au) :   0.3701
B(  1-Au,  6-Au) :   0.2015 B(  1-Au,  7-Au) :   0.4053 B(  1-Au,  9-Au) :   0.1478
B(  1-Au, 10-Fe) :   0.4336 B(  2-Au,  3-Au) :   0.4192 B(  2-Au,  7-Au) :   0.3119
B(  2-Au,  9-Au) :   0.1989 B(  2-Au, 10-Fe) :   0.5687 B(  3-Au, 10-Fe) :   0.6702
B(  4-Au,  5-Au) :   0.2791 B(  4-Au, 10-Fe) :   0.5367 B(  5-Au,  6-Au) :   0.1230
B(  5-Au, 10-Fe) :   0.5764 B(  6-Au,  8-Au) :   0.1222 B(  6-Au,  9-Au) :   0.1998
B(  6-Au, 10-Fe) :   0.6614 B(  7-Au,  9-Au) :   0.4048 B(  8-Au,  9-Au) :   0.3693
B(  8-Au, 10-Fe) :   0.5787 B(  9-Au, 10-Fe) :   0.4374

FINAL SINGLE POINT ENERGY     -2621.721477988057

DIPOLE MOMENT
-------------
                                X             Y             Z
Electronic contribution:     -9.82991      20.51781       9.06840
Nuclear contribution   :      9.84517     -20.22563      -8.85262
                        -----------------------------------------
Total Dipole Moment    :      0.01525       0.29219       0.21579
                        -----------------------------------------
Magnitude (a.u.)       :      0.36355
Magnitude (Debye)      :      0.92407

Rotational constants in cm-1:     0.002231     0.001434     0.001389
Rotational constants in MHz :    66.892468    42.982824    41.632414

                             ****ORCA TERMINATED NORMALLY****
TOTAL RUN TIME: 0 days 0 hours 7 minutes 18 seconds 890 msec
