                         Program Version 5.0.3 -  RELEASE  -
|  1> !R2SCAN def2-TZVP VERYSLOWCONV
|  2>
|  3> %scf
|  4>   AutoTRAHIter 400
|  5>   maxiter 800
|  6> end
|  7>
|  8> %pal nprocs 6 end
|  9>
| 10> *xyzfile 0 5 pbe.xyz
| 11>
| 12> $new_job
| 13>
| 14> !R2SCAN def2-TZVP VERYSLOWCONV
| 15> %scf
| 16>   AutoTRAHIter 400
| 17>   maxiter 800
| 18> end
| 19>
| 20>
| 21> %pal nprocs 6 end
| 22>
| 23> *xyzfile 0 3 pbe.xyz
| 24>
| 25>
| 26>
| 27>
| 28>
| 29>                          ****END OF INPUT****
 Total Charge           Charge          ....    0
 Multiplicity           Mult            ....    5
 Number of Electrons    NEL             ....  216
FINAL SINGLE POINT ENERGY     -2622.127437013650

CARTESIAN COORDINATES (ANGSTROEM)
---------------------------------
  Au    10.746341    5.002736    5.049143
  Au     8.340528    7.443499    9.470186
  Au     7.254991    7.519236    6.774852
  Au     7.827527    5.275404    5.484041
  Au     9.614442    3.545775    7.131058
  Au     9.494827    5.009934    9.397671
  Au    11.075911    7.443816    8.825104
  Au     7.379847    9.760691    8.416175
  Au    11.432212    7.484836    5.884043
  Au     9.659249    9.127979    7.071932
  Fe     9.542505    6.227423    7.116707

 Multiplicity           Mult            ....    3
 Number of Electrons    NEL             ....  216
 Basis Dimension        Dim             ....  445

ORBITAL ENERGIES
----------------
                 SPIN UP ORBITALS
  NO   OCC          E(Eh)            E(eV)
   0   1.0000    -255.624631     -6955.8999
   1   1.0000     -29.924037      -814.2744
   2   1.0000     -25.759497      -700.9515
   3   1.0000     -25.757778      -700.9048
   4   1.0000     -25.746302      -700.5925
   5   1.0000      -4.115181      -111.9798
   6   1.0000      -4.115137      -111.9786
   7   1.0000      -4.113395      -111.9312
   8   1.0000      -4.113335      -111.9295
   9   1.0000      -4.113121      -111.9237
  10   1.0000      -4.111795      -111.8876
  11   1.0000      -4.111366      -111.8760
  12   1.0000      -4.102312      -111.6296
  13   1.0000      -4.102122      -111.6244
  14   1.0000      -4.101981      -111.6206
  15   1.0000      -3.502429       -95.3059
  16   1.0000      -2.307515       -62.7907
  17   1.0000      -2.307018       -62.7772
  18   1.0000      -2.304287       -62.7028
  19   1.0000      -2.302873       -62.6644
  20   1.0000      -2.302683       -62.6592
  21   1.0000      -2.302195       -62.6459
  22   1.0000      -2.301365       -62.6233
  23   1.0000      -2.300750       -62.6066
  24   1.0000      -2.300529       -62.6006
  25   1.0000      -2.300413       -62.5974
  26   1.0000      -2.298819       -62.5540
  27   1.0000      -2.298722       -62.5514
  28   1.0000      -2.298373       -62.5419
  29   1.0000      -2.297348       -62.5140
  30   1.0000      -2.296746       -62.4976
  31   1.0000      -2.295854       -62.4734
  32   1.0000      -2.295705       -62.4693
  33   1.0000      -2.293755       -62.4162
  34   1.0000      -2.293620       -62.4126
  35   1.0000      -2.293500       -62.4093
  36   1.0000      -2.293198       -62.4011
  37   1.0000      -2.292311       -62.3769
  38   1.0000      -2.292137       -62.3722
  39   1.0000      -2.290482       -62.3272
  40   1.0000      -2.289617       -62.3036
  41   1.0000      -2.287951       -62.2583
  42   1.0000      -2.287613       -62.2491
  43   1.0000      -2.283246       -62.1303
  44   1.0000      -2.283037       -62.1246
  45   1.0000      -2.282294       -62.1044
  46   1.0000      -2.277409       -61.9714
  47   1.0000      -2.273578       -61.8672
  48   1.0000      -2.250441       -61.2376
  49   1.0000      -0.417194       -11.3524
  50   1.0000      -0.384688       -10.4679
  51   1.0000      -0.384456       -10.4616
  52   1.0000      -0.370187       -10.0733
  53   1.0000      -0.368982       -10.0405
  54   1.0000      -0.362281        -9.8582
  55   1.0000      -0.360803        -9.8180
  56   1.0000      -0.359651        -9.7866
  57   1.0000      -0.357024        -9.7151
  58   1.0000      -0.346697        -9.4341
  59   1.0000      -0.341738        -9.2992
  60   1.0000      -0.340512        -9.2658
  61   1.0000      -0.340324        -9.2607
  62   1.0000      -0.336567        -9.1584
  63   1.0000      -0.335418        -9.1272
  64   1.0000      -0.331402        -9.0179
  65   1.0000      -0.328072        -8.9273
  66   1.0000      -0.326846        -8.8939
  67   1.0000      -0.322598        -8.7783
  68   1.0000      -0.321649        -8.7525
  69   1.0000      -0.316703        -8.6179
  70   1.0000      -0.315294        -8.5796
  71   1.0000      -0.307332        -8.3629
  72   1.0000      -0.306683        -8.3453
  73   1.0000      -0.303356        -8.2547
  74   1.0000      -0.302571        -8.2334
  75   1.0000      -0.297061        -8.0834
  76   1.0000      -0.292890        -7.9700
  77   1.0000      -0.292048        -7.9470
  78   1.0000      -0.290587        -7.9073
  79   1.0000      -0.287845        -7.8327
  80   1.0000      -0.287616        -7.8264
  81   1.0000      -0.284486        -7.7413
  82   1.0000      -0.283457        -7.7133
  83   1.0000      -0.279903        -7.6166
  84   1.0000      -0.278683        -7.5833
  85   1.0000      -0.276013        -7.5107
  86   1.0000      -0.274037        -7.4569
  87   1.0000      -0.270219        -7.3530
  88   1.0000      -0.269903        -7.3444
  89   1.0000      -0.266862        -7.2617
  90   1.0000      -0.266307        -7.2466
  91   1.0000      -0.264126        -7.1872
  92   1.0000      -0.263966        -7.1829
  93   1.0000      -0.263162        -7.1610
  94   1.0000      -0.262013        -7.1297
  95   1.0000      -0.259591        -7.0638
  96   1.0000      -0.258280        -7.0281
  97   1.0000      -0.257826        -7.0158
  98   1.0000      -0.255413        -6.9501
  99   1.0000      -0.251100        -6.8328
 100   1.0000      -0.248076        -6.7505
 101   1.0000      -0.245337        -6.6760
 102   1.0000      -0.245181        -6.6717
 103   1.0000      -0.244702        -6.6587
 104   1.0000      -0.239794        -6.5251
 105   1.0000      -0.239118        -6.5067
 106   1.0000      -0.231959        -6.3119
 107   1.0000      -0.229846        -6.2544
 108   1.0000      -0.200029        -5.4431
 109   0.0000      -0.173358        -4.7173
 110   0.0000      -0.159232        -4.3329
 111   0.0000      -0.136086        -3.7031
 112   0.0000      -0.123588        -3.3630
 113   0.0000      -0.119930        -3.2635

                 SPIN DOWN ORBITALS
  NO   OCC          E(Eh)            E(eV)
   0   1.0000    -255.623627     -6955.8725
   1   1.0000     -29.847799      -812.1999
   2   1.0000     -25.698726      -699.2979
   3   1.0000     -25.698124      -699.2815
   4   1.0000     -25.692232      -699.1212
   5   1.0000      -4.115654      -111.9926
   6   1.0000      -4.115607      -111.9914
   7   1.0000      -4.113857      -111.9437
   8   1.0000      -4.113120      -111.9237
   9   1.0000      -4.112871      -111.9169
  10   1.0000      -4.112144      -111.8971
  11   1.0000      -4.111778      -111.8872
  12   1.0000      -4.102560      -111.6363
  13   1.0000      -4.102407      -111.6322
  14   1.0000      -4.101925      -111.6191
  15   1.0000      -3.333762       -90.7163
  16   1.0000      -2.307703       -62.7958
  17   1.0000      -2.307133       -62.7803
  18   1.0000      -2.303829       -62.6904
  19   1.0000      -2.302788       -62.6620
  20   1.0000      -2.301417       -62.6247
  21   1.0000      -2.301279       -62.6210
  22   1.0000      -2.300920       -62.6112
  23   1.0000      -2.300610       -62.6028
  24   1.0000      -2.300437       -62.5981
  25   1.0000      -2.300321       -62.5949
  26   1.0000      -2.299502       -62.5726
  27   1.0000      -2.299348       -62.5684
  28   1.0000      -2.298650       -62.5494
  29   1.0000      -2.297615       -62.5213
  30   1.0000      -2.297247       -62.5113
  31   1.0000      -2.296637       -62.4947
  32   1.0000      -2.296371       -62.4874
  33   1.0000      -2.294206       -62.4285
  34   1.0000      -2.293723       -62.4154
  35   1.0000      -2.293486       -62.4089
  36   1.0000      -2.292684       -62.3871
  37   1.0000      -2.292468       -62.3812
  38   1.0000      -2.291211       -62.3470
  39   1.0000      -2.290078       -62.3162
  40   1.0000      -2.289826       -62.3093
  41   1.0000      -2.288559       -62.2749
  42   1.0000      -2.287706       -62.2516
  43   1.0000      -2.283506       -62.1374
  44   1.0000      -2.283165       -62.1281
  45   1.0000      -2.282268       -62.1037
  46   1.0000      -2.106903       -57.3317
  47   1.0000      -2.104178       -57.2576
  48   1.0000      -2.093409       -56.9646
  49   1.0000      -0.414888       -11.2897
  50   1.0000      -0.384018       -10.4496
  51   1.0000      -0.379750       -10.3335
  52   1.0000      -0.370595       -10.0844
  53   1.0000      -0.362809        -9.8725
  54   1.0000      -0.359029        -9.7697
  55   1.0000      -0.354822        -9.6552
  56   1.0000      -0.352119        -9.5816
  57   1.0000      -0.347873        -9.4661
  58   1.0000      -0.346132        -9.4187
  59   1.0000      -0.342272        -9.3137
  60   1.0000      -0.340429        -9.2635
  61   1.0000      -0.333310        -9.0698
  62   1.0000      -0.332719        -9.0537
  63   1.0000      -0.330191        -8.9849
  64   1.0000      -0.328140        -8.9291
  65   1.0000      -0.326747        -8.8912
  66   1.0000      -0.320196        -8.7130
  67   1.0000      -0.317581        -8.6418
  68   1.0000      -0.317269        -8.6333
  69   1.0000      -0.315494        -8.5850
  70   1.0000      -0.313315        -8.5257
  71   1.0000      -0.309240        -8.4149
  72   1.0000      -0.304109        -8.2752
  73   1.0000      -0.303888        -8.2692
  74   1.0000      -0.299919        -8.1612
  75   1.0000      -0.294667        -8.0183
  76   1.0000      -0.294318        -8.0088
  77   1.0000      -0.291855        -7.9418
  78   1.0000      -0.290577        -7.9070
  79   1.0000      -0.288441        -7.8489
  80   1.0000      -0.284347        -7.7375
  81   1.0000      -0.282944        -7.6993
  82   1.0000      -0.278320        -7.5735
  83   1.0000      -0.276982        -7.5371
  84   1.0000      -0.276625        -7.5273
  85   1.0000      -0.275619        -7.5000
  86   1.0000      -0.275489        -7.4964
  87   1.0000      -0.269852        -7.3431
  88   1.0000      -0.269717        -7.3394
  89   1.0000      -0.267459        -7.2779
  90   1.0000      -0.265385        -7.2215
  91   1.0000      -0.264435        -7.1957
  92   1.0000      -0.263125        -7.1600
  93   1.0000      -0.261622        -7.1191
  94   1.0000      -0.261021        -7.1027
  95   1.0000      -0.259086        -7.0501
  96   1.0000      -0.253360        -6.8943
  97   1.0000      -0.253194        -6.8898
  98   1.0000      -0.248965        -6.7747
  99   1.0000      -0.243474        -6.6253
 100   1.0000      -0.241979        -6.5846
 101   1.0000      -0.240924        -6.5559
 102   1.0000      -0.238737        -6.4964
 103   1.0000      -0.210033        -5.7153
 104   1.0000      -0.195707        -5.3255
 105   1.0000      -0.187436        -5.1004
 106   1.0000      -0.174196        -4.7401
 107   0.0000      -0.143910        -3.9160
 108   0.0000      -0.143121        -3.8945
 109   0.0000      -0.138585        -3.7711
 110   0.0000      -0.131610        -3.5813
 111   0.0000      -0.128667        -3.5012

MULLIKEN ATOMIC CHARGES AND SPIN POPULATIONS
--------------------------------------------
   0 Au:    0.182643   -0.194982
   1 Au:    0.009086   -0.171187
   2 Au:    0.004827    0.009003
   3 Au:    0.198911   -0.054436
   4 Au:    0.178382   -0.190293
   5 Au:    0.230669   -0.088716
   6 Au:    0.225246   -0.197710
   7 Au:    0.304448    0.037730
   8 Au:    0.231496   -0.091501
   9 Au:    0.008207   -0.168019
  10 Fe:   -1.573915    3.110110
Sum of atomic charges         :   -0.0000000

LOEWDIN ATOMIC CHARGES AND SPIN POPULATIONS
-------------------------------------------
   0 Au:    0.034661   -0.180830
   1 Au:   -0.028455   -0.114786
   2 Au:    0.004106   -0.007111
   3 Au:    0.071985   -0.050706
   4 Au:    0.035668   -0.176621
   5 Au:    0.091899   -0.128204
   6 Au:    0.092270   -0.153721
   7 Au:    0.094366   -0.018344
   8 Au:    0.092139   -0.130091
   9 Au:   -0.028036   -0.113079
  10 Fe:   -0.460601    3.073493

  Mayer bond orders larger than 0.100000
B(  0-Au,  4-Au) :   0.3035 B(  0-Au,  8-Au) :   0.2677 B(  0-Au, 10-Fe) :   0.5030
B(  1-Au,  2-Au) :   0.1765 B(  1-Au,  5-Au) :   0.3677 B(  1-Au,  6-Au) :   0.1884
B(  1-Au,  7-Au) :   0.4016 B(  1-Au,  9-Au) :   0.1269 B(  1-Au, 10-Fe) :   0.4018
B(  2-Au,  3-Au) :   0.4392 B(  2-Au,  7-Au) :   0.2967 B(  2-Au,  9-Au) :   0.1759
B(  2-Au, 10-Fe) :   0.5533 B(  3-Au, 10-Fe) :   0.6528 B(  4-Au,  5-Au) :   0.2699
B(  4-Au, 10-Fe) :   0.5090 B(  5-Au,  6-Au) :   0.1052 B(  5-Au, 10-Fe) :   0.5682
B(  6-Au,  8-Au) :   0.1044 B(  6-Au,  9-Au) :   0.1872 B(  6-Au, 10-Fe) :   0.6441
B(  7-Au,  9-Au) :   0.4010 B(  8-Au,  9-Au) :   0.3667 B(  8-Au, 10-Fe) :   0.5702
B(  9-Au, 10-Fe) :   0.4062

FINAL SINGLE POINT ENERGY     -2622.121735731223

DIPOLE MOMENT
-------------
                                X             Y             Z
Electronic contribution:     -9.81151      20.52783       9.08764
Nuclear contribution   :      9.84517     -20.22563      -8.85262
                        -----------------------------------------
Total Dipole Moment    :      0.03366       0.30221       0.23502
                        -----------------------------------------
Magnitude (a.u.)       :      0.38432
Magnitude (Debye)      :      0.97685

Rotational constants in cm-1:     0.002231     0.001434     0.001389
Rotational constants in MHz :    66.892468    42.982824    41.632414

                             ****ORCA TERMINATED NORMALLY****
TOTAL RUN TIME: 0 days 0 hours 7 minutes 25 seconds 792 msec
