                         Program Version 5.0.3 -  RELEASE  -
|  1> !RI-B2PLYP def2-TZVP def2-TZVP/C
|  2> !RIJCOSX VERYSLOWCONV
|  3>
|  4> %scf
|  5>   AutoTRAHIter 200
|  6>   maxiter 400
|  7> end
|  8>
|  9>
| 10> %pal nprocs 6 end
| 11>
| 12> *xyzfile 0 5 pbe.xyz
| 13>
| 14> $new_job
| 15>
| 16> !RI-B2PLYP def2-TZVP def2-TZVP/C
| 17> !RIJCOSX VERYSLOWCONV
| 18>
| 19> %scf
| 20>   AutoTRAHIter 200
| 21>   maxiter 400
| 22> end
| 23>
| 24>
| 25> %pal nprocs 6 end
| 26>
| 27> *xyzfile 0 3 pbe.xyz
| 28>
| 29>
| 30>
| 31>
| 32>
| 33>                          ****END OF INPUT****
 Total Charge           Charge          ....    0
 Multiplicity           Mult            ....    5
 Number of Electrons    NEL             ....  290
MP2 TOTAL ENERGY:    -2942.519408628 Eh
FINAL SINGLE POINT ENERGY     -2942.519408628008

CARTESIAN COORDINATES (ANGSTROEM)
---------------------------------
  Au     9.145543    9.237792    5.880054
  Au     7.964487    6.313360    9.507848
  Au     6.178756    8.185521   10.018518
  Au     5.641031    6.270815    7.877025
  Au     5.821215   10.748823    9.142570
  Au     4.654463    7.569210    5.551415
  Au     7.940269   11.039934    7.452347
  Au     4.334213    8.878692    7.819234
  Au     9.190346    6.719805    6.900815
  Au    10.065501    4.819547    8.669165
  Au     7.702966    4.369543    7.313801
  Au     7.474886    7.344168    4.872079
  Au     5.469584    6.563915    3.169354
  Au     6.040668    4.978598    5.353148
  Cr     7.013087    8.564630    7.457202

 Multiplicity           Mult            ....    3
 Number of Electrons    NEL             ....  290
 Basis Dimension        Dim             ....  605

ORBITAL ENERGIES
----------------
                 SPIN UP ORBITALS
  NO   OCC          E(Eh)            E(eV)
   0   1.0000    -217.780932     -5926.1204
   1   1.0000     -25.468696      -693.0385
   2   1.0000     -21.609914      -588.0357
   3   1.0000     -21.605254      -587.9089
   4   1.0000     -21.602808      -587.8423
   5   1.0000      -4.410084      -120.0045
   6   1.0000      -4.407270      -119.9279
   7   1.0000      -4.407040      -119.9216
   8   1.0000      -4.400510      -119.7440
   9   1.0000      -4.398619      -119.6925
  10   1.0000      -4.398554      -119.6908
  11   1.0000      -4.396864      -119.6447
  12   1.0000      -4.396565      -119.6366
  13   1.0000      -4.393030      -119.5404
  14   1.0000      -4.392406      -119.5234
  15   1.0000      -4.392050      -119.5138
  16   1.0000      -4.391584      -119.5011
  17   1.0000      -4.391303      -119.4934
  18   1.0000      -4.391159      -119.4895
  19   1.0000      -3.255747       -88.5934
  20   1.0000      -2.531770       -68.8930
  21   1.0000      -2.529533       -68.8321
  22   1.0000      -2.527621       -68.7801
  23   1.0000      -2.527367       -68.7731
  24   1.0000      -2.525331       -68.7178
  25   1.0000      -2.523546       -68.6692
  26   1.0000      -2.523384       -68.6648
  27   1.0000      -2.523165       -68.6588
  28   1.0000      -2.522056       -68.6286
  29   1.0000      -2.521477       -68.6129
  30   1.0000      -2.520642       -68.5902
  31   1.0000      -2.519207       -68.5511
  32   1.0000      -2.518097       -68.5209
  33   1.0000      -2.517693       -68.5099
  34   1.0000      -2.516908       -68.4885
  35   1.0000      -2.516465       -68.4765
  36   1.0000      -2.515111       -68.4396
  37   1.0000      -2.514741       -68.4296
  38   1.0000      -2.514203       -68.4150
  39   1.0000      -2.513122       -68.3855
  40   1.0000      -2.513060       -68.3838
  41   1.0000      -2.512809       -68.3770
  42   1.0000      -2.512238       -68.3615
  43   1.0000      -2.511660       -68.3457
  44   1.0000      -2.511424       -68.3393
  45   1.0000      -2.511093       -68.3303
  46   1.0000      -2.510651       -68.3183
  47   1.0000      -2.510606       -68.3171
  48   1.0000      -2.510245       -68.3072
  49   1.0000      -2.509662       -68.2914
  50   1.0000      -2.508383       -68.2566
  51   1.0000      -2.508163       -68.2506
  52   1.0000      -2.507996       -68.2460
  53   1.0000      -2.507783       -68.2402
  54   1.0000      -2.507460       -68.2315
  55   1.0000      -2.506465       -68.2044
  56   1.0000      -2.506221       -68.1977
  57   1.0000      -2.506030       -68.1925
  58   1.0000      -2.505866       -68.1881
  59   1.0000      -2.505630       -68.1817
  60   1.0000      -2.505114       -68.1676
  61   1.0000      -2.503301       -68.1183
  62   1.0000      -2.147939       -58.4484
  63   1.0000      -2.139189       -58.2103
  64   1.0000      -2.131372       -57.9976
  65   1.0000      -0.502383       -13.6705
  66   1.0000      -0.493859       -13.4386
  67   1.0000      -0.484470       -13.1831
  68   1.0000      -0.481346       -13.0981
  69   1.0000      -0.477066       -12.9816
  70   1.0000      -0.472011       -12.8441
  71   1.0000      -0.467898       -12.7322
  72   1.0000      -0.464761       -12.6468
  73   1.0000      -0.463522       -12.6131
  74   1.0000      -0.461232       -12.5508
  75   1.0000      -0.459410       -12.5012
  76   1.0000      -0.454282       -12.3616
  77   1.0000      -0.452260       -12.3066
  78   1.0000      -0.447555       -12.1786
  79   1.0000      -0.444953       -12.1078
  80   1.0000      -0.442931       -12.0528
  81   1.0000      -0.440765       -11.9938
  82   1.0000      -0.437552       -11.9064
  83   1.0000      -0.435806       -11.8589
  84   1.0000      -0.434075       -11.8118
  85   1.0000      -0.433789       -11.8040
  86   1.0000      -0.426296       -11.6001
  87   1.0000      -0.423458       -11.5229
  88   1.0000      -0.420729       -11.4486
  89   1.0000      -0.420555       -11.4439
  90   1.0000      -0.420119       -11.4320
  91   1.0000      -0.417141       -11.3510
  92   1.0000      -0.416524       -11.3342
  93   1.0000      -0.415811       -11.3148
  94   1.0000      -0.412186       -11.2162
  95   1.0000      -0.408794       -11.1239
  96   1.0000      -0.405056       -11.0221
  97   1.0000      -0.402103       -10.9418
  98   1.0000      -0.399215       -10.8632
  99   1.0000      -0.396599       -10.7920
 100   1.0000      -0.393992       -10.7211
 101   1.0000      -0.392109       -10.6698
 102   1.0000      -0.387934       -10.5562
 103   1.0000      -0.387238       -10.5373
 104   1.0000      -0.386343       -10.5129
 105   1.0000      -0.385252       -10.4832
 106   1.0000      -0.382808       -10.4167
 107   1.0000      -0.380142       -10.3442
 108   1.0000      -0.378118       -10.2891
 109   1.0000      -0.377658       -10.2766
 110   1.0000      -0.375329       -10.2132
 111   1.0000      -0.375126       -10.2077
 112   1.0000      -0.372426       -10.1342
 113   1.0000      -0.371990       -10.1224
 114   1.0000      -0.369980       -10.0677
 115   1.0000      -0.369651       -10.0587
 116   1.0000      -0.367867       -10.0102
 117   1.0000      -0.366612        -9.9760
 118   1.0000      -0.366106        -9.9623
 119   1.0000      -0.365564        -9.9475
 120   1.0000      -0.363732        -9.8977
 121   1.0000      -0.362926        -9.8757
 122   1.0000      -0.361004        -9.8234
 123   1.0000      -0.357510        -9.7283
 124   1.0000      -0.356291        -9.6952
 125   1.0000      -0.354486        -9.6461
 126   1.0000      -0.353036        -9.6066
 127   1.0000      -0.352998        -9.6056
 128   1.0000      -0.350448        -9.5362
 129   1.0000      -0.348204        -9.4751
 130   1.0000      -0.345354        -9.3976
 131   1.0000      -0.343529        -9.3479
 132   1.0000      -0.340306        -9.2602
 133   1.0000      -0.337928        -9.1955
 134   1.0000      -0.335099        -9.1185
 135   1.0000      -0.331942        -9.0326
 136   1.0000      -0.329759        -8.9732
 137   1.0000      -0.328631        -8.9425
 138   1.0000      -0.325353        -8.8533
 139   1.0000      -0.324401        -8.8274
 140   1.0000      -0.319418        -8.6918
 141   1.0000      -0.311944        -8.4884
 142   1.0000      -0.304447        -8.2844
 143   1.0000      -0.255629        -6.9560
 144   1.0000      -0.234967        -6.3938
 145   1.0000      -0.233673        -6.3586
 146   0.0000      -0.137339        -3.7372
 147   0.0000      -0.089543        -2.4366
 148   0.0000      -0.083416        -2.2699
 149   0.0000      -0.065698        -1.7877
 150   0.0000      -0.064158        -1.7458

                 SPIN DOWN ORBITALS
  NO   OCC          E(Eh)            E(eV)
   0   1.0000    -217.779692     -5926.0867
   1   1.0000     -25.398740      -691.1348
   2   1.0000     -21.555418      -586.5527
   3   1.0000     -21.541248      -586.1672
   4   1.0000     -21.527280      -585.7871
   5   1.0000      -4.411940      -120.0550
   6   1.0000      -4.407718      -119.9401
   7   1.0000      -4.407482      -119.9337
   8   1.0000      -4.401741      -119.7775
   9   1.0000      -4.398084      -119.6779
  10   1.0000      -4.398017      -119.6761
  11   1.0000      -4.397007      -119.6486
  12   1.0000      -4.396712      -119.6406
  13   1.0000      -4.394287      -119.5746
  14   1.0000      -4.393285      -119.5474
  15   1.0000      -4.392921      -119.5375
  16   1.0000      -4.392234      -119.5188
  17   1.0000      -4.392016      -119.5128
  18   1.0000      -4.391794      -119.5068
  19   1.0000      -3.043212       -82.8100
  20   1.0000      -2.532009       -68.8995
  21   1.0000      -2.531617       -68.8888
  22   1.0000      -2.528653       -68.8081
  23   1.0000      -2.528239       -68.7969
  24   1.0000      -2.528077       -68.7925
  25   1.0000      -2.524142       -68.6854
  26   1.0000      -2.523063       -68.6560
  27   1.0000      -2.522738       -68.6472
  28   1.0000      -2.521701       -68.6190
  29   1.0000      -2.521228       -68.6061
  30   1.0000      -2.520664       -68.5908
  31   1.0000      -2.519766       -68.5663
  32   1.0000      -2.519166       -68.5500
  33   1.0000      -2.517390       -68.5017
  34   1.0000      -2.516921       -68.4889
  35   1.0000      -2.515277       -68.4442
  36   1.0000      -2.514877       -68.4333
  37   1.0000      -2.514605       -68.4259
  38   1.0000      -2.514445       -68.4215
  39   1.0000      -2.513712       -68.4016
  40   1.0000      -2.513102       -68.3850
  41   1.0000      -2.512829       -68.3775
  42   1.0000      -2.511974       -68.3543
  43   1.0000      -2.511840       -68.3507
  44   1.0000      -2.511252       -68.3346
  45   1.0000      -2.511036       -68.3288
  46   1.0000      -2.510816       -68.3228
  47   1.0000      -2.510485       -68.3138
  48   1.0000      -2.509850       -68.2965
  49   1.0000      -2.509718       -68.2929
  50   1.0000      -2.509355       -68.2830
  51   1.0000      -2.508889       -68.2703
  52   1.0000      -2.508679       -68.2646
  53   1.0000      -2.508330       -68.2551
  54   1.0000      -2.507777       -68.2401
  55   1.0000      -2.507302       -68.2271
  56   1.0000      -2.507278       -68.2265
  57   1.0000      -2.507039       -68.2200
  58   1.0000      -2.506645       -68.2093
  59   1.0000      -2.506069       -68.1936
  60   1.0000      -2.505442       -68.1765
  61   1.0000      -2.502340       -68.0921
  62   1.0000      -1.927128       -52.4398
  63   1.0000      -1.896708       -51.6120
  64   1.0000      -1.861162       -50.6448
  65   1.0000      -0.505341       -13.7510
  66   1.0000      -0.483541       -13.1578
  67   1.0000      -0.482324       -13.1247
  68   1.0000      -0.479744       -13.0545
  69   1.0000      -0.472909       -12.8685
  70   1.0000      -0.469059       -12.7637
  71   1.0000      -0.466385       -12.6910
  72   1.0000      -0.463372       -12.6090
  73   1.0000      -0.461823       -12.5668
  74   1.0000      -0.457128       -12.4391
  75   1.0000      -0.456268       -12.4157
  76   1.0000      -0.453499       -12.3403
  77   1.0000      -0.452863       -12.3230
  78   1.0000      -0.446374       -12.1465
  79   1.0000      -0.444013       -12.0822
  80   1.0000      -0.441247       -12.0069
  81   1.0000      -0.440879       -11.9969
  82   1.0000      -0.436653       -11.8819
  83   1.0000      -0.434182       -11.8147
  84   1.0000      -0.432514       -11.7693
  85   1.0000      -0.427909       -11.6440
  86   1.0000      -0.424287       -11.5454
  87   1.0000      -0.422940       -11.5088
  88   1.0000      -0.419903       -11.4261
  89   1.0000      -0.418406       -11.3854
  90   1.0000      -0.417228       -11.3534
  91   1.0000      -0.414740       -11.2856
  92   1.0000      -0.413791       -11.2598
  93   1.0000      -0.408333       -11.1113
  94   1.0000      -0.406947       -11.0736
  95   1.0000      -0.406435       -11.0597
  96   1.0000      -0.403163       -10.9706
  97   1.0000      -0.397755       -10.8235
  98   1.0000      -0.395538       -10.7631
  99   1.0000      -0.395475       -10.7614
 100   1.0000      -0.392564       -10.6822
 101   1.0000      -0.390571       -10.6280
 102   1.0000      -0.388183       -10.5630
 103   1.0000      -0.386634       -10.5208
 104   1.0000      -0.384792       -10.4707
 105   1.0000      -0.382824       -10.4172
 106   1.0000      -0.382609       -10.4113
 107   1.0000      -0.376996       -10.2586
 108   1.0000      -0.376855       -10.2547
 109   1.0000      -0.376524       -10.2457
 110   1.0000      -0.373647       -10.1675
 111   1.0000      -0.373086       -10.1522
 112   1.0000      -0.371818       -10.1177
 113   1.0000      -0.371043       -10.0966
 114   1.0000      -0.370278       -10.0758
 115   1.0000      -0.367501       -10.0002
 116   1.0000      -0.366671        -9.9776
 117   1.0000      -0.366298        -9.9675
 118   1.0000      -0.365571        -9.9477
 119   1.0000      -0.363892        -9.9020
 120   1.0000      -0.361429        -9.8350
 121   1.0000      -0.359892        -9.7932
 122   1.0000      -0.356502        -9.7009
 123   1.0000      -0.353616        -9.6224
 124   1.0000      -0.353335        -9.6147
 125   1.0000      -0.352170        -9.5830
 126   1.0000      -0.348556        -9.4847
 127   1.0000      -0.348161        -9.4739
 128   1.0000      -0.346789        -9.4366
 129   1.0000      -0.340341        -9.2611
 130   1.0000      -0.338248        -9.2042
 131   1.0000      -0.337081        -9.1724
 132   1.0000      -0.334104        -9.0914
 133   1.0000      -0.331470        -9.0198
 134   1.0000      -0.330863        -9.0032
 135   1.0000      -0.327417        -8.9095
 136   1.0000      -0.321354        -8.7445
 137   1.0000      -0.320768        -8.7285
 138   1.0000      -0.314506        -8.5581
 139   1.0000      -0.263764        -7.1774
 140   1.0000      -0.244537        -6.6542
 141   1.0000      -0.244231        -6.6459
 142   1.0000      -0.234041        -6.3686
 143   1.0000      -0.172404        -4.6913
 144   0.0000      -0.088980        -2.4213
 145   0.0000      -0.074760        -2.0343
 146   0.0000      -0.070384        -1.9152
 147   0.0000      -0.061587        -1.6759
 148   0.0000      -0.053214        -1.4480

MULLIKEN ATOMIC CHARGES AND SPIN POPULATIONS
--------------------------------------------
   0 Au:    0.345682   -0.388811
   1 Au:   -0.155485   -0.081314
   2 Au:    0.329788   -0.067076
   3 Au:   -0.077099    0.015958
   4 Au:    0.431673   -0.236990
   5 Au:   -0.152188   -0.080098
   6 Au:    0.096600   -0.148889
   7 Au:    0.329636   -0.067366
   8 Au:   -0.291170   -0.002962
   9 Au:    0.494800   -0.070341
  10 Au:    0.100745   -0.167331
  11 Au:   -0.322446   -0.009213
  12 Au:    0.491265   -0.068007
  13 Au:    0.129000   -0.172307
  14 Cr:   -1.750802    3.544747
Sum of atomic charges         :   -0.0000000

LOEWDIN ATOMIC CHARGES AND SPIN POPULATIONS
-------------------------------------------
   0 Au:    0.096804   -0.274270
   1 Au:   -0.017030   -0.040674
   2 Au:    0.067630   -0.104383
   3 Au:   -0.014239   -0.069626
   4 Au:    0.088469   -0.199783
   5 Au:   -0.016525   -0.040704
   6 Au:    0.086289   -0.199169
   7 Au:    0.067307   -0.104622
   8 Au:   -0.037715   -0.065560
   9 Au:    0.158828   -0.064047
  10 Au:   -0.023943   -0.136790
  11 Au:   -0.041713   -0.066492
  12 Au:    0.157828   -0.063313
  13 Au:   -0.021513   -0.139225
  14 Cr:   -0.550480    3.568656

  Mayer bond orders larger than 0.100000
B(  0-Au,  6-Au) :   0.2667 B(  0-Au,  8-Au) :   0.2091 B(  0-Au, 11-Au) :   0.2070
B(  0-Au, 14-Cr) :   0.5192 B(  1-Au,  2-Au) :   0.4685 B(  1-Au,  3-Au) :   0.1575
B(  1-Au,  8-Au) :   0.3213 B(  1-Au,  9-Au) :   0.3390 B(  1-Au, 10-Au) :   0.1725
B(  1-Au, 14-Cr) :   0.3302 B(  2-Au,  3-Au) :   0.1711 B(  2-Au,  4-Au) :   0.1626
B(  2-Au, 14-Cr) :   0.4747 B(  3-Au,  5-Au) :   0.1581 B(  3-Au,  7-Au) :   0.1748
B(  3-Au, 10-Au) :   0.2815 B(  3-Au, 13-Au) :   0.2705 B(  3-Au, 14-Cr) :   0.6252
B(  4-Au,  6-Au) :   0.3571 B(  4-Au,  7-Au) :   0.1631 B(  4-Au, 14-Cr) :   0.4047
B(  5-Au,  7-Au) :   0.4679 B(  5-Au, 11-Au) :   0.3211 B(  5-Au, 12-Au) :   0.3407
B(  5-Au, 13-Au) :   0.1700 B(  5-Au, 14-Cr) :   0.3276 B(  6-Au, 14-Cr) :   0.6342
B(  7-Au, 14-Cr) :   0.4722 B(  8-Au,  9-Au) :   0.3956 B(  8-Au, 10-Au) :   0.2622
B(  8-Au, 11-Au) :   0.3428 B(  8-Au, 14-Cr) :   0.3332 B(  9-Au, 10-Au) :   0.2321
B( 10-Au, 13-Au) :   0.4848 B( 10-Au, 14-Cr) :   0.1274 B( 11-Au, 12-Au) :   0.3960
B( 11-Au, 13-Au) :   0.2656 B( 11-Au, 14-Cr) :   0.3450 B( 12-Au, 13-Au) :   0.2285
B( 13-Au, 14-Cr) :   0.1189

MP2 TOTAL ENERGY:    -2942.470146172 Eh
FINAL SINGLE POINT ENERGY     -2942.470146171713

DIPOLE MOMENT
-------------
                                X             Y             Z
Electronic contribution:     -1.25412     -42.34099     -12.34938
Nuclear contribution   :      1.40664      42.41624      12.25690
                        -----------------------------------------
Total Dipole Moment    :      0.15252       0.07526      -0.09248
                        -----------------------------------------
Magnitude (a.u.)       :      0.19360
Magnitude (Debye)      :      0.49208

Rotational constants in cm-1:     0.001018     0.000908     0.000738
Rotational constants in MHz :    30.524801    27.224677    22.131307

                             ****ORCA TERMINATED NORMALLY****
TOTAL RUN TIME: 0 days 1 hours 55 minutes 44 seconds 90 msec
