                         Program Version 5.0.3 -  RELEASE  -
|  1> !PBE def2-TZVP VERYSLOWCONV
|  2>
|  3> %scf
|  4>   AutoTRAHIter 200
|  5>   maxiter 400
|  6> end
|  7>
|  8>
|  9> %pal nprocs 6 end
| 10>
| 11> *xyzfile 0 5 pbe.xyz
| 12>
| 13> $new_job
| 14>
| 15> !PBE def2-TZVP VERYSLOWCONV
| 16>
| 17> %scf
| 18>   AutoTRAHIter 200
| 19>   maxiter 400
| 20> end
| 21>
| 22>
| 23> %pal nprocs 6 end
| 24>
| 25> *xyzfile 0 3 pbe.xyz
| 26>
| 27>
| 28>
| 29>
| 30>
| 31>                          ****END OF INPUT****
 Total Charge           Charge          ....    0
 Multiplicity           Mult            ....    5
 Number of Electrons    NEL             ....  290
FINAL SINGLE POINT ENERGY     -2945.834409351362

CARTESIAN COORDINATES (ANGSTROEM)
---------------------------------
  Au     9.145543    9.237792    5.880054
  Au     7.964487    6.313360    9.507848
  Au     6.178756    8.185521   10.018518
  Au     5.641031    6.270815    7.877025
  Au     5.821215   10.748823    9.142570
  Au     4.654463    7.569210    5.551415
  Au     7.940269   11.039934    7.452347
  Au     4.334213    8.878692    7.819234
  Au     9.190346    6.719805    6.900815
  Au    10.065501    4.819547    8.669165
  Au     7.702966    4.369543    7.313801
  Au     7.474886    7.344168    4.872079
  Au     5.469584    6.563915    3.169354
  Au     6.040668    4.978598    5.353148
  Cr     7.013087    8.564630    7.457202

 Multiplicity           Mult            ....    3
 Number of Electrons    NEL             ....  290
 Basis Dimension        Dim             ....  605

ORBITAL ENERGIES
----------------
                 SPIN UP ORBITALS
  NO   OCC          E(Eh)            E(eV)
   0   1.0000    -214.511456     -5837.1535
   1   1.0000     -24.311797      -661.5576
   2   1.0000     -20.677352      -562.6594
   3   1.0000     -20.675399      -562.6062
   4   1.0000     -20.672725      -562.5334
   5   1.0000      -4.036618      -109.8420
   6   1.0000      -4.036323      -109.8339
   7   1.0000      -4.036094      -109.8277
   8   1.0000      -4.035294      -109.8059
   9   1.0000      -4.033905      -109.7681
  10   1.0000      -4.031484      -109.7023
  11   1.0000      -4.025979      -109.5525
  12   1.0000      -4.025150      -109.5299
  13   1.0000      -4.021754      -109.4375
  14   1.0000      -4.021567      -109.4324
  15   1.0000      -4.021505      -109.4307
  16   1.0000      -4.021067      -109.4188
  17   1.0000      -4.016131      -109.2845
  18   1.0000      -4.015810      -109.2757
  19   1.0000      -2.813404       -76.5566
  20   1.0000      -2.256908       -61.4136
  21   1.0000      -2.253768       -61.3282
  22   1.0000      -2.252805       -61.3019
  23   1.0000      -2.251856       -61.2761
  24   1.0000      -2.250932       -61.2510
  25   1.0000      -2.250539       -61.2403
  26   1.0000      -2.249449       -61.2106
  27   1.0000      -2.248556       -61.1863
  28   1.0000      -2.247658       -61.1619
  29   1.0000      -2.247208       -61.1496
  30   1.0000      -2.246916       -61.1417
  31   1.0000      -2.246622       -61.1337
  32   1.0000      -2.245288       -61.0974
  33   1.0000      -2.244113       -61.0654
  34   1.0000      -2.243981       -61.0618
  35   1.0000      -2.243735       -61.0551
  36   1.0000      -2.243136       -61.0388
  37   1.0000      -2.242283       -61.0156
  38   1.0000      -2.241732       -61.0006
  39   1.0000      -2.240972       -60.9800
  40   1.0000      -2.240636       -60.9708
  41   1.0000      -2.238737       -60.9191
  42   1.0000      -2.237793       -60.8935
  43   1.0000      -2.237054       -60.8733
  44   1.0000      -2.236190       -60.8498
  45   1.0000      -2.235892       -60.8417
  46   1.0000      -2.234762       -60.8110
  47   1.0000      -2.233875       -60.7868
  48   1.0000      -2.233707       -60.7823
  49   1.0000      -2.232709       -60.7551
  50   1.0000      -2.232440       -60.7478
  51   1.0000      -2.232421       -60.7473
  52   1.0000      -2.231820       -60.7309
  53   1.0000      -2.231660       -60.7265
  54   1.0000      -2.231370       -60.7187
  55   1.0000      -2.231324       -60.7174
  56   1.0000      -2.231181       -60.7135
  57   1.0000      -2.230612       -60.6980
  58   1.0000      -2.230345       -60.6908
  59   1.0000      -2.226900       -60.5970
  60   1.0000      -2.226815       -60.5947
  61   1.0000      -2.221933       -60.4619
  62   1.0000      -1.805432       -49.1283
  63   1.0000      -1.803640       -49.0796
  64   1.0000      -1.798543       -48.9408
  65   1.0000      -0.426315       -11.6006
  66   1.0000      -0.398711       -10.8495
  67   1.0000      -0.395391       -10.7591
  68   1.0000      -0.386030       -10.5044
  69   1.0000      -0.375352       -10.2139
  70   1.0000      -0.374318       -10.1857
  71   1.0000      -0.369238       -10.0475
  72   1.0000      -0.361201        -9.8288
  73   1.0000      -0.358913        -9.7665
  74   1.0000      -0.354899        -9.6573
  75   1.0000      -0.353513        -9.6196
  76   1.0000      -0.351778        -9.5724
  77   1.0000      -0.349565        -9.5122
  78   1.0000      -0.346849        -9.4382
  79   1.0000      -0.340680        -9.2704
  80   1.0000      -0.338591        -9.2135
  81   1.0000      -0.338008        -9.1977
  82   1.0000      -0.333405        -9.0724
  83   1.0000      -0.331435        -9.0188
  84   1.0000      -0.330613        -8.9964
  85   1.0000      -0.326034        -8.8718
  86   1.0000      -0.325794        -8.8653
  87   1.0000      -0.322598        -8.7783
  88   1.0000      -0.321083        -8.7371
  89   1.0000      -0.319964        -8.7067
  90   1.0000      -0.318122        -8.6565
  91   1.0000      -0.317283        -8.6337
  92   1.0000      -0.316302        -8.6070
  93   1.0000      -0.309746        -8.4286
  94   1.0000      -0.308715        -8.4006
  95   1.0000      -0.308280        -8.3887
  96   1.0000      -0.307344        -8.3633
  97   1.0000      -0.304527        -8.2866
  98   1.0000      -0.300591        -8.1795
  99   1.0000      -0.296951        -8.0804
 100   1.0000      -0.296024        -8.0552
 101   1.0000      -0.293557        -7.9881
 102   1.0000      -0.293113        -7.9760
 103   1.0000      -0.291926        -7.9437
 104   1.0000      -0.288723        -7.8566
 105   1.0000      -0.286595        -7.7987
 106   1.0000      -0.285614        -7.7719
 107   1.0000      -0.285391        -7.7659
 108   1.0000      -0.283493        -7.7142
 109   1.0000      -0.281255        -7.6533
 110   1.0000      -0.278007        -7.5650
 111   1.0000      -0.277769        -7.5585
 112   1.0000      -0.275870        -7.5068
 113   1.0000      -0.275854        -7.5064
 114   1.0000      -0.273174        -7.4334
 115   1.0000      -0.273023        -7.4293
 116   1.0000      -0.270978        -7.3737
 117   1.0000      -0.268464        -7.3053
 118   1.0000      -0.267832        -7.2881
 119   1.0000      -0.266578        -7.2540
 120   1.0000      -0.266136        -7.2419
 121   1.0000      -0.265178        -7.2158
 122   1.0000      -0.263828        -7.1791
 123   1.0000      -0.262126        -7.1328
 124   1.0000      -0.260245        -7.0816
 125   1.0000      -0.258671        -7.0388
 126   1.0000      -0.257528        -7.0077
 127   1.0000      -0.256265        -6.9733
 128   1.0000      -0.254258        -6.9187
 129   1.0000      -0.253107        -6.8874
 130   1.0000      -0.249856        -6.7989
 131   1.0000      -0.248299        -6.7566
 132   1.0000      -0.247505        -6.7349
 133   1.0000      -0.247036        -6.7222
 134   1.0000      -0.242789        -6.6066
 135   1.0000      -0.241601        -6.5743
 136   1.0000      -0.240863        -6.5542
 137   1.0000      -0.235731        -6.4146
 138   1.0000      -0.230751        -6.2791
 139   1.0000      -0.229410        -6.2426
 140   1.0000      -0.227387        -6.1875
 141   1.0000      -0.223329        -6.0771
 142   1.0000      -0.219158        -5.9636
 143   1.0000      -0.217709        -5.9242
 144   1.0000      -0.214592        -5.8393
 145   1.0000      -0.200640        -5.4597
 146   0.0000      -0.199541        -5.4298
 147   0.0000      -0.181587        -4.9412
 148   0.0000      -0.149991        -4.0815
 149   0.0000      -0.148197        -4.0327
 150   0.0000      -0.130298        -3.5456

                 SPIN DOWN ORBITALS
  NO   OCC          E(Eh)            E(eV)
   0   1.0000    -214.511069     -5837.1429
   1   1.0000     -24.266163      -660.3159
   2   1.0000     -20.646175      -561.8110
   3   1.0000     -20.638398      -561.5994
   4   1.0000     -20.636337      -561.5433
   5   1.0000      -4.037024      -109.8530
   6   1.0000      -4.036938      -109.8507
   7   1.0000      -4.036562      -109.8404
   8   1.0000      -4.035655      -109.8158
   9   1.0000      -4.034134      -109.7744
  10   1.0000      -4.031678      -109.7075
  11   1.0000      -4.026028      -109.5538
  12   1.0000      -4.025144      -109.5297
  13   1.0000      -4.022357      -109.4539
  14   1.0000      -4.022026      -109.4449
  15   1.0000      -4.021980      -109.4436
  16   1.0000      -4.021554      -109.4320
  17   1.0000      -4.016317      -109.2895
  18   1.0000      -4.015422      -109.2652
  19   1.0000      -2.690492       -73.2120
  20   1.0000      -2.257623       -61.4331
  21   1.0000      -2.254546       -61.3493
  22   1.0000      -2.253141       -61.3111
  23   1.0000      -2.252352       -61.2896
  24   1.0000      -2.251571       -61.2684
  25   1.0000      -2.250851       -61.2488
  26   1.0000      -2.250330       -61.2346
  27   1.0000      -2.248733       -61.1911
  28   1.0000      -2.248207       -61.1768
  29   1.0000      -2.247629       -61.1611
  30   1.0000      -2.247216       -61.1498
  31   1.0000      -2.246936       -61.1422
  32   1.0000      -2.245663       -61.1076
  33   1.0000      -2.244482       -61.0754
  34   1.0000      -2.244230       -61.0686
  35   1.0000      -2.243985       -61.0619
  36   1.0000      -2.243360       -61.0449
  37   1.0000      -2.242362       -61.0178
  38   1.0000      -2.242062       -61.0096
  39   1.0000      -2.240929       -60.9788
  40   1.0000      -2.240864       -60.9770
  41   1.0000      -2.239245       -60.9330
  42   1.0000      -2.238365       -60.9090
  43   1.0000      -2.237157       -60.8761
  44   1.0000      -2.236529       -60.8590
  45   1.0000      -2.236094       -60.8472
  46   1.0000      -2.234771       -60.8112
  47   1.0000      -2.233813       -60.7851
  48   1.0000      -2.233425       -60.7746
  49   1.0000      -2.233015       -60.7634
  50   1.0000      -2.232897       -60.7602
  51   1.0000      -2.232852       -60.7590
  52   1.0000      -2.232414       -60.7471
  53   1.0000      -2.232152       -60.7399
  54   1.0000      -2.231759       -60.7292
  55   1.0000      -2.231692       -60.7274
  56   1.0000      -2.231548       -60.7235
  57   1.0000      -2.230915       -60.7063
  58   1.0000      -2.230689       -60.7001
  59   1.0000      -2.227133       -60.6034
  60   1.0000      -2.226741       -60.5927
  61   1.0000      -2.221448       -60.4487
  62   1.0000      -1.696513       -46.1645
  63   1.0000      -1.675493       -45.5925
  64   1.0000      -1.672288       -45.5053
  65   1.0000      -0.425390       -11.5754
  66   1.0000      -0.398087       -10.8325
  67   1.0000      -0.396529       -10.7901
  68   1.0000      -0.383022       -10.4226
  69   1.0000      -0.376360       -10.2413
  70   1.0000      -0.374542       -10.1918
  71   1.0000      -0.369045       -10.0422
  72   1.0000      -0.360462        -9.8087
  73   1.0000      -0.357864        -9.7380
  74   1.0000      -0.354404        -9.6438
  75   1.0000      -0.352760        -9.5991
  76   1.0000      -0.351749        -9.5716
  77   1.0000      -0.350419        -9.5354
  78   1.0000      -0.348338        -9.4788
  79   1.0000      -0.341100        -9.2818
  80   1.0000      -0.338950        -9.2233
  81   1.0000      -0.337388        -9.1808
  82   1.0000      -0.334412        -9.0998
  83   1.0000      -0.331271        -9.0143
  84   1.0000      -0.331216        -9.0129
  85   1.0000      -0.325934        -8.8691
  86   1.0000      -0.325498        -8.8572
  87   1.0000      -0.322189        -8.7672
  88   1.0000      -0.320375        -8.7179
  89   1.0000      -0.318494        -8.6667
  90   1.0000      -0.317757        -8.6466
  91   1.0000      -0.316701        -8.6179
  92   1.0000      -0.315713        -8.5910
  93   1.0000      -0.310056        -8.4370
  94   1.0000      -0.308662        -8.3991
  95   1.0000      -0.307300        -8.3621
  96   1.0000      -0.305433        -8.3113
  97   1.0000      -0.304734        -8.2922
  98   1.0000      -0.300107        -8.1663
  99   1.0000      -0.297526        -8.0961
 100   1.0000      -0.296436        -8.0664
 101   1.0000      -0.293763        -7.9937
 102   1.0000      -0.293319        -7.9816
 103   1.0000      -0.292836        -7.9685
 104   1.0000      -0.289774        -7.8851
 105   1.0000      -0.287105        -7.8125
 106   1.0000      -0.286781        -7.8037
 107   1.0000      -0.286204        -7.7880
 108   1.0000      -0.284154        -7.7322
 109   1.0000      -0.282262        -7.6807
 110   1.0000      -0.278623        -7.5817
 111   1.0000      -0.278539        -7.5794
 112   1.0000      -0.276809        -7.5323
 113   1.0000      -0.276225        -7.5165
 114   1.0000      -0.273790        -7.4502
 115   1.0000      -0.273498        -7.4423
 116   1.0000      -0.271873        -7.3980
 117   1.0000      -0.268952        -7.3186
 118   1.0000      -0.268583        -7.3085
 119   1.0000      -0.267595        -7.2816
 120   1.0000      -0.267274        -7.2729
 121   1.0000      -0.265806        -7.2329
 122   1.0000      -0.264444        -7.1959
 123   1.0000      -0.263161        -7.1610
 124   1.0000      -0.260460        -7.0875
 125   1.0000      -0.259801        -7.0695
 126   1.0000      -0.258001        -7.0206
 127   1.0000      -0.257174        -6.9981
 128   1.0000      -0.253970        -6.9109
 129   1.0000      -0.253624        -6.9015
 130   1.0000      -0.250835        -6.8256
 131   1.0000      -0.249171        -6.7803
 132   1.0000      -0.248137        -6.7521
 133   1.0000      -0.247630        -6.7384
 134   1.0000      -0.244106        -6.6425
 135   1.0000      -0.242508        -6.5990
 136   1.0000      -0.242337        -6.5943
 137   1.0000      -0.236553        -6.4369
 138   1.0000      -0.231930        -6.3111
 139   1.0000      -0.228106        -6.2071
 140   1.0000      -0.218101        -5.9348
 141   1.0000      -0.213042        -5.7972
 142   1.0000      -0.208090        -5.6624
 143   1.0000      -0.163943        -4.4611
 144   0.0000      -0.155643        -4.2353
 145   0.0000      -0.143858        -3.9146
 146   0.0000      -0.142680        -3.8825
 147   0.0000      -0.126481        -3.4417
 148   0.0000      -0.125876        -3.4253

MULLIKEN ATOMIC CHARGES AND SPIN POPULATIONS
--------------------------------------------
   0 Au:    0.406912   -0.190823
   1 Au:   -0.115496   -0.110222
   2 Au:    0.400298   -0.139854
   3 Au:   -0.096142   -0.033296
   4 Au:    0.401427   -0.062461
   5 Au:   -0.125945   -0.075253
   6 Au:    0.124605   -0.108768
   7 Au:    0.407034   -0.132327
   8 Au:   -0.280669   -0.057874
   9 Au:    0.502227   -0.107044
  10 Au:    0.108888   -0.081109
  11 Au:   -0.302257   -0.048761
  12 Au:    0.503288   -0.102050
  13 Au:    0.127631   -0.045436
  14 Cr:   -2.061800    3.295278
Sum of atomic charges         :   -0.0000000

LOEWDIN ATOMIC CHARGES AND SPIN POPULATIONS
-------------------------------------------
   0 Au:    0.132461   -0.158883
   1 Au:    0.002829   -0.061439
   2 Au:    0.117119   -0.129634
   3 Au:    0.012954   -0.057212
   4 Au:    0.077534   -0.101045
   5 Au:    0.001054   -0.042900
   6 Au:    0.111041   -0.113377
   7 Au:    0.111475   -0.115228
   8 Au:   -0.011697   -0.074640
   9 Au:    0.132287   -0.101170
  10 Au:   -0.017572   -0.084378
  11 Au:   -0.017674   -0.061516
  12 Au:    0.135133   -0.089483
  13 Au:   -0.015950   -0.065860
  14 Cr:   -0.770995    3.256766

  Mayer bond orders larger than 0.100000
B(  0-Au,  6-Au) :   0.3077 B(  0-Au,  8-Au) :   0.2955 B(  0-Au, 11-Au) :   0.3019
B(  0-Au, 14-Cr) :   0.6076 B(  1-Au,  2-Au) :   0.4075 B(  1-Au,  3-Au) :   0.2006
B(  1-Au,  8-Au) :   0.2769 B(  1-Au,  9-Au) :   0.3674 B(  1-Au, 10-Au) :   0.1931
B(  1-Au, 14-Cr) :   0.4234 B(  2-Au,  3-Au) :   0.1726 B(  2-Au,  4-Au) :   0.2445
B(  2-Au, 14-Cr) :   0.6180 B(  3-Au,  5-Au) :   0.2037 B(  3-Au,  7-Au) :   0.1792
B(  3-Au, 10-Au) :   0.2700 B(  3-Au, 13-Au) :   0.2635 B(  3-Au, 14-Cr) :   0.7322
B(  4-Au,  6-Au) :   0.3338 B(  4-Au,  7-Au) :   0.2408 B(  4-Au, 14-Cr) :   0.4687
B(  5-Au,  7-Au) :   0.4170 B(  5-Au, 11-Au) :   0.2689 B(  5-Au, 12-Au) :   0.3635
B(  5-Au, 13-Au) :   0.1982 B(  5-Au, 14-Cr) :   0.4132 B(  6-Au, 14-Cr) :   0.6780
B(  7-Au, 14-Cr) :   0.6054 B(  8-Au,  9-Au) :   0.3738 B(  8-Au, 10-Au) :   0.2775
B(  8-Au, 11-Au) :   0.3287 B(  8-Au, 14-Cr) :   0.3854 B(  9-Au, 10-Au) :   0.2807
B( 10-Au, 13-Au) :   0.5384 B( 10-Au, 14-Cr) :   0.1312 B( 11-Au, 12-Au) :   0.3749
B( 11-Au, 13-Au) :   0.2906 B( 11-Au, 14-Cr) :   0.3817 B( 12-Au, 13-Au) :   0.2717
B( 13-Au, 14-Cr) :   0.1214

FINAL SINGLE POINT ENERGY     -2945.799587922555

DIPOLE MOMENT
-------------
                                X             Y             Z
Electronic contribution:     -1.31807     -42.32104     -12.28585
Nuclear contribution   :      1.40664      42.41624      12.25690
                        -----------------------------------------
Total Dipole Moment    :      0.08857       0.09520      -0.02895
                        -----------------------------------------
Magnitude (a.u.)       :      0.13321
Magnitude (Debye)      :      0.33860

Rotational constants in cm-1:     0.001018     0.000908     0.000738
Rotational constants in MHz :    30.524801    27.224677    22.131307

                             ****ORCA TERMINATED NORMALLY****
TOTAL RUN TIME: 0 days 1 hours 36 minutes 11 seconds 83 msec
