                         Program Version 5.0.3 -  RELEASE  -
|  1> !R2SCAN def2-TZVP VERYSLOWCONV
|  2> !KDIIS
|  3> %scf
|  4>   AutoTRAHIter 200
|  5>   maxiter 400
|  6> end
|  7>
|  8> %pal nprocs 6 end
|  9>
| 10> *xyzfile 0 5 pbe.xyz
| 11>
| 12> $new_job
| 13>
| 14> !R2SCAN def2-TZVP VERYSLOWCONV
| 15> !KDIIS
| 16> %scf
| 17>   AutoTRAHIter 200
| 18>   maxiter 400
| 19> end
| 20>
| 21>
| 22> %pal nprocs 6 end
| 23>
| 24> *xyzfile 0 3 pbe.xyz
| 25>
| 26>
| 27>
| 28>
| 29>
| 30>                          ****END OF INPUT****
 Total Charge           Charge          ....    0
 Multiplicity           Mult            ....    5
 Number of Electrons    NEL             ....  290
FINAL SINGLE POINT ENERGY     -2946.316829473418

CARTESIAN COORDINATES (ANGSTROEM)
---------------------------------
  Au     9.145543    9.237792    5.880054
  Au     7.964487    6.313360    9.507848
  Au     6.178756    8.185521   10.018518
  Au     5.641031    6.270815    7.877025
  Au     5.821215   10.748823    9.142570
  Au     4.654463    7.569210    5.551415
  Au     7.940269   11.039934    7.452347
  Au     4.334213    8.878692    7.819234
  Au     9.190346    6.719805    6.900815
  Au    10.065501    4.819547    8.669165
  Au     7.702966    4.369543    7.313801
  Au     7.474886    7.344168    4.872079
  Au     5.469584    6.563915    3.169354
  Au     6.040668    4.978598    5.353148
  Cr     7.013087    8.564630    7.457202

 Multiplicity           Mult            ....    3
 Number of Electrons    NEL             ....  290
 Basis Dimension        Dim             ....  605

ORBITAL ENERGIES
----------------
                 SPIN UP ORBITALS
  NO   OCC          E(Eh)            E(eV)
   0   1.0000    -215.310754     -5858.9035
   1   1.0000     -24.612010      -669.7268
   2   1.0000     -20.879348      -568.1559
   3   1.0000     -20.879027      -568.1472
   4   1.0000     -20.875662      -568.0556
   5   1.0000      -4.127785      -112.3227
   6   1.0000      -4.127582      -112.3172
   7   1.0000      -4.127245      -112.3080
   8   1.0000      -4.125793      -112.2685
   9   1.0000      -4.125736      -112.2670
  10   1.0000      -4.121649      -112.1558
  11   1.0000      -4.116743      -112.0223
  12   1.0000      -4.116421      -112.0135
  13   1.0000      -4.113080      -111.9226
  14   1.0000      -4.112700      -111.9123
  15   1.0000      -4.111846      -111.8890
  16   1.0000      -4.111530      -111.8804
  17   1.0000      -4.106403      -111.7409
  18   1.0000      -4.106175      -111.7347
  19   1.0000      -2.930493       -79.7428
  20   1.0000      -2.320980       -63.1571
  21   1.0000      -2.317651       -63.0665
  22   1.0000      -2.316269       -63.0289
  23   1.0000      -2.315459       -63.0068
  24   1.0000      -2.314829       -62.9897
  25   1.0000      -2.313958       -62.9660
  26   1.0000      -2.312954       -62.9387
  27   1.0000      -2.312741       -62.9329
  28   1.0000      -2.311813       -62.9076
  29   1.0000      -2.311313       -62.8940
  30   1.0000      -2.310889       -62.8825
  31   1.0000      -2.310317       -62.8669
  32   1.0000      -2.308840       -62.8267
  33   1.0000      -2.308467       -62.8166
  34   1.0000      -2.307287       -62.7845
  35   1.0000      -2.307025       -62.7773
  36   1.0000      -2.306908       -62.7741
  37   1.0000      -2.306173       -62.7541
  38   1.0000      -2.305501       -62.7359
  39   1.0000      -2.304871       -62.7187
  40   1.0000      -2.303616       -62.6846
  41   1.0000      -2.302372       -62.6507
  42   1.0000      -2.301441       -62.6254
  43   1.0000      -2.300602       -62.6026
  44   1.0000      -2.300266       -62.5934
  45   1.0000      -2.298991       -62.5587
  46   1.0000      -2.298466       -62.5444
  47   1.0000      -2.298110       -62.5348
  48   1.0000      -2.296688       -62.4961
  49   1.0000      -2.296647       -62.4949
  50   1.0000      -2.296338       -62.4865
  51   1.0000      -2.295741       -62.4703
  52   1.0000      -2.295495       -62.4636
  53   1.0000      -2.295244       -62.4568
  54   1.0000      -2.295004       -62.4502
  55   1.0000      -2.294560       -62.4382
  56   1.0000      -2.294397       -62.4337
  57   1.0000      -2.293646       -62.4133
  58   1.0000      -2.293515       -62.4097
  59   1.0000      -2.289891       -62.3111
  60   1.0000      -2.289863       -62.3103
  61   1.0000      -2.285596       -62.1942
  62   1.0000      -1.879154       -51.1344
  63   1.0000      -1.877200       -51.0812
  64   1.0000      -1.874248       -51.0009
  65   1.0000      -0.431986       -11.7549
  66   1.0000      -0.405957       -11.0467
  67   1.0000      -0.401502       -10.9254
  68   1.0000      -0.394246       -10.7280
  69   1.0000      -0.382986       -10.4216
  70   1.0000      -0.382866       -10.4183
  71   1.0000      -0.378052       -10.2873
  72   1.0000      -0.370477       -10.0812
  73   1.0000      -0.367983       -10.0133
  74   1.0000      -0.364469        -9.9177
  75   1.0000      -0.362900        -9.8750
  76   1.0000      -0.361052        -9.8247
  77   1.0000      -0.358481        -9.7548
  78   1.0000      -0.354603        -9.6492
  79   1.0000      -0.349536        -9.5114
  80   1.0000      -0.347541        -9.4571
  81   1.0000      -0.347491        -9.4557
  82   1.0000      -0.342682        -9.3248
  83   1.0000      -0.340899        -9.2763
  84   1.0000      -0.339385        -9.2351
  85   1.0000      -0.334692        -9.1074
  86   1.0000      -0.334464        -9.1012
  87   1.0000      -0.331452        -9.0193
  88   1.0000      -0.329921        -8.9776
  89   1.0000      -0.328552        -8.9403
  90   1.0000      -0.327263        -8.9053
  91   1.0000      -0.326011        -8.8712
  92   1.0000      -0.325391        -8.8543
  93   1.0000      -0.318398        -8.6640
  94   1.0000      -0.317237        -8.6325
  95   1.0000      -0.316964        -8.6250
  96   1.0000      -0.316316        -8.6074
  97   1.0000      -0.312886        -8.5141
  98   1.0000      -0.309348        -8.4178
  99   1.0000      -0.305806        -8.3214
 100   1.0000      -0.304080        -8.2745
 101   1.0000      -0.301789        -8.2121
 102   1.0000      -0.301410        -8.2018
 103   1.0000      -0.300128        -8.1669
 104   1.0000      -0.297209        -8.0875
 105   1.0000      -0.295623        -8.0443
 106   1.0000      -0.293408        -7.9840
 107   1.0000      -0.293188        -7.9780
 108   1.0000      -0.292325        -7.9546
 109   1.0000      -0.289898        -7.8885
 110   1.0000      -0.286527        -7.7968
 111   1.0000      -0.286344        -7.7918
 112   1.0000      -0.284475        -7.7410
 113   1.0000      -0.284369        -7.7381
 114   1.0000      -0.281693        -7.6653
 115   1.0000      -0.281395        -7.6571
 116   1.0000      -0.278982        -7.5915
 117   1.0000      -0.276749        -7.5307
 118   1.0000      -0.276295        -7.5184
 119   1.0000      -0.274348        -7.4654
 120   1.0000      -0.274058        -7.4575
 121   1.0000      -0.273872        -7.4524
 122   1.0000      -0.272027        -7.4022
 123   1.0000      -0.269738        -7.3399
 124   1.0000      -0.268000        -7.2926
 125   1.0000      -0.265845        -7.2340
 126   1.0000      -0.265307        -7.2194
 127   1.0000      -0.264207        -7.1894
 128   1.0000      -0.262375        -7.1396
 129   1.0000      -0.260837        -7.0977
 130   1.0000      -0.257135        -6.9970
 131   1.0000      -0.255143        -6.9428
 132   1.0000      -0.254744        -6.9319
 133   1.0000      -0.254303        -6.9199
 134   1.0000      -0.249308        -6.7840
 135   1.0000      -0.248783        -6.7697
 136   1.0000      -0.247136        -6.7249
 137   1.0000      -0.243242        -6.6189
 138   1.0000      -0.242488        -6.5984
 139   1.0000      -0.237019        -6.4496
 140   1.0000      -0.236043        -6.4231
 141   1.0000      -0.234841        -6.3903
 142   1.0000      -0.224871        -6.1191
 143   1.0000      -0.224679        -6.1138
 144   1.0000      -0.219213        -5.9651
 145   1.0000      -0.204539        -5.5658
 146   0.0000      -0.199076        -5.4171
 147   0.0000      -0.181231        -4.9316
 148   0.0000      -0.144684        -3.9371
 149   0.0000      -0.144501        -3.9321
 150   0.0000      -0.124267        -3.3815

                 SPIN DOWN ORBITALS
  NO   OCC          E(Eh)            E(eV)
   0   1.0000    -215.310216     -5858.8888
   1   1.0000     -24.549794      -668.0338
   2   1.0000     -20.835518      -566.9633
   3   1.0000     -20.829253      -566.7928
   4   1.0000     -20.825686      -566.6957
   5   1.0000      -4.128615      -112.3453
   6   1.0000      -4.128415      -112.3399
   7   1.0000      -4.127735      -112.3214
   8   1.0000      -4.126435      -112.2860
   9   1.0000      -4.126378      -112.2845
  10   1.0000      -4.122207      -112.1710
  11   1.0000      -4.116862      -112.0255
  12   1.0000      -4.116551      -112.0170
  13   1.0000      -4.113730      -111.9403
  14   1.0000      -4.113357      -111.9301
  15   1.0000      -4.112472      -111.9061
  16   1.0000      -4.112154      -111.8974
  17   1.0000      -4.106705      -111.7491
  18   1.0000      -4.105940      -111.7283
  19   1.0000      -2.768968       -75.3474
  20   1.0000      -2.321982       -63.1843
  21   1.0000      -2.318775       -63.0971
  22   1.0000      -2.316802       -63.0434
  23   1.0000      -2.316250       -63.0284
  24   1.0000      -2.315468       -63.0071
  25   1.0000      -2.314578       -62.9829
  26   1.0000      -2.313950       -62.9658
  27   1.0000      -2.313472       -62.9528
  28   1.0000      -2.312630       -62.9299
  29   1.0000      -2.312110       -62.9157
  30   1.0000      -2.311381       -62.8959
  31   1.0000      -2.310643       -62.8758
  32   1.0000      -2.309372       -62.8412
  33   1.0000      -2.308996       -62.8310
  34   1.0000      -2.307663       -62.7947
  35   1.0000      -2.307366       -62.7866
  36   1.0000      -2.307201       -62.7821
  37   1.0000      -2.306200       -62.7549
  38   1.0000      -2.305549       -62.7372
  39   1.0000      -2.305288       -62.7301
  40   1.0000      -2.304049       -62.6964
  41   1.0000      -2.303077       -62.6699
  42   1.0000      -2.302215       -62.6465
  43   1.0000      -2.300614       -62.6029
  44   1.0000      -2.300309       -62.5946
  45   1.0000      -2.299478       -62.5720
  46   1.0000      -2.298408       -62.5428
  47   1.0000      -2.298068       -62.5336
  48   1.0000      -2.297263       -62.5117
  49   1.0000      -2.296909       -62.5021
  50   1.0000      -2.296354       -62.4870
  51   1.0000      -2.296168       -62.4819
  52   1.0000      -2.296079       -62.4795
  53   1.0000      -2.295791       -62.4717
  54   1.0000      -2.295692       -62.4689
  55   1.0000      -2.295263       -62.4573
  56   1.0000      -2.294417       -62.4343
  57   1.0000      -2.294239       -62.4294
  58   1.0000      -2.293705       -62.4149
  59   1.0000      -2.290056       -62.3156
  60   1.0000      -2.289767       -62.3077
  61   1.0000      -2.284995       -62.1779
  62   1.0000      -1.728687       -47.0400
  63   1.0000      -1.711967       -46.5850
  64   1.0000      -1.705162       -46.3998
  65   1.0000      -0.431718       -11.7476
  66   1.0000      -0.405608       -11.0372
  67   1.0000      -0.403342       -10.9755
  68   1.0000      -0.391234       -10.6460
  69   1.0000      -0.384127       -10.4526
  70   1.0000      -0.383491       -10.4353
  71   1.0000      -0.377748       -10.2791
  72   1.0000      -0.369535       -10.0556
  73   1.0000      -0.367345        -9.9960
  74   1.0000      -0.364052        -9.9064
  75   1.0000      -0.361870        -9.8470
  76   1.0000      -0.360936        -9.8216
  77   1.0000      -0.360065        -9.7979
  78   1.0000      -0.357217        -9.7204
  79   1.0000      -0.350359        -9.5338
  80   1.0000      -0.348614        -9.4863
  81   1.0000      -0.346566        -9.4305
  82   1.0000      -0.344064        -9.3624
  83   1.0000      -0.340715        -9.2713
  84   1.0000      -0.340213        -9.2577
  85   1.0000      -0.335363        -9.1257
  86   1.0000      -0.334611        -9.1052
  87   1.0000      -0.331361        -9.0168
  88   1.0000      -0.329337        -8.9617
  89   1.0000      -0.328004        -8.9254
  90   1.0000      -0.327135        -8.9018
  91   1.0000      -0.326031        -8.8718
  92   1.0000      -0.324933        -8.8419
  93   1.0000      -0.318898        -8.6777
  94   1.0000      -0.317446        -8.6381
  95   1.0000      -0.316351        -8.6083
  96   1.0000      -0.314151        -8.5485
  97   1.0000      -0.313158        -8.5215
  98   1.0000      -0.308928        -8.4064
  99   1.0000      -0.306774        -8.3478
 100   1.0000      -0.305112        -8.3025
 101   1.0000      -0.302491        -8.2312
 102   1.0000      -0.301828        -8.2132
 103   1.0000      -0.301244        -8.1973
 104   1.0000      -0.298733        -8.1289
 105   1.0000      -0.296511        -8.0685
 106   1.0000      -0.295138        -8.0311
 107   1.0000      -0.294285        -8.0079
 108   1.0000      -0.293235        -7.9793
 109   1.0000      -0.291514        -7.9325
 110   1.0000      -0.287514        -7.8236
 111   1.0000      -0.287061        -7.8113
 112   1.0000      -0.285644        -7.7728
 113   1.0000      -0.285019        -7.7558
 114   1.0000      -0.282406        -7.6847
 115   1.0000      -0.282157        -7.6779
 116   1.0000      -0.280222        -7.6252
 117   1.0000      -0.277445        -7.5497
 118   1.0000      -0.277275        -7.5450
 119   1.0000      -0.275740        -7.5033
 120   1.0000      -0.275553        -7.4982
 121   1.0000      -0.274735        -7.4759
 122   1.0000      -0.273137        -7.4324
 123   1.0000      -0.271356        -7.3840
 124   1.0000      -0.268324        -7.3015
 125   1.0000      -0.267482        -7.2786
 126   1.0000      -0.265983        -7.2378
 127   1.0000      -0.265311        -7.2195
 128   1.0000      -0.261641        -7.1196
 129   1.0000      -0.261247        -7.1089
 130   1.0000      -0.258430        -7.0322
 131   1.0000      -0.256358        -6.9758
 132   1.0000      -0.255398        -6.9497
 133   1.0000      -0.254934        -6.9371
 134   1.0000      -0.251254        -6.8370
 135   1.0000      -0.249743        -6.7959
 136   1.0000      -0.249230        -6.7819
 137   1.0000      -0.243646        -6.6299
 138   1.0000      -0.238295        -6.4843
 139   1.0000      -0.231570        -6.3014
 140   1.0000      -0.221645        -6.0313
 141   1.0000      -0.216045        -5.8789
 142   1.0000      -0.210159        -5.7187
 143   1.0000      -0.162087        -4.4106
 144   0.0000      -0.151662        -4.1269
 145   0.0000      -0.138298        -3.7633
 146   0.0000      -0.137481        -3.7411
 147   0.0000      -0.118416        -3.2223
 148   0.0000      -0.118306        -3.2193

MULLIKEN ATOMIC CHARGES AND SPIN POPULATIONS
--------------------------------------------
   0 Au:    0.372184   -0.265707
   1 Au:   -0.121781   -0.087899
   2 Au:    0.369899   -0.176645
   3 Au:   -0.076552   -0.024313
   4 Au:    0.355866   -0.082996
   5 Au:   -0.120562   -0.084434
   6 Au:    0.133525   -0.151552
   7 Au:    0.370779   -0.176193
   8 Au:   -0.249252   -0.047048
   9 Au:    0.469667   -0.131260
  10 Au:    0.089481   -0.065646
  11 Au:   -0.278298   -0.049660
  12 Au:    0.467255   -0.133527
  13 Au:    0.113247   -0.073691
  14 Cr:   -1.895458    3.550572
Sum of atomic charges         :   -0.0000000

LOEWDIN ATOMIC CHARGES AND SPIN POPULATIONS
-------------------------------------------
   0 Au:    0.121099   -0.199896
   1 Au:   -0.000039   -0.056514
   2 Au:    0.109628   -0.144537
   3 Au:    0.011412   -0.058328
   4 Au:    0.071011   -0.121527
   5 Au:    0.000022   -0.056496
   6 Au:    0.104120   -0.146009
   7 Au:    0.109265   -0.144113
   8 Au:   -0.011630   -0.075940
   9 Au:    0.132077   -0.105624
  10 Au:   -0.021781   -0.079872
  11 Au:   -0.015198   -0.076817
  12 Au:    0.131261   -0.107734
  13 Au:   -0.019843   -0.083734
  14 Cr:   -0.721404    3.457140

  Mayer bond orders larger than 0.100000
B(  0-Au,  6-Au) :   0.2905 B(  0-Au,  8-Au) :   0.2777 B(  0-Au, 11-Au) :   0.2732
B(  0-Au, 14-Cr) :   0.5859 B(  1-Au,  2-Au) :   0.4111 B(  1-Au,  3-Au) :   0.1867
B(  1-Au,  8-Au) :   0.2525 B(  1-Au,  9-Au) :   0.3583 B(  1-Au, 10-Au) :   0.1636
B(  1-Au, 14-Cr) :   0.3941 B(  2-Au,  3-Au) :   0.1674 B(  2-Au,  4-Au) :   0.2259
B(  2-Au, 14-Cr) :   0.5881 B(  3-Au,  5-Au) :   0.1864 B(  3-Au,  7-Au) :   0.1699
B(  3-Au, 10-Au) :   0.2618 B(  3-Au, 13-Au) :   0.2564 B(  3-Au, 14-Cr) :   0.6907
B(  4-Au,  6-Au) :   0.3369 B(  4-Au,  7-Au) :   0.2260 B(  4-Au, 14-Cr) :   0.4748
B(  5-Au,  7-Au) :   0.4112 B(  5-Au, 11-Au) :   0.2523 B(  5-Au, 12-Au) :   0.3591
B(  5-Au, 13-Au) :   0.1621 B(  5-Au, 14-Cr) :   0.3908 B(  6-Au, 14-Cr) :   0.6485
B(  7-Au, 14-Cr) :   0.5859 B(  8-Au,  9-Au) :   0.3716 B(  8-Au, 10-Au) :   0.2615
B(  8-Au, 11-Au) :   0.3392 B(  8-Au, 14-Cr) :   0.3836 B(  9-Au, 10-Au) :   0.2637
B( 10-Au, 13-Au) :   0.5569 B( 10-Au, 14-Cr) :   0.1162 B( 11-Au, 12-Au) :   0.3690
B( 11-Au, 13-Au) :   0.2647 B( 11-Au, 14-Cr) :   0.3969 B( 12-Au, 13-Au) :   0.2617
B( 13-Au, 14-Cr) :   0.1081

FINAL SINGLE POINT ENERGY     -2946.275978181099

DIPOLE MOMENT
-------------
                                X             Y             Z
Electronic contribution:     -1.32280     -42.34673     -12.29165
Nuclear contribution   :      1.40664      42.41624      12.25690
                        -----------------------------------------
Total Dipole Moment    :      0.08384       0.06952      -0.03475
                        -----------------------------------------
Magnitude (a.u.)       :      0.11432
Magnitude (Debye)      :      0.29059

Rotational constants in cm-1:     0.001018     0.000908     0.000738
Rotational constants in MHz :    30.524801    27.224677    22.131307

                             ****ORCA TERMINATED NORMALLY****
TOTAL RUN TIME: 0 days 0 hours 26 minutes 6 seconds 179 msec
