                         Program Version 5.0.3 -  RELEASE  -
|  1> %pal nprocs 1 end
|  2>
|  3> !PBE def2-TZVP OPT UNO
|  4> !SLOWCONV KDIIS
|  5>
|  6> %geom maxiter 300 end
|  7>
|  8> *xyzfile 0 5 5.xyz                           ****END OF INPUT****
 Total Charge           Charge          ....    0
 Multiplicity           Mult            ....    5
 Number of Electrons    NEL             ....  214
FINAL SINGLE POINT ENERGY     -2402.457144559473
FINAL SINGLE POINT ENERGY     -2402.460439235078
FINAL SINGLE POINT ENERGY     -2402.463894483302
FINAL SINGLE POINT ENERGY     -2402.466549227788
FINAL SINGLE POINT ENERGY     -2402.468598260263
FINAL SINGLE POINT ENERGY     -2402.470446704120
FINAL SINGLE POINT ENERGY     -2402.472004753910
FINAL SINGLE POINT ENERGY     -2402.473223717762
FINAL SINGLE POINT ENERGY     -2402.474339015372
FINAL SINGLE POINT ENERGY     -2402.475423585925
FINAL SINGLE POINT ENERGY     -2402.496394268428
FINAL SINGLE POINT ENERGY     -2402.496430476031
FINAL SINGLE POINT ENERGY     -2402.496453350480
FINAL SINGLE POINT ENERGY     -2402.496468025860
FINAL SINGLE POINT ENERGY     -2402.496476424039
FINAL SINGLE POINT ENERGY     -2402.496483126586
FINAL SINGLE POINT ENERGY     -2402.496489367177
FINAL SINGLE POINT ENERGY     -2402.496494388685
FINAL SINGLE POINT ENERGY     -2402.496496836233
                    ***********************HURRAY********************

CARTESIAN COORDINATES (ANGSTROEM)
---------------------------------
  Au     5.263816    6.531718   10.171215
  Au     9.965885    7.664128   10.354398
  Au    10.470089    5.104887    9.985926
  Au     8.569544    3.317019    9.067198
  Au     5.931348    4.047888    9.145443
  Au     7.027034    8.468587   10.456560
  Au     9.045867   10.162858    9.732779
  Au     8.428828    8.124698    7.949973
  Au     9.123959    5.519923    7.427330
  Au     6.456548    6.265295    7.517459
  Cr     7.881473    5.906049    9.824226

 Multiplicity           Mult            ....    5
 Number of Electrons    NEL             ....  214
 Basis Dimension        Dim             ....  445

ORBITAL ENERGIES
----------------
                 SPIN UP ORBITALS
  NO   OCC          E(Eh)            E(eV)
   0   1.0000    -214.478507     -5836.2569
   1   1.0000     -24.277402      -660.6217
   2   1.0000     -20.642133      -561.7010
   3   1.0000     -20.641706      -561.6894
   4   1.0000     -20.637209      -561.5670
   5   1.0000      -4.026241      -109.5596
   6   1.0000      -4.025456      -109.5382
   7   1.0000      -4.025204      -109.5314
   8   1.0000      -4.021796      -109.4386
   9   1.0000      -4.021747      -109.4373
  10   1.0000      -4.020067      -109.3916
  11   1.0000      -4.020053      -109.3912
  12   1.0000      -4.019350      -109.3721
  13   1.0000      -4.017329      -109.3171
  14   1.0000      -4.017147      -109.3121
  15   1.0000      -2.787257       -75.8451
  16   1.0000      -2.245610       -61.1062
  17   1.0000      -2.241978       -61.0073
  18   1.0000      -2.241304       -60.9890
  19   1.0000      -2.241089       -60.9831
  20   1.0000      -2.240770       -60.9745
  21   1.0000      -2.239490       -60.9396
  22   1.0000      -2.239162       -60.9307
  23   1.0000      -2.238151       -60.9032
  24   1.0000      -2.236667       -60.8628
  25   1.0000      -2.236227       -60.8508
  26   1.0000      -2.235826       -60.8399
  27   1.0000      -2.235314       -60.8260
  28   1.0000      -2.235063       -60.8192
  29   1.0000      -2.235033       -60.8183
  30   1.0000      -2.234686       -60.8089
  31   1.0000      -2.234430       -60.8019
  32   1.0000      -2.233964       -60.7893
  33   1.0000      -2.233727       -60.7828
  34   1.0000      -2.232392       -60.7465
  35   1.0000      -2.231473       -60.7215
  36   1.0000      -2.231215       -60.7144
  37   1.0000      -2.230090       -60.6838
  38   1.0000      -2.229666       -60.6723
  39   1.0000      -2.229243       -60.6608
  40   1.0000      -2.229123       -60.6575
  41   1.0000      -2.228577       -60.6427
  42   1.0000      -2.228462       -60.6395
  43   1.0000      -2.228155       -60.6312
  44   1.0000      -2.227102       -60.6025
  45   1.0000      -2.226703       -60.5917
  46   1.0000      -1.780033       -48.4372
  47   1.0000      -1.778333       -48.3909
  48   1.0000      -1.773605       -48.2623
  49   1.0000      -0.410101       -11.1594
  50   1.0000      -0.381129       -10.3711
  51   1.0000      -0.372766       -10.1435
  52   1.0000      -0.365347        -9.9416
  53   1.0000      -0.359305        -9.7772
  54   1.0000      -0.357845        -9.7375
  55   1.0000      -0.353255        -9.6126
  56   1.0000      -0.348515        -9.4836
  57   1.0000      -0.345530        -9.4024
  58   1.0000      -0.336571        -9.1586
  59   1.0000      -0.335254        -9.1227
  60   1.0000      -0.331115        -9.0101
  61   1.0000      -0.328361        -8.9352
  62   1.0000      -0.327215        -8.9040
  63   1.0000      -0.320991        -8.7346
  64   1.0000      -0.320631        -8.7248
  65   1.0000      -0.319464        -8.6931
  66   1.0000      -0.315877        -8.5954
  67   1.0000      -0.313797        -8.5388
  68   1.0000      -0.312763        -8.5107
  69   1.0000      -0.306319        -8.3354
  70   1.0000      -0.305088        -8.3019
  71   1.0000      -0.299262        -8.1433
  72   1.0000      -0.297602        -8.0982
  73   1.0000      -0.294033        -8.0010
  74   1.0000      -0.293518        -7.9870
  75   1.0000      -0.289304        -7.8724
  76   1.0000      -0.286967        -7.8088
  77   1.0000      -0.283283        -7.7085
  78   1.0000      -0.283040        -7.7019
  79   1.0000      -0.279399        -7.6028
  80   1.0000      -0.279234        -7.5983
  81   1.0000      -0.275669        -7.5013
  82   1.0000      -0.275586        -7.4991
  83   1.0000      -0.271013        -7.3746
  84   1.0000      -0.269323        -7.3286
  85   1.0000      -0.268188        -7.2978
  86   1.0000      -0.267590        -7.2815
  87   1.0000      -0.266996        -7.2653
  88   1.0000      -0.262794        -7.1510
  89   1.0000      -0.260034        -7.0759
  90   1.0000      -0.257179        -6.9982
  91   1.0000      -0.256982        -6.9928
  92   1.0000      -0.256003        -6.9662
  93   1.0000      -0.250815        -6.8250
  94   1.0000      -0.250724        -6.8225
  95   1.0000      -0.249908        -6.8004
  96   1.0000      -0.248655        -6.7662
  97   1.0000      -0.245453        -6.6791
  98   1.0000      -0.241275        -6.5654
  99   1.0000      -0.238539        -6.4910
 100   1.0000      -0.237343        -6.4584
 101   1.0000      -0.229873        -6.2551
 102   1.0000      -0.229706        -6.2506
 103   1.0000      -0.218121        -5.9354
 104   1.0000      -0.209926        -5.7124
 105   1.0000      -0.202414        -5.5080
 106   1.0000      -0.200043        -5.4434
 107   1.0000      -0.190694        -5.1891
 108   1.0000      -0.186726        -5.0811
 109   0.0000      -0.164875        -4.4865
 110   0.0000      -0.145564        -3.9610
 111   0.0000      -0.143453        -3.9036
 112   0.0000      -0.140763        -3.8304
 113   0.0000      -0.107652        -2.9294

                 SPIN DOWN ORBITALS
  NO   OCC          E(Eh)            E(eV)
   0   1.0000    -214.478040     -5836.2442
   1   1.0000     -24.227823      -659.2726
   2   1.0000     -20.606613      -560.7344
   3   1.0000     -20.605185      -560.6956
   4   1.0000     -20.595615      -560.4352
   5   1.0000      -4.025422      -109.5373
   6   1.0000      -4.024466      -109.5113
   7   1.0000      -4.024228      -109.5048
   8   1.0000      -4.020846      -109.4128
   9   1.0000      -4.020805      -109.4117
  10   1.0000      -4.019104      -109.3654
  11   1.0000      -4.019091      -109.3650
  12   1.0000      -4.019069      -109.3644
  13   1.0000      -4.016740      -109.3011
  14   1.0000      -4.016558      -109.2961
  15   1.0000      -2.652526       -72.1789
  16   1.0000      -2.244530       -61.0768
  17   1.0000      -2.240934       -60.9789
  18   1.0000      -2.240132       -60.9571
  19   1.0000      -2.240002       -60.9536
  20   1.0000      -2.239747       -60.9466
  21   1.0000      -2.238349       -60.9086
  22   1.0000      -2.237868       -60.8955
  23   1.0000      -2.237062       -60.8736
  24   1.0000      -2.235993       -60.8445
  25   1.0000      -2.235479       -60.8305
  26   1.0000      -2.235057       -60.8190
  27   1.0000      -2.234095       -60.7928
  28   1.0000      -2.233942       -60.7886
  29   1.0000      -2.233720       -60.7826
  30   1.0000      -2.233707       -60.7823
  31   1.0000      -2.233402       -60.7740
  32   1.0000      -2.233001       -60.7630
  33   1.0000      -2.232899       -60.7603
  34   1.0000      -2.231726       -60.7284
  35   1.0000      -2.230579       -60.6971
  36   1.0000      -2.230452       -60.6937
  37   1.0000      -2.229661       -60.6722
  38   1.0000      -2.229513       -60.6681
  39   1.0000      -2.228505       -60.6407
  40   1.0000      -2.228359       -60.6367
  41   1.0000      -2.227785       -60.6211
  42   1.0000      -2.227752       -60.6202
  43   1.0000      -2.227632       -60.6169
  44   1.0000      -2.226504       -60.5863
  45   1.0000      -2.226101       -60.5753
  46   1.0000      -1.654112       -45.0107
  47   1.0000      -1.650300       -44.9069
  48   1.0000      -1.628761       -44.3208
  49   1.0000      -0.404108       -10.9963
  50   1.0000      -0.377870       -10.2824
  51   1.0000      -0.369183       -10.0460
  52   1.0000      -0.363142        -9.8816
  53   1.0000      -0.355986        -9.6869
  54   1.0000      -0.355259        -9.6671
  55   1.0000      -0.350850        -9.5471
  56   1.0000      -0.344221        -9.3667
  57   1.0000      -0.342900        -9.3308
  58   1.0000      -0.334966        -9.1149
  59   1.0000      -0.333291        -9.0693
  60   1.0000      -0.329342        -8.9619
  61   1.0000      -0.326639        -8.8883
  62   1.0000      -0.325485        -8.8569
  63   1.0000      -0.320289        -8.7155
  64   1.0000      -0.320113        -8.7107
  65   1.0000      -0.316925        -8.6240
  66   1.0000      -0.313904        -8.5418
  67   1.0000      -0.311330        -8.4717
  68   1.0000      -0.310224        -8.4416
  69   1.0000      -0.304832        -8.2949
  70   1.0000      -0.302374        -8.2280
  71   1.0000      -0.297277        -8.0893
  72   1.0000      -0.295909        -8.0521
  73   1.0000      -0.290528        -7.9057
  74   1.0000      -0.288537        -7.8515
  75   1.0000      -0.287936        -7.8352
  76   1.0000      -0.285821        -7.7776
  77   1.0000      -0.282393        -7.6843
  78   1.0000      -0.282243        -7.6802
  79   1.0000      -0.278135        -7.5684
  80   1.0000      -0.277265        -7.5448
  81   1.0000      -0.274550        -7.4709
  82   1.0000      -0.274170        -7.4605
  83   1.0000      -0.270313        -7.3556
  84   1.0000      -0.268286        -7.3004
  85   1.0000      -0.268231        -7.2989
  86   1.0000      -0.267098        -7.2681
  87   1.0000      -0.266856        -7.2615
  88   1.0000      -0.260893        -7.0993
  89   1.0000      -0.259812        -7.0699
  90   1.0000      -0.256975        -6.9926
  91   1.0000      -0.256294        -6.9741
  92   1.0000      -0.254958        -6.9378
  93   1.0000      -0.249909        -6.8004
  94   1.0000      -0.249681        -6.7942
  95   1.0000      -0.249105        -6.7785
  96   1.0000      -0.247634        -6.7385
  97   1.0000      -0.244884        -6.6636
  98   1.0000      -0.239728        -6.5233
  99   1.0000      -0.238710        -6.4956
 100   1.0000      -0.236954        -6.4478
 101   1.0000      -0.228855        -6.2275
 102   1.0000      -0.225382        -6.1330
 103   1.0000      -0.211483        -5.7547
 104   1.0000      -0.196536        -5.3480
 105   0.0000      -0.154479        -4.2036
 106   0.0000      -0.151760        -4.1296
 107   0.0000      -0.146295        -3.9809
 108   0.0000      -0.107586        -2.9276
 109   0.0000      -0.100435        -2.7330

MULLIKEN ATOMIC CHARGES AND SPIN POPULATIONS
--------------------------------------------
   0 Au:    0.371895    0.025798
   1 Au:    0.103351   -0.062521
   2 Au:    0.370099    0.025470
   3 Au:    0.303380   -0.032489
   4 Au:    0.299801   -0.034567
   5 Au:    0.100511   -0.060663
   6 Au:    0.351038    0.137398
   7 Au:   -0.022428    0.029039
   8 Au:    0.146663    0.034382
   9 Au:    0.149328    0.034631
  10 Cr:   -2.173637    3.903521
Sum of atomic charges         :   -0.0000000

LOEWDIN ATOMIC CHARGES AND SPIN POPULATIONS
-------------------------------------------
   0 Au:    0.120536    0.015961
   1 Au:    0.026809    0.004129
   2 Au:    0.119602    0.015789
   3 Au:    0.087633   -0.010325
   4 Au:    0.086587   -0.011265
   5 Au:    0.026282    0.005544
   6 Au:    0.123331    0.076472
   7 Au:    0.001864    0.046079
   8 Au:    0.076801    0.036201
   9 Au:    0.077271    0.035573
  10 Cr:   -0.746717    3.785841

  Mayer bond orders larger than 0.100000
B(  0-Au,  4-Au) :   0.2368 B(  0-Au,  5-Au) :   0.4587 B(  0-Au,  9-Au) :   0.1505
B(  0-Au, 10-Cr) :   0.6309 B(  1-Au,  2-Au) :   0.4571 B(  1-Au,  5-Au) :   0.1060
B(  1-Au,  6-Au) :   0.3523 B(  1-Au,  7-Au) :   0.2136 B(  1-Au, 10-Cr) :   0.6580
B(  2-Au,  3-Au) :   0.2388 B(  2-Au,  8-Au) :   0.1508 B(  2-Au, 10-Cr) :   0.6315
B(  3-Au,  4-Au) :   0.3165 B(  3-Au,  8-Au) :   0.2397 B(  3-Au, 10-Cr) :   0.5683
B(  4-Au,  9-Au) :   0.2413 B(  4-Au, 10-Cr) :   0.5721 B(  5-Au,  6-Au) :   0.3547
B(  5-Au,  7-Au) :   0.2133 B(  5-Au, 10-Cr) :   0.6609 B(  6-Au,  7-Au) :   0.3546
B(  6-Au, 10-Cr) :   0.1405 B(  7-Au,  8-Au) :   0.3761 B(  7-Au,  9-Au) :   0.3761
B(  7-Au, 10-Cr) :   0.2705 B(  8-Au,  9-Au) :   0.3259 B(  8-Au, 10-Cr) :   0.4803
B(  9-Au, 10-Cr) :   0.4740

FINAL SINGLE POINT ENERGY     -2402.496497728865

DIPOLE MOMENT
-------------
                                X             Y             Z
Electronic contribution:      5.13971      21.54872     -22.72714
Nuclear contribution   :     -5.13155     -21.48307      22.48783
                        -----------------------------------------
Total Dipole Moment    :      0.00817       0.06565      -0.23931
                        -----------------------------------------
Magnitude (a.u.)       :      0.24828
Magnitude (Debye)      :      0.63109

Rotational constants in cm-1:     0.002236     0.001585     0.001234
Rotational constants in MHz :    67.025180    47.513417    36.987654

                             ****ORCA TERMINATED NORMALLY****
TOTAL RUN TIME: 0 days 5 hours 17 minutes 0 seconds 238 msec
