                         Program Version 5.0.3 -  RELEASE  -
|  1> !RI-B2PLYP def2-TZVP def2-TZVP/C
|  2> !RIJCOSX VERYSLOWCONV
|  3>
|  4> %scf
|  5>   AutoTRAHIter 200
|  6>   maxiter 400
|  7> end
|  8>
|  9>
| 10> %pal nprocs 6 end
| 11>
| 12> *xyzfile 0 6 pbe.xyz
| 13>
| 14> $new_job
| 15>
| 16> !RI-B2PLYP def2-TZVP def2-TZVP/C
| 17> !RIJCOSX VERYSLOWCONV
| 18>
| 19> %scf
| 20>   AutoTRAHIter 200
| 21>   maxiter 400
| 22> end
| 23>
| 24>
| 25> %pal nprocs 6 end
| 26>
| 27> *xyzfile 0 4 pbe.xyz
| 28>
| 29>
| 30>
| 31>
| 32>
| 33>                          ****END OF INPUT****
 Total Charge           Charge          ....    0
 Multiplicity           Mult            ....    6
 Number of Electrons    NEL             ....  311
MP2 TOTAL ENERGY:    -3297.347812921 Eh
FINAL SINGLE POINT ENERGY     -3297.347812920505

CARTESIAN COORDINATES (ANGSTROEM)
---------------------------------
  Au     3.337331    7.443009    9.397561
  Au     7.986957    6.013561    9.623288
  Au     4.608343    9.698901    8.276136
  Au     7.148407   10.447296    8.935462
  Au     9.963123   10.121623    9.249142
  Au     5.919231    8.044801   10.135028
  Au    10.485617    7.405538    9.662126
  Au     8.373249    8.640487   11.011791
  Au     7.076889    6.228372    6.779335
  Au     6.535198    9.085250    6.326238
  Au     4.531651    7.271102    6.823789
  Au     8.953960    7.905381    5.503150
  Au     8.955448   10.436666    6.723718
  Au     5.384577    5.566276    8.915743
  Au     9.793104    6.010971    7.410534
  Fe     8.364873    8.207798    8.170349

 Multiplicity           Mult            ....    4
 Number of Electrons    NEL             ....  311
 Basis Dimension        Dim             ....  645

ORBITAL ENERGIES
----------------
                 SPIN UP ORBITALS
  NO   OCC          E(Eh)            E(eV)
   0   1.0000    -258.340346     -7029.7982
   1   1.0000     -30.898830      -840.7999
   2   1.0000     -26.607435      -724.0251
   3   1.0000     -26.605918      -723.9838
   4   1.0000     -26.578028      -723.2249
   5   1.0000      -4.407517      -119.9346
   6   1.0000      -4.407348      -119.9300
   7   1.0000      -4.407141      -119.9244
   8   1.0000      -4.407041      -119.9217
   9   1.0000      -4.400654      -119.7479
  10   1.0000      -4.400492      -119.7435
  11   1.0000      -4.399539      -119.7175
  12   1.0000      -4.399342      -119.7122
  13   1.0000      -4.395095      -119.5966
  14   1.0000      -4.394229      -119.5731
  15   1.0000      -4.393922      -119.5647
  16   1.0000      -4.389955      -119.4567
  17   1.0000      -4.389860      -119.4542
  18   1.0000      -4.388347      -119.4130
  19   1.0000      -4.383913      -119.2923
  20   1.0000      -3.911422      -106.4352
  21   1.0000      -2.641966       -71.8915
  22   1.0000      -2.639269       -71.8182
  23   1.0000      -2.579624       -70.1951
  24   1.0000      -2.528201       -68.7958
  25   1.0000      -2.527841       -68.7861
  26   1.0000      -2.527599       -68.7795
  27   1.0000      -2.527297       -68.7712
  28   1.0000      -2.525753       -68.7292
  29   1.0000      -2.525435       -68.7206
  30   1.0000      -2.525331       -68.7177
  31   1.0000      -2.523922       -68.6794
  32   1.0000      -2.523093       -68.6568
  33   1.0000      -2.522257       -68.6341
  34   1.0000      -2.521541       -68.6146
  35   1.0000      -2.521478       -68.6129
  36   1.0000      -2.521038       -68.6009
  37   1.0000      -2.520728       -68.5925
  38   1.0000      -2.520595       -68.5889
  39   1.0000      -2.518845       -68.5413
  40   1.0000      -2.518523       -68.5325
  41   1.0000      -2.517778       -68.5122
  42   1.0000      -2.517760       -68.5117
  43   1.0000      -2.516290       -68.4717
  44   1.0000      -2.514981       -68.4361
  45   1.0000      -2.514766       -68.4303
  46   1.0000      -2.514238       -68.4159
  47   1.0000      -2.514110       -68.4124
  48   1.0000      -2.513797       -68.4039
  49   1.0000      -2.512613       -68.3717
  50   1.0000      -2.512172       -68.3597
  51   1.0000      -2.511372       -68.3379
  52   1.0000      -2.510547       -68.3155
  53   1.0000      -2.509360       -68.2832
  54   1.0000      -2.509198       -68.2787
  55   1.0000      -2.509085       -68.2757
  56   1.0000      -2.509059       -68.2750
  57   1.0000      -2.508673       -68.2645
  58   1.0000      -2.508047       -68.2474
  59   1.0000      -2.507579       -68.2347
  60   1.0000      -2.507001       -68.2190
  61   1.0000      -2.506616       -68.2085
  62   1.0000      -2.505735       -68.1845
  63   1.0000      -2.505596       -68.1807
  64   1.0000      -2.504639       -68.1547
  65   1.0000      -2.503290       -68.1180
  66   1.0000      -2.501667       -68.0738
  67   1.0000      -2.499902       -68.0258
  68   1.0000      -2.499461       -68.0138
  69   1.0000      -0.567161       -15.4332
  70   1.0000      -0.563938       -15.3455
  71   1.0000      -0.540783       -14.7155
  72   1.0000      -0.540245       -14.7008
  73   1.0000      -0.524973       -14.2852
  74   1.0000      -0.490687       -13.3523
  75   1.0000      -0.473547       -12.8859
  76   1.0000      -0.472324       -12.8526
  77   1.0000      -0.471776       -12.8377
  78   1.0000      -0.467220       -12.7137
  79   1.0000      -0.466771       -12.7015
  80   1.0000      -0.463744       -12.6191
  81   1.0000      -0.459222       -12.4961
  82   1.0000      -0.458437       -12.4747
  83   1.0000      -0.457412       -12.4468
  84   1.0000      -0.453829       -12.3493
  85   1.0000      -0.453488       -12.3400
  86   1.0000      -0.451596       -12.2885
  87   1.0000      -0.450959       -12.2712
  88   1.0000      -0.448183       -12.1957
  89   1.0000      -0.447337       -12.1727
  90   1.0000      -0.446511       -12.1502
  91   1.0000      -0.442182       -12.0324
  92   1.0000      -0.439108       -11.9487
  93   1.0000      -0.436939       -11.8897
  94   1.0000      -0.434673       -11.8280
  95   1.0000      -0.434318       -11.8184
  96   1.0000      -0.432329       -11.7643
  97   1.0000      -0.431785       -11.7495
  98   1.0000      -0.429576       -11.6894
  99   1.0000      -0.424634       -11.5549
 100   1.0000      -0.423381       -11.5208
 101   1.0000      -0.423223       -11.5165
 102   1.0000      -0.421073       -11.4580
 103   1.0000      -0.415856       -11.3160
 104   1.0000      -0.413518       -11.2524
 105   1.0000      -0.412307       -11.2194
 106   1.0000      -0.409527       -11.1438
 107   1.0000      -0.406198       -11.0532
 108   1.0000      -0.397276       -10.8104
 109   1.0000      -0.396449       -10.7879
 110   1.0000      -0.393779       -10.7153
 111   1.0000      -0.390860       -10.6358
 112   1.0000      -0.389596       -10.6014
 113   1.0000      -0.388192       -10.5632
 114   1.0000      -0.385092       -10.4789
 115   1.0000      -0.384223       -10.4552
 116   1.0000      -0.380901       -10.3648
 117   1.0000      -0.380414       -10.3516
 118   1.0000      -0.377247       -10.2654
 119   1.0000      -0.376916       -10.2564
 120   1.0000      -0.373847       -10.1729
 121   1.0000      -0.373102       -10.1526
 122   1.0000      -0.371177       -10.1002
 123   1.0000      -0.368985       -10.0406
 124   1.0000      -0.367898       -10.0110
 125   1.0000      -0.365967        -9.9585
 126   1.0000      -0.365026        -9.9329
 127   1.0000      -0.364675        -9.9233
 128   1.0000      -0.364316        -9.9135
 129   1.0000      -0.362370        -9.8606
 130   1.0000      -0.361011        -9.8236
 131   1.0000      -0.359251        -9.7757
 132   1.0000      -0.358685        -9.7603
 133   1.0000      -0.357498        -9.7280
 134   1.0000      -0.355887        -9.6842
 135   1.0000      -0.354139        -9.6366
 136   1.0000      -0.353921        -9.6307
 137   1.0000      -0.352755        -9.5989
 138   1.0000      -0.348447        -9.4817
 139   1.0000      -0.344245        -9.3674
 140   1.0000      -0.343011        -9.3338
 141   1.0000      -0.340590        -9.2679
 142   1.0000      -0.339429        -9.2363
 143   1.0000      -0.338656        -9.2153
 144   1.0000      -0.336258        -9.1500
 145   1.0000      -0.332655        -9.0520
 146   1.0000      -0.332485        -9.0474
 147   1.0000      -0.328505        -8.9391
 148   1.0000      -0.326004        -8.8710
 149   1.0000      -0.322670        -8.7803
 150   1.0000      -0.315905        -8.5962
 151   1.0000      -0.309615        -8.4251
 152   1.0000      -0.309367        -8.4183
 153   1.0000      -0.241278        -6.5655
 154   1.0000      -0.238425        -6.4879
 155   1.0000      -0.226909        -6.1745
 156   1.0000      -0.210790        -5.7359
 157   0.0000      -0.126556        -3.4438
 158   0.0000      -0.080692        -2.1958
 159   0.0000      -0.077207        -2.1009
 160   0.0000      -0.075299        -2.0490
 161   0.0000      -0.069541        -1.8923

                 SPIN DOWN ORBITALS
  NO   OCC          E(Eh)            E(eV)
   0   1.0000    -258.338384     -7029.7448
   1   1.0000     -30.806332      -838.2829
   2   1.0000     -26.515322      -721.5186
   3   1.0000     -26.515089      -721.5122
   4   1.0000     -26.507567      -721.3076
   5   1.0000      -4.407406      -119.9316
   6   1.0000      -4.407184      -119.9256
   7   1.0000      -4.407121      -119.9239
   8   1.0000      -4.406613      -119.9100
   9   1.0000      -4.400730      -119.7500
  10   1.0000      -4.400563      -119.7454
  11   1.0000      -4.399453      -119.7152
  12   1.0000      -4.399252      -119.7097
  13   1.0000      -4.395011      -119.5943
  14   1.0000      -4.394316      -119.5754
  15   1.0000      -4.393551      -119.5546
  16   1.0000      -4.390020      -119.4585
  17   1.0000      -4.389940      -119.4564
  18   1.0000      -4.388114      -119.4066
  19   1.0000      -4.383825      -119.2900
  20   1.0000      -3.667978       -99.8107
  21   1.0000      -2.527319       -68.7718
  22   1.0000      -2.526960       -68.7621
  23   1.0000      -2.526524       -68.7502
  24   1.0000      -2.526158       -68.7402
  25   1.0000      -2.524941       -68.7071
  26   1.0000      -2.524790       -68.7030
  27   1.0000      -2.524446       -68.6937
  28   1.0000      -2.522892       -68.6514
  29   1.0000      -2.522638       -68.6445
  30   1.0000      -2.522162       -68.6315
  31   1.0000      -2.521509       -68.6138
  32   1.0000      -2.521090       -68.6024
  33   1.0000      -2.520801       -68.5945
  34   1.0000      -2.520214       -68.5785
  35   1.0000      -2.520029       -68.5735
  36   1.0000      -2.518136       -68.5220
  37   1.0000      -2.517853       -68.5143
  38   1.0000      -2.517638       -68.5084
  39   1.0000      -2.517560       -68.5063
  40   1.0000      -2.516494       -68.4773
  41   1.0000      -2.514929       -68.4347
  42   1.0000      -2.514794       -68.4310
  43   1.0000      -2.514350       -68.4189
  44   1.0000      -2.513537       -68.3968
  45   1.0000      -2.513331       -68.3912
  46   1.0000      -2.512090       -68.3575
  47   1.0000      -2.512047       -68.3563
  48   1.0000      -2.511560       -68.3430
  49   1.0000      -2.510236       -68.3070
  50   1.0000      -2.509623       -68.2903
  51   1.0000      -2.509377       -68.2836
  52   1.0000      -2.509259       -68.2804
  53   1.0000      -2.509129       -68.2769
  54   1.0000      -2.508787       -68.2676
  55   1.0000      -2.507827       -68.2415
  56   1.0000      -2.507289       -68.2268
  57   1.0000      -2.506845       -68.2147
  58   1.0000      -2.506568       -68.2072
  59   1.0000      -2.505954       -68.1905
  60   1.0000      -2.505754       -68.1850
  61   1.0000      -2.504589       -68.1533
  62   1.0000      -2.503167       -68.1146
  63   1.0000      -2.501572       -68.0712
  64   1.0000      -2.499991       -68.0282
  65   1.0000      -2.499303       -68.0095
  66   1.0000      -2.349030       -63.9203
  67   1.0000      -2.339631       -63.6646
  68   1.0000      -2.338463       -63.6328
  69   1.0000      -0.517437       -14.0802
  70   1.0000      -0.477567       -12.9953
  71   1.0000      -0.475662       -12.9434
  72   1.0000      -0.475391       -12.9361
  73   1.0000      -0.472747       -12.8641
  74   1.0000      -0.470506       -12.8031
  75   1.0000      -0.467375       -12.7179
  76   1.0000      -0.465132       -12.6569
  77   1.0000      -0.463220       -12.6049
  78   1.0000      -0.460224       -12.5233
  79   1.0000      -0.459286       -12.4978
  80   1.0000      -0.456824       -12.4308
  81   1.0000      -0.456598       -12.4247
  82   1.0000      -0.455696       -12.4001
  83   1.0000      -0.455275       -12.3887
  84   1.0000      -0.452521       -12.3137
  85   1.0000      -0.452330       -12.3085
  86   1.0000      -0.447288       -12.1713
  87   1.0000      -0.445691       -12.1279
  88   1.0000      -0.439905       -11.9704
  89   1.0000      -0.438558       -11.9338
  90   1.0000      -0.436161       -11.8685
  91   1.0000      -0.435752       -11.8574
  92   1.0000      -0.433529       -11.7969
  93   1.0000      -0.432553       -11.7704
  94   1.0000      -0.429275       -11.6812
  95   1.0000      -0.426921       -11.6171
  96   1.0000      -0.425628       -11.5819
  97   1.0000      -0.422966       -11.5095
  98   1.0000      -0.417777       -11.3683
  99   1.0000      -0.417493       -11.3606
 100   1.0000      -0.414534       -11.2800
 101   1.0000      -0.411173       -11.1886
 102   1.0000      -0.406619       -11.0647
 103   1.0000      -0.405723       -11.0403
 104   1.0000      -0.402841       -10.9619
 105   1.0000      -0.397450       -10.8152
 106   1.0000      -0.393219       -10.7000
 107   1.0000      -0.390793       -10.6340
 108   1.0000      -0.390262       -10.6196
 109   1.0000      -0.389596       -10.6014
 110   1.0000      -0.386517       -10.5176
 111   1.0000      -0.385631       -10.4935
 112   1.0000      -0.383157       -10.4262
 113   1.0000      -0.380824       -10.3628
 114   1.0000      -0.379777       -10.3343
 115   1.0000      -0.378442       -10.2979
 116   1.0000      -0.374859       -10.2004
 117   1.0000      -0.370548       -10.0831
 118   1.0000      -0.368761       -10.0345
 119   1.0000      -0.368358       -10.0235
 120   1.0000      -0.366865        -9.9829
 121   1.0000      -0.366501        -9.9730
 122   1.0000      -0.366324        -9.9682
 123   1.0000      -0.364465        -9.9176
 124   1.0000      -0.363314        -9.8863
 125   1.0000      -0.363258        -9.8848
 126   1.0000      -0.361445        -9.8354
 127   1.0000      -0.360939        -9.8216
 128   1.0000      -0.358927        -9.7669
 129   1.0000      -0.357319        -9.7231
 130   1.0000      -0.355824        -9.6825
 131   1.0000      -0.355611        -9.6767
 132   1.0000      -0.355528        -9.6744
 133   1.0000      -0.349055        -9.4983
 134   1.0000      -0.346280        -9.4228
 135   1.0000      -0.345589        -9.4040
 136   1.0000      -0.342046        -9.3075
 137   1.0000      -0.340965        -9.2781
 138   1.0000      -0.340702        -9.2710
 139   1.0000      -0.337657        -9.1881
 140   1.0000      -0.337034        -9.1712
 141   1.0000      -0.333244        -9.0680
 142   1.0000      -0.332627        -9.0512
 143   1.0000      -0.328088        -8.9277
 144   1.0000      -0.326887        -8.8950
 145   1.0000      -0.323147        -8.7933
 146   1.0000      -0.318269        -8.6605
 147   1.0000      -0.317559        -8.6412
 148   1.0000      -0.316153        -8.6030
 149   1.0000      -0.244301        -6.6478
 150   1.0000      -0.243925        -6.6375
 151   1.0000      -0.232194        -6.3183
 152   1.0000      -0.223139        -6.0719
 153   1.0000      -0.219948        -5.9851
 154   0.0000      -0.080840        -2.1998
 155   0.0000      -0.079786        -2.1711
 156   0.0000      -0.077251        -2.1021
 157   0.0000      -0.070401        -1.9157
 158   0.0000      -0.055905        -1.5212

MULLIKEN ATOMIC CHARGES AND SPIN POPULATIONS
--------------------------------------------
   0 Au:    0.406331    0.014417
   1 Au:    0.028840   -0.093927
   2 Au:    0.267491    0.037762
   3 Au:    0.024873   -0.087441
   4 Au:    0.320122   -0.057681
   5 Au:   -0.763437    0.008610
   6 Au:    0.321116   -0.057919
   7 Au:    0.307553    0.021927
   8 Au:   -0.217033   -0.133623
   9 Au:   -0.212750   -0.131308
  10 Au:    0.253642    0.058932
  11 Au:    0.247853    0.011688
  12 Au:    0.304964   -0.072160
  13 Au:    0.271008    0.038688
  14 Au:    0.301438   -0.068329
  15 Fe:   -1.862012    3.510364
Sum of atomic charges         :   -0.0000000

LOEWDIN ATOMIC CHARGES AND SPIN POPULATIONS
-------------------------------------------
   0 Au:    0.089403    0.021700
   1 Au:    0.005231   -0.054750
   2 Au:    0.013524    0.011742
   3 Au:    0.005114   -0.053502
   4 Au:    0.063964   -0.051487
   5 Au:   -0.127040   -0.012433
   6 Au:    0.063945   -0.051316
   7 Au:    0.041870   -0.043790
   8 Au:   -0.045774   -0.062526
   9 Au:   -0.045291   -0.061925
  10 Au:   -0.006714    0.031695
  11 Au:    0.070800   -0.074222
  12 Au:    0.077982   -0.078856
  13 Au:    0.014184    0.012887
  14 Au:    0.078479   -0.079900
  15 Fe:   -0.299677    3.546684

  Mayer bond orders larger than 0.100000
B(  0-Au,  2-Au) :   0.1803 B(  0-Au,  5-Au) :   0.4916 B(  0-Au, 10-Au) :   0.1480
B(  0-Au, 13-Au) :   0.1821 B(  1-Au,  5-Au) :   0.1854 B(  1-Au,  6-Au) :   0.2003
B(  1-Au,  8-Au) :   0.1731 B(  1-Au, 13-Au) :   0.3705 B(  1-Au, 14-Au) :   0.1622
B(  1-Au, 15-Fe) :   0.4650 B(  2-Au,  3-Au) :   0.3762 B(  2-Au,  5-Au) :   0.2576
B(  2-Au,  9-Au) :   0.2330 B(  2-Au, 10-Au) :   0.1605 B(  3-Au,  4-Au) :   0.2062
B(  3-Au,  5-Au) :   0.1808 B(  3-Au,  9-Au) :   0.1667 B(  3-Au, 12-Au) :   0.1624
B(  3-Au, 15-Fe) :   0.4667 B(  4-Au,  6-Au) :   0.1718 B(  4-Au,  7-Au) :   0.1741
B(  4-Au, 12-Au) :   0.1928 B(  4-Au, 15-Fe) :   0.4114 B(  5-Au,  7-Au) :   0.4472
B(  5-Au, 10-Au) :   0.1371 B(  5-Au, 13-Au) :   0.2580 B(  5-Au, 15-Fe) :   0.2599
B(  6-Au,  7-Au) :   0.1765 B(  6-Au, 14-Au) :   0.1928 B(  6-Au, 15-Fe) :   0.4126
B(  7-Au, 15-Fe) :   0.3524 B(  8-Au,  9-Au) :   0.2446 B(  8-Au, 10-Au) :   0.2980
B(  8-Au, 11-Au) :   0.2094 B(  8-Au, 13-Au) :   0.2358 B(  8-Au, 14-Au) :   0.2248
B(  8-Au, 15-Fe) :   0.4404 B(  9-Au, 10-Au) :   0.2986 B(  9-Au, 11-Au) :   0.2153
B(  9-Au, 12-Au) :   0.2216 B(  9-Au, 15-Fe) :   0.4411 B( 10-Au, 13-Au) :   0.1602
B( 11-Au, 12-Au) :   0.1106 B( 11-Au, 14-Au) :   0.1077 B( 11-Au, 15-Fe) :   0.4507
B( 12-Au, 15-Fe) :   0.4206 B( 14-Au, 15-Fe) :   0.4189

MP2 TOTAL ENERGY:    -3297.358299427 Eh
FINAL SINGLE POINT ENERGY     -3297.358299427444

DIPOLE MOMENT
-------------
                                X             Y             Z
Electronic contribution:    -41.48088      -7.08482       5.53272
Nuclear contribution   :     41.84846       7.13039      -5.65237
                        -----------------------------------------
Total Dipole Moment    :      0.36759       0.04557      -0.11964
                        -----------------------------------------
Magnitude (a.u.)       :      0.38924
Magnitude (Debye)      :      0.98938

Rotational constants in cm-1:     0.001145     0.000812     0.000801
Rotational constants in MHz :    34.337956    24.339968    24.011191

                             ****ORCA TERMINATED NORMALLY****
TOTAL RUN TIME: 0 days 1 hours 42 minutes 51 seconds 38 msec
