                         Program Version 5.0.3 -  RELEASE  -
|  1> !PBE def2-TZVP VERYSLOWCONV
|  2>
|  3> %scf
|  4>   AutoTRAHIter 200
|  5>   maxiter 400
|  6> end
|  7>
|  8>
|  9> %pal nprocs 6 end
| 10>
| 11> *xyzfile 0 6 pbe.xyz
| 12>
| 13> $new_job
| 14>
| 15> !PBE def2-TZVP VERYSLOWCONV
| 16>
| 17> %scf
| 18>   AutoTRAHIter 200
| 19>   maxiter 400
| 20> end
| 21>
| 22>
| 23> %pal nprocs 6 end
| 24>
| 25> *xyzfile 0 4 pbe.xyz
| 26>
| 27>
| 28>
| 29>
| 30>
| 31>                          ****END OF INPUT****
 Total Charge           Charge          ....    0
 Multiplicity           Mult            ....    6
 Number of Electrons    NEL             ....  311
FINAL SINGLE POINT ENERGY     -3300.911622801336

CARTESIAN COORDINATES (ANGSTROEM)
---------------------------------
  Au     3.337331    7.443009    9.397561
  Au     7.986957    6.013561    9.623288
  Au     4.608343    9.698901    8.276136
  Au     7.148407   10.447296    8.935462
  Au     9.963123   10.121623    9.249142
  Au     5.919231    8.044801   10.135028
  Au    10.485617    7.405538    9.662126
  Au     8.373249    8.640487   11.011791
  Au     7.076889    6.228372    6.779335
  Au     6.535198    9.085250    6.326238
  Au     4.531651    7.271102    6.823789
  Au     8.953960    7.905381    5.503150
  Au     8.955448   10.436666    6.723718
  Au     5.384577    5.566276    8.915743
  Au     9.793104    6.010971    7.410534
  Fe     8.364873    8.207798    8.170349

 Multiplicity           Mult            ....    4
 Number of Electrons    NEL             ....  311
 Basis Dimension        Dim             ....  645

ORBITAL ENERGIES
----------------
                 SPIN UP ORBITALS
  NO   OCC          E(Eh)            E(eV)
   0   1.0000    -254.753573     -6932.1971
   1   1.0000     -29.589155      -805.1618
   2   1.0000     -25.530696      -694.7255
   3   1.0000     -25.528613      -694.6689
   4   1.0000     -25.514788      -694.2927
   5   1.0000      -4.037471      -109.8652
   6   1.0000      -4.037229      -109.8586
   7   1.0000      -4.036605      -109.8416
   8   1.0000      -4.035906      -109.8226
   9   1.0000      -4.029124      -109.6380
  10   1.0000      -4.028967      -109.6338
  11   1.0000      -4.028104      -109.6103
  12   1.0000      -4.027964      -109.6065
  13   1.0000      -4.025886      -109.5499
  14   1.0000      -4.025461      -109.5384
  15   1.0000      -4.024353      -109.5082
  16   1.0000      -4.021096      -109.4196
  17   1.0000      -4.020994      -109.4168
  18   1.0000      -4.019070      -109.3644
  19   1.0000      -4.015371      -109.2638
  20   1.0000      -3.367542       -91.6355
  21   1.0000      -2.253913       -61.3321
  22   1.0000      -2.253562       -61.3225
  23   1.0000      -2.252580       -61.2958
  24   1.0000      -2.252012       -61.2804
  25   1.0000      -2.250333       -61.2347
  26   1.0000      -2.250063       -61.2273
  27   1.0000      -2.249682       -61.2170
  28   1.0000      -2.248717       -61.1907
  29   1.0000      -2.248084       -61.1735
  30   1.0000      -2.247409       -61.1551
  31   1.0000      -2.246223       -61.1228
  32   1.0000      -2.245589       -61.1056
  33   1.0000      -2.245266       -61.0968
  34   1.0000      -2.244810       -61.0844
  35   1.0000      -2.244593       -61.0785
  36   1.0000      -2.244333       -61.0714
  37   1.0000      -2.242879       -61.0318
  38   1.0000      -2.242734       -61.0279
  39   1.0000      -2.242453       -61.0203
  40   1.0000      -2.240959       -60.9796
  41   1.0000      -2.240282       -60.9612
  42   1.0000      -2.240221       -60.9595
  43   1.0000      -2.239415       -60.9376
  44   1.0000      -2.239093       -60.9288
  45   1.0000      -2.238906       -60.9237
  46   1.0000      -2.238699       -60.9181
  47   1.0000      -2.238337       -60.9083
  48   1.0000      -2.237947       -60.8976
  49   1.0000      -2.237679       -60.8903
  50   1.0000      -2.236902       -60.8692
  51   1.0000      -2.236780       -60.8659
  52   1.0000      -2.236370       -60.8547
  53   1.0000      -2.235518       -60.8315
  54   1.0000      -2.234502       -60.8039
  55   1.0000      -2.234281       -60.7979
  56   1.0000      -2.233980       -60.7897
  57   1.0000      -2.233882       -60.7870
  58   1.0000      -2.233326       -60.7719
  59   1.0000      -2.232835       -60.7585
  60   1.0000      -2.231589       -60.7246
  61   1.0000      -2.231284       -60.7163
  62   1.0000      -2.229167       -60.6587
  63   1.0000      -2.228268       -60.6343
  64   1.0000      -2.227658       -60.6177
  65   1.0000      -2.226795       -60.5942
  66   1.0000      -2.193754       -59.6951
  67   1.0000      -2.189697       -59.5847
  68   1.0000      -2.160748       -58.7969
  69   1.0000      -0.436872       -11.8879
  70   1.0000      -0.394148       -10.7253
  71   1.0000      -0.392059       -10.6685
  72   1.0000      -0.390573       -10.6280
  73   1.0000      -0.382586       -10.4107
  74   1.0000      -0.381203       -10.3731
  75   1.0000      -0.371410       -10.1066
  76   1.0000      -0.366310        -9.9678
  77   1.0000      -0.365513        -9.9461
  78   1.0000      -0.362602        -9.8669
  79   1.0000      -0.360275        -9.8036
  80   1.0000      -0.359874        -9.7927
  81   1.0000      -0.355831        -9.6827
  82   1.0000      -0.355536        -9.6746
  83   1.0000      -0.353721        -9.6253
  84   1.0000      -0.350943        -9.5497
  85   1.0000      -0.347839        -9.4652
  86   1.0000      -0.347737        -9.4624
  87   1.0000      -0.344648        -9.3783
  88   1.0000      -0.339389        -9.2352
  89   1.0000      -0.338043        -9.1986
  90   1.0000      -0.336849        -9.1661
  91   1.0000      -0.335261        -9.1229
  92   1.0000      -0.333585        -9.0773
  93   1.0000      -0.330883        -9.0038
  94   1.0000      -0.329916        -8.9775
  95   1.0000      -0.327250        -8.9049
  96   1.0000      -0.326543        -8.8857
  97   1.0000      -0.325975        -8.8702
  98   1.0000      -0.322076        -8.7641
  99   1.0000      -0.321306        -8.7432
 100   1.0000      -0.320382        -8.7180
 101   1.0000      -0.318215        -8.6591
 102   1.0000      -0.313378        -8.5275
 103   1.0000      -0.312496        -8.5034
 104   1.0000      -0.310905        -8.4601
 105   1.0000      -0.307223        -8.3600
 106   1.0000      -0.303591        -8.2611
 107   1.0000      -0.300174        -8.1681
 108   1.0000      -0.298871        -8.1327
 109   1.0000      -0.295591        -8.0434
 110   1.0000      -0.291992        -7.9455
 111   1.0000      -0.291314        -7.9271
 112   1.0000      -0.289101        -7.8668
 113   1.0000      -0.285491        -7.7686
 114   1.0000      -0.283958        -7.7269
 115   1.0000      -0.281988        -7.6733
 116   1.0000      -0.281536        -7.6610
 117   1.0000      -0.277484        -7.5507
 118   1.0000      -0.276996        -7.5375
 119   1.0000      -0.275604        -7.4996
 120   1.0000      -0.274867        -7.4795
 121   1.0000      -0.273931        -7.4540
 122   1.0000      -0.271986        -7.4011
 123   1.0000      -0.271469        -7.3871
 124   1.0000      -0.270876        -7.3709
 125   1.0000      -0.269858        -7.3432
 126   1.0000      -0.268099        -7.2953
 127   1.0000      -0.267542        -7.2802
 128   1.0000      -0.266324        -7.2470
 129   1.0000      -0.264105        -7.1867
 130   1.0000      -0.263764        -7.1774
 131   1.0000      -0.263356        -7.1663
 132   1.0000      -0.261964        -7.1284
 133   1.0000      -0.260374        -7.0851
 134   1.0000      -0.255355        -6.9485
 135   1.0000      -0.255001        -6.9389
 136   1.0000      -0.254583        -6.9276
 137   1.0000      -0.252896        -6.8816
 138   1.0000      -0.252195        -6.8626
 139   1.0000      -0.250799        -6.8246
 140   1.0000      -0.249856        -6.7989
 141   1.0000      -0.249196        -6.7810
 142   1.0000      -0.249035        -6.7766
 143   1.0000      -0.248560        -6.7637
 144   1.0000      -0.247312        -6.7297
 145   1.0000      -0.245154        -6.6710
 146   1.0000      -0.243994        -6.6394
 147   1.0000      -0.242514        -6.5991
 148   1.0000      -0.241720        -6.5775
 149   1.0000      -0.238828        -6.4988
 150   1.0000      -0.238625        -6.4933
 151   1.0000      -0.236819        -6.4442
 152   1.0000      -0.232442        -6.3251
 153   1.0000      -0.215717        -5.8700
 154   1.0000      -0.212736        -5.7889
 155   1.0000      -0.205747        -5.5987
 156   1.0000      -0.194890        -5.3032
 157   0.0000      -0.188718        -5.1353
 158   0.0000      -0.140593        -3.8257
 159   0.0000      -0.139859        -3.8058
 160   0.0000      -0.138894        -3.7795
 161   0.0000      -0.133089        -3.6215

                 SPIN DOWN ORBITALS
  NO   OCC          E(Eh)            E(eV)
   0   1.0000    -254.752916     -6932.1793
   1   1.0000     -29.532244      -803.6132
   2   1.0000     -25.485208      -693.4878
   3   1.0000     -25.484373      -693.4651
   4   1.0000     -25.475616      -693.2268
   5   1.0000      -4.037083      -109.8546
   6   1.0000      -4.036834      -109.8478
   7   1.0000      -4.036000      -109.8252
   8   1.0000      -4.035253      -109.8048
   9   1.0000      -4.028851      -109.6306
  10   1.0000      -4.028680      -109.6260
  11   1.0000      -4.027774      -109.6013
  12   1.0000      -4.027634      -109.5975
  13   1.0000      -4.026000      -109.5530
  14   1.0000      -4.025410      -109.5370
  15   1.0000      -4.023967      -109.4977
  16   1.0000      -4.021262      -109.4241
  17   1.0000      -4.021127      -109.4204
  18   1.0000      -4.018965      -109.3616
  19   1.0000      -4.015338      -109.2629
  20   1.0000      -3.238376       -88.1207
  21   1.0000      -2.253481       -61.3203
  22   1.0000      -2.253136       -61.3110
  23   1.0000      -2.251736       -61.2729
  24   1.0000      -2.251123       -61.2562
  25   1.0000      -2.249537       -61.2130
  26   1.0000      -2.249401       -61.2093
  27   1.0000      -2.248742       -61.1914
  28   1.0000      -2.247861       -61.1674
  29   1.0000      -2.247636       -61.1613
  30   1.0000      -2.247208       -61.1496
  31   1.0000      -2.246094       -61.1193
  32   1.0000      -2.245479       -61.1026
  33   1.0000      -2.245089       -61.0920
  34   1.0000      -2.244276       -61.0698
  35   1.0000      -2.244094       -61.0649
  36   1.0000      -2.244011       -61.0626
  37   1.0000      -2.242287       -61.0157
  38   1.0000      -2.242201       -61.0134
  39   1.0000      -2.242138       -61.0117
  40   1.0000      -2.240914       -60.9784
  41   1.0000      -2.240215       -60.9594
  42   1.0000      -2.239980       -60.9530
  43   1.0000      -2.239121       -60.9296
  44   1.0000      -2.238896       -60.9235
  45   1.0000      -2.238761       -60.9198
  46   1.0000      -2.238475       -60.9120
  47   1.0000      -2.238077       -60.9012
  48   1.0000      -2.237772       -60.8929
  49   1.0000      -2.237235       -60.8783
  50   1.0000      -2.237037       -60.8729
  51   1.0000      -2.236913       -60.8695
  52   1.0000      -2.236212       -60.8504
  53   1.0000      -2.235830       -60.8400
  54   1.0000      -2.234556       -60.8054
  55   1.0000      -2.234227       -60.7964
  56   1.0000      -2.234102       -60.7930
  57   1.0000      -2.233468       -60.7758
  58   1.0000      -2.233101       -60.7658
  59   1.0000      -2.232931       -60.7611
  60   1.0000      -2.231703       -60.7277
  61   1.0000      -2.231344       -60.7179
  62   1.0000      -2.229117       -60.6574
  63   1.0000      -2.228201       -60.6324
  64   1.0000      -2.227743       -60.6200
  65   1.0000      -2.226657       -60.5904
  66   1.0000      -2.060285       -56.0632
  67   1.0000      -2.059796       -56.0499
  68   1.0000      -2.044795       -55.6417
  69   1.0000      -0.433074       -11.7845
  70   1.0000      -0.392676       -10.6853
  71   1.0000      -0.391734       -10.6596
  72   1.0000      -0.390429       -10.6241
  73   1.0000      -0.376708       -10.2507
  74   1.0000      -0.373884       -10.1739
  75   1.0000      -0.368323       -10.0226
  76   1.0000      -0.365584        -9.9481
  77   1.0000      -0.363140        -9.8816
  78   1.0000      -0.361956        -9.8493
  79   1.0000      -0.358045        -9.7429
  80   1.0000      -0.355915        -9.6849
  81   1.0000      -0.354285        -9.6406
  82   1.0000      -0.353121        -9.6089
  83   1.0000      -0.352820        -9.6007
  84   1.0000      -0.350647        -9.5416
  85   1.0000      -0.347105        -9.4452
  86   1.0000      -0.346458        -9.4276
  87   1.0000      -0.342279        -9.3139
  88   1.0000      -0.337450        -9.1825
  89   1.0000      -0.336902        -9.1676
  90   1.0000      -0.335833        -9.1385
  91   1.0000      -0.334382        -9.0990
  92   1.0000      -0.331956        -9.0330
  93   1.0000      -0.330707        -8.9990
  94   1.0000      -0.329591        -8.9686
  95   1.0000      -0.326538        -8.8856
  96   1.0000      -0.326093        -8.8734
  97   1.0000      -0.325627        -8.8608
  98   1.0000      -0.321166        -8.7394
  99   1.0000      -0.318618        -8.6700
 100   1.0000      -0.314395        -8.5551
 101   1.0000      -0.313994        -8.5442
 102   1.0000      -0.311269        -8.4701
 103   1.0000      -0.307917        -8.3789
 104   1.0000      -0.306244        -8.3333
 105   1.0000      -0.301031        -8.1915
 106   1.0000      -0.298934        -8.1344
 107   1.0000      -0.296165        -8.0590
 108   1.0000      -0.295338        -8.0365
 109   1.0000      -0.293545        -7.9878
 110   1.0000      -0.291352        -7.9281
 111   1.0000      -0.291017        -7.9190
 112   1.0000      -0.287181        -7.8146
 113   1.0000      -0.284185        -7.7331
 114   1.0000      -0.282853        -7.6968
 115   1.0000      -0.281465        -7.6591
 116   1.0000      -0.279002        -7.5920
 117   1.0000      -0.276469        -7.5231
 118   1.0000      -0.275055        -7.4846
 119   1.0000      -0.274264        -7.4631
 120   1.0000      -0.274032        -7.4568
 121   1.0000      -0.272301        -7.4097
 122   1.0000      -0.271435        -7.3861
 123   1.0000      -0.271257        -7.3813
 124   1.0000      -0.268952        -7.3185
 125   1.0000      -0.267837        -7.2882
 126   1.0000      -0.267622        -7.2824
 127   1.0000      -0.267544        -7.2802
 128   1.0000      -0.265806        -7.2330
 129   1.0000      -0.263410        -7.1678
 130   1.0000      -0.263216        -7.1625
 131   1.0000      -0.261988        -7.1291
 132   1.0000      -0.261647        -7.1198
 133   1.0000      -0.259585        -7.0637
 134   1.0000      -0.254844        -6.9346
 135   1.0000      -0.253920        -6.9095
 136   1.0000      -0.251938        -6.8556
 137   1.0000      -0.249487        -6.7889
 138   1.0000      -0.249232        -6.7819
 139   1.0000      -0.248849        -6.7715
 140   1.0000      -0.248419        -6.7598
 141   1.0000      -0.248122        -6.7517
 142   1.0000      -0.246559        -6.7092
 143   1.0000      -0.243134        -6.6160
 144   1.0000      -0.241205        -6.5635
 145   1.0000      -0.239595        -6.5197
 146   1.0000      -0.238629        -6.4934
 147   1.0000      -0.232933        -6.3384
 148   1.0000      -0.217912        -5.9297
 149   1.0000      -0.216981        -5.9044
 150   1.0000      -0.210330        -5.7234
 151   1.0000      -0.206234        -5.6119
 152   1.0000      -0.204008        -5.5513
 153   1.0000      -0.182168        -4.9570
 154   0.0000      -0.160438        -4.3657
 155   0.0000      -0.160317        -4.3624
 156   0.0000      -0.155705        -4.2369
 157   0.0000      -0.153201        -4.1688
 158   0.0000      -0.136145        -3.7047

MULLIKEN ATOMIC CHARGES AND SPIN POPULATIONS
--------------------------------------------
   0 Au:    0.426078   -0.015395
   1 Au:    0.057819   -0.022400
   2 Au:    0.278719    0.037289
   3 Au:    0.051814   -0.009916
   4 Au:    0.366786   -0.018802
   5 Au:   -0.742740    0.017215
   6 Au:    0.367325   -0.019746
   7 Au:    0.334118    0.048186
   8 Au:   -0.198361   -0.062274
   9 Au:   -0.194520   -0.060792
  10 Au:    0.242636    0.059221
  11 Au:    0.315200    0.060932
  12 Au:    0.356870   -0.017409
  13 Au:    0.282042    0.039172
  14 Au:    0.351608   -0.011723
  15 Fe:   -2.295394    2.976443
Sum of atomic charges         :   -0.0000000

LOEWDIN ATOMIC CHARGES AND SPIN POPULATIONS
-------------------------------------------
   0 Au:    0.072219    0.003741
   1 Au:    0.036599   -0.002629
   2 Au:    0.015089    0.015132
   3 Au:    0.035857    0.001643
   4 Au:    0.082900   -0.017637
   5 Au:   -0.097373   -0.001655
   6 Au:    0.082774   -0.017730
   7 Au:    0.064931   -0.000328
   8 Au:   -0.010639   -0.012890
   9 Au:   -0.010187   -0.012185
  10 Au:   -0.006758    0.034075
  11 Au:    0.095486   -0.012259
  12 Au:    0.098346   -0.027989
  13 Au:    0.015106    0.017190
  14 Au:    0.098718   -0.028912
  15 Fe:   -0.573068    3.062432

  Mayer bond orders larger than 0.100000
B(  0-Au,  2-Au) :   0.2229 B(  0-Au,  5-Au) :   0.4794 B(  0-Au, 10-Au) :   0.1940
B(  0-Au, 13-Au) :   0.2249 B(  1-Au,  5-Au) :   0.2113 B(  1-Au,  6-Au) :   0.2070
B(  1-Au,  8-Au) :   0.1822 B(  1-Au, 13-Au) :   0.4092 B(  1-Au, 14-Au) :   0.1799
B(  1-Au, 15-Fe) :   0.5033 B(  2-Au,  3-Au) :   0.4165 B(  2-Au,  5-Au) :   0.2771
B(  2-Au,  9-Au) :   0.2581 B(  2-Au, 10-Au) :   0.1999 B(  3-Au,  4-Au) :   0.2147
B(  3-Au,  5-Au) :   0.2046 B(  3-Au,  9-Au) :   0.1730 B(  3-Au, 12-Au) :   0.1790
B(  3-Au, 15-Fe) :   0.5062 B(  4-Au,  6-Au) :   0.2119 B(  4-Au,  7-Au) :   0.1950
B(  4-Au, 12-Au) :   0.2303 B(  4-Au, 15-Fe) :   0.4573 B(  5-Au,  7-Au) :   0.4839
B(  5-Au, 10-Au) :   0.1353 B(  5-Au, 13-Au) :   0.2776 B(  5-Au, 15-Fe) :   0.3009
B(  6-Au,  7-Au) :   0.1993 B(  6-Au, 14-Au) :   0.2289 B(  6-Au, 15-Fe) :   0.4593
B(  7-Au, 15-Fe) :   0.3846 B(  8-Au,  9-Au) :   0.2459 B(  8-Au, 10-Au) :   0.3295
B(  8-Au, 11-Au) :   0.2163 B(  8-Au, 13-Au) :   0.2626 B(  8-Au, 14-Au) :   0.2392
B(  8-Au, 15-Fe) :   0.4878 B(  9-Au, 10-Au) :   0.3306 B(  9-Au, 11-Au) :   0.2261
B(  9-Au, 12-Au) :   0.2348 B(  9-Au, 15-Fe) :   0.4880 B( 10-Au, 13-Au) :   0.1996
B( 11-Au, 12-Au) :   0.1485 B( 11-Au, 14-Au) :   0.1435 B( 11-Au, 15-Fe) :   0.4686
B( 12-Au, 15-Fe) :   0.4445 B( 14-Au, 15-Fe) :   0.4434

FINAL SINGLE POINT ENERGY     -3300.910996887985

DIPOLE MOMENT
-------------
                                X             Y             Z
Electronic contribution:    -41.52359      -7.09355       5.53768
Nuclear contribution   :     41.84846       7.13039      -5.65237
                        -----------------------------------------
Total Dipole Moment    :      0.32487       0.03684      -0.11469
                        -----------------------------------------
Magnitude (a.u.)       :      0.34648
Magnitude (Debye)      :      0.88069

Rotational constants in cm-1:     0.001145     0.000812     0.000801
Rotational constants in MHz :    34.337956    24.339968    24.011191

                             ****ORCA TERMINATED NORMALLY****
TOTAL RUN TIME: 0 days 0 hours 6 minutes 45 seconds 99 msec
