                         Program Version 5.0.3 -  RELEASE  -
|  1> !R2SCAN def2-TZVP VERYSLOWCONV
|  2>
|  3> %scf
|  4>   AutoTRAHIter 200
|  5>   maxiter 400
|  6> end
|  7>
|  8> %pal nprocs 6 end
|  9>
| 10> *xyzfile 0 6 pbe.xyz
| 11>
| 12> $new_job
| 13>
| 14> !R2SCAN def2-TZVP VERYSLOWCONV
| 15> %scf
| 16>   AutoTRAHIter 200
| 17>   maxiter 400
| 18> end
| 19>
| 20>
| 21> %pal nprocs 6 end
| 22>
| 23> *xyzfile 0 4 pbe.xyz
| 24>
| 25>
| 26>
| 27>
| 28>
| 29>                          ****END OF INPUT****
 Total Charge           Charge          ....    0
 Multiplicity           Mult            ....    6
 Number of Electrons    NEL             ....  311
FINAL SINGLE POINT ENERGY     -3301.428389504484

CARTESIAN COORDINATES (ANGSTROEM)
---------------------------------
  Au     3.337331    7.443009    9.397561
  Au     7.986957    6.013561    9.623288
  Au     4.608343    9.698901    8.276136
  Au     7.148407   10.447296    8.935462
  Au     9.963123   10.121623    9.249142
  Au     5.919231    8.044801   10.135028
  Au    10.485617    7.405538    9.662126
  Au     8.373249    8.640487   11.011791
  Au     7.076889    6.228372    6.779335
  Au     6.535198    9.085250    6.326238
  Au     4.531651    7.271102    6.823789
  Au     8.953960    7.905381    5.503150
  Au     8.955448   10.436666    6.723718
  Au     5.384577    5.566276    8.915743
  Au     9.793104    6.010971    7.410534
  Fe     8.364873    8.207798    8.170349

 Multiplicity           Mult            ....    4
 Number of Electrons    NEL             ....  311
 Basis Dimension        Dim             ....  645

ORBITAL ENERGIES
----------------
                 SPIN UP ORBITALS
  NO   OCC          E(Eh)            E(eV)
   0   1.0000    -255.636461     -6956.2217
   1   1.0000     -29.932928      -814.5164
   2   1.0000     -25.770291      -701.2453
   3   1.0000     -25.767632      -701.1729
   4   1.0000     -25.752016      -700.7480
   5   1.0000      -4.128262      -112.3357
   6   1.0000      -4.128003      -112.3287
   7   1.0000      -4.127691      -112.3202
   8   1.0000      -4.126975      -112.3007
   9   1.0000      -4.119930      -112.1090
  10   1.0000      -4.119776      -112.1048
  11   1.0000      -4.119259      -112.0907
  12   1.0000      -4.119170      -112.0883
  13   1.0000      -4.116432      -112.0138
  14   1.0000      -4.116166      -112.0066
  15   1.0000      -4.115584      -111.9907
  16   1.0000      -4.111501      -111.8796
  17   1.0000      -4.111397      -111.8768
  18   1.0000      -4.109423      -111.8231
  19   1.0000      -4.105740      -111.7229
  20   1.0000      -3.513447       -95.6058
  21   1.0000      -2.317544       -63.0636
  22   1.0000      -2.317169       -63.0534
  23   1.0000      -2.316538       -63.0362
  24   1.0000      -2.315939       -63.0199
  25   1.0000      -2.314311       -62.9756
  26   1.0000      -2.313875       -62.9637
  27   1.0000      -2.313638       -62.9573
  28   1.0000      -2.312473       -62.9256
  29   1.0000      -2.311805       -62.9074
  30   1.0000      -2.311055       -62.8870
  31   1.0000      -2.310088       -62.8607
  32   1.0000      -2.309403       -62.8421
  33   1.0000      -2.308873       -62.8276
  34   1.0000      -2.308662       -62.8219
  35   1.0000      -2.308480       -62.8169
  36   1.0000      -2.307800       -62.7984
  37   1.0000      -2.306863       -62.7729
  38   1.0000      -2.306738       -62.7695
  39   1.0000      -2.306149       -62.7535
  40   1.0000      -2.304644       -62.7125
  41   1.0000      -2.303875       -62.6916
  42   1.0000      -2.303814       -62.6900
  43   1.0000      -2.303376       -62.6781
  44   1.0000      -2.302627       -62.6577
  45   1.0000      -2.302174       -62.6453
  46   1.0000      -2.302083       -62.6429
  47   1.0000      -2.302055       -62.6421
  48   1.0000      -2.301776       -62.6345
  49   1.0000      -2.301317       -62.6220
  50   1.0000      -2.300098       -62.5888
  51   1.0000      -2.299942       -62.5846
  52   1.0000      -2.299825       -62.5814
  53   1.0000      -2.298963       -62.5580
  54   1.0000      -2.297956       -62.5306
  55   1.0000      -2.297603       -62.5210
  56   1.0000      -2.297445       -62.5167
  57   1.0000      -2.297228       -62.5108
  58   1.0000      -2.296597       -62.4936
  59   1.0000      -2.295870       -62.4738
  60   1.0000      -2.294979       -62.4496
  61   1.0000      -2.294536       -62.4375
  62   1.0000      -2.292900       -62.3930
  63   1.0000      -2.292327       -62.3774
  64   1.0000      -2.291573       -62.3569
  65   1.0000      -2.290736       -62.3341
  66   1.0000      -2.289889       -62.3111
  67   1.0000      -2.287685       -62.2511
  68   1.0000      -2.254539       -61.3491
  69   1.0000      -0.442780       -12.0487
  70   1.0000      -0.400259       -10.8916
  71   1.0000      -0.398416       -10.8414
  72   1.0000      -0.397024       -10.8036
  73   1.0000      -0.394290       -10.7292
  74   1.0000      -0.393560       -10.7093
  75   1.0000      -0.381266       -10.3748
  76   1.0000      -0.376086       -10.2338
  77   1.0000      -0.375015       -10.2047
  78   1.0000      -0.371874       -10.1192
  79   1.0000      -0.370050       -10.0696
  80   1.0000      -0.369751       -10.0614
  81   1.0000      -0.366110        -9.9624
  82   1.0000      -0.365006        -9.9323
  83   1.0000      -0.362635        -9.8678
  84   1.0000      -0.360267        -9.8034
  85   1.0000      -0.357894        -9.7388
  86   1.0000      -0.357327        -9.7234
  87   1.0000      -0.354739        -9.6529
  88   1.0000      -0.349681        -9.5153
  89   1.0000      -0.347761        -9.4631
  90   1.0000      -0.345868        -9.4115
  91   1.0000      -0.344619        -9.3776
  92   1.0000      -0.343252        -9.3404
  93   1.0000      -0.340073        -9.2539
  94   1.0000      -0.338971        -9.2239
  95   1.0000      -0.337136        -9.1739
  96   1.0000      -0.336133        -9.1467
  97   1.0000      -0.335232        -9.1221
  98   1.0000      -0.332884        -9.0582
  99   1.0000      -0.331989        -9.0339
 100   1.0000      -0.329829        -8.9751
 101   1.0000      -0.327139        -8.9019
 102   1.0000      -0.322498        -8.7756
 103   1.0000      -0.322045        -8.7633
 104   1.0000      -0.320987        -8.7345
 105   1.0000      -0.318827        -8.6757
 106   1.0000      -0.315102        -8.5744
 107   1.0000      -0.308731        -8.4010
 108   1.0000      -0.307155        -8.3581
 109   1.0000      -0.304720        -8.2918
 110   1.0000      -0.300405        -8.1744
 111   1.0000      -0.299877        -8.1601
 112   1.0000      -0.298094        -8.1115
 113   1.0000      -0.294796        -8.0218
 114   1.0000      -0.292929        -7.9710
 115   1.0000      -0.292282        -7.9534
 116   1.0000      -0.290253        -7.8982
 117   1.0000      -0.285932        -7.7806
 118   1.0000      -0.285580        -7.7710
 119   1.0000      -0.284208        -7.7337
 120   1.0000      -0.283559        -7.7160
 121   1.0000      -0.282688        -7.6923
 122   1.0000      -0.281473        -7.6593
 123   1.0000      -0.280152        -7.6233
 124   1.0000      -0.279870        -7.6157
 125   1.0000      -0.278705        -7.5840
 126   1.0000      -0.277164        -7.5420
 127   1.0000      -0.275994        -7.5102
 128   1.0000      -0.274868        -7.4795
 129   1.0000      -0.273134        -7.4324
 130   1.0000      -0.272119        -7.4047
 131   1.0000      -0.271516        -7.3883
 132   1.0000      -0.270146        -7.3511
 133   1.0000      -0.269199        -7.3253
 134   1.0000      -0.267028        -7.2662
 135   1.0000      -0.266238        -7.2447
 136   1.0000      -0.264800        -7.2056
 137   1.0000      -0.264341        -7.1931
 138   1.0000      -0.261602        -7.1185
 139   1.0000      -0.261134        -7.1058
 140   1.0000      -0.258565        -7.0359
 141   1.0000      -0.257060        -6.9950
 142   1.0000      -0.256372        -6.9762
 143   1.0000      -0.256318        -6.9748
 144   1.0000      -0.254422        -6.9232
 145   1.0000      -0.254135        -6.9154
 146   1.0000      -0.252693        -6.8761
 147   1.0000      -0.252229        -6.8635
 148   1.0000      -0.249700        -6.7947
 149   1.0000      -0.247513        -6.7352
 150   1.0000      -0.245966        -6.6931
 151   1.0000      -0.244604        -6.6560
 152   1.0000      -0.239047        -6.5048
 153   1.0000      -0.217994        -5.9319
 154   1.0000      -0.215579        -5.8662
 155   1.0000      -0.207731        -5.6527
 156   1.0000      -0.196559        -5.3486
 157   0.0000      -0.187347        -5.0980
 158   0.0000      -0.136534        -3.7153
 159   0.0000      -0.136254        -3.7077
 160   0.0000      -0.135812        -3.6956
 161   0.0000      -0.129508        -3.5241

                 SPIN DOWN ORBITALS
  NO   OCC          E(Eh)            E(eV)
   0   1.0000    -255.635490     -6956.1953
   1   1.0000     -29.855463      -812.4085
   2   1.0000     -25.707261      -699.5301
   3   1.0000     -25.706382      -699.5062
   4   1.0000     -25.699034      -699.3063
   5   1.0000      -4.128044      -112.3298
   6   1.0000      -4.127773      -112.3224
   7   1.0000      -4.127141      -112.3052
   8   1.0000      -4.126353      -112.2838
   9   1.0000      -4.119817      -112.1059
  10   1.0000      -4.119648      -112.1013
  11   1.0000      -4.119032      -112.0846
  12   1.0000      -4.118932      -112.0818
  13   1.0000      -4.116571      -112.0176
  14   1.0000      -4.116195      -112.0074
  15   1.0000      -4.115189      -111.9800
  16   1.0000      -4.111678      -111.8845
  17   1.0000      -4.111535      -111.8805
  18   1.0000      -4.109280      -111.8192
  19   1.0000      -4.105745      -111.7230
  20   1.0000      -3.341015       -90.9136
  21   1.0000      -2.317007       -63.0490
  22   1.0000      -2.316626       -63.0386
  23   1.0000      -2.315449       -63.0066
  24   1.0000      -2.314799       -62.9889
  25   1.0000      -2.313466       -62.9526
  26   1.0000      -2.313311       -62.9484
  27   1.0000      -2.312650       -62.9304
  28   1.0000      -2.311633       -62.9027
  29   1.0000      -2.311457       -62.8979
  30   1.0000      -2.311034       -62.8864
  31   1.0000      -2.310027       -62.8590
  32   1.0000      -2.309274       -62.8385
  33   1.0000      -2.308903       -62.8284
  34   1.0000      -2.308041       -62.8050
  35   1.0000      -2.307985       -62.8035
  36   1.0000      -2.307748       -62.7970
  37   1.0000      -2.306177       -62.7543
  38   1.0000      -2.306067       -62.7513
  39   1.0000      -2.305908       -62.7469
  40   1.0000      -2.304678       -62.7135
  41   1.0000      -2.303941       -62.6934
  42   1.0000      -2.303648       -62.6855
  43   1.0000      -2.302762       -62.6613
  44   1.0000      -2.302493       -62.6540
  45   1.0000      -2.302216       -62.6465
  46   1.0000      -2.301911       -62.6382
  47   1.0000      -2.301876       -62.6372
  48   1.0000      -2.301390       -62.6240
  49   1.0000      -2.301115       -62.6165
  50   1.0000      -2.300136       -62.5899
  51   1.0000      -2.300011       -62.5865
  52   1.0000      -2.299971       -62.5854
  53   1.0000      -2.299325       -62.5678
  54   1.0000      -2.297728       -62.5243
  55   1.0000      -2.297608       -62.5211
  56   1.0000      -2.297250       -62.5114
  57   1.0000      -2.297079       -62.5067
  58   1.0000      -2.296790       -62.4988
  59   1.0000      -2.296024       -62.4780
  60   1.0000      -2.295133       -62.4538
  61   1.0000      -2.294607       -62.4394
  62   1.0000      -2.292329       -62.3774
  63   1.0000      -2.291521       -62.3555
  64   1.0000      -2.290843       -62.3370
  65   1.0000      -2.289774       -62.3079
  66   1.0000      -2.114868       -57.5485
  67   1.0000      -2.113911       -57.5224
  68   1.0000      -2.098598       -57.1058
  69   1.0000      -0.439738       -11.9659
  70   1.0000      -0.398979       -10.8568
  71   1.0000      -0.398031       -10.8310
  72   1.0000      -0.397127       -10.8064
  73   1.0000      -0.385230       -10.4827
  74   1.0000      -0.382408       -10.4059
  75   1.0000      -0.377052       -10.2601
  76   1.0000      -0.374401       -10.1880
  77   1.0000      -0.371387       -10.1059
  78   1.0000      -0.370946       -10.0940
  79   1.0000      -0.366451        -9.9716
  80   1.0000      -0.364709        -9.9242
  81   1.0000      -0.363459        -9.8902
  82   1.0000      -0.362237        -9.8570
  83   1.0000      -0.362023        -9.8511
  84   1.0000      -0.360081        -9.7983
  85   1.0000      -0.356641        -9.7047
  86   1.0000      -0.355798        -9.6818
  87   1.0000      -0.351848        -9.5743
  88   1.0000      -0.346595        -9.4313
  89   1.0000      -0.346138        -9.4189
  90   1.0000      -0.344800        -9.3825
  91   1.0000      -0.343802        -9.3553
  92   1.0000      -0.341550        -9.2940
  93   1.0000      -0.340136        -9.2556
  94   1.0000      -0.338529        -9.2118
  95   1.0000      -0.335550        -9.1308
  96   1.0000      -0.335060        -9.1175
  97   1.0000      -0.334728        -9.1084
  98   1.0000      -0.329749        -8.9729
  99   1.0000      -0.327789        -8.9196
 100   1.0000      -0.323438        -8.8012
 101   1.0000      -0.322755        -8.7826
 102   1.0000      -0.319907        -8.7051
 103   1.0000      -0.316634        -8.6160
 104   1.0000      -0.314766        -8.5652
 105   1.0000      -0.309500        -8.4219
 106   1.0000      -0.307274        -8.3613
 107   1.0000      -0.304473        -8.2851
 108   1.0000      -0.303657        -8.2629
 109   1.0000      -0.302058        -8.2194
 110   1.0000      -0.299676        -8.1546
 111   1.0000      -0.299293        -8.1442
 112   1.0000      -0.295589        -8.0434
 113   1.0000      -0.292813        -7.9679
 114   1.0000      -0.291390        -7.9291
 115   1.0000      -0.290281        -7.8990
 116   1.0000      -0.287670        -7.8279
 117   1.0000      -0.284668        -7.7462
 118   1.0000      -0.283072        -7.7028
 119   1.0000      -0.282208        -7.6793
 120   1.0000      -0.282025        -7.6743
 121   1.0000      -0.280488        -7.6325
 122   1.0000      -0.279883        -7.6160
 123   1.0000      -0.279428        -7.6036
 124   1.0000      -0.277340        -7.5468
 125   1.0000      -0.276138        -7.5141
 126   1.0000      -0.276066        -7.5121
 127   1.0000      -0.275896        -7.5075
 128   1.0000      -0.273988        -7.4556
 129   1.0000      -0.271287        -7.3821
 130   1.0000      -0.271137        -7.3780
 131   1.0000      -0.270143        -7.3510
 132   1.0000      -0.269754        -7.3404
 133   1.0000      -0.267603        -7.2819
 134   1.0000      -0.262548        -7.1443
 135   1.0000      -0.261302        -7.1104
 136   1.0000      -0.259624        -7.0647
 137   1.0000      -0.257200        -6.9988
 138   1.0000      -0.256824        -6.9885
 139   1.0000      -0.256213        -6.9719
 140   1.0000      -0.255475        -6.9518
 141   1.0000      -0.254833        -6.9344
 142   1.0000      -0.253759        -6.9051
 143   1.0000      -0.250009        -6.8031
 144   1.0000      -0.248040        -6.7495
 145   1.0000      -0.246674        -6.7124
 146   1.0000      -0.245276        -6.6743
 147   1.0000      -0.239591        -6.5196
 148   1.0000      -0.220035        -5.9874
 149   1.0000      -0.219404        -5.9703
 150   1.0000      -0.211923        -5.7667
 151   1.0000      -0.207032        -5.6336
 152   1.0000      -0.204996        -5.5782
 153   1.0000      -0.189273        -5.1504
 154   0.0000      -0.152378        -4.1464
 155   0.0000      -0.152256        -4.1431
 156   0.0000      -0.147246        -4.0068
 157   0.0000      -0.143433        -3.9030
 158   0.0000      -0.131304        -3.5730

MULLIKEN ATOMIC CHARGES AND SPIN POPULATIONS
--------------------------------------------
   0 Au:    0.381804   -0.010023
   1 Au:    0.052274   -0.040654
   2 Au:    0.259456    0.035633
   3 Au:    0.044717   -0.025825
   4 Au:    0.334584   -0.033675
   5 Au:   -0.685455    0.016571
   6 Au:    0.334892   -0.034423
   7 Au:    0.302772    0.046607
   8 Au:   -0.183270   -0.083464
   9 Au:   -0.179994   -0.081241
  10 Au:    0.229118    0.055474
  11 Au:    0.273351    0.054941
  12 Au:    0.325627   -0.032638
  13 Au:    0.262738    0.037423
  14 Au:    0.319367   -0.025196
  15 Fe:   -2.071979    3.120490
Sum of atomic charges         :    0.0000000

LOEWDIN ATOMIC CHARGES AND SPIN POPULATIONS
-------------------------------------------
   0 Au:    0.070203    0.006194
   1 Au:    0.031397   -0.015430
   2 Au:    0.013486    0.012124
   3 Au:    0.030338   -0.010639
   4 Au:    0.076327   -0.028960
   5 Au:   -0.100457   -0.005428
   6 Au:    0.076174   -0.028821
   7 Au:    0.057254   -0.007915
   8 Au:   -0.015440   -0.028470
   9 Au:   -0.015007   -0.027420
  10 Au:   -0.007991    0.030101
  11 Au:    0.086543   -0.023761
  12 Au:    0.092151   -0.040443
  13 Au:    0.013569    0.014022
  14 Au:    0.092418   -0.041100
  15 Fe:   -0.500964    3.195946

  Mayer bond orders larger than 0.100000
B(  0-Au,  2-Au) :   0.2103 B(  0-Au,  5-Au) :   0.4855 B(  0-Au, 10-Au) :   0.1814
B(  0-Au, 13-Au) :   0.2127 B(  1-Au,  5-Au) :   0.1924 B(  1-Au,  6-Au) :   0.1967
B(  1-Au,  8-Au) :   0.1694 B(  1-Au, 13-Au) :   0.4083 B(  1-Au, 14-Au) :   0.1717
B(  1-Au, 15-Fe) :   0.4925 B(  2-Au,  3-Au) :   0.4161 B(  2-Au,  5-Au) :   0.2558
B(  2-Au,  9-Au) :   0.2518 B(  2-Au, 10-Au) :   0.1806 B(  3-Au,  4-Au) :   0.2047
B(  3-Au,  5-Au) :   0.1849 B(  3-Au,  9-Au) :   0.1592 B(  3-Au, 12-Au) :   0.1707
B(  3-Au, 15-Fe) :   0.4956 B(  4-Au,  6-Au) :   0.2049 B(  4-Au,  7-Au) :   0.1804
B(  4-Au, 12-Au) :   0.2249 B(  4-Au, 15-Fe) :   0.4427 B(  5-Au,  7-Au) :   0.4884
B(  5-Au, 10-Au) :   0.1179 B(  5-Au, 13-Au) :   0.2562 B(  5-Au, 15-Fe) :   0.2808
B(  6-Au,  7-Au) :   0.1856 B(  6-Au, 14-Au) :   0.2230 B(  6-Au, 15-Fe) :   0.4449
B(  7-Au, 15-Fe) :   0.3755 B(  8-Au,  9-Au) :   0.2328 B(  8-Au, 10-Au) :   0.3286
B(  8-Au, 11-Au) :   0.2050 B(  8-Au, 13-Au) :   0.2569 B(  8-Au, 14-Au) :   0.2270
B(  8-Au, 15-Fe) :   0.4673 B(  9-Au, 10-Au) :   0.3301 B(  9-Au, 11-Au) :   0.2163
B(  9-Au, 12-Au) :   0.2223 B(  9-Au, 15-Fe) :   0.4678 B( 10-Au, 13-Au) :   0.1803
B( 11-Au, 12-Au) :   0.1346 B( 11-Au, 14-Au) :   0.1286 B( 11-Au, 15-Fe) :   0.4657
B( 12-Au, 15-Fe) :   0.4395 B( 14-Au, 15-Fe) :   0.4385

FINAL SINGLE POINT ENERGY     -3301.428658797980

DIPOLE MOMENT
-------------
                                X             Y             Z
Electronic contribution:    -41.51624      -7.09416       5.53230
Nuclear contribution   :     41.84846       7.13039      -5.65237
                        -----------------------------------------
Total Dipole Moment    :      0.33222       0.03623      -0.12006
                        -----------------------------------------
Magnitude (a.u.)       :      0.35511
Magnitude (Debye)      :      0.90261

Rotational constants in cm-1:     0.001145     0.000812     0.000801
Rotational constants in MHz :    34.337956    24.339968    24.011191

                             ****ORCA TERMINATED NORMALLY****
TOTAL RUN TIME: 0 days 0 hours 11 minutes 44 seconds 301 msec
