                         Program Version 5.0.3 -  RELEASE  -
|  1> !RI-B2PLYP def2-TZVP def2-TZVP/C
|  2> !RIJCOSX VERYSLOWCONV
|  3>
|  4> %scf
|  5>   AutoTRAHIter 200
|  6>   maxiter 400
|  7> end
|  8>
|  9>
| 10> %pal nprocs 6 end
| 11>
| 12> *xyzfile 0 6 pbe.xyz
| 13>
| 14> $new_job
| 15>
| 16> !RI-B2PLYP def2-TZVP def2-TZVP/C
| 17> !RIJCOSX VERYSLOWCONV
| 18>
| 19> %scf
| 20>   AutoTRAHIter 200
| 21>   maxiter 400
| 22> end
| 23>
| 24>
| 25> %pal nprocs 6 end
| 26>
| 27> *xyzfile 0 4 pbe.xyz
| 28>
| 29>
| 30>
| 31>
| 32>
| 33>                          ****END OF INPUT****
 Total Charge           Charge          ....    0
 Multiplicity           Mult            ....    6
 Number of Electrons    NEL             ....  291
MP2 TOTAL ENERGY:    -3049.071890469 Eh
FINAL SINGLE POINT ENERGY     -3049.071890468711

CARTESIAN COORDINATES (ANGSTROEM)
---------------------------------
  Au     7.854217    4.999847    8.065852
  Au     8.530977   10.233984    6.642292
  Au     8.368257    8.102018    4.650542
  Au    10.551111    8.257988    6.492332
  Au     9.731423    9.155870    8.963385
  Au     9.434991    5.804699    5.959332
  Au     6.615313    6.039235    5.747901
  Au     8.269088    6.982495   10.036340
  Au     5.772994    6.769128    8.778628
  Au     6.944722    9.346760    9.364526
  Au     4.147254    6.934988    6.525948
  Au     4.413037    9.158614    8.169101
  Au     6.131802   11.232155    7.486868
  Au     6.029521    8.934444    5.805718
  Mn     7.987004    7.687878    7.403734

 Multiplicity           Mult            ....    4
 Number of Electrons    NEL             ....  291
 Basis Dimension        Dim             ....  605

ORBITAL ENERGIES
----------------
                 SPIN UP ORBITALS
  NO   OCC          E(Eh)            E(eV)
   0   1.0000    -237.626360     -6466.1420
   1   1.0000     -28.127741      -765.3947
   2   1.0000     -24.046180      -654.3298
   3   1.0000     -24.045330      -654.3067
   4   1.0000     -24.045081      -654.2999
   5   1.0000      -4.407220      -119.9266
   6   1.0000      -4.406450      -119.9056
   7   1.0000      -4.405972      -119.8926
   8   1.0000      -4.405037      -119.8672
   9   1.0000      -4.404719      -119.8585
  10   1.0000      -4.398908      -119.7004
  11   1.0000      -4.396095      -119.6238
  12   1.0000      -4.395649      -119.6117
  13   1.0000      -4.394780      -119.5881
  14   1.0000      -4.394625      -119.5838
  15   1.0000      -4.394506      -119.5806
  16   1.0000      -4.391077      -119.4873
  17   1.0000      -4.390680      -119.4765
  18   1.0000      -4.390400      -119.4689
  19   1.0000      -3.606069       -98.1261
  20   1.0000      -2.527370       -68.7732
  21   1.0000      -2.527160       -68.7675
  22   1.0000      -2.526147       -68.7400
  23   1.0000      -2.525725       -68.7285
  24   1.0000      -2.525353       -68.7184
  25   1.0000      -2.524961       -68.7077
  26   1.0000      -2.524435       -68.6934
  27   1.0000      -2.523556       -68.6695
  28   1.0000      -2.523374       -68.6645
  29   1.0000      -2.522887       -68.6512
  30   1.0000      -2.522207       -68.6327
  31   1.0000      -2.522129       -68.6306
  32   1.0000      -2.520482       -68.5858
  33   1.0000      -2.519833       -68.5681
  34   1.0000      -2.519543       -68.5602
  35   1.0000      -2.518646       -68.5358
  36   1.0000      -2.516651       -68.4816
  37   1.0000      -2.516199       -68.4693
  38   1.0000      -2.515863       -68.4601
  39   1.0000      -2.515829       -68.4592
  40   1.0000      -2.514407       -68.4205
  41   1.0000      -2.513598       -68.3985
  42   1.0000      -2.513515       -68.3962
  43   1.0000      -2.513156       -68.3864
  44   1.0000      -2.512309       -68.3634
  45   1.0000      -2.511755       -68.3483
  46   1.0000      -2.511553       -68.3428
  47   1.0000      -2.510995       -68.3277
  48   1.0000      -2.510358       -68.3103
  49   1.0000      -2.510101       -68.3033
  50   1.0000      -2.509704       -68.2925
  51   1.0000      -2.509291       -68.2813
  52   1.0000      -2.508724       -68.2658
  53   1.0000      -2.508509       -68.2600
  54   1.0000      -2.508271       -68.2535
  55   1.0000      -2.508095       -68.2487
  56   1.0000      -2.508054       -68.2476
  57   1.0000      -2.506784       -68.2131
  58   1.0000      -2.506495       -68.2052
  59   1.0000      -2.506084       -68.1940
  60   1.0000      -2.505622       -68.1815
  61   1.0000      -2.505122       -68.1678
  62   1.0000      -2.408636       -65.5423
  63   1.0000      -2.407496       -65.5113
  64   1.0000      -2.407115       -65.5009
  65   1.0000      -0.523117       -14.2347
  66   1.0000      -0.521321       -14.1859
  67   1.0000      -0.519050       -14.1241
  68   1.0000      -0.515642       -14.0313
  69   1.0000      -0.514770       -14.0076
  70   1.0000      -0.501514       -13.6469
  71   1.0000      -0.471240       -12.8231
  72   1.0000      -0.468282       -12.7426
  73   1.0000      -0.465792       -12.6748
  74   1.0000      -0.463210       -12.6046
  75   1.0000      -0.462014       -12.5721
  76   1.0000      -0.459322       -12.4988
  77   1.0000      -0.459135       -12.4937
  78   1.0000      -0.456582       -12.4242
  79   1.0000      -0.454953       -12.3799
  80   1.0000      -0.452487       -12.3128
  81   1.0000      -0.451103       -12.2751
  82   1.0000      -0.448306       -12.1990
  83   1.0000      -0.446260       -12.1434
  84   1.0000      -0.443373       -12.0648
  85   1.0000      -0.441959       -12.0263
  86   1.0000      -0.441555       -12.0153
  87   1.0000      -0.438008       -11.9188
  88   1.0000      -0.433389       -11.7931
  89   1.0000      -0.431153       -11.7323
  90   1.0000      -0.430478       -11.7139
  91   1.0000      -0.429006       -11.6739
  92   1.0000      -0.428492       -11.6599
  93   1.0000      -0.425961       -11.5910
  94   1.0000      -0.425602       -11.5812
  95   1.0000      -0.423745       -11.5307
  96   1.0000      -0.415389       -11.3033
  97   1.0000      -0.414357       -11.2752
  98   1.0000      -0.412539       -11.2258
  99   1.0000      -0.410428       -11.1683
 100   1.0000      -0.407344       -11.0844
 101   1.0000      -0.403514       -10.9802
 102   1.0000      -0.399373       -10.8675
 103   1.0000      -0.392436       -10.6787
 104   1.0000      -0.391615       -10.6564
 105   1.0000      -0.390705       -10.6316
 106   1.0000      -0.386794       -10.5252
 107   1.0000      -0.382019       -10.3953
 108   1.0000      -0.379796       -10.3348
 109   1.0000      -0.377843       -10.2816
 110   1.0000      -0.376667       -10.2496
 111   1.0000      -0.375960       -10.2304
 112   1.0000      -0.374496       -10.1906
 113   1.0000      -0.372020       -10.1232
 114   1.0000      -0.371280       -10.1031
 115   1.0000      -0.369785       -10.0624
 116   1.0000      -0.369239       -10.0475
 117   1.0000      -0.368710       -10.0331
 118   1.0000      -0.366166        -9.9639
 119   1.0000      -0.364808        -9.9269
 120   1.0000      -0.364574        -9.9206
 121   1.0000      -0.363868        -9.9014
 122   1.0000      -0.363408        -9.8888
 123   1.0000      -0.360821        -9.8184
 124   1.0000      -0.358488        -9.7550
 125   1.0000      -0.357608        -9.7310
 126   1.0000      -0.356827        -9.7098
 127   1.0000      -0.355424        -9.6716
 128   1.0000      -0.354411        -9.6440
 129   1.0000      -0.352409        -9.5895
 130   1.0000      -0.348266        -9.4768
 131   1.0000      -0.345962        -9.4141
 132   1.0000      -0.345751        -9.4084
 133   1.0000      -0.344651        -9.3784
 134   1.0000      -0.342268        -9.3136
 135   1.0000      -0.339764        -9.2454
 136   1.0000      -0.331651        -9.0247
 137   1.0000      -0.330472        -8.9926
 138   1.0000      -0.329902        -8.9771
 139   1.0000      -0.329576        -8.9682
 140   1.0000      -0.322086        -8.7644
 141   1.0000      -0.314919        -8.5694
 142   1.0000      -0.310560        -8.4508
 143   1.0000      -0.302225        -8.2240
 144   1.0000      -0.242305        -6.5934
 145   1.0000      -0.226076        -6.1519
 146   1.0000      -0.210039        -5.7155
 147   0.0000      -0.125217        -3.4073
 148   0.0000      -0.107032        -2.9125
 149   0.0000      -0.086079        -2.3423
 150   0.0000      -0.068413        -1.8616
 151   0.0000      -0.068030        -1.8512

                 SPIN DOWN ORBITALS
  NO   OCC          E(Eh)            E(eV)
   0   1.0000    -237.624334     -6466.0869
   1   1.0000     -28.026935      -762.6517
   2   1.0000     -23.953156      -651.7985
   3   1.0000     -23.953011      -651.7946
   4   1.0000     -23.952742      -651.7872
   5   1.0000      -4.407687      -119.9393
   6   1.0000      -4.407129      -119.9241
   7   1.0000      -4.406936      -119.9188
   8   1.0000      -4.405101      -119.8689
   9   1.0000      -4.404679      -119.8574
  10   1.0000      -4.399510      -119.7168
  11   1.0000      -4.396132      -119.6248
  12   1.0000      -4.395679      -119.6125
  13   1.0000      -4.394748      -119.5872
  14   1.0000      -4.394514      -119.5808
  15   1.0000      -4.394471      -119.5796
  16   1.0000      -4.392172      -119.5171
  17   1.0000      -4.391736      -119.5052
  18   1.0000      -4.390749      -119.4783
  19   1.0000      -3.322770       -90.4172
  20   1.0000      -2.527948       -68.7890
  21   1.0000      -2.526963       -68.7622
  22   1.0000      -2.525896       -68.7331
  23   1.0000      -2.524996       -68.7086
  24   1.0000      -2.524528       -68.6959
  25   1.0000      -2.524322       -68.6903
  26   1.0000      -2.523973       -68.6808
  27   1.0000      -2.523275       -68.6618
  28   1.0000      -2.522825       -68.6495
  29   1.0000      -2.522341       -68.6364
  30   1.0000      -2.521956       -68.6259
  31   1.0000      -2.521728       -68.6197
  32   1.0000      -2.521237       -68.6064
  33   1.0000      -2.519964       -68.5717
  34   1.0000      -2.519606       -68.5620
  35   1.0000      -2.518771       -68.5392
  36   1.0000      -2.516668       -68.4820
  37   1.0000      -2.515690       -68.4554
  38   1.0000      -2.515302       -68.4448
  39   1.0000      -2.514962       -68.4356
  40   1.0000      -2.514082       -68.4117
  41   1.0000      -2.513061       -68.3839
  42   1.0000      -2.512907       -68.3797
  43   1.0000      -2.512789       -68.3765
  44   1.0000      -2.512128       -68.3585
  45   1.0000      -2.512026       -68.3557
  46   1.0000      -2.511590       -68.3438
  47   1.0000      -2.510900       -68.3251
  48   1.0000      -2.510556       -68.3157
  49   1.0000      -2.510288       -68.3084
  50   1.0000      -2.509841       -68.2962
  51   1.0000      -2.509627       -68.2904
  52   1.0000      -2.509504       -68.2871
  53   1.0000      -2.509061       -68.2750
  54   1.0000      -2.508465       -68.2588
  55   1.0000      -2.508356       -68.2558
  56   1.0000      -2.508308       -68.2545
  57   1.0000      -2.508080       -68.2483
  58   1.0000      -2.507940       -68.2445
  59   1.0000      -2.507470       -68.2317
  60   1.0000      -2.506355       -68.2014
  61   1.0000      -2.506184       -68.1967
  62   1.0000      -2.084063       -56.7102
  63   1.0000      -2.083591       -56.6974
  64   1.0000      -2.082993       -56.6811
  65   1.0000      -0.510637       -13.8951
  66   1.0000      -0.476276       -12.9601
  67   1.0000      -0.475148       -12.9294
  68   1.0000      -0.474511       -12.9121
  69   1.0000      -0.468741       -12.7551
  70   1.0000      -0.468551       -12.7499
  71   1.0000      -0.464368       -12.6361
  72   1.0000      -0.463909       -12.6236
  73   1.0000      -0.461256       -12.5514
  74   1.0000      -0.460616       -12.5340
  75   1.0000      -0.459555       -12.5051
  76   1.0000      -0.456266       -12.4156
  77   1.0000      -0.455288       -12.3890
  78   1.0000      -0.454131       -12.3575
  79   1.0000      -0.453330       -12.3357
  80   1.0000      -0.450483       -12.2583
  81   1.0000      -0.450336       -12.2543
  82   1.0000      -0.445507       -12.1229
  83   1.0000      -0.444934       -12.1073
  84   1.0000      -0.440605       -11.9895
  85   1.0000      -0.433774       -11.8036
  86   1.0000      -0.432324       -11.7641
  87   1.0000      -0.431928       -11.7534
  88   1.0000      -0.430302       -11.7091
  89   1.0000      -0.428975       -11.6730
  90   1.0000      -0.428683       -11.6651
  91   1.0000      -0.419409       -11.4127
  92   1.0000      -0.418446       -11.3865
  93   1.0000      -0.417001       -11.3472
  94   1.0000      -0.412893       -11.2354
  95   1.0000      -0.409843       -11.1524
  96   1.0000      -0.406621       -11.0647
  97   1.0000      -0.404035       -10.9943
  98   1.0000      -0.403165       -10.9707
  99   1.0000      -0.397444       -10.8150
 100   1.0000      -0.393395       -10.7048
 101   1.0000      -0.392363       -10.6767
 102   1.0000      -0.389719       -10.6048
 103   1.0000      -0.385160       -10.4807
 104   1.0000      -0.382391       -10.4054
 105   1.0000      -0.382244       -10.4014
 106   1.0000      -0.381373       -10.3777
 107   1.0000      -0.378728       -10.3057
 108   1.0000      -0.375989       -10.2312
 109   1.0000      -0.375610       -10.2209
 110   1.0000      -0.372483       -10.1358
 111   1.0000      -0.372106       -10.1255
 112   1.0000      -0.371394       -10.1062
 113   1.0000      -0.370879       -10.0921
 114   1.0000      -0.367824       -10.0090
 115   1.0000      -0.366236        -9.9658
 116   1.0000      -0.366052        -9.9608
 117   1.0000      -0.365795        -9.9538
 118   1.0000      -0.364018        -9.9054
 119   1.0000      -0.363189        -9.8829
 120   1.0000      -0.362335        -9.8596
 121   1.0000      -0.359299        -9.7770
 122   1.0000      -0.358518        -9.7558
 123   1.0000      -0.356835        -9.7100
 124   1.0000      -0.355724        -9.6798
 125   1.0000      -0.350257        -9.5310
 126   1.0000      -0.348512        -9.4835
 127   1.0000      -0.347106        -9.4452
 128   1.0000      -0.346444        -9.4272
 129   1.0000      -0.346375        -9.4253
 130   1.0000      -0.340940        -9.2774
 131   1.0000      -0.334619        -9.1055
 132   1.0000      -0.333633        -9.0786
 133   1.0000      -0.331011        -9.0073
 134   1.0000      -0.330268        -8.9870
 135   1.0000      -0.326933        -8.8963
 136   1.0000      -0.319543        -8.6952
 137   1.0000      -0.319457        -8.6929
 138   1.0000      -0.316091        -8.6013
 139   1.0000      -0.250389        -6.8134
 140   1.0000      -0.235647        -6.4123
 141   1.0000      -0.224204        -6.1009
 142   1.0000      -0.221633        -6.0309
 143   1.0000      -0.197670        -5.3789
 144   0.0000      -0.086930        -2.3655
 145   0.0000      -0.076222        -2.0741
 146   0.0000      -0.071498        -1.9456
 147   0.0000      -0.054521        -1.4836
 148   0.0000      -0.045291        -1.2324

MULLIKEN ATOMIC CHARGES AND SPIN POPULATIONS
--------------------------------------------
   0 Au:    0.282949   -0.115784
   1 Au:    0.066110   -0.160747
   2 Au:    0.222981    0.010422
   3 Au:    0.314904   -0.028855
   4 Au:    0.289704   -0.125542
   5 Au:    0.313381   -0.029715
   6 Au:    0.071208   -0.176055
   7 Au:    0.319553   -0.261850
   8 Au:   -0.098126   -0.201969
   9 Au:   -0.105962   -0.190269
  10 Au:    0.322856   -0.002780
  11 Au:    0.197275    0.030413
  12 Au:    0.318253    0.005246
  13 Au:   -0.245919   -0.223086
  14 Mn:   -2.269168    4.470572
Sum of atomic charges         :    0.0000000

LOEWDIN ATOMIC CHARGES AND SPIN POPULATIONS
-------------------------------------------
   0 Au:    0.065992   -0.150692
   1 Au:   -0.014031   -0.092103
   2 Au:    0.053187   -0.056698
   3 Au:    0.047540   -0.059266
   4 Au:    0.067216   -0.151011
   5 Au:    0.046329   -0.059934
   6 Au:   -0.012747   -0.098677
   7 Au:    0.085216   -0.253260
   8 Au:   -0.038660   -0.123766
   9 Au:   -0.039513   -0.120544
  10 Au:    0.098888   -0.068919
  11 Au:   -0.008579   -0.043585
  12 Au:    0.097130   -0.061790
  13 Au:   -0.063495   -0.123118
  14 Mn:   -0.384473    4.463363

  Mayer bond orders larger than 0.100000
B(  0-Au,  5-Au) :   0.1955 B(  0-Au,  6-Au) :   0.1885 B(  0-Au,  7-Au) :   0.1213
B(  0-Au,  8-Au) :   0.1279 B(  0-Au, 14-Mn) :   0.4337 B(  1-Au,  3-Au) :   0.1749
B(  1-Au,  4-Au) :   0.1879 B(  1-Au,  9-Au) :   0.1208 B(  1-Au, 12-Au) :   0.3076
B(  1-Au, 13-Au) :   0.1495 B(  1-Au, 14-Mn) :   0.4653 B(  2-Au,  3-Au) :   0.1271
B(  2-Au,  5-Au) :   0.1330 B(  2-Au, 13-Au) :   0.2996 B(  2-Au, 14-Mn) :   0.4991
B(  3-Au,  4-Au) :   0.1990 B(  3-Au,  5-Au) :   0.2296 B(  3-Au, 14-Mn) :   0.3836
B(  4-Au,  7-Au) :   0.1181 B(  4-Au,  9-Au) :   0.1243 B(  4-Au, 14-Mn) :   0.4345
B(  5-Au,  6-Au) :   0.1697 B(  5-Au, 14-Mn) :   0.3834 B(  6-Au,  8-Au) :   0.1279
B(  6-Au, 10-Au) :   0.2991 B(  6-Au, 13-Au) :   0.1454 B(  6-Au, 14-Mn) :   0.4651
B(  7-Au,  8-Au) :   0.1917 B(  7-Au,  9-Au) :   0.2046 B(  7-Au, 14-Mn) :   0.4397
B(  8-Au,  9-Au) :   0.2083 B(  8-Au, 10-Au) :   0.2481 B(  8-Au, 11-Au) :   0.2450
B(  8-Au, 14-Mn) :   0.4547 B(  9-Au, 11-Au) :   0.2527 B(  9-Au, 12-Au) :   0.2444
B(  9-Au, 14-Mn) :   0.4547 B( 10-Au, 11-Au) :   0.2208 B( 10-Au, 13-Au) :   0.2574
B( 11-Au, 12-Au) :   0.2210 B( 11-Au, 13-Au) :   0.2345 B( 12-Au, 13-Au) :   0.2511
B( 13-Au, 14-Mn) :   0.3454

MP2 TOTAL ENERGY:    -3049.064692261 Eh
FINAL SINGLE POINT ENERGY     -3049.064692261386

DIPOLE MOMENT
-------------
                                X             Y             Z
Electronic contribution:    -23.63270      11.30638      -2.50586
Nuclear contribution   :     23.52579     -11.26818       2.51209
                        -----------------------------------------
Total Dipole Moment    :     -0.10691       0.03819       0.00623
                        -----------------------------------------
Magnitude (a.u.)       :      0.11370
Magnitude (Debye)      :      0.28901

Rotational constants in cm-1:     0.001161     0.001028     0.000926
Rotational constants in MHz :    34.813629    30.830963    27.761768

                             ****ORCA TERMINATED NORMALLY****
TOTAL RUN TIME: 0 days 1 hours 31 minutes 57 seconds 774 msec
