                         Program Version 5.0.3 -  RELEASE  -
|  1> !PBE def2-TZVP VERYSLOWCONV
|  2> !KDIIS
|  3>
|  4> %scf
|  5>   AutoTRAHIter 200
|  6>   maxiter 400
|  7> end
|  8>
|  9>
| 10> %pal nprocs 6 end
| 11>
| 12> *xyzfile 0 6 pbe.xyz
| 13>
| 14> $new_job
| 15>
| 16> !PBE def2-TZVP VERYSLOWCONV
| 17> !KDIIS
| 18>
| 19> %scf
| 20>   AutoTRAHIter 200
| 21>   maxiter 400
| 22> end
| 23>
| 24>
| 25> %pal nprocs 6 end
| 26>
| 27> *xyzfile 0 4 pbe.xyz
| 28>
| 29>
| 30>
| 31>
| 32>
| 33>                          ****END OF INPUT****
 Total Charge           Charge          ....    0
 Multiplicity           Mult            ....    6
 Number of Electrons    NEL             ....  291
FINAL SINGLE POINT ENERGY     -3052.370305366669

CARTESIAN COORDINATES (ANGSTROEM)
---------------------------------
  Au     7.854217    4.999847    8.065852
  Au     8.530977   10.233984    6.642292
  Au     8.368257    8.102018    4.650542
  Au    10.551111    8.257988    6.492332
  Au     9.731423    9.155870    8.963385
  Au     9.434991    5.804699    5.959332
  Au     6.615313    6.039235    5.747901
  Au     8.269088    6.982495   10.036340
  Au     5.772994    6.769128    8.778628
  Au     6.944722    9.346760    9.364526
  Au     4.147254    6.934988    6.525948
  Au     4.413037    9.158614    8.169101
  Au     6.131802   11.232155    7.486868
  Au     6.029521    8.934444    5.805718
  Mn     7.987004    7.687878    7.403734

 Multiplicity           Mult            ....    4
 Number of Electrons    NEL             ....  291
 Basis Dimension        Dim             ....  605

ORBITAL ENERGIES
----------------
                 SPIN UP ORBITALS
  NO   OCC          E(Eh)            E(eV)
   0   1.0000    -234.204224     -6373.0209
   1   1.0000     -26.898141      -731.9356
   2   1.0000     -23.047355      -627.1504
   3   1.0000     -23.046672      -627.1318
   4   1.0000     -23.046216      -627.1194
   5   1.0000      -4.036539      -109.8398
   6   1.0000      -4.035655      -109.8158
   7   1.0000      -4.035314      -109.8065
   8   1.0000      -4.033695      -109.7624
   9   1.0000      -4.033522      -109.7577
  10   1.0000      -4.026956      -109.5790
  11   1.0000      -4.024837      -109.5214
  12   1.0000      -4.024663      -109.5167
  13   1.0000      -4.024551      -109.5136
  14   1.0000      -4.024443      -109.5107
  15   1.0000      -4.024147      -109.5026
  16   1.0000      -4.021752      -109.4374
  17   1.0000      -4.021595      -109.4332
  18   1.0000      -4.021319      -109.4257
  19   1.0000      -3.106686       -84.5372
  20   1.0000      -2.252128       -61.2835
  21   1.0000      -2.251930       -61.2781
  22   1.0000      -2.251471       -61.2656
  23   1.0000      -2.249766       -61.2193
  24   1.0000      -2.249630       -61.2155
  25   1.0000      -2.249372       -61.2085
  26   1.0000      -2.248408       -61.1823
  27   1.0000      -2.247509       -61.1578
  28   1.0000      -2.247134       -61.1476
  29   1.0000      -2.246827       -61.1393
  30   1.0000      -2.246591       -61.1329
  31   1.0000      -2.246203       -61.1223
  32   1.0000      -2.245349       -61.0990
  33   1.0000      -2.243522       -61.0493
  34   1.0000      -2.243388       -61.0457
  35   1.0000      -2.242315       -61.0165
  36   1.0000      -2.240826       -60.9760
  37   1.0000      -2.240753       -60.9740
  38   1.0000      -2.240430       -60.9652
  39   1.0000      -2.240228       -60.9597
  40   1.0000      -2.238841       -60.9219
  41   1.0000      -2.238549       -60.9140
  42   1.0000      -2.238432       -60.9108
  43   1.0000      -2.238324       -60.9079
  44   1.0000      -2.237637       -60.8892
  45   1.0000      -2.237540       -60.8866
  46   1.0000      -2.237064       -60.8736
  47   1.0000      -2.236557       -60.8598
  48   1.0000      -2.236090       -60.8471
  49   1.0000      -2.235648       -60.8351
  50   1.0000      -2.235307       -60.8258
  51   1.0000      -2.235153       -60.8216
  52   1.0000      -2.234865       -60.8138
  53   1.0000      -2.234728       -60.8101
  54   1.0000      -2.234483       -60.8034
  55   1.0000      -2.234122       -60.7935
  56   1.0000      -2.234111       -60.7933
  57   1.0000      -2.233929       -60.7883
  58   1.0000      -2.233468       -60.7758
  59   1.0000      -2.232788       -60.7573
  60   1.0000      -2.232352       -60.7454
  61   1.0000      -2.231881       -60.7326
  62   1.0000      -2.010789       -54.7163
  63   1.0000      -2.009019       -54.6682
  64   1.0000      -2.008186       -54.6455
  65   1.0000      -0.436080       -11.8663
  66   1.0000      -0.392174       -10.6716
  67   1.0000      -0.388611       -10.5746
  68   1.0000      -0.386759       -10.5243
  69   1.0000      -0.379109       -10.3161
  70   1.0000      -0.376608       -10.2480
  71   1.0000      -0.369482       -10.0541
  72   1.0000      -0.368698       -10.0328
  73   1.0000      -0.363697        -9.8967
  74   1.0000      -0.362354        -9.8602
  75   1.0000      -0.358340        -9.7509
  76   1.0000      -0.353746        -9.6259
  77   1.0000      -0.352996        -9.6055
  78   1.0000      -0.352195        -9.5837
  79   1.0000      -0.350711        -9.5433
  80   1.0000      -0.347342        -9.4517
  81   1.0000      -0.345924        -9.4131
  82   1.0000      -0.345208        -9.3936
  83   1.0000      -0.341596        -9.2953
  84   1.0000      -0.336576        -9.1587
  85   1.0000      -0.335294        -9.1238
  86   1.0000      -0.332949        -9.0600
  87   1.0000      -0.329532        -8.9670
  88   1.0000      -0.329305        -8.9609
  89   1.0000      -0.328254        -8.9322
  90   1.0000      -0.327041        -8.8992
  91   1.0000      -0.321745        -8.7551
  92   1.0000      -0.320330        -8.7166
  93   1.0000      -0.317623        -8.6430
  94   1.0000      -0.316116        -8.6020
  95   1.0000      -0.314999        -8.5716
  96   1.0000      -0.310980        -8.4622
  97   1.0000      -0.308650        -8.3988
  98   1.0000      -0.307866        -8.3775
  99   1.0000      -0.304507        -8.2860
 100   1.0000      -0.303261        -8.2521
 101   1.0000      -0.296820        -8.0769
 102   1.0000      -0.296035        -8.0555
 103   1.0000      -0.293613        -7.9896
 104   1.0000      -0.291704        -7.9377
 105   1.0000      -0.289727        -7.8839
 106   1.0000      -0.284680        -7.7465
 107   1.0000      -0.283695        -7.7197
 108   1.0000      -0.282794        -7.6952
 109   1.0000      -0.281687        -7.6651
 110   1.0000      -0.280082        -7.6214
 111   1.0000      -0.276898        -7.5348
 112   1.0000      -0.275817        -7.5054
 113   1.0000      -0.274406        -7.4670
 114   1.0000      -0.273315        -7.4373
 115   1.0000      -0.272116        -7.4047
 116   1.0000      -0.271506        -7.3881
 117   1.0000      -0.270812        -7.3692
 118   1.0000      -0.270499        -7.3607
 119   1.0000      -0.268394        -7.3034
 120   1.0000      -0.267636        -7.2828
 121   1.0000      -0.265931        -7.2363
 122   1.0000      -0.264394        -7.1945
 123   1.0000      -0.263355        -7.1663
 124   1.0000      -0.262618        -7.1462
 125   1.0000      -0.258417        -7.0319
 126   1.0000      -0.257139        -6.9971
 127   1.0000      -0.254921        -6.9368
 128   1.0000      -0.254134        -6.9153
 129   1.0000      -0.253499        -6.8981
 130   1.0000      -0.249481        -6.7887
 131   1.0000      -0.248801        -6.7702
 132   1.0000      -0.247879        -6.7451
 133   1.0000      -0.246844        -6.7170
 134   1.0000      -0.246525        -6.7083
 135   1.0000      -0.245601        -6.6831
 136   1.0000      -0.244065        -6.6413
 137   1.0000      -0.243204        -6.6179
 138   1.0000      -0.242571        -6.6007
 139   1.0000      -0.241515        -6.5719
 140   1.0000      -0.241078        -6.5601
 141   1.0000      -0.240911        -6.5555
 142   1.0000      -0.240332        -6.5398
 143   1.0000      -0.230511        -6.2725
 144   1.0000      -0.215445        -5.8626
 145   1.0000      -0.205527        -5.5927
 146   1.0000      -0.193854        -5.2750
 147   0.0000      -0.186895        -5.0857
 148   0.0000      -0.173558        -4.7228
 149   0.0000      -0.147413        -4.0113
 150   0.0000      -0.134436        -3.6582
 151   0.0000      -0.132032        -3.5928

                 SPIN DOWN ORBITALS
  NO   OCC          E(Eh)            E(eV)
   0   1.0000    -234.203531     -6373.0021
   1   1.0000     -26.833082      -730.1653
   2   1.0000     -22.997792      -625.8017
   3   1.0000     -22.997577      -625.7959
   4   1.0000     -22.996662      -625.7710
   5   1.0000      -4.036016      -109.8256
   6   1.0000      -4.035904      -109.8225
   7   1.0000      -4.035541      -109.8127
   8   1.0000      -4.033336      -109.7527
   9   1.0000      -4.033123      -109.7469
  10   1.0000      -4.027042      -109.5814
  11   1.0000      -4.024728      -109.5184
  12   1.0000      -4.024502      -109.5123
  13   1.0000      -4.024406      -109.5097
  14   1.0000      -4.024251      -109.5054
  15   1.0000      -4.024020      -109.4992
  16   1.0000      -4.022778      -109.4654
  17   1.0000      -4.022396      -109.4550
  18   1.0000      -4.022083      -109.4464
  19   1.0000      -2.947298       -80.2001
  20   1.0000      -2.252508       -61.2939
  21   1.0000      -2.251930       -61.2781
  22   1.0000      -2.251303       -61.2611
  23   1.0000      -2.249349       -61.2079
  24   1.0000      -2.249044       -61.1996
  25   1.0000      -2.248767       -61.1921
  26   1.0000      -2.248678       -61.1896
  27   1.0000      -2.246908       -61.1415
  28   1.0000      -2.246781       -61.1380
  29   1.0000      -2.246390       -61.1274
  30   1.0000      -2.246110       -61.1198
  31   1.0000      -2.245941       -61.1152
  32   1.0000      -2.245624       -61.1065
  33   1.0000      -2.243571       -61.0507
  34   1.0000      -2.243403       -61.0461
  35   1.0000      -2.242349       -61.0174
  36   1.0000      -2.241000       -60.9807
  37   1.0000      -2.240627       -60.9706
  38   1.0000      -2.240053       -60.9549
  39   1.0000      -2.239611       -60.9429
  40   1.0000      -2.238691       -60.9179
  41   1.0000      -2.238585       -60.9150
  42   1.0000      -2.238220       -60.9051
  43   1.0000      -2.238096       -60.9017
  44   1.0000      -2.237630       -60.8890
  45   1.0000      -2.237362       -60.8817
  46   1.0000      -2.236820       -60.8670
  47   1.0000      -2.236755       -60.8652
  48   1.0000      -2.236339       -60.8539
  49   1.0000      -2.236153       -60.8488
  50   1.0000      -2.236035       -60.8456
  51   1.0000      -2.235762       -60.8382
  52   1.0000      -2.235131       -60.8210
  53   1.0000      -2.234764       -60.8110
  54   1.0000      -2.234752       -60.8107
  55   1.0000      -2.234544       -60.8050
  56   1.0000      -2.234296       -60.7983
  57   1.0000      -2.234124       -60.7936
  58   1.0000      -2.234041       -60.7913
  59   1.0000      -2.233943       -60.7887
  60   1.0000      -2.233737       -60.7831
  61   1.0000      -2.232944       -60.7615
  62   1.0000      -1.854249       -50.4567
  63   1.0000      -1.853906       -50.4473
  64   1.0000      -1.850511       -50.3550
  65   1.0000      -0.430481       -11.7140
  66   1.0000      -0.391540       -10.6543
  67   1.0000      -0.387178       -10.5356
  68   1.0000      -0.387154       -10.5350
  69   1.0000      -0.374692       -10.1959
  70   1.0000      -0.370717       -10.0877
  71   1.0000      -0.365131        -9.9357
  72   1.0000      -0.364278        -9.9125
  73   1.0000      -0.361892        -9.8476
  74   1.0000      -0.360552        -9.8111
  75   1.0000      -0.356437        -9.6991
  76   1.0000      -0.353605        -9.6221
  77   1.0000      -0.351853        -9.5744
  78   1.0000      -0.351163        -9.5556
  79   1.0000      -0.350889        -9.5482
  80   1.0000      -0.346756        -9.4357
  81   1.0000      -0.345688        -9.4066
  82   1.0000      -0.344052        -9.3621
  83   1.0000      -0.341051        -9.2805
  84   1.0000      -0.336857        -9.1664
  85   1.0000      -0.335449        -9.1280
  86   1.0000      -0.331013        -9.0073
  87   1.0000      -0.330054        -8.9812
  88   1.0000      -0.329526        -8.9668
  89   1.0000      -0.328712        -8.9447
  90   1.0000      -0.327547        -8.9130
  91   1.0000      -0.320713        -8.7271
  92   1.0000      -0.320416        -8.7190
  93   1.0000      -0.317686        -8.6447
  94   1.0000      -0.313302        -8.5254
  95   1.0000      -0.312044        -8.4912
  96   1.0000      -0.309414        -8.4196
  97   1.0000      -0.305473        -8.3123
  98   1.0000      -0.305128        -8.3029
  99   1.0000      -0.299362        -8.1461
 100   1.0000      -0.297056        -8.0833
 101   1.0000      -0.295273        -8.0348
 102   1.0000      -0.293927        -7.9982
 103   1.0000      -0.289529        -7.8785
 104   1.0000      -0.289031        -7.8649
 105   1.0000      -0.287275        -7.8172
 106   1.0000      -0.285056        -7.7568
 107   1.0000      -0.283251        -7.7076
 108   1.0000      -0.283131        -7.7044
 109   1.0000      -0.280112        -7.6222
 110   1.0000      -0.279547        -7.6069
 111   1.0000      -0.277203        -7.5431
 112   1.0000      -0.275484        -7.4963
 113   1.0000      -0.275216        -7.4890
 114   1.0000      -0.273031        -7.4296
 115   1.0000      -0.272522        -7.4157
 116   1.0000      -0.271216        -7.3802
 117   1.0000      -0.270922        -7.3722
 118   1.0000      -0.269985        -7.3467
 119   1.0000      -0.268855        -7.3159
 120   1.0000      -0.267102        -7.2682
 121   1.0000      -0.265309        -7.2194
 122   1.0000      -0.264708        -7.2031
 123   1.0000      -0.263903        -7.1812
 124   1.0000      -0.263420        -7.1680
 125   1.0000      -0.258864        -7.0441
 126   1.0000      -0.257359        -7.0031
 127   1.0000      -0.256173        -6.9708
 128   1.0000      -0.254686        -6.9303
 129   1.0000      -0.253626        -6.9015
 130   1.0000      -0.249703        -6.7948
 131   1.0000      -0.248566        -6.7638
 132   1.0000      -0.247683        -6.7398
 133   1.0000      -0.246917        -6.7189
 134   1.0000      -0.244387        -6.6501
 135   1.0000      -0.244132        -6.6432
 136   1.0000      -0.243814        -6.6345
 137   1.0000      -0.242115        -6.5883
 138   1.0000      -0.232139        -6.3168
 139   1.0000      -0.222591        -6.0570
 140   1.0000      -0.212675        -5.7872
 141   1.0000      -0.204808        -5.5731
 142   1.0000      -0.203979        -5.5505
 143   1.0000      -0.184646        -5.0245
 144   0.0000      -0.150060        -4.0833
 145   0.0000      -0.146389        -3.9834
 146   0.0000      -0.142323        -3.8728
 147   0.0000      -0.131509        -3.5786
 148   0.0000      -0.130972        -3.5639

MULLIKEN ATOMIC CHARGES AND SPIN POPULATIONS
--------------------------------------------
   0 Au:    0.328966   -0.067475
   1 Au:    0.086205   -0.098068
   2 Au:    0.266592    0.021161
   3 Au:    0.357907   -0.008425
   4 Au:    0.332499   -0.072548
   5 Au:    0.356810   -0.008794
   6 Au:    0.089185   -0.108596
   7 Au:    0.372866   -0.155044
   8 Au:   -0.090893   -0.162044
   9 Au:   -0.095531   -0.152864
  10 Au:    0.349746   -0.018568
  11 Au:    0.221070    0.010364
  12 Au:    0.344788   -0.013712
  13 Au:   -0.243563   -0.125028
  14 Mn:   -2.676646    3.959642
Sum of atomic charges         :   -0.0000000

LOEWDIN ATOMIC CHARGES AND SPIN POPULATIONS
-------------------------------------------
   0 Au:    0.084268   -0.101544
   1 Au:    0.008198   -0.051836
   2 Au:    0.069374   -0.027363
   3 Au:    0.065864   -0.033093
   4 Au:    0.085307   -0.101023
   5 Au:    0.064826   -0.033345
   6 Au:    0.009190   -0.057301
   7 Au:    0.106059   -0.172613
   8 Au:   -0.012282   -0.088537
   9 Au:   -0.013267   -0.085762
  10 Au:    0.090691   -0.070045
  11 Au:   -0.005924   -0.038857
  12 Au:    0.089235   -0.065420
  13 Au:   -0.032942   -0.067185
  14 Mn:   -0.608598    3.993923

  Mayer bond orders larger than 0.100000
B(  0-Au,  5-Au) :   0.2321 B(  0-Au,  6-Au) :   0.2031 B(  0-Au,  7-Au) :   0.1466
B(  0-Au,  8-Au) :   0.1623 B(  0-Au, 14-Mn) :   0.4582 B(  1-Au,  2-Au) :   0.1106
B(  1-Au,  3-Au) :   0.2010 B(  1-Au,  4-Au) :   0.2023 B(  1-Au,  9-Au) :   0.1276
B(  1-Au, 12-Au) :   0.3545 B(  1-Au, 13-Au) :   0.1628 B(  1-Au, 14-Mn) :   0.5023
B(  2-Au,  3-Au) :   0.1501 B(  2-Au,  5-Au) :   0.1555 B(  2-Au,  6-Au) :   0.1121
B(  2-Au, 13-Au) :   0.3142 B(  2-Au, 14-Mn) :   0.5053 B(  3-Au,  4-Au) :   0.2344
B(  3-Au,  5-Au) :   0.2605 B(  3-Au, 14-Mn) :   0.4069 B(  4-Au,  7-Au) :   0.1441
B(  4-Au,  9-Au) :   0.1589 B(  4-Au, 14-Mn) :   0.4626 B(  5-Au,  6-Au) :   0.1958
B(  5-Au, 14-Mn) :   0.4071 B(  6-Au,  8-Au) :   0.1335 B(  6-Au, 10-Au) :   0.3469
B(  6-Au, 13-Au) :   0.1588 B(  6-Au, 14-Mn) :   0.5046 B(  7-Au,  8-Au) :   0.2288
B(  7-Au,  9-Au) :   0.2395 B(  7-Au, 14-Mn) :   0.4598 B(  8-Au,  9-Au) :   0.2199
B(  8-Au, 10-Au) :   0.2745 B(  8-Au, 11-Au) :   0.2696 B(  8-Au, 14-Mn) :   0.5037
B(  9-Au, 11-Au) :   0.2758 B(  9-Au, 12-Au) :   0.2715 B(  9-Au, 14-Mn) :   0.5007
B( 10-Au, 11-Au) :   0.2555 B( 10-Au, 13-Au) :   0.2809 B( 11-Au, 12-Au) :   0.2559
B( 11-Au, 13-Au) :   0.2493 B( 12-Au, 13-Au) :   0.2750 B( 13-Au, 14-Mn) :   0.4039

FINAL SINGLE POINT ENERGY     -3052.367549347505

DIPOLE MOMENT
-------------
                                X             Y             Z
Electronic contribution:    -23.64740      11.30969      -2.48903
Nuclear contribution   :     23.52579     -11.26818       2.51209
                        -----------------------------------------
Total Dipole Moment    :     -0.12161       0.04151       0.02306
                        -----------------------------------------
Magnitude (a.u.)       :      0.13055
Magnitude (Debye)      :      0.33184

Rotational constants in cm-1:     0.001161     0.001028     0.000926
Rotational constants in MHz :    34.813629    30.830963    27.761768

                             ****ORCA TERMINATED NORMALLY****
TOTAL RUN TIME: 0 days 0 hours 6 minutes 32 seconds 761 msec
