                         Program Version 5.0.3 -  RELEASE  -
|  1> !R2SCAN def2-TZVP VERYSLOWCONV
|  2> !KDIIS
|  3> %scf
|  4>   AutoTRAHIter 200
|  5>   maxiter 400
|  6> end
|  7>
|  8> %pal nprocs 6 end
|  9>
| 10> *xyzfile 0 6 pbe.xyz
| 11>
| 12> $new_job
| 13>
| 14> !R2SCAN def2-TZVP VERYSLOWCONV
| 15> !KDIIS
| 16> %scf
| 17>   AutoTRAHIter 200
| 18>   maxiter 400
| 19> end
| 20>
| 21>
| 22> %pal nprocs 6 end
| 23>
| 24> *xyzfile 0 4 pbe.xyz
| 25>
| 26>
| 27>
| 28>
| 29>
| 30>                          ****END OF INPUT****
 Total Charge           Charge          ....    0
 Multiplicity           Mult            ....    6
 Number of Electrons    NEL             ....  291
FINAL SINGLE POINT ENERGY     -3052.869839615177

CARTESIAN COORDINATES (ANGSTROEM)
---------------------------------
  Au     7.854217    4.999847    8.065852
  Au     8.530977   10.233984    6.642292
  Au     8.368257    8.102018    4.650542
  Au    10.551111    8.257988    6.492332
  Au     9.731423    9.155870    8.963385
  Au     9.434991    5.804699    5.959332
  Au     6.615313    6.039235    5.747901
  Au     8.269088    6.982495   10.036340
  Au     5.772994    6.769128    8.778628
  Au     6.944722    9.346760    9.364526
  Au     4.147254    6.934988    6.525948
  Au     4.413037    9.158614    8.169101
  Au     6.131802   11.232155    7.486868
  Au     6.029521    8.934444    5.805718
  Mn     7.987004    7.687878    7.403734

 Multiplicity           Mult            ....    4
 Number of Electrons    NEL             ....  291
 Basis Dimension        Dim             ....  605

ORBITAL ENERGIES
----------------
                 SPIN UP ORBITALS
  NO   OCC          E(Eh)            E(eV)
   0   1.0000    -235.046274     -6395.9343
   1   1.0000     -27.223833      -740.7981
   2   1.0000     -23.271524      -633.2503
   3   1.0000     -23.270437      -633.2208
   4   1.0000     -23.270063      -633.2106
   5   1.0000      -4.127354      -112.3110
   6   1.0000      -4.126580      -112.2899
   7   1.0000      -4.126246      -112.2809
   8   1.0000      -4.124701      -112.2388
   9   1.0000      -4.124522      -112.2340
  10   1.0000      -4.118543      -112.0712
  11   1.0000      -4.116110      -112.0050
  12   1.0000      -4.115828      -111.9974
  13   1.0000      -4.115676      -111.9932
  14   1.0000      -4.115496      -111.9883
  15   1.0000      -4.114982      -111.9744
  16   1.0000      -4.112341      -111.9025
  17   1.0000      -4.111992      -111.8930
  18   1.0000      -4.111846      -111.8890
  19   1.0000      -3.245408       -88.3120
  20   1.0000      -2.315842       -63.0173
  21   1.0000      -2.315661       -63.0123
  22   1.0000      -2.315085       -62.9967
  23   1.0000      -2.313598       -62.9562
  24   1.0000      -2.313436       -62.9518
  25   1.0000      -2.313110       -62.9429
  26   1.0000      -2.312336       -62.9219
  27   1.0000      -2.311368       -62.8955
  28   1.0000      -2.311097       -62.8881
  29   1.0000      -2.310733       -62.8783
  30   1.0000      -2.310456       -62.8707
  31   1.0000      -2.310127       -62.8618
  32   1.0000      -2.309145       -62.8350
  33   1.0000      -2.307510       -62.7905
  34   1.0000      -2.307367       -62.7866
  35   1.0000      -2.306704       -62.7686
  36   1.0000      -2.305013       -62.7226
  37   1.0000      -2.304796       -62.7167
  38   1.0000      -2.304468       -62.7078
  39   1.0000      -2.304258       -62.7021
  40   1.0000      -2.302895       -62.6650
  41   1.0000      -2.302346       -62.6500
  42   1.0000      -2.302202       -62.6461
  43   1.0000      -2.301618       -62.6302
  44   1.0000      -2.301548       -62.6283
  45   1.0000      -2.301457       -62.6258
  46   1.0000      -2.300925       -62.6114
  47   1.0000      -2.300496       -62.5997
  48   1.0000      -2.299749       -62.5793
  49   1.0000      -2.298932       -62.5571
  50   1.0000      -2.298910       -62.5565
  51   1.0000      -2.298734       -62.5517
  52   1.0000      -2.298550       -62.5467
  53   1.0000      -2.298440       -62.5437
  54   1.0000      -2.298171       -62.5364
  55   1.0000      -2.297940       -62.5301
  56   1.0000      -2.297680       -62.5231
  57   1.0000      -2.297161       -62.5089
  58   1.0000      -2.296528       -62.4917
  59   1.0000      -2.296056       -62.4789
  60   1.0000      -2.295596       -62.4664
  61   1.0000      -2.295030       -62.4509
  62   1.0000      -2.103805       -57.2474
  63   1.0000      -2.101479       -57.1842
  64   1.0000      -2.100842       -57.1668
  65   1.0000      -0.442050       -12.0288
  66   1.0000      -0.398225       -10.8363
  67   1.0000      -0.395850       -10.7716
  68   1.0000      -0.392702       -10.6860
  69   1.0000      -0.389954       -10.6112
  70   1.0000      -0.388038       -10.5590
  71   1.0000      -0.380454       -10.3527
  72   1.0000      -0.379608       -10.3297
  73   1.0000      -0.373371       -10.1599
  74   1.0000      -0.371261       -10.1025
  75   1.0000      -0.368009       -10.0140
  76   1.0000      -0.362938        -9.8761
  77   1.0000      -0.362757        -9.8711
  78   1.0000      -0.362277        -9.8581
  79   1.0000      -0.360027        -9.7968
  80   1.0000      -0.357539        -9.7291
  81   1.0000      -0.355621        -9.6769
  82   1.0000      -0.354627        -9.6499
  83   1.0000      -0.351248        -9.5579
  84   1.0000      -0.346599        -9.4314
  85   1.0000      -0.344536        -9.3753
  86   1.0000      -0.342415        -9.3176
  87   1.0000      -0.339284        -9.2324
  88   1.0000      -0.338708        -9.2167
  89   1.0000      -0.337439        -9.1822
  90   1.0000      -0.336363        -9.1529
  91   1.0000      -0.332489        -9.0475
  92   1.0000      -0.329927        -8.9778
  93   1.0000      -0.328130        -8.9289
  94   1.0000      -0.326917        -8.8959
  95   1.0000      -0.324237        -8.8229
  96   1.0000      -0.319658        -8.6983
  97   1.0000      -0.318396        -8.6640
  98   1.0000      -0.316805        -8.6207
  99   1.0000      -0.316485        -8.6120
 100   1.0000      -0.314016        -8.5448
 101   1.0000      -0.307628        -8.3710
 102   1.0000      -0.305597        -8.3157
 103   1.0000      -0.302512        -8.2318
 104   1.0000      -0.301263        -8.1978
 105   1.0000      -0.299128        -8.1397
 106   1.0000      -0.294350        -8.0097
 107   1.0000      -0.292085        -7.9480
 108   1.0000      -0.291513        -7.9325
 109   1.0000      -0.290117        -7.8945
 110   1.0000      -0.288766        -7.8577
 111   1.0000      -0.285236        -7.7617
 112   1.0000      -0.284732        -7.7479
 113   1.0000      -0.282925        -7.6988
 114   1.0000      -0.281715        -7.6658
 115   1.0000      -0.280748        -7.6395
 116   1.0000      -0.280276        -7.6267
 117   1.0000      -0.279612        -7.6086
 118   1.0000      -0.279083        -7.5942
 119   1.0000      -0.276920        -7.5354
 120   1.0000      -0.276526        -7.5247
 121   1.0000      -0.274960        -7.4820
 122   1.0000      -0.272753        -7.4220
 123   1.0000      -0.271578        -7.3900
 124   1.0000      -0.270874        -7.3708
 125   1.0000      -0.266364        -7.2481
 126   1.0000      -0.265361        -7.2208
 127   1.0000      -0.264880        -7.2078
 128   1.0000      -0.263073        -7.1586
 129   1.0000      -0.261982        -7.1289
 130   1.0000      -0.261823        -7.1246
 131   1.0000      -0.259255        -7.0547
 132   1.0000      -0.257870        -7.0170
 133   1.0000      -0.257175        -6.9981
 134   1.0000      -0.256463        -6.9787
 135   1.0000      -0.255503        -6.9526
 136   1.0000      -0.253588        -6.9005
 137   1.0000      -0.252568        -6.8727
 138   1.0000      -0.251241        -6.8366
 139   1.0000      -0.250132        -6.8064
 140   1.0000      -0.250062        -6.8045
 141   1.0000      -0.248392        -6.7591
 142   1.0000      -0.248174        -6.7532
 143   1.0000      -0.237297        -6.4572
 144   1.0000      -0.218752        -5.9525
 145   1.0000      -0.207762        -5.6535
 146   1.0000      -0.195508        -5.3200
 147   0.0000      -0.185785        -5.0555
 148   0.0000      -0.170601        -4.6423
 149   0.0000      -0.143457        -3.9037
 150   0.0000      -0.130547        -3.5524
 151   0.0000      -0.128546        -3.4979

                 SPIN DOWN ORBITALS
  NO   OCC          E(Eh)            E(eV)
   0   1.0000    -235.045274     -6395.9071
   1   1.0000     -27.136446      -738.4202
   2   1.0000     -23.203883      -631.4098
   3   1.0000     -23.203782      -631.4070
   4   1.0000     -23.203261      -631.3928
   5   1.0000      -4.127222      -112.3074
   6   1.0000      -4.127010      -112.3017
   7   1.0000      -4.126849      -112.2973
   8   1.0000      -4.124512      -112.2337
   9   1.0000      -4.124275      -112.2272
  10   1.0000      -4.118928      -112.0817
  11   1.0000      -4.116147      -112.0061
  12   1.0000      -4.115871      -111.9985
  13   1.0000      -4.115577      -111.9905
  14   1.0000      -4.115384      -111.9853
  15   1.0000      -4.114892      -111.9719
  16   1.0000      -4.113547      -111.9353
  17   1.0000      -4.113125      -111.9238
  18   1.0000      -4.112443      -111.9053
  19   1.0000      -3.037069       -82.6428
  20   1.0000      -2.316572       -63.0371
  21   1.0000      -2.315888       -63.0185
  22   1.0000      -2.314951       -62.9930
  23   1.0000      -2.313095       -62.9425
  24   1.0000      -2.312798       -62.9344
  25   1.0000      -2.312741       -62.9329
  26   1.0000      -2.312514       -62.9267
  27   1.0000      -2.310988       -62.8852
  28   1.0000      -2.310759       -62.8789
  29   1.0000      -2.310399       -62.8692
  30   1.0000      -2.310124       -62.8617
  31   1.0000      -2.309869       -62.8547
  32   1.0000      -2.309580       -62.8469
  33   1.0000      -2.307648       -62.7943
  34   1.0000      -2.307456       -62.7891
  35   1.0000      -2.306998       -62.7766
  36   1.0000      -2.305307       -62.7306
  37   1.0000      -2.304697       -62.7140
  38   1.0000      -2.304202       -62.7005
  39   1.0000      -2.303669       -62.6860
  40   1.0000      -2.302664       -62.6587
  41   1.0000      -2.302123       -62.6439
  42   1.0000      -2.301986       -62.6402
  43   1.0000      -2.301846       -62.6364
  44   1.0000      -2.301626       -62.6304
  45   1.0000      -2.301242       -62.6200
  46   1.0000      -2.300870       -62.6099
  47   1.0000      -2.300387       -62.5967
  48   1.0000      -2.300183       -62.5911
  49   1.0000      -2.299801       -62.5808
  50   1.0000      -2.299672       -62.5773
  51   1.0000      -2.299236       -62.5654
  52   1.0000      -2.298808       -62.5537
  53   1.0000      -2.298661       -62.5497
  54   1.0000      -2.298456       -62.5442
  55   1.0000      -2.298120       -62.5350
  56   1.0000      -2.297943       -62.5302
  57   1.0000      -2.297759       -62.5252
  58   1.0000      -2.297742       -62.5247
  59   1.0000      -2.297275       -62.5120
  60   1.0000      -2.297122       -62.5079
  61   1.0000      -2.296146       -62.4813
  62   1.0000      -1.895993       -51.5926
  63   1.0000      -1.895696       -51.5845
  64   1.0000      -1.893470       -51.5239
  65   1.0000      -0.436963       -11.8904
  66   1.0000      -0.398569       -10.8456
  67   1.0000      -0.394102       -10.7241
  68   1.0000      -0.393989       -10.7210
  69   1.0000      -0.383261       -10.4291
  70   1.0000      -0.379587       -10.3291
  71   1.0000      -0.373876       -10.1737
  72   1.0000      -0.372753       -10.1431
  73   1.0000      -0.371221       -10.1014
  74   1.0000      -0.369617       -10.0578
  75   1.0000      -0.365719        -9.9517
  76   1.0000      -0.363016        -9.8782
  77   1.0000      -0.361347        -9.8328
  78   1.0000      -0.360893        -9.8204
  79   1.0000      -0.360348        -9.8056
  80   1.0000      -0.356418        -9.6986
  81   1.0000      -0.355485        -9.6732
  82   1.0000      -0.353782        -9.6269
  83   1.0000      -0.350815        -9.5462
  84   1.0000      -0.346590        -9.4312
  85   1.0000      -0.344736        -9.3807
  86   1.0000      -0.340728        -9.2717
  87   1.0000      -0.339764        -9.2455
  88   1.0000      -0.338995        -9.2245
  89   1.0000      -0.338418        -9.2088
  90   1.0000      -0.337368        -9.1803
  91   1.0000      -0.329898        -8.9770
  92   1.0000      -0.329648        -8.9702
  93   1.0000      -0.326872        -8.8946
  94   1.0000      -0.322453        -8.7744
  95   1.0000      -0.320945        -8.7334
  96   1.0000      -0.318390        -8.6638
  97   1.0000      -0.314524        -8.5586
  98   1.0000      -0.314109        -8.5474
  99   1.0000      -0.308275        -8.3886
 100   1.0000      -0.306044        -8.3279
 101   1.0000      -0.304253        -8.2791
 102   1.0000      -0.302612        -8.2345
 103   1.0000      -0.297877        -8.1056
 104   1.0000      -0.297510        -8.0957
 105   1.0000      -0.296069        -8.0564
 106   1.0000      -0.294188        -8.0053
 107   1.0000      -0.291939        -7.9441
 108   1.0000      -0.291867        -7.9421
 109   1.0000      -0.288723        -7.8565
 110   1.0000      -0.287851        -7.8328
 111   1.0000      -0.285806        -7.7772
 112   1.0000      -0.284196        -7.7334
 113   1.0000      -0.283957        -7.7269
 114   1.0000      -0.281629        -7.6635
 115   1.0000      -0.280836        -7.6419
 116   1.0000      -0.279789        -7.6134
 117   1.0000      -0.279230        -7.5982
 118   1.0000      -0.278756        -7.5853
 119   1.0000      -0.277425        -7.5491
 120   1.0000      -0.275618        -7.5000
 121   1.0000      -0.273635        -7.4460
 122   1.0000      -0.272909        -7.4262
 123   1.0000      -0.272179        -7.4064
 124   1.0000      -0.271909        -7.3990
 125   1.0000      -0.266644        -7.2558
 126   1.0000      -0.265265        -7.2182
 127   1.0000      -0.264463        -7.1964
 128   1.0000      -0.262820        -7.1517
 129   1.0000      -0.261728        -7.1220
 130   1.0000      -0.257578        -7.0090
 131   1.0000      -0.255905        -6.9635
 132   1.0000      -0.254601        -6.9280
 133   1.0000      -0.254446        -6.9238
 134   1.0000      -0.251836        -6.8528
 135   1.0000      -0.251171        -6.8347
 136   1.0000      -0.250917        -6.8278
 137   1.0000      -0.249438        -6.7876
 138   1.0000      -0.238992        -6.5033
 139   1.0000      -0.225608        -6.1391
 140   1.0000      -0.214647        -5.8408
 141   1.0000      -0.205807        -5.6003
 142   1.0000      -0.205379        -5.5886
 143   1.0000      -0.184922        -5.0320
 144   0.0000      -0.145199        -3.9511
 145   0.0000      -0.140341        -3.8189
 146   0.0000      -0.135931        -3.6989
 147   0.0000      -0.120280        -3.2730
 148   0.0000      -0.115962        -3.1555

MULLIKEN ATOMIC CHARGES AND SPIN POPULATIONS
--------------------------------------------
   0 Au:    0.295682   -0.088055
   1 Au:    0.074183   -0.121126
   2 Au:    0.235930    0.020408
   3 Au:    0.323863   -0.017249
   4 Au:    0.300015   -0.094664
   5 Au:    0.322527   -0.017461
   6 Au:    0.077576   -0.133568
   7 Au:    0.337255   -0.191540
   8 Au:   -0.081564   -0.182281
   9 Au:   -0.086585   -0.172011
  10 Au:    0.321381   -0.020781
  11 Au:    0.195220    0.009199
  12 Au:    0.316148   -0.014836
  13 Au:   -0.217677   -0.150186
  14 Mn:   -2.413955    4.174152
Sum of atomic charges         :   -0.0000000

LOEWDIN ATOMIC CHARGES AND SPIN POPULATIONS
-------------------------------------------
   0 Au:    0.077467   -0.118002
   1 Au:    0.002764   -0.065737
   2 Au:    0.062270   -0.034017
   3 Au:    0.059098   -0.041211
   4 Au:    0.078683   -0.117717
   5 Au:    0.057978   -0.041486
   6 Au:    0.003858   -0.071823
   7 Au:    0.098822   -0.199593
   8 Au:   -0.016684   -0.105044
   9 Au:   -0.017686   -0.101924
  10 Au:    0.087788   -0.076352
  11 Au:   -0.009863   -0.044757
  12 Au:    0.086222   -0.070907
  13 Au:   -0.037244   -0.083875
  14 Mn:   -0.533472    4.172442

  Mayer bond orders larger than 0.100000
B(  0-Au,  5-Au) :   0.2249 B(  0-Au,  6-Au) :   0.1992 B(  0-Au,  7-Au) :   0.1337
B(  0-Au,  8-Au) :   0.1477 B(  0-Au, 14-Mn) :   0.4501 B(  1-Au,  3-Au) :   0.1887
B(  1-Au,  4-Au) :   0.1988 B(  1-Au,  9-Au) :   0.1095 B(  1-Au, 12-Au) :   0.3500
B(  1-Au, 13-Au) :   0.1481 B(  1-Au, 14-Mn) :   0.4884 B(  2-Au,  3-Au) :   0.1339
B(  2-Au,  5-Au) :   0.1398 B(  2-Au, 13-Au) :   0.3195 B(  2-Au, 14-Mn) :   0.5011
B(  3-Au,  4-Au) :   0.2279 B(  3-Au,  5-Au) :   0.2579 B(  3-Au, 14-Mn) :   0.4015
B(  4-Au,  7-Au) :   0.1314 B(  4-Au,  9-Au) :   0.1441 B(  4-Au, 14-Mn) :   0.4542
B(  5-Au,  6-Au) :   0.1834 B(  5-Au, 14-Mn) :   0.4018 B(  6-Au,  8-Au) :   0.1164
B(  6-Au, 10-Au) :   0.3415 B(  6-Au, 13-Au) :   0.1439 B(  6-Au, 14-Mn) :   0.4902
B(  7-Au,  8-Au) :   0.2161 B(  7-Au,  9-Au) :   0.2279 B(  7-Au, 14-Mn) :   0.4582
B(  8-Au,  9-Au) :   0.2109 B(  8-Au, 10-Au) :   0.2668 B(  8-Au, 11-Au) :   0.2583
B(  8-Au, 14-Mn) :   0.4845 B(  9-Au, 11-Au) :   0.2651 B(  9-Au, 12-Au) :   0.2635
B(  9-Au, 14-Mn) :   0.4815 B( 10-Au, 11-Au) :   0.2434 B( 10-Au, 13-Au) :   0.2709
B( 11-Au, 12-Au) :   0.2436 B( 11-Au, 13-Au) :   0.2368 B( 12-Au, 13-Au) :   0.2644
B( 13-Au, 14-Mn) :   0.3820

FINAL SINGLE POINT ENERGY     -3052.865664660670

DIPOLE MOMENT
-------------
                                X             Y             Z
Electronic contribution:    -23.63699      11.30378      -2.48476
Nuclear contribution   :     23.52579     -11.26818       2.51209
                        -----------------------------------------
Total Dipole Moment    :     -0.11120       0.03560       0.02733
                        -----------------------------------------
Magnitude (a.u.)       :      0.11992
Magnitude (Debye)      :      0.30481

Rotational constants in cm-1:     0.001161     0.001028     0.000926
Rotational constants in MHz :    34.813629    30.830963    27.761768

                             ****ORCA TERMINATED NORMALLY****
TOTAL RUN TIME: 0 days 0 hours 13 minutes 3 seconds 575 msec
