                         Program Version 5.0.3 -  RELEASE  -
|  1> %pal nprocs 1 end
|  2>
|  3> !PBE def2-TZVP OPT UNO
|  4> !SLOWCONV
|  5>
|  6> *xyzfile 0 5 6.xyz                           ****END OF INPUT****
 Total Charge           Charge          ....    0
 Multiplicity           Mult            ....    5
 Number of Electrons    NEL             ....  292
FINAL SINGLE POINT ENERGY     -3165.070268829568
FINAL SINGLE POINT ENERGY     -3165.072687709812
FINAL SINGLE POINT ENERGY     -3165.073506154973
FINAL SINGLE POINT ENERGY     -3165.074209069639
FINAL SINGLE POINT ENERGY     -3165.074522998286
FINAL SINGLE POINT ENERGY     -3165.074679062453
FINAL SINGLE POINT ENERGY     -3165.074793250374
FINAL SINGLE POINT ENERGY     -3165.074873727527
FINAL SINGLE POINT ENERGY     -3165.074930034792
FINAL SINGLE POINT ENERGY     -3165.074981047593
FINAL SINGLE POINT ENERGY     -3165.075423598500
FINAL SINGLE POINT ENERGY     -3165.075446737778
FINAL SINGLE POINT ENERGY     -3165.075465542382
FINAL SINGLE POINT ENERGY     -3165.075479542955
FINAL SINGLE POINT ENERGY     -3165.075490530863
FINAL SINGLE POINT ENERGY     -3165.075497392371
FINAL SINGLE POINT ENERGY     -3165.075502177469
FINAL SINGLE POINT ENERGY     -3165.075505617557
FINAL SINGLE POINT ENERGY     -3165.075508265595
                    ***********************HURRAY********************

CARTESIAN COORDINATES (ANGSTROEM)
---------------------------------
  Au     4.997767    8.069814    7.524768
  Au     8.030328   10.408076    8.702077
  Au     5.229202   10.748210    8.070457
  Au    10.071403   10.255454    6.958463
  Au     6.993544   10.231373    6.035263
  Au     6.407004    7.760097    4.922704
  Au     9.033579    8.661066    4.961596
  Au    10.336678    7.545345    7.229804
  Au     8.591213    5.967701    5.564975
  Au     6.099743    5.615249    6.702283
  Au     6.089861    8.988034   10.051327
  Au     8.796384    5.537351    8.336011
  Au     6.342461    6.351263    9.349406
  Au     8.713654    7.938229    9.806481
  Fe     7.670445    7.934865    7.352893

 Multiplicity           Mult            ....    5
 Number of Electrons    NEL             ....  292
 Basis Dimension        Dim             ....  605

ORBITAL ENERGIES
----------------
                 SPIN UP ORBITALS
  NO   OCC          E(Eh)            E(eV)
   0   1.0000    -254.779517     -6932.9031
   1   1.0000     -29.619717      -805.9935
   2   1.0000     -25.557305      -695.4496
   3   1.0000     -25.554891      -695.3839
   4   1.0000     -25.551479      -695.2911
   5   1.0000      -4.035905      -109.8226
   6   1.0000      -4.031824      -109.7115
   7   1.0000      -4.031806      -109.7110
   8   1.0000      -4.031695      -109.7080
   9   1.0000      -4.031510      -109.7030
  10   1.0000      -4.031256      -109.6960
  11   1.0000      -4.030210      -109.6676
  12   1.0000      -4.029692      -109.6535
  13   1.0000      -4.028534      -109.6220
  14   1.0000      -4.028363      -109.6173
  15   1.0000      -4.028229      -109.6137
  16   1.0000      -4.022560      -109.4594
  17   1.0000      -4.019223      -109.3686
  18   1.0000      -4.015882      -109.2777
  19   1.0000      -3.399227       -92.4977
  20   1.0000      -2.252247       -61.2868
  21   1.0000      -2.249098       -61.2011
  22   1.0000      -2.248624       -61.1882
  23   1.0000      -2.247721       -61.1636
  24   1.0000      -2.246837       -61.1395
  25   1.0000      -2.246635       -61.1341
  26   1.0000      -2.246558       -61.1319
  27   1.0000      -2.246453       -61.1291
  28   1.0000      -2.246376       -61.1270
  29   1.0000      -2.246288       -61.1246
  30   1.0000      -2.245392       -61.1002
  31   1.0000      -2.245062       -61.0913
  32   1.0000      -2.244672       -61.0806
  33   1.0000      -2.244442       -61.0744
  34   1.0000      -2.244200       -61.0678
  35   1.0000      -2.243769       -61.0561
  36   1.0000      -2.243690       -61.0539
  37   1.0000      -2.243435       -61.0470
  38   1.0000      -2.242996       -61.0350
  39   1.0000      -2.242961       -61.0341
  40   1.0000      -2.242121       -61.0112
  41   1.0000      -2.241980       -61.0074
  42   1.0000      -2.241667       -60.9989
  43   1.0000      -2.241358       -60.9905
  44   1.0000      -2.241116       -60.9839
  45   1.0000      -2.240791       -60.9750
  46   1.0000      -2.240555       -60.9686
  47   1.0000      -2.240142       -60.9574
  48   1.0000      -2.240080       -60.9557
  49   1.0000      -2.239675       -60.9447
  50   1.0000      -2.239342       -60.9356
  51   1.0000      -2.238768       -60.9200
  52   1.0000      -2.238270       -60.9064
  53   1.0000      -2.237493       -60.8853
  54   1.0000      -2.234870       -60.8139
  55   1.0000      -2.233778       -60.7842
  56   1.0000      -2.232961       -60.7620
  57   1.0000      -2.231925       -60.7338
  58   1.0000      -2.230762       -60.7021
  59   1.0000      -2.230441       -60.6934
  60   1.0000      -2.228547       -60.6418
  61   1.0000      -2.226910       -60.5973
  62   1.0000      -2.218298       -60.3630
  63   1.0000      -2.213262       -60.2259
  64   1.0000      -2.205843       -60.0240
  65   1.0000      -0.441510       -12.0141
  66   1.0000      -0.393400       -10.7050
  67   1.0000      -0.389307       -10.5936
  68   1.0000      -0.386880       -10.5275
  69   1.0000      -0.381049       -10.3689
  70   1.0000      -0.379039       -10.3142
  71   1.0000      -0.378606       -10.3024
  72   1.0000      -0.372631       -10.1398
  73   1.0000      -0.370694       -10.0871
  74   1.0000      -0.366379        -9.9697
  75   1.0000      -0.357478        -9.7275
  76   1.0000      -0.357137        -9.7182
  77   1.0000      -0.355806        -9.6820
  78   1.0000      -0.352849        -9.6015
  79   1.0000      -0.351498        -9.5647
  80   1.0000      -0.350828        -9.5465
  81   1.0000      -0.348514        -9.4836
  82   1.0000      -0.347976        -9.4689
  83   1.0000      -0.346588        -9.4311
  84   1.0000      -0.344696        -9.3796
  85   1.0000      -0.342705        -9.3255
  86   1.0000      -0.341563        -9.2944
  87   1.0000      -0.338920        -9.2225
  88   1.0000      -0.335138        -9.1196
  89   1.0000      -0.333339        -9.0706
  90   1.0000      -0.331937        -9.0325
  91   1.0000      -0.326550        -8.8859
  92   1.0000      -0.325030        -8.8445
  93   1.0000      -0.323844        -8.8123
  94   1.0000      -0.317710        -8.6453
  95   1.0000      -0.316458        -8.6113
  96   1.0000      -0.315249        -8.5784
  97   1.0000      -0.312295        -8.4980
  98   1.0000      -0.310525        -8.4498
  99   1.0000      -0.309791        -8.4299
 100   1.0000      -0.307640        -8.3713
 101   1.0000      -0.304979        -8.2989
 102   1.0000      -0.302011        -8.2181
 103   1.0000      -0.301143        -8.1945
 104   1.0000      -0.298390        -8.1196
 105   1.0000      -0.292427        -7.9573
 106   1.0000      -0.288215        -7.8427
 107   1.0000      -0.286758        -7.8031
 108   1.0000      -0.282369        -7.6836
 109   1.0000      -0.281770        -7.6673
 110   1.0000      -0.280034        -7.6201
 111   1.0000      -0.278597        -7.5810
 112   1.0000      -0.277867        -7.5611
 113   1.0000      -0.277521        -7.5517
 114   1.0000      -0.274747        -7.4763
 115   1.0000      -0.273179        -7.4336
 116   1.0000      -0.272716        -7.4210
 117   1.0000      -0.271939        -7.3998
 118   1.0000      -0.270570        -7.3626
 119   1.0000      -0.268453        -7.3050
 120   1.0000      -0.267188        -7.2706
 121   1.0000      -0.264770        -7.2047
 122   1.0000      -0.264640        -7.2012
 123   1.0000      -0.262985        -7.1562
 124   1.0000      -0.262684        -7.1480
 125   1.0000      -0.260240        -7.0815
 126   1.0000      -0.259352        -7.0573
 127   1.0000      -0.258556        -7.0357
 128   1.0000      -0.256999        -6.9933
 129   1.0000      -0.256111        -6.9691
 130   1.0000      -0.254853        -6.9349
 131   1.0000      -0.254651        -6.9294
 132   1.0000      -0.253477        -6.8975
 133   1.0000      -0.252295        -6.8653
 134   1.0000      -0.251683        -6.8486
 135   1.0000      -0.250515        -6.8169
 136   1.0000      -0.250114        -6.8060
 137   1.0000      -0.246708        -6.7133
 138   1.0000      -0.246192        -6.6992
 139   1.0000      -0.244504        -6.6533
 140   1.0000      -0.243339        -6.6216
 141   1.0000      -0.241566        -6.5733
 142   1.0000      -0.237761        -6.4698
 143   1.0000      -0.236412        -6.4331
 144   1.0000      -0.215690        -5.8692
 145   1.0000      -0.204429        -5.5628
 146   1.0000      -0.199450        -5.4273
 147   1.0000      -0.196648        -5.3511
 148   0.0000      -0.184903        -5.0315
 149   0.0000      -0.147953        -4.0260
 150   0.0000      -0.127486        -3.4691
 151   0.0000      -0.122707        -3.3390
 152   0.0000      -0.119503        -3.2518

                 SPIN DOWN ORBITALS
  NO   OCC          E(Eh)            E(eV)
   0   1.0000    -254.778788     -6932.8833
   1   1.0000     -29.557539      -804.3015
   2   1.0000     -25.508758      -694.1286
   3   1.0000     -25.507719      -694.1003
   4   1.0000     -25.506321      -694.0623
   5   1.0000      -4.035100      -109.8007
   6   1.0000      -4.031705      -109.7083
   7   1.0000      -4.031366      -109.6990
   8   1.0000      -4.031016      -109.6895
   9   1.0000      -4.030976      -109.6884
  10   1.0000      -4.030494      -109.6753
  11   1.0000      -4.029653      -109.6524
  12   1.0000      -4.029473      -109.6475
  13   1.0000      -4.028388      -109.6180
  14   1.0000      -4.028103      -109.6102
  15   1.0000      -4.027997      -109.6074
  16   1.0000      -4.022392      -109.4548
  17   1.0000      -4.019295      -109.3706
  18   1.0000      -4.016049      -109.2823
  19   1.0000      -3.259532       -88.6964
  20   1.0000      -2.251216       -61.2587
  21   1.0000      -2.247964       -61.1702
  22   1.0000      -2.247827       -61.1665
  23   1.0000      -2.247077       -61.1461
  24   1.0000      -2.246785       -61.1381
  25   1.0000      -2.246151       -61.1209
  26   1.0000      -2.246077       -61.1189
  27   1.0000      -2.245735       -61.1096
  28   1.0000      -2.245687       -61.1083
  29   1.0000      -2.245510       -61.1034
  30   1.0000      -2.244482       -61.0755
  31   1.0000      -2.244361       -61.0722
  32   1.0000      -2.244168       -61.0669
  33   1.0000      -2.244034       -61.0633
  34   1.0000      -2.243558       -61.0503
  35   1.0000      -2.243415       -61.0464
  36   1.0000      -2.243316       -61.0437
  37   1.0000      -2.243102       -61.0379
  38   1.0000      -2.242545       -61.0228
  39   1.0000      -2.242246       -61.0146
  40   1.0000      -2.241839       -61.0035
  41   1.0000      -2.241542       -60.9955
  42   1.0000      -2.241266       -60.9879
  43   1.0000      -2.240982       -60.9802
  44   1.0000      -2.240870       -60.9772
  45   1.0000      -2.240532       -60.9680
  46   1.0000      -2.240222       -60.9596
  47   1.0000      -2.240011       -60.9538
  48   1.0000      -2.239824       -60.9487
  49   1.0000      -2.239383       -60.9367
  50   1.0000      -2.239217       -60.9322
  51   1.0000      -2.238442       -60.9111
  52   1.0000      -2.238077       -60.9012
  53   1.0000      -2.237452       -60.8842
  54   1.0000      -2.234634       -60.8075
  55   1.0000      -2.233703       -60.7822
  56   1.0000      -2.233125       -60.7664
  57   1.0000      -2.231866       -60.7322
  58   1.0000      -2.230708       -60.7007
  59   1.0000      -2.230543       -60.6962
  60   1.0000      -2.228624       -60.6439
  61   1.0000      -2.227287       -60.6076
  62   1.0000      -2.077005       -56.5182
  63   1.0000      -2.076045       -56.4921
  64   1.0000      -2.074263       -56.4436
  65   1.0000      -0.436874       -11.8879
  66   1.0000      -0.391980       -10.6663
  67   1.0000      -0.387546       -10.5457
  68   1.0000      -0.384127       -10.4526
  69   1.0000      -0.371346       -10.1048
  70   1.0000      -0.368873       -10.0375
  71   1.0000      -0.367700       -10.0056
  72   1.0000      -0.366012        -9.9597
  73   1.0000      -0.363549        -9.8927
  74   1.0000      -0.361187        -9.8284
  75   1.0000      -0.356744        -9.7075
  76   1.0000      -0.355661        -9.6780
  77   1.0000      -0.354655        -9.6507
  78   1.0000      -0.351664        -9.5693
  79   1.0000      -0.350347        -9.5334
  80   1.0000      -0.349220        -9.5028
  81   1.0000      -0.347239        -9.4488
  82   1.0000      -0.346702        -9.4342
  83   1.0000      -0.345142        -9.3918
  84   1.0000      -0.342744        -9.3265
  85   1.0000      -0.341471        -9.2919
  86   1.0000      -0.339619        -9.2415
  87   1.0000      -0.337034        -9.1712
  88   1.0000      -0.332934        -9.0596
  89   1.0000      -0.330011        -8.9801
  90   1.0000      -0.329108        -8.9555
  91   1.0000      -0.324361        -8.8263
  92   1.0000      -0.320282        -8.7153
  93   1.0000      -0.317782        -8.6473
  94   1.0000      -0.314566        -8.5598
  95   1.0000      -0.311879        -8.4867
  96   1.0000      -0.310954        -8.4615
  97   1.0000      -0.307960        -8.3800
  98   1.0000      -0.307089        -8.3563
  99   1.0000      -0.306770        -8.3476
 100   1.0000      -0.303016        -8.2455
 101   1.0000      -0.298730        -8.1289
 102   1.0000      -0.294209        -8.0058
 103   1.0000      -0.290826        -7.9138
 104   1.0000      -0.289220        -7.8701
 105   1.0000      -0.286018        -7.7829
 106   1.0000      -0.282498        -7.6872
 107   1.0000      -0.281744        -7.6666
 108   1.0000      -0.279851        -7.6151
 109   1.0000      -0.278740        -7.5849
 110   1.0000      -0.277732        -7.5575
 111   1.0000      -0.276076        -7.5124
 112   1.0000      -0.275750        -7.5035
 113   1.0000      -0.273508        -7.4425
 114   1.0000      -0.272262        -7.4086
 115   1.0000      -0.271374        -7.3845
 116   1.0000      -0.270965        -7.3733
 117   1.0000      -0.268480        -7.3057
 118   1.0000      -0.265472        -7.2239
 119   1.0000      -0.264450        -7.1960
 120   1.0000      -0.262645        -7.1469
 121   1.0000      -0.262342        -7.1387
 122   1.0000      -0.258660        -7.0385
 123   1.0000      -0.258054        -7.0220
 124   1.0000      -0.256713        -6.9855
 125   1.0000      -0.255738        -6.9590
 126   1.0000      -0.254287        -6.9195
 127   1.0000      -0.253204        -6.8900
 128   1.0000      -0.252591        -6.8733
 129   1.0000      -0.251371        -6.8402
 130   1.0000      -0.250339        -6.8121
 131   1.0000      -0.249490        -6.7890
 132   1.0000      -0.246039        -6.6951
 133   1.0000      -0.245645        -6.6843
 134   1.0000      -0.244679        -6.6580
 135   1.0000      -0.243396        -6.6231
 136   1.0000      -0.242036        -6.5861
 137   1.0000      -0.237566        -6.4645
 138   1.0000      -0.236985        -6.4487
 139   1.0000      -0.220200        -5.9920
 140   1.0000      -0.213353        -5.8056
 141   1.0000      -0.209622        -5.7041
 142   1.0000      -0.207215        -5.6386
 143   1.0000      -0.202852        -5.5199
 144   0.0000      -0.173213        -4.7134
 145   0.0000      -0.171855        -4.6764
 146   0.0000      -0.166852        -4.5403
 147   0.0000      -0.166388        -4.5277
 148   0.0000      -0.164387        -4.4732

MULLIKEN ATOMIC CHARGES AND SPIN POPULATIONS
--------------------------------------------
   0 Au:    0.028284    0.046898
   1 Au:   -0.042021    0.141473
   2 Au:    0.343192    0.062110
   3 Au:    0.241228    0.054865
   4 Au:    0.008676    0.107299
   5 Au:    0.296129    0.009818
   6 Au:    0.237628    0.057504
   7 Au:    0.216466    0.033113
   8 Au:    0.222228    0.077724
   9 Au:    0.248660    0.083727
  10 Au:    0.186413    0.086152
  11 Au:    0.242128    0.060727
  12 Au:    0.198701    0.007567
  13 Au:    0.257058    0.030655
  14 Fe:   -2.684771    3.140368
Sum of atomic charges         :   -0.0000000

LOEWDIN ATOMIC CHARGES AND SPIN POPULATIONS
-------------------------------------------
   0 Au:    0.022913    0.043781
   1 Au:   -0.021855    0.088587
   2 Au:    0.076643    0.060759
   3 Au:    0.072184    0.040855
   4 Au:    0.018273    0.066263
   5 Au:    0.074557    0.019093
   6 Au:    0.020108    0.060508
   7 Au:    0.042852    0.031410
   8 Au:    0.039149    0.061019
   9 Au:    0.062342    0.033688
  10 Au:   -0.000994    0.082394
  11 Au:    0.063578    0.023809
  12 Au:    0.035809    0.024112
  13 Au:    0.078242    0.031339
  14 Fe:   -0.583802    3.332382

  Mayer bond orders larger than 0.100000
B(  0-Au,  2-Au) :   0.3541 B(  0-Au,  4-Au) :   0.1136 B(  0-Au,  9-Au) :   0.2584
B(  0-Au, 10-Au) :   0.2234 B(  0-Au, 12-Au) :   0.2287 B(  0-Au, 14-Fe) :   0.5064
B(  1-Au,  2-Au) :   0.2093 B(  1-Au,  3-Au) :   0.3848 B(  1-Au,  4-Au) :   0.1675
B(  1-Au, 10-Au) :   0.2783 B(  1-Au, 13-Au) :   0.1999 B(  1-Au, 14-Fe) :   0.4334
B(  2-Au,  4-Au) :   0.3353 B(  2-Au, 10-Au) :   0.2410 B(  2-Au, 14-Fe) :   0.1410
B(  3-Au,  6-Au) :   0.2679 B(  3-Au,  7-Au) :   0.3236 B(  3-Au, 14-Fe) :   0.2846
B(  4-Au,  5-Au) :   0.2230 B(  4-Au,  6-Au) :   0.2104 B(  4-Au, 14-Fe) :   0.5564
B(  5-Au,  6-Au) :   0.2089 B(  5-Au,  8-Au) :   0.1600 B(  5-Au,  9-Au) :   0.1885
B(  5-Au, 14-Fe) :   0.4935 B(  6-Au,  7-Au) :   0.2062 B(  6-Au,  8-Au) :   0.2251
B(  6-Au, 14-Fe) :   0.4074 B(  7-Au,  8-Au) :   0.1729 B(  7-Au, 11-Au) :   0.2471
B(  7-Au, 14-Fe) :   0.4656 B(  8-Au,  9-Au) :   0.2459 B(  8-Au, 11-Au) :   0.1938
B(  8-Au, 14-Fe) :   0.4801 B(  9-Au, 12-Au) :   0.2226 B(  9-Au, 14-Fe) :   0.4362
B( 10-Au, 12-Au) :   0.2823 B( 10-Au, 13-Au) :   0.2208 B( 10-Au, 14-Fe) :   0.2708
B( 11-Au, 12-Au) :   0.2121 B( 11-Au, 13-Au) :   0.2049 B( 11-Au, 14-Fe) :   0.4640
B( 12-Au, 13-Au) :   0.1528 B( 12-Au, 14-Fe) :   0.4512 B( 13-Au, 14-Fe) :   0.5696

FINAL SINGLE POINT ENERGY     -3165.075510504783

DIPOLE MOMENT
-------------
                                X             Y             Z
Electronic contribution:     -4.57130       8.10321       3.44478
Nuclear contribution   :      4.50896      -8.15157      -3.47729
                        -----------------------------------------
Total Dipole Moment    :     -0.06235      -0.04836      -0.03251
                        -----------------------------------------
Magnitude (a.u.)       :      0.08534
Magnitude (Debye)      :      0.21692

Rotational constants in cm-1:     0.001165     0.001071     0.000970
Rotational constants in MHz :    34.925974    32.095562    29.077280

                             ****ORCA TERMINATED NORMALLY****
TOTAL RUN TIME: 0 days 7 hours 19 minutes 8 seconds 70 msec
