                         Program Version 5.0.3 -  RELEASE  -
|  1> !RI-B2PLYP def2-TZVP def2-TZVP/C
|  2> !RIJCOSX VERYSLOWCONV
|  3>
|  4> %scf
|  5>   AutoTRAHIter 200
|  6>   maxiter 400
|  7> end
|  8>
|  9>
| 10> %pal nprocs 6 end
| 11>
| 12> *xyzfile 0 5 pbe.xyz
| 13>
| 14> $new_job
| 15>
| 16> !RI-B2PLYP def2-TZVP def2-TZVP/C
| 17> !RIJCOSX VERYSLOWCONV
| 18>
| 19> %scf
| 20>   AutoTRAHIter 200
| 21>   maxiter 400
| 22> end
| 23>
| 24>
| 25> %pal nprocs 6 end
| 26>
| 27> *xyzfile 0 3 pbe.xyz
| 28>
| 29>
| 30>
| 31>
| 32>
| 33>                          ****END OF INPUT****
 Total Charge           Charge          ....    0
 Multiplicity           Mult            ....    5
 Number of Electrons    NEL             ....  328
MP2 TOTAL ENERGY:    -3213.707672296 Eh
FINAL SINGLE POINT ENERGY     -3213.707672296381

CARTESIAN COORDINATES (ANGSTROEM)
---------------------------------
  Au     5.797307    5.483055    9.391583
  Au     3.978372    7.177994    8.038326
  Au     5.288848    9.708976    7.538700
  Au     5.888735    8.260405    9.917036
  Au     7.785270   10.810436    7.606747
  Au    12.368103    9.629094    7.396142
  Au    10.287591   10.934695    8.715105
  Au     8.355469    6.632646    9.458288
  Au    10.542899    8.026308    8.654934
  Au     8.366344    9.403981    9.929150
  Au     9.183753    6.887248    6.538437
  Au     9.919745    9.525791    6.180485
  Au     7.547871    4.790223    7.366661
  Au     6.951336    6.221013    5.012244
  Au     7.343808    9.058309    5.458673
  Au     4.790440    7.897206    5.425005
  Cr     6.600936    7.332310    7.464670

 Multiplicity           Mult            ....    3
 Number of Electrons    NEL             ....  328
 Basis Dimension        Dim             ....  685

ORBITAL ENERGIES
----------------
                 SPIN UP ORBITALS
  NO   OCC          E(Eh)            E(eV)
   0   1.0000    -217.756195     -5925.4473
   1   1.0000     -25.441329      -692.2938
   2   1.0000     -21.581049      -587.2502
   3   1.0000     -21.579976      -587.2210
   4   1.0000     -21.575399      -587.0964
   5   1.0000      -4.404145      -119.8429
   6   1.0000      -4.403953      -119.8376
   7   1.0000      -4.401706      -119.7765
   8   1.0000      -4.401450      -119.7696
   9   1.0000      -4.399930      -119.7282
  10   1.0000      -4.397436      -119.6603
  11   1.0000      -4.397312      -119.6569
  12   1.0000      -4.396973      -119.6477
  13   1.0000      -4.396864      -119.6447
  14   1.0000      -4.395724      -119.6137
  15   1.0000      -4.392502      -119.5261
  16   1.0000      -4.392417      -119.5237
  17   1.0000      -4.387650      -119.3940
  18   1.0000      -4.387471      -119.3892
  19   1.0000      -4.385367      -119.3319
  20   1.0000      -4.384759      -119.3154
  21   1.0000      -3.230905       -87.9174
  22   1.0000      -2.524498       -68.6951
  23   1.0000      -2.524334       -68.6906
  24   1.0000      -2.522758       -68.6477
  25   1.0000      -2.521857       -68.6232
  26   1.0000      -2.521653       -68.6177
  27   1.0000      -2.521338       -68.6091
  28   1.0000      -2.521136       -68.6036
  29   1.0000      -2.520322       -68.5815
  30   1.0000      -2.520057       -68.5742
  31   1.0000      -2.519435       -68.5573
  32   1.0000      -2.519009       -68.5457
  33   1.0000      -2.518217       -68.5242
  34   1.0000      -2.517712       -68.5104
  35   1.0000      -2.517703       -68.5102
  36   1.0000      -2.516848       -68.4869
  37   1.0000      -2.516721       -68.4835
  38   1.0000      -2.516417       -68.4752
  39   1.0000      -2.516254       -68.4707
  40   1.0000      -2.516076       -68.4659
  41   1.0000      -2.515089       -68.4391
  42   1.0000      -2.514866       -68.4330
  43   1.0000      -2.514612       -68.4261
  44   1.0000      -2.513306       -68.3905
  45   1.0000      -2.513061       -68.3839
  46   1.0000      -2.512737       -68.3751
  47   1.0000      -2.512167       -68.3595
  48   1.0000      -2.511666       -68.3459
  49   1.0000      -2.511380       -68.3381
  50   1.0000      -2.511052       -68.3292
  51   1.0000      -2.510726       -68.3203
  52   1.0000      -2.510397       -68.3114
  53   1.0000      -2.510305       -68.3089
  54   1.0000      -2.509614       -68.2901
  55   1.0000      -2.508695       -68.2651
  56   1.0000      -2.508670       -68.2644
  57   1.0000      -2.508067       -68.2480
  58   1.0000      -2.507214       -68.2248
  59   1.0000      -2.506201       -68.1972
  60   1.0000      -2.505215       -68.1704
  61   1.0000      -2.504841       -68.1602
  62   1.0000      -2.503255       -68.1170
  63   1.0000      -2.503136       -68.1138
  64   1.0000      -2.502045       -68.0841
  65   1.0000      -2.501432       -68.0674
  66   1.0000      -2.501391       -68.0663
  67   1.0000      -2.501283       -68.0634
  68   1.0000      -2.500449       -68.0407
  69   1.0000      -2.499341       -68.0105
  70   1.0000      -2.122838       -57.7654
  71   1.0000      -2.114301       -57.5331
  72   1.0000      -2.112269       -57.4778
  73   1.0000      -0.503261       -13.6944
  74   1.0000      -0.484911       -13.1951
  75   1.0000      -0.477595       -12.9960
  76   1.0000      -0.470782       -12.8106
  77   1.0000      -0.470140       -12.7932
  78   1.0000      -0.468275       -12.7424
  79   1.0000      -0.465483       -12.6664
  80   1.0000      -0.463529       -12.6133
  81   1.0000      -0.461491       -12.5578
  82   1.0000      -0.460753       -12.5377
  83   1.0000      -0.458616       -12.4796
  84   1.0000      -0.455636       -12.3985
  85   1.0000      -0.454971       -12.3804
  86   1.0000      -0.452266       -12.3068
  87   1.0000      -0.452173       -12.3042
  88   1.0000      -0.451984       -12.2991
  89   1.0000      -0.450444       -12.2572
  90   1.0000      -0.448125       -12.1941
  91   1.0000      -0.446321       -12.1450
  92   1.0000      -0.444163       -12.0863
  93   1.0000      -0.438228       -11.9248
  94   1.0000      -0.436579       -11.8799
  95   1.0000      -0.434137       -11.8135
  96   1.0000      -0.433091       -11.7850
  97   1.0000      -0.432308       -11.7637
  98   1.0000      -0.428618       -11.6633
  99   1.0000      -0.427546       -11.6341
 100   1.0000      -0.426457       -11.6045
 101   1.0000      -0.422384       -11.4936
 102   1.0000      -0.421061       -11.4577
 103   1.0000      -0.420423       -11.4403
 104   1.0000      -0.418007       -11.3745
 105   1.0000      -0.416765       -11.3408
 106   1.0000      -0.416127       -11.3234
 107   1.0000      -0.412435       -11.2229
 108   1.0000      -0.411572       -11.1994
 109   1.0000      -0.407571       -11.0906
 110   1.0000      -0.403024       -10.9668
 111   1.0000      -0.398785       -10.8515
 112   1.0000      -0.397547       -10.8178
 113   1.0000      -0.394451       -10.7336
 114   1.0000      -0.392619       -10.6837
 115   1.0000      -0.390304       -10.6207
 116   1.0000      -0.388805       -10.5799
 117   1.0000      -0.388035       -10.5590
 118   1.0000      -0.384061       -10.4508
 119   1.0000      -0.381722       -10.3872
 120   1.0000      -0.380583       -10.3562
 121   1.0000      -0.377630       -10.2758
 122   1.0000      -0.375571       -10.2198
 123   1.0000      -0.372477       -10.1356
 124   1.0000      -0.370314       -10.0768
 125   1.0000      -0.368349       -10.0233
 126   1.0000      -0.367340        -9.9958
 127   1.0000      -0.366604        -9.9758
 128   1.0000      -0.366156        -9.9636
 129   1.0000      -0.364866        -9.9285
 130   1.0000      -0.364421        -9.9164
 131   1.0000      -0.362010        -9.8508
 132   1.0000      -0.361505        -9.8370
 133   1.0000      -0.361366        -9.8333
 134   1.0000      -0.358938        -9.7672
 135   1.0000      -0.358580        -9.7575
 136   1.0000      -0.356267        -9.6945
 137   1.0000      -0.355085        -9.6624
 138   1.0000      -0.354573        -9.6484
 139   1.0000      -0.354312        -9.6413
 140   1.0000      -0.352024        -9.5790
 141   1.0000      -0.349925        -9.5220
 142   1.0000      -0.349106        -9.4997
 143   1.0000      -0.347129        -9.4458
 144   1.0000      -0.346068        -9.4170
 145   1.0000      -0.342998        -9.3334
 146   1.0000      -0.338446        -9.2096
 147   1.0000      -0.337591        -9.1863
 148   1.0000      -0.337456        -9.1827
 149   1.0000      -0.335670        -9.1341
 150   1.0000      -0.335228        -9.1220
 151   1.0000      -0.334621        -9.1055
 152   1.0000      -0.332722        -9.0538
 153   1.0000      -0.326294        -8.8789
 154   1.0000      -0.325925        -8.8689
 155   1.0000      -0.325808        -8.8657
 156   1.0000      -0.320527        -8.7220
 157   1.0000      -0.314689        -8.5631
 158   1.0000      -0.308193        -8.3864
 159   1.0000      -0.305080        -8.3016
 160   1.0000      -0.303796        -8.2667
 161   1.0000      -0.262781        -7.1506
 162   1.0000      -0.234945        -6.3932
 163   1.0000      -0.231248        -6.2926
 164   1.0000      -0.228314        -6.2127
 165   0.0000      -0.127275        -3.4633
 166   0.0000      -0.112150        -3.0518
 167   0.0000      -0.078295        -2.1305
 168   0.0000      -0.075203        -2.0464
 169   0.0000      -0.070406        -1.9158

                 SPIN DOWN ORBITALS
  NO   OCC          E(Eh)            E(eV)
   0   1.0000    -217.754910     -5925.4124
   1   1.0000     -25.370942      -690.3784
   2   1.0000     -21.521968      -585.6425
   3   1.0000     -21.518743      -585.5548
   4   1.0000     -21.500733      -585.0647
   5   1.0000      -4.403959      -119.8378
   6   1.0000      -4.403733      -119.8317
   7   1.0000      -4.402308      -119.7929
   8   1.0000      -4.402063      -119.7862
   9   1.0000      -4.399307      -119.7112
  10   1.0000      -4.397350      -119.6580
  11   1.0000      -4.397246      -119.6551
  12   1.0000      -4.397097      -119.6511
  13   1.0000      -4.396996      -119.6483
  14   1.0000      -4.396016      -119.6217
  15   1.0000      -4.393635      -119.5569
  16   1.0000      -4.393558      -119.5548
  17   1.0000      -4.388364      -119.4135
  18   1.0000      -4.388187      -119.4086
  19   1.0000      -4.386851      -119.3723
  20   1.0000      -4.385043      -119.3231
  21   1.0000      -3.014588       -82.0311
  22   1.0000      -2.524123       -68.6849
  23   1.0000      -2.523914       -68.6792
  24   1.0000      -2.522092       -68.6296
  25   1.0000      -2.521073       -68.6019
  26   1.0000      -2.520966       -68.5990
  27   1.0000      -2.520881       -68.5967
  28   1.0000      -2.520641       -68.5901
  29   1.0000      -2.520121       -68.5760
  30   1.0000      -2.519662       -68.5635
  31   1.0000      -2.519304       -68.5537
  32   1.0000      -2.518773       -68.5393
  33   1.0000      -2.517737       -68.5111
  34   1.0000      -2.516872       -68.4876
  35   1.0000      -2.516794       -68.4854
  36   1.0000      -2.516341       -68.4731
  37   1.0000      -2.516259       -68.4709
  38   1.0000      -2.515973       -68.4631
  39   1.0000      -2.515375       -68.4468
  40   1.0000      -2.515206       -68.4422
  41   1.0000      -2.514985       -68.4362
  42   1.0000      -2.514807       -68.4314
  43   1.0000      -2.514702       -68.4285
  44   1.0000      -2.514095       -68.4120
  45   1.0000      -2.513369       -68.3922
  46   1.0000      -2.512982       -68.3817
  47   1.0000      -2.512672       -68.3733
  48   1.0000      -2.512232       -68.3613
  49   1.0000      -2.511168       -68.3323
  50   1.0000      -2.510915       -68.3255
  51   1.0000      -2.510599       -68.3169
  52   1.0000      -2.510403       -68.3115
  53   1.0000      -2.510261       -68.3077
  54   1.0000      -2.509770       -68.2943
  55   1.0000      -2.509741       -68.2935
  56   1.0000      -2.509482       -68.2865
  57   1.0000      -2.508643       -68.2636
  58   1.0000      -2.507994       -68.2460
  59   1.0000      -2.506934       -68.2171
  60   1.0000      -2.506156       -68.1960
  61   1.0000      -2.505924       -68.1897
  62   1.0000      -2.503793       -68.1317
  63   1.0000      -2.503594       -68.1263
  64   1.0000      -2.503010       -68.1104
  65   1.0000      -2.502194       -68.0882
  66   1.0000      -2.501643       -68.0732
  67   1.0000      -2.501406       -68.0667
  68   1.0000      -2.500461       -68.0410
  69   1.0000      -2.500193       -68.0337
  70   1.0000      -1.886445       -51.3328
  71   1.0000      -1.879457       -51.1426
  72   1.0000      -1.837016       -49.9878
  73   1.0000      -0.497101       -13.5268
  74   1.0000      -0.478119       -13.0103
  75   1.0000      -0.473260       -12.8780
  76   1.0000      -0.471181       -12.8215
  77   1.0000      -0.468947       -12.7607
  78   1.0000      -0.464473       -12.6390
  79   1.0000      -0.464251       -12.6329
  80   1.0000      -0.461525       -12.5587
  81   1.0000      -0.460627       -12.5343
  82   1.0000      -0.458823       -12.4852
  83   1.0000      -0.456842       -12.4313
  84   1.0000      -0.453639       -12.3441
  85   1.0000      -0.453148       -12.3308
  86   1.0000      -0.452064       -12.3013
  87   1.0000      -0.451749       -12.2927
  88   1.0000      -0.450857       -12.2684
  89   1.0000      -0.450133       -12.2487
  90   1.0000      -0.447728       -12.1833
  91   1.0000      -0.446145       -12.1402
  92   1.0000      -0.441976       -12.0268
  93   1.0000      -0.438600       -11.9349
  94   1.0000      -0.437984       -11.9182
  95   1.0000      -0.435188       -11.8421
  96   1.0000      -0.432022       -11.7559
  97   1.0000      -0.429767       -11.6946
  98   1.0000      -0.428326       -11.6553
  99   1.0000      -0.426060       -11.5937
 100   1.0000      -0.424435       -11.5495
 101   1.0000      -0.422421       -11.4947
 102   1.0000      -0.421797       -11.4777
 103   1.0000      -0.419277       -11.4091
 104   1.0000      -0.418980       -11.4010
 105   1.0000      -0.415588       -11.3087
 106   1.0000      -0.414945       -11.2912
 107   1.0000      -0.410412       -11.1679
 108   1.0000      -0.406349       -11.0573
 109   1.0000      -0.402419       -10.9504
 110   1.0000      -0.400258       -10.8916
 111   1.0000      -0.398053       -10.8316
 112   1.0000      -0.395190       -10.7537
 113   1.0000      -0.393298       -10.7022
 114   1.0000      -0.388714       -10.5774
 115   1.0000      -0.387910       -10.5556
 116   1.0000      -0.387178       -10.5357
 117   1.0000      -0.385736       -10.4964
 118   1.0000      -0.384829       -10.4717
 119   1.0000      -0.379848       -10.3362
 120   1.0000      -0.378077       -10.2880
 121   1.0000      -0.377689       -10.2775
 122   1.0000      -0.376360       -10.2413
 123   1.0000      -0.373679       -10.1683
 124   1.0000      -0.370715       -10.0877
 125   1.0000      -0.367643       -10.0041
 126   1.0000      -0.367326        -9.9955
 127   1.0000      -0.366664        -9.9774
 128   1.0000      -0.365780        -9.9534
 129   1.0000      -0.364698        -9.9239
 130   1.0000      -0.364249        -9.9117
 131   1.0000      -0.363611        -9.8944
 132   1.0000      -0.363538        -9.8924
 133   1.0000      -0.360798        -9.8178
 134   1.0000      -0.360682        -9.8147
 135   1.0000      -0.358706        -9.7609
 136   1.0000      -0.357647        -9.7321
 137   1.0000      -0.356286        -9.6950
 138   1.0000      -0.354953        -9.6588
 139   1.0000      -0.352608        -9.5950
 140   1.0000      -0.350474        -9.5369
 141   1.0000      -0.349655        -9.5146
 142   1.0000      -0.347798        -9.4641
 143   1.0000      -0.347650        -9.4600
 144   1.0000      -0.344232        -9.3670
 145   1.0000      -0.339104        -9.2275
 146   1.0000      -0.337879        -9.1942
 147   1.0000      -0.336442        -9.1550
 148   1.0000      -0.336340        -9.1523
 149   1.0000      -0.334304        -9.0969
 150   1.0000      -0.334269        -9.0959
 151   1.0000      -0.328903        -8.9499
 152   1.0000      -0.328021        -8.9259
 153   1.0000      -0.321112        -8.7379
 154   1.0000      -0.317279        -8.6336
 155   1.0000      -0.315985        -8.5984
 156   1.0000      -0.308721        -8.4007
 157   1.0000      -0.284164        -7.7325
 158   1.0000      -0.242412        -6.5964
 159   1.0000      -0.235491        -6.4080
 160   1.0000      -0.226047        -6.1511
 161   1.0000      -0.220143        -5.9904
 162   1.0000      -0.203885        -5.5480
 163   0.0000      -0.087011        -2.3677
 164   0.0000      -0.077480        -2.1083
 165   0.0000      -0.064434        -1.7533
 166   0.0000      -0.060534        -1.6472
 167   0.0000      -0.060297        -1.6408

MULLIKEN ATOMIC CHARGES AND SPIN POPULATIONS
--------------------------------------------
   0 Au:    0.526121   -0.041964
   1 Au:    0.466411   -0.220596
   2 Au:    0.458809   -0.150770
   3 Au:    0.460730   -0.152096
   4 Au:   -0.044720   -0.082918
   5 Au:    0.431381   -0.394435
   6 Au:    0.301493    0.027812
   7 Au:    0.154492   -0.008649
   8 Au:   -0.100071    0.053155
   9 Au:   -0.048973   -0.083721
  10 Au:    0.068229   -0.005188
  11 Au:   -0.096539    0.054099
  12 Au:    0.481597   -0.063077
  13 Au:    0.483083   -0.063723
  14 Au:    0.151154   -0.007007
  15 Au:    0.525573   -0.042298
  16 Cr:   -4.218772    3.181376
Sum of atomic charges         :   -0.0000000

LOEWDIN ATOMIC CHARGES AND SPIN POPULATIONS
-------------------------------------------
   0 Au:    0.135470   -0.107130
   1 Au:    0.130316   -0.177584
   2 Au:    0.089101   -0.147340
   3 Au:    0.088714   -0.147217
   4 Au:    0.010467   -0.078291
   5 Au:    0.134979   -0.224931
   6 Au:    0.009021   -0.023756
   7 Au:    0.048970   -0.080993
   8 Au:   -0.047731   -0.052012
   9 Au:    0.010452   -0.078775
  10 Au:    0.024405   -0.056730
  11 Au:   -0.047404   -0.051417
  12 Au:    0.138372   -0.095150
  13 Au:    0.138328   -0.094775
  14 Au:    0.048141   -0.079811
  15 Au:    0.135422   -0.107271
  16 Cr:   -1.047023    3.603183

  Mayer bond orders larger than 0.100000
B(  0-Au,  1-Au) :   0.1782 B(  0-Au,  3-Au) :   0.1224 B(  0-Au,  7-Au) :   0.1792
B(  0-Au, 12-Au) :   0.2222 B(  0-Au, 16-Cr) :   0.4776 B(  1-Au, 10-Au) :   0.1064
B(  1-Au, 15-Au) :   0.1789 B(  1-Au, 16-Cr) :   0.5140 B(  2-Au,  3-Au) :   0.2067
B(  2-Au,  4-Au) :   0.1884 B(  2-Au, 12-Au) :   0.1085 B(  2-Au, 14-Au) :   0.1137
B(  2-Au, 15-Au) :   0.1225 B(  2-Au, 16-Cr) :   0.4759 B(  3-Au,  7-Au) :   0.1140
B(  3-Au,  9-Au) :   0.1896 B(  3-Au, 13-Au) :   0.1084 B(  3-Au, 16-Cr) :   0.4714
B(  4-Au,  6-Au) :   0.3357 B(  4-Au,  9-Au) :   0.3250 B(  4-Au, 11-Au) :   0.1811
B(  4-Au, 14-Au) :   0.2201 B(  4-Au, 16-Cr) :   0.2875 B(  5-Au,  6-Au) :   0.1782
B(  5-Au,  8-Au) :   0.3030 B(  5-Au, 11-Au) :   0.3024 B(  6-Au,  8-Au) :   0.1823
B(  6-Au,  9-Au) :   0.3378 B(  6-Au, 11-Au) :   0.1806 B(  7-Au,  8-Au) :   0.4100
B(  7-Au,  9-Au) :   0.2198 B(  7-Au, 10-Au) :   0.1421 B(  7-Au, 12-Au) :   0.1022
B(  7-Au, 16-Cr) :   0.4935 B(  8-Au,  9-Au) :   0.1813 B(  8-Au, 10-Au) :   0.1842
B(  8-Au, 11-Au) :   0.3520 B(  8-Au, 16-Cr) :   0.2421 B(  9-Au, 16-Cr) :   0.2870
B( 10-Au, 11-Au) :   0.1843 B( 10-Au, 12-Au) :   0.1847 B( 10-Au, 13-Au) :   0.1841
B( 10-Au, 14-Au) :   0.1428 B( 10-Au, 16-Cr) :   0.4854 B( 11-Au, 14-Au) :   0.4097
B( 11-Au, 16-Cr) :   0.2406 B( 12-Au, 13-Au) :   0.2299 B( 12-Au, 16-Cr) :   0.4919
B( 13-Au, 14-Au) :   0.1033 B( 13-Au, 15-Au) :   0.2218 B( 13-Au, 16-Cr) :   0.4896
B( 14-Au, 15-Au) :   0.1791 B( 14-Au, 16-Cr) :   0.4916 B( 15-Au, 16-Cr) :   0.4803

MP2 TOTAL ENERGY:    -3213.706081657 Eh
FINAL SINGLE POINT ENERGY     -3213.706081656688

DIPOLE MOMENT
-------------
                                X             Y             Z
Electronic contribution:     41.02244      28.58687       6.92046
Nuclear contribution   :    -41.42608     -28.96247      -7.04251
                        -----------------------------------------
Total Dipole Moment    :     -0.40364      -0.37560      -0.12205
                        -----------------------------------------
Magnitude (a.u.)       :      0.56471
Magnitude (Debye)      :      1.43538

Rotational constants in cm-1:     0.001098     0.000650     0.000649
Rotational constants in MHz :    32.910697    19.473954    19.466722

                             ****ORCA TERMINATED NORMALLY****
TOTAL RUN TIME: 0 days 2 hours 10 minutes 10 seconds 875 msec
