                         Program Version 5.0.3 -  RELEASE  -
|  1> !PBE def2-TZVP VERYSLOWCONV
|  2>
|  3> %scf
|  4>   AutoTRAHIter 200
|  5>   maxiter 400
|  6> end
|  7>
|  8>
|  9> %pal nprocs 6 end
| 10>
| 11> *xyzfile 0 5 pbe.xyz
| 12>
| 13> $new_job
| 14>
| 15> !PBE def2-TZVP VERYSLOWCONV
| 16>
| 17> %scf
| 18>   AutoTRAHIter 200
| 19>   maxiter 400
| 20> end
| 21>
| 22>
| 23> %pal nprocs 6 end
| 24>
| 25> *xyzfile 0 3 pbe.xyz
| 26>
| 27>
| 28>
| 29>
| 30>
| 31>                          ****END OF INPUT****
 Total Charge           Charge          ....    0
 Multiplicity           Mult            ....    5
 Number of Electrons    NEL             ....  328
FINAL SINGLE POINT ENERGY     -3217.490843362969

CARTESIAN COORDINATES (ANGSTROEM)
---------------------------------
  Au     5.797307    5.483055    9.391583
  Au     3.978372    7.177994    8.038326
  Au     5.288848    9.708976    7.538700
  Au     5.888735    8.260405    9.917036
  Au     7.785270   10.810436    7.606747
  Au    12.368103    9.629094    7.396142
  Au    10.287591   10.934695    8.715105
  Au     8.355469    6.632646    9.458288
  Au    10.542899    8.026308    8.654934
  Au     8.366344    9.403981    9.929150
  Au     9.183753    6.887248    6.538437
  Au     9.919745    9.525791    6.180485
  Au     7.547871    4.790223    7.366661
  Au     6.951336    6.221013    5.012244
  Au     7.343808    9.058309    5.458673
  Au     4.790440    7.897206    5.425005
  Cr     6.600936    7.332310    7.464670

 Multiplicity           Mult            ....    3
 Number of Electrons    NEL             ....  328
 Basis Dimension        Dim             ....  685

ORBITAL ENERGIES
----------------
                 SPIN UP ORBITALS
  NO   OCC          E(Eh)            E(eV)
   0   1.0000    -214.506773     -5837.0261
   1   1.0000     -24.307445      -661.4392
   2   1.0000     -20.673489      -562.5542
   3   1.0000     -20.672001      -562.5137
   4   1.0000     -20.667162      -562.3821
   5   1.0000      -4.036342      -109.8344
   6   1.0000      -4.036245      -109.8318
   7   1.0000      -4.032903      -109.7409
   8   1.0000      -4.031351      -109.6986
   9   1.0000      -4.031192      -109.6943
  10   1.0000      -4.029289      -109.6425
  11   1.0000      -4.029183      -109.6396
  12   1.0000      -4.027087      -109.5826
  13   1.0000      -4.026966      -109.5793
  14   1.0000      -4.024843      -109.5215
  15   1.0000      -4.022179      -109.4491
  16   1.0000      -4.022118      -109.4474
  17   1.0000      -4.017758      -109.3287
  18   1.0000      -4.017608      -109.3247
  19   1.0000      -4.015546      -109.2686
  20   1.0000      -4.013692      -109.2181
  21   1.0000      -2.808382       -76.4200
  22   1.0000      -2.252894       -61.3043
  23   1.0000      -2.252813       -61.3022
  24   1.0000      -2.249891       -61.2226
  25   1.0000      -2.248479       -61.1842
  26   1.0000      -2.248343       -61.1805
  27   1.0000      -2.247467       -61.1567
  28   1.0000      -2.246867       -61.1404
  29   1.0000      -2.246495       -61.1302
  30   1.0000      -2.246438       -61.1287
  31   1.0000      -2.245553       -61.1046
  32   1.0000      -2.245139       -61.0933
  33   1.0000      -2.244939       -61.0879
  34   1.0000      -2.244534       -61.0769
  35   1.0000      -2.244316       -61.0710
  36   1.0000      -2.244004       -61.0624
  37   1.0000      -2.243292       -61.0431
  38   1.0000      -2.242542       -61.0227
  39   1.0000      -2.242307       -61.0163
  40   1.0000      -2.241539       -60.9954
  41   1.0000      -2.241286       -60.9885
  42   1.0000      -2.240906       -60.9781
  43   1.0000      -2.240162       -60.9579
  44   1.0000      -2.239871       -60.9500
  45   1.0000      -2.239710       -60.9456
  46   1.0000      -2.239356       -60.9360
  47   1.0000      -2.239321       -60.9350
  48   1.0000      -2.238832       -60.9217
  49   1.0000      -2.238363       -60.9090
  50   1.0000      -2.237457       -60.8843
  51   1.0000      -2.237385       -60.8823
  52   1.0000      -2.236434       -60.8565
  53   1.0000      -2.235878       -60.8413
  54   1.0000      -2.234660       -60.8082
  55   1.0000      -2.234578       -60.8060
  56   1.0000      -2.234394       -60.8010
  57   1.0000      -2.233839       -60.7859
  58   1.0000      -2.231750       -60.7290
  59   1.0000      -2.230974       -60.7079
  60   1.0000      -2.230469       -60.6941
  61   1.0000      -2.230331       -60.6904
  62   1.0000      -2.229338       -60.6634
  63   1.0000      -2.229203       -60.6597
  64   1.0000      -2.227302       -60.6080
  65   1.0000      -2.227274       -60.6072
  66   1.0000      -2.226486       -60.5858
  67   1.0000      -2.225660       -60.5633
  68   1.0000      -2.225335       -60.5544
  69   1.0000      -2.223387       -60.5014
  70   1.0000      -1.800949       -49.0063
  71   1.0000      -1.799431       -48.9650
  72   1.0000      -1.793115       -48.7932
  73   1.0000      -0.429714       -11.6931
  74   1.0000      -0.394861       -10.7447
  75   1.0000      -0.390150       -10.6165
  76   1.0000      -0.386437       -10.5155
  77   1.0000      -0.379899       -10.3376
  78   1.0000      -0.372678       -10.1411
  79   1.0000      -0.370326       -10.0771
  80   1.0000      -0.365272        -9.9396
  81   1.0000      -0.361399        -9.8342
  82   1.0000      -0.359620        -9.7858
  83   1.0000      -0.359034        -9.7698
  84   1.0000      -0.356092        -9.6898
  85   1.0000      -0.354447        -9.6450
  86   1.0000      -0.352561        -9.5937
  87   1.0000      -0.351886        -9.5753
  88   1.0000      -0.348018        -9.4701
  89   1.0000      -0.347104        -9.4452
  90   1.0000      -0.344749        -9.3811
  91   1.0000      -0.344675        -9.3791
  92   1.0000      -0.341822        -9.3015
  93   1.0000      -0.339713        -9.2441
  94   1.0000      -0.336234        -9.1494
  95   1.0000      -0.335010        -9.1161
  96   1.0000      -0.331936        -9.0324
  97   1.0000      -0.328972        -8.9518
  98   1.0000      -0.327702        -8.9172
  99   1.0000      -0.326626        -8.8879
 100   1.0000      -0.325403        -8.8547
 101   1.0000      -0.324827        -8.8390
 102   1.0000      -0.322864        -8.7856
 103   1.0000      -0.319591        -8.6965
 104   1.0000      -0.318444        -8.6653
 105   1.0000      -0.318242        -8.6598
 106   1.0000      -0.316121        -8.6021
 107   1.0000      -0.314333        -8.5534
 108   1.0000      -0.312065        -8.4917
 109   1.0000      -0.306299        -8.3348
 110   1.0000      -0.302936        -8.2433
 111   1.0000      -0.301512        -8.2045
 112   1.0000      -0.299099        -8.1389
 113   1.0000      -0.298259        -8.1160
 114   1.0000      -0.296349        -8.0641
 115   1.0000      -0.292981        -7.9724
 116   1.0000      -0.290122        -7.8946
 117   1.0000      -0.290066        -7.8931
 118   1.0000      -0.286838        -7.8053
 119   1.0000      -0.284379        -7.7383
 120   1.0000      -0.283220        -7.7068
 121   1.0000      -0.282271        -7.6810
 122   1.0000      -0.281696        -7.6653
 123   1.0000      -0.277151        -7.5417
 124   1.0000      -0.275505        -7.4969
 125   1.0000      -0.275193        -7.4884
 126   1.0000      -0.274082        -7.4582
 127   1.0000      -0.272773        -7.4225
 128   1.0000      -0.271390        -7.3849
 129   1.0000      -0.270833        -7.3697
 130   1.0000      -0.269953        -7.3458
 131   1.0000      -0.268636        -7.3100
 132   1.0000      -0.267470        -7.2782
 133   1.0000      -0.266797        -7.2599
 134   1.0000      -0.266362        -7.2481
 135   1.0000      -0.264602        -7.2002
 136   1.0000      -0.264298        -7.1919
 137   1.0000      -0.263314        -7.1651
 138   1.0000      -0.260466        -7.0876
 139   1.0000      -0.260318        -7.0836
 140   1.0000      -0.257607        -7.0099
 141   1.0000      -0.254818        -6.9339
 142   1.0000      -0.254666        -6.9298
 143   1.0000      -0.253906        -6.9091
 144   1.0000      -0.251769        -6.8510
 145   1.0000      -0.249922        -6.8007
 146   1.0000      -0.248747        -6.7687
 147   1.0000      -0.248660        -6.7664
 148   1.0000      -0.247960        -6.7473
 149   1.0000      -0.247769        -6.7421
 150   1.0000      -0.245658        -6.6847
 151   1.0000      -0.245302        -6.6750
 152   1.0000      -0.242092        -6.5877
 153   1.0000      -0.240535        -6.5453
 154   1.0000      -0.240282        -6.5384
 155   1.0000      -0.236366        -6.4318
 156   1.0000      -0.233413        -6.3515
 157   1.0000      -0.227397        -6.1878
 158   1.0000      -0.220174        -5.9912
 159   1.0000      -0.219928        -5.9845
 160   1.0000      -0.219252        -5.9662
 161   1.0000      -0.217213        -5.9107
 162   1.0000      -0.211415        -5.7529
 163   1.0000      -0.200818        -5.4645
 164   1.0000      -0.196699        -5.3525
 165   0.0000      -0.180830        -4.9206
 166   0.0000      -0.179615        -4.8876
 167   0.0000      -0.169561        -4.6140
 168   0.0000      -0.140430        -3.8213
 169   0.0000      -0.134663        -3.6644

                 SPIN DOWN ORBITALS
  NO   OCC          E(Eh)            E(eV)
   0   1.0000    -214.506364     -5837.0149
   1   1.0000     -24.262294      -660.2106
   2   1.0000     -20.641667      -561.6883
   3   1.0000     -20.638891      -561.6128
   4   1.0000     -20.628612      -561.3331
   5   1.0000      -4.036124      -109.8285
   6   1.0000      -4.036020      -109.8257
   7   1.0000      -4.032599      -109.7326
   8   1.0000      -4.031440      -109.7011
   9   1.0000      -4.031282      -109.6968
  10   1.0000      -4.029132      -109.6383
  11   1.0000      -4.029026      -109.6354
  12   1.0000      -4.026979      -109.5797
  13   1.0000      -4.026860      -109.5764
  14   1.0000      -4.024652      -109.5163
  15   1.0000      -4.022770      -109.4651
  16   1.0000      -4.022710      -109.4635
  17   1.0000      -4.018258      -109.3423
  18   1.0000      -4.018106      -109.3382
  19   1.0000      -4.015918      -109.2787
  20   1.0000      -4.014079      -109.2286
  21   1.0000      -2.686712       -73.1091
  22   1.0000      -2.252853       -61.3033
  23   1.0000      -2.252765       -61.3009
  24   1.0000      -2.249558       -61.2136
  25   1.0000      -2.247785       -61.1653
  26   1.0000      -2.247643       -61.1615
  27   1.0000      -2.247240       -61.1505
  28   1.0000      -2.246770       -61.1377
  29   1.0000      -2.246557       -61.1319
  30   1.0000      -2.246442       -61.1288
  31   1.0000      -2.245200       -61.0950
  32   1.0000      -2.245050       -61.0909
  33   1.0000      -2.244874       -61.0861
  34   1.0000      -2.244592       -61.0785
  35   1.0000      -2.243863       -61.0586
  36   1.0000      -2.243801       -61.0569
  37   1.0000      -2.243112       -61.0382
  38   1.0000      -2.242403       -61.0189
  39   1.0000      -2.242260       -61.0150
  40   1.0000      -2.241273       -60.9882
  41   1.0000      -2.241209       -60.9864
  42   1.0000      -2.241070       -60.9826
  43   1.0000      -2.240489       -60.9668
  44   1.0000      -2.240311       -60.9620
  45   1.0000      -2.239952       -60.9522
  46   1.0000      -2.239738       -60.9464
  47   1.0000      -2.239316       -60.9349
  48   1.0000      -2.238826       -60.9216
  49   1.0000      -2.238274       -60.9065
  50   1.0000      -2.237425       -60.8834
  51   1.0000      -2.237354       -60.8815
  52   1.0000      -2.236487       -60.8579
  53   1.0000      -2.236424       -60.8562
  54   1.0000      -2.235233       -60.8238
  55   1.0000      -2.235211       -60.8232
  56   1.0000      -2.234474       -60.8031
  57   1.0000      -2.234362       -60.8001
  58   1.0000      -2.232243       -60.7424
  59   1.0000      -2.231596       -60.7248
  60   1.0000      -2.230880       -60.7053
  61   1.0000      -2.230848       -60.7044
  62   1.0000      -2.229833       -60.6768
  63   1.0000      -2.229713       -60.6736
  64   1.0000      -2.227568       -60.6152
  65   1.0000      -2.227540       -60.6144
  66   1.0000      -2.226753       -60.5930
  67   1.0000      -2.225911       -60.5701
  68   1.0000      -2.225640       -60.5627
  69   1.0000      -2.223917       -60.5159
  70   1.0000      -1.689976       -45.9866
  71   1.0000      -1.684041       -45.8251
  72   1.0000      -1.659690       -45.1625
  73   1.0000      -0.424970       -11.5640
  74   1.0000      -0.393402       -10.7050
  75   1.0000      -0.390531       -10.6269
  76   1.0000      -0.386347       -10.5130
  77   1.0000      -0.378385       -10.2964
  78   1.0000      -0.369577       -10.0567
  79   1.0000      -0.369082       -10.0432
  80   1.0000      -0.365068        -9.9340
  81   1.0000      -0.361119        -9.8266
  82   1.0000      -0.359153        -9.7730
  83   1.0000      -0.358808        -9.7637
  84   1.0000      -0.355218        -9.6660
  85   1.0000      -0.352429        -9.5901
  86   1.0000      -0.352047        -9.5797
  87   1.0000      -0.350386        -9.5345
  88   1.0000      -0.348477        -9.4825
  89   1.0000      -0.347516        -9.4564
  90   1.0000      -0.345446        -9.4001
  91   1.0000      -0.344413        -9.3719
  92   1.0000      -0.342159        -9.3106
  93   1.0000      -0.338862        -9.2209
  94   1.0000      -0.336735        -9.1630
  95   1.0000      -0.336007        -9.1432
  96   1.0000      -0.331381        -9.0173
  97   1.0000      -0.329740        -8.9727
  98   1.0000      -0.328026        -8.9260
  99   1.0000      -0.327116        -8.9013
 100   1.0000      -0.324930        -8.8418
 101   1.0000      -0.324283        -8.8242
 102   1.0000      -0.323011        -8.7896
 103   1.0000      -0.320447        -8.7198
 104   1.0000      -0.319359        -8.6902
 105   1.0000      -0.319017        -8.6809
 106   1.0000      -0.317455        -8.6384
 107   1.0000      -0.311871        -8.4864
 108   1.0000      -0.308729        -8.4009
 109   1.0000      -0.305183        -8.3045
 110   1.0000      -0.302351        -8.2274
 111   1.0000      -0.301216        -8.1965
 112   1.0000      -0.299172        -8.1409
 113   1.0000      -0.299061        -8.1379
 114   1.0000      -0.294725        -8.0199
 115   1.0000      -0.292163        -7.9501
 116   1.0000      -0.290794        -7.9129
 117   1.0000      -0.289051        -7.8655
 118   1.0000      -0.287639        -7.8271
 119   1.0000      -0.284371        -7.7381
 120   1.0000      -0.283436        -7.7127
 121   1.0000      -0.282932        -7.6990
 122   1.0000      -0.282123        -7.6770
 123   1.0000      -0.277938        -7.5631
 124   1.0000      -0.276292        -7.5183
 125   1.0000      -0.275737        -7.5032
 126   1.0000      -0.275419        -7.4945
 127   1.0000      -0.273353        -7.4383
 128   1.0000      -0.272469        -7.4143
 129   1.0000      -0.271125        -7.3777
 130   1.0000      -0.270208        -7.3527
 131   1.0000      -0.269550        -7.3348
 132   1.0000      -0.268300        -7.3008
 133   1.0000      -0.267667        -7.2836
 134   1.0000      -0.266926        -7.2634
 135   1.0000      -0.265738        -7.2311
 136   1.0000      -0.265011        -7.2113
 137   1.0000      -0.264359        -7.1936
 138   1.0000      -0.261619        -7.1190
 139   1.0000      -0.261416        -7.1135
 140   1.0000      -0.258465        -7.0332
 141   1.0000      -0.256021        -6.9667
 142   1.0000      -0.255205        -6.9445
 143   1.0000      -0.254684        -6.9303
 144   1.0000      -0.252855        -6.8805
 145   1.0000      -0.250696        -6.8218
 146   1.0000      -0.249905        -6.8003
 147   1.0000      -0.249785        -6.7970
 148   1.0000      -0.249019        -6.7762
 149   1.0000      -0.248913        -6.7733
 150   1.0000      -0.246441        -6.7060
 151   1.0000      -0.245903        -6.6914
 152   1.0000      -0.242404        -6.5961
 153   1.0000      -0.241434        -6.5697
 154   1.0000      -0.240608        -6.5473
 155   1.0000      -0.237523        -6.4633
 156   1.0000      -0.234185        -6.3725
 157   1.0000      -0.227696        -6.1959
 158   1.0000      -0.213937        -5.8215
 159   1.0000      -0.209982        -5.7139
 160   1.0000      -0.205333        -5.5874
 161   1.0000      -0.205011        -5.5786
 162   1.0000      -0.186903        -5.0859
 163   0.0000      -0.149331        -4.0635
 164   0.0000      -0.143883        -3.9153
 165   0.0000      -0.130532        -3.5520
 166   0.0000      -0.127953        -3.4818
 167   0.0000      -0.125176        -3.4062

MULLIKEN ATOMIC CHARGES AND SPIN POPULATIONS
--------------------------------------------
   0 Au:    0.550153   -0.034308
   1 Au:    0.505802   -0.106950
   2 Au:    0.471617   -0.071069
   3 Au:    0.473349   -0.071325
   4 Au:   -0.036485   -0.059572
   5 Au:    0.444763   -0.221422
   6 Au:    0.312232    0.002842
   7 Au:    0.208461   -0.019999
   8 Au:   -0.085058    0.020999
   9 Au:   -0.040930   -0.059684
  10 Au:    0.088305   -0.014778
  11 Au:   -0.081257    0.021667
  12 Au:    0.493615   -0.041147
  13 Au:    0.494362   -0.041414
  14 Au:    0.205073   -0.019182
  15 Au:    0.550574   -0.034920
  16 Cr:   -4.554576    2.750263
Sum of atomic charges         :    0.0000000

LOEWDIN ATOMIC CHARGES AND SPIN POPULATIONS
-------------------------------------------
   0 Au:    0.139450   -0.074096
   1 Au:    0.142182   -0.117177
   2 Au:    0.105318   -0.106046
   3 Au:    0.105029   -0.106146
   4 Au:    0.016482   -0.058122
   5 Au:    0.109735   -0.147611
   6 Au:    0.005930   -0.018958
   7 Au:    0.070892   -0.048433
   8 Au:   -0.046459   -0.035414
   9 Au:    0.016570   -0.058348
  10 Au:    0.047051   -0.040924
  11 Au:   -0.046160   -0.035002
  12 Au:    0.158456   -0.077292
  13 Au:    0.158496   -0.077495
  14 Au:    0.070064   -0.047717
  15 Au:    0.139763   -0.074617
  16 Cr:   -1.192797    3.123398

  Mayer bond orders larger than 0.100000
B(  0-Au,  1-Au) :   0.2293 B(  0-Au,  3-Au) :   0.1558 B(  0-Au,  7-Au) :   0.2089
B(  0-Au, 12-Au) :   0.2777 B(  0-Au, 16-Cr) :   0.4979 B(  1-Au,  2-Au) :   0.1092
B(  1-Au,  3-Au) :   0.1107 B(  1-Au, 10-Au) :   0.1172 B(  1-Au, 15-Au) :   0.2302
B(  1-Au, 16-Cr) :   0.6193 B(  2-Au,  3-Au) :   0.2463 B(  2-Au,  4-Au) :   0.2383
B(  2-Au, 12-Au) :   0.1087 B(  2-Au, 14-Au) :   0.1330 B(  2-Au, 15-Au) :   0.1555
B(  2-Au, 16-Cr) :   0.5921 B(  3-Au,  7-Au) :   0.1342 B(  3-Au,  9-Au) :   0.2396
B(  3-Au, 13-Au) :   0.1086 B(  3-Au, 16-Cr) :   0.5883 B(  4-Au,  6-Au) :   0.3724
B(  4-Au,  9-Au) :   0.3159 B(  4-Au, 11-Au) :   0.2139 B(  4-Au, 14-Au) :   0.2524
B(  4-Au, 16-Cr) :   0.3178 B(  5-Au,  6-Au) :   0.2377 B(  5-Au,  8-Au) :   0.3583
B(  5-Au, 11-Au) :   0.3578 B(  5-Au, 16-Cr) :   0.1294 B(  6-Au,  8-Au) :   0.2061
B(  6-Au,  9-Au) :   0.3741 B(  6-Au, 11-Au) :   0.2045 B(  7-Au,  8-Au) :   0.4569
B(  7-Au,  9-Au) :   0.2513 B(  7-Au, 10-Au) :   0.1321 B(  7-Au, 12-Au) :   0.1278
B(  7-Au, 16-Cr) :   0.5163 B(  8-Au,  9-Au) :   0.2142 B(  8-Au, 10-Au) :   0.2274
B(  8-Au, 11-Au) :   0.3440 B(  8-Au, 16-Cr) :   0.2500 B(  9-Au, 16-Cr) :   0.3184
B( 10-Au, 11-Au) :   0.2271 B( 10-Au, 12-Au) :   0.2170 B( 10-Au, 13-Au) :   0.2170
B( 10-Au, 14-Au) :   0.1331 B( 10-Au, 16-Cr) :   0.5229 B( 11-Au, 14-Au) :   0.4568
B( 11-Au, 16-Cr) :   0.2488 B( 12-Au, 13-Au) :   0.2852 B( 12-Au, 16-Cr) :   0.5829
B( 13-Au, 14-Au) :   0.1290 B( 13-Au, 15-Au) :   0.2770 B( 13-Au, 16-Cr) :   0.5817
B( 14-Au, 15-Au) :   0.2088 B( 14-Au, 16-Cr) :   0.5140 B( 15-Au, 16-Cr) :   0.5009

FINAL SINGLE POINT ENERGY     -3217.499483722558

DIPOLE MOMENT
-------------
                                X             Y             Z
Electronic contribution:     40.92466      28.52581       6.90618
Nuclear contribution   :    -41.42608     -28.96247      -7.04251
                        -----------------------------------------
Total Dipole Moment    :     -0.50142      -0.43667      -0.13633
                        -----------------------------------------
Magnitude (a.u.)       :      0.67874
Magnitude (Debye)      :      1.72521

Rotational constants in cm-1:     0.001098     0.000650     0.000649
Rotational constants in MHz :    32.910697    19.473954    19.466722

                             ****ORCA TERMINATED NORMALLY****
TOTAL RUN TIME: 0 days 1 hours 6 minutes 17 seconds 277 msec
