                         Program Version 5.0.3 -  RELEASE  -
|  1> !R2SCAN def2-TZVP VERYSLOWCONV
|  2> !KDIIS
|  3> %scf
|  4>   AutoTRAHIter 200
|  5>   maxiter 400
|  6> end
|  7>
|  8> %pal nprocs 6 end
|  9>
| 10> *xyzfile 0 5 pbe.xyz
| 11>
| 12> $new_job
| 13>
| 14> !R2SCAN def2-TZVP VERYSLOWCONV
| 15> !KDIIS
| 16> %scf
| 17>   AutoTRAHIter 200
| 18>   maxiter 400
| 19> end
| 20>
| 21>
| 22> %pal nprocs 6 end
| 23>
| 24> *xyzfile 0 3 pbe.xyz
| 25>
| 26>
| 27>
| 28>
| 29>
| 30>                          ****END OF INPUT****
 Total Charge           Charge          ....    0
 Multiplicity           Mult            ....    5
 Number of Electrons    NEL             ....  328
FINAL SINGLE POINT ENERGY     -3218.018073491196

CARTESIAN COORDINATES (ANGSTROEM)
---------------------------------
  Au     5.797307    5.483055    9.391583
  Au     3.978372    7.177994    8.038326
  Au     5.288848    9.708976    7.538700
  Au     5.888735    8.260405    9.917036
  Au     7.785270   10.810436    7.606747
  Au    12.368103    9.629094    7.396142
  Au    10.287591   10.934695    8.715105
  Au     8.355469    6.632646    9.458288
  Au    10.542899    8.026308    8.654934
  Au     8.366344    9.403981    9.929150
  Au     9.183753    6.887248    6.538437
  Au     9.919745    9.525791    6.180485
  Au     7.547871    4.790223    7.366661
  Au     6.951336    6.221013    5.012244
  Au     7.343808    9.058309    5.458673
  Au     4.790440    7.897206    5.425005
  Cr     6.600936    7.332310    7.464670

 Multiplicity           Mult            ....    3
 Number of Electrons    NEL             ....  328
 Basis Dimension        Dim             ....  685

ORBITAL ENERGIES
----------------
                 SPIN UP ORBITALS
  NO   OCC          E(Eh)            E(eV)
   0   1.0000    -215.298068     -5858.5583
   1   1.0000     -24.598581      -669.3614
   2   1.0000     -20.866640      -567.8101
   3   1.0000     -20.865572      -567.7811
   4   1.0000     -20.861960      -567.6828
   5   1.0000      -4.126791      -112.2957
   6   1.0000      -4.126690      -112.2929
   7   1.0000      -4.123305      -112.2008
   8   1.0000      -4.121786      -112.1595
   9   1.0000      -4.121617      -112.1549
  10   1.0000      -4.119687      -112.1024
  11   1.0000      -4.119569      -112.0992
  12   1.0000      -4.117662      -112.0473
  13   1.0000      -4.117535      -112.0438
  14   1.0000      -4.114896      -111.9720
  15   1.0000      -4.112618      -111.9100
  16   1.0000      -4.112549      -111.9081
  17   1.0000      -4.108319      -111.7931
  18   1.0000      -4.108154      -111.7886
  19   1.0000      -4.105797      -111.7244
  20   1.0000      -4.104150      -111.6796
  21   1.0000      -2.919430       -79.4417
  22   1.0000      -2.316009       -63.0218
  23   1.0000      -2.315926       -63.0196
  24   1.0000      -2.313129       -62.9434
  25   1.0000      -2.311823       -62.9079
  26   1.0000      -2.311684       -62.9041
  27   1.0000      -2.310661       -62.8763
  28   1.0000      -2.310233       -62.8646
  29   1.0000      -2.309948       -62.8569
  30   1.0000      -2.309699       -62.8501
  31   1.0000      -2.308620       -62.8207
  32   1.0000      -2.308305       -62.8122
  33   1.0000      -2.308243       -62.8105
  34   1.0000      -2.307806       -62.7986
  35   1.0000      -2.307665       -62.7947
  36   1.0000      -2.307393       -62.7874
  37   1.0000      -2.306733       -62.7694
  38   1.0000      -2.305878       -62.7461
  39   1.0000      -2.305834       -62.7449
  40   1.0000      -2.304739       -62.7151
  41   1.0000      -2.304655       -62.7129
  42   1.0000      -2.303952       -62.6937
  43   1.0000      -2.303311       -62.6763
  44   1.0000      -2.303062       -62.6695
  45   1.0000      -2.303060       -62.6694
  46   1.0000      -2.302741       -62.6608
  47   1.0000      -2.302138       -62.6444
  48   1.0000      -2.302109       -62.6436
  49   1.0000      -2.301702       -62.6325
  50   1.0000      -2.300867       -62.6098
  51   1.0000      -2.300781       -62.6074
  52   1.0000      -2.299482       -62.5721
  53   1.0000      -2.299092       -62.5615
  54   1.0000      -2.297817       -62.5268
  55   1.0000      -2.297732       -62.5245
  56   1.0000      -2.297527       -62.5189
  57   1.0000      -2.296919       -62.5023
  58   1.0000      -2.295191       -62.4553
  59   1.0000      -2.294061       -62.4246
  60   1.0000      -2.293883       -62.4197
  61   1.0000      -2.293583       -62.4116
  62   1.0000      -2.292437       -62.3804
  63   1.0000      -2.292284       -62.3762
  64   1.0000      -2.290885       -62.3382
  65   1.0000      -2.290321       -62.3228
  66   1.0000      -2.289637       -62.3042
  67   1.0000      -2.289234       -62.2932
  68   1.0000      -2.288636       -62.2770
  69   1.0000      -2.286727       -62.2250
  70   1.0000      -1.867545       -50.8185
  71   1.0000      -1.866908       -50.8012
  72   1.0000      -1.863433       -50.7066
  73   1.0000      -0.434291       -11.8177
  74   1.0000      -0.399604       -10.8738
  75   1.0000      -0.395768       -10.7694
  76   1.0000      -0.392689       -10.6856
  77   1.0000      -0.387434       -10.5426
  78   1.0000      -0.380597       -10.3566
  79   1.0000      -0.377462       -10.2713
  80   1.0000      -0.373432       -10.1616
  81   1.0000      -0.369368       -10.0510
  82   1.0000      -0.367546       -10.0014
  83   1.0000      -0.367212        -9.9923
  84   1.0000      -0.364941        -9.9306
  85   1.0000      -0.362796        -9.8722
  86   1.0000      -0.360825        -9.8186
  87   1.0000      -0.360636        -9.8134
  88   1.0000      -0.356844        -9.7102
  89   1.0000      -0.356030        -9.6881
  90   1.0000      -0.353848        -9.6287
  91   1.0000      -0.353509        -9.6195
  92   1.0000      -0.350324        -9.5328
  93   1.0000      -0.347839        -9.4652
  94   1.0000      -0.345211        -9.3937
  95   1.0000      -0.343698        -9.3525
  96   1.0000      -0.340555        -9.2670
  97   1.0000      -0.337578        -9.1860
  98   1.0000      -0.336390        -9.1536
  99   1.0000      -0.334776        -9.1097
 100   1.0000      -0.334455        -9.1010
 101   1.0000      -0.333582        -9.0772
 102   1.0000      -0.331198        -9.0124
 103   1.0000      -0.328062        -8.9270
 104   1.0000      -0.326952        -8.8968
 105   1.0000      -0.326631        -8.8881
 106   1.0000      -0.324403        -8.8274
 107   1.0000      -0.322833        -8.7847
 108   1.0000      -0.320200        -8.7131
 109   1.0000      -0.314531        -8.5588
 110   1.0000      -0.311254        -8.4697
 111   1.0000      -0.309387        -8.4188
 112   1.0000      -0.307278        -8.3615
 113   1.0000      -0.306520        -8.3408
 114   1.0000      -0.304293        -8.2802
 115   1.0000      -0.301342        -8.1999
 116   1.0000      -0.298480        -8.1221
 117   1.0000      -0.298328        -8.1179
 118   1.0000      -0.294992        -8.0271
 119   1.0000      -0.292168        -7.9503
 120   1.0000      -0.291692        -7.9373
 121   1.0000      -0.290225        -7.8974
 122   1.0000      -0.289792        -7.8856
 123   1.0000      -0.284857        -7.7514
 124   1.0000      -0.283501        -7.7145
 125   1.0000      -0.282368        -7.6836
 126   1.0000      -0.280982        -7.6459
 127   1.0000      -0.280549        -7.6341
 128   1.0000      -0.279249        -7.5987
 129   1.0000      -0.278534        -7.5793
 130   1.0000      -0.277806        -7.5595
 131   1.0000      -0.276452        -7.5226
 132   1.0000      -0.275229        -7.4894
 133   1.0000      -0.274399        -7.4668
 134   1.0000      -0.274320        -7.4646
 135   1.0000      -0.272024        -7.4021
 136   1.0000      -0.271965        -7.4005
 137   1.0000      -0.270654        -7.3649
 138   1.0000      -0.267978        -7.2921
 139   1.0000      -0.267670        -7.2837
 140   1.0000      -0.265093        -7.2135
 141   1.0000      -0.262599        -7.1457
 142   1.0000      -0.261886        -7.1263
 143   1.0000      -0.261541        -7.1169
 144   1.0000      -0.258703        -7.0397
 145   1.0000      -0.257057        -6.9949
 146   1.0000      -0.255584        -6.9548
 147   1.0000      -0.255543        -6.9537
 148   1.0000      -0.254178        -6.9165
 149   1.0000      -0.254126        -6.9151
 150   1.0000      -0.253060        -6.8861
 151   1.0000      -0.251045        -6.8313
 152   1.0000      -0.248840        -6.7713
 153   1.0000      -0.247195        -6.7265
 154   1.0000      -0.246313        -6.7025
 155   1.0000      -0.240064        -6.5325
 156   1.0000      -0.239860        -6.5269
 157   1.0000      -0.233451        -6.3525
 158   1.0000      -0.228761        -6.2249
 159   1.0000      -0.225197        -6.1279
 160   1.0000      -0.224819        -6.1176
 161   1.0000      -0.220899        -6.0110
 162   1.0000      -0.214802        -5.8450
 163   1.0000      -0.203273        -5.5313
 164   1.0000      -0.200645        -5.4598
 165   0.0000      -0.179019        -4.8714
 166   0.0000      -0.178482        -4.8567
 167   0.0000      -0.166488        -4.5304
 168   0.0000      -0.136444        -3.7128
 169   0.0000      -0.129923        -3.5354

                 SPIN DOWN ORBITALS
  NO   OCC          E(Eh)            E(eV)
   0   1.0000    -215.297479     -5858.5422
   1   1.0000     -24.536728      -667.6783
   2   1.0000     -20.821917      -566.5932
   3   1.0000     -20.819588      -566.5298
   4   1.0000     -20.809814      -566.2638
   5   1.0000      -4.126695      -112.2931
   6   1.0000      -4.126583      -112.2900
   7   1.0000      -4.123058      -112.1941
   8   1.0000      -4.122158      -112.1696
   9   1.0000      -4.121991      -112.1651
  10   1.0000      -4.119709      -112.1030
  11   1.0000      -4.119590      -112.0997
  12   1.0000      -4.117688      -112.0480
  13   1.0000      -4.117560      -112.0445
  14   1.0000      -4.114995      -111.9747
  15   1.0000      -4.113326      -111.9293
  16   1.0000      -4.113259      -111.9275
  17   1.0000      -4.108915      -111.8093
  18   1.0000      -4.108748      -111.8047
  19   1.0000      -4.106218      -111.7359
  20   1.0000      -4.104901      -111.7000
  21   1.0000      -2.756322       -75.0033
  22   1.0000      -2.315917       -63.0193
  23   1.0000      -2.315823       -63.0167
  24   1.0000      -2.312752       -62.9332
  25   1.0000      -2.311197       -62.8909
  26   1.0000      -2.311050       -62.8869
  27   1.0000      -2.310682       -62.8768
  28   1.0000      -2.310290       -62.8662
  29   1.0000      -2.310075       -62.8603
  30   1.0000      -2.309852       -62.8543
  31   1.0000      -2.308558       -62.8190
  32   1.0000      -2.308316       -62.8125
  33   1.0000      -2.308199       -62.8093
  34   1.0000      -2.307911       -62.8015
  35   1.0000      -2.307169       -62.7813
  36   1.0000      -2.307140       -62.7805
  37   1.0000      -2.306508       -62.7633
  38   1.0000      -2.306017       -62.7499
  39   1.0000      -2.305592       -62.7383
  40   1.0000      -2.304686       -62.7137
  41   1.0000      -2.304530       -62.7095
  42   1.0000      -2.304257       -62.7020
  43   1.0000      -2.303591       -62.6839
  44   1.0000      -2.303453       -62.6802
  45   1.0000      -2.303330       -62.6768
  46   1.0000      -2.303039       -62.6689
  47   1.0000      -2.302679       -62.6591
  48   1.0000      -2.302089       -62.6430
  49   1.0000      -2.301576       -62.6291
  50   1.0000      -2.300794       -62.6078
  51   1.0000      -2.300713       -62.6056
  52   1.0000      -2.299718       -62.5785
  53   1.0000      -2.299455       -62.5713
  54   1.0000      -2.298508       -62.5456
  55   1.0000      -2.298447       -62.5439
  56   1.0000      -2.297624       -62.5215
  57   1.0000      -2.297503       -62.5182
  58   1.0000      -2.295786       -62.4715
  59   1.0000      -2.294886       -62.4470
  60   1.0000      -2.294365       -62.4328
  61   1.0000      -2.294280       -62.4305
  62   1.0000      -2.293112       -62.3987
  63   1.0000      -2.293028       -62.3965
  64   1.0000      -2.291249       -62.3480
  65   1.0000      -2.290613       -62.3307
  66   1.0000      -2.289971       -62.3133
  67   1.0000      -2.289560       -62.3021
  68   1.0000      -2.289071       -62.2888
  69   1.0000      -2.287375       -62.2426
  70   1.0000      -1.714122       -46.6436
  71   1.0000      -1.709317       -46.5129
  72   1.0000      -1.686481       -45.8915
  73   1.0000      -0.429545       -11.6885
  74   1.0000      -0.398390       -10.8407
  75   1.0000      -0.396862       -10.7992
  76   1.0000      -0.392856       -10.6901
  77   1.0000      -0.386260       -10.5107
  78   1.0000      -0.376969       -10.2578
  79   1.0000      -0.376854       -10.2547
  80   1.0000      -0.373382       -10.1602
  81   1.0000      -0.369484       -10.0542
  82   1.0000      -0.367913       -10.0114
  83   1.0000      -0.366812        -9.9815
  84   1.0000      -0.364043        -9.9061
  85   1.0000      -0.361098        -9.8260
  86   1.0000      -0.360493        -9.8095
  87   1.0000      -0.359186        -9.7739
  88   1.0000      -0.357526        -9.7288
  89   1.0000      -0.356841        -9.7101
  90   1.0000      -0.354687        -9.6515
  91   1.0000      -0.353567        -9.6211
  92   1.0000      -0.351132        -9.5548
  93   1.0000      -0.347345        -9.4517
  94   1.0000      -0.345922        -9.4130
  95   1.0000      -0.345102        -9.3907
  96   1.0000      -0.340462        -9.2645
  97   1.0000      -0.338599        -9.2137
  98   1.0000      -0.337147        -9.1742
  99   1.0000      -0.335788        -9.1372
 100   1.0000      -0.333954        -9.0873
 101   1.0000      -0.333287        -9.0692
 102   1.0000      -0.331870        -9.0307
 103   1.0000      -0.329236        -8.9590
 104   1.0000      -0.328366        -8.9353
 105   1.0000      -0.327775        -8.9192
 106   1.0000      -0.326241        -8.8775
 107   1.0000      -0.320579        -8.7234
 108   1.0000      -0.317235        -8.6324
 109   1.0000      -0.313394        -8.5279
 110   1.0000      -0.311070        -8.4646
 111   1.0000      -0.309607        -8.4248
 112   1.0000      -0.307655        -8.3717
 113   1.0000      -0.307375        -8.3641
 114   1.0000      -0.302679        -8.2363
 115   1.0000      -0.300407        -8.1745
 116   1.0000      -0.299552        -8.1512
 117   1.0000      -0.297241        -8.0883
 118   1.0000      -0.296068        -8.0564
 119   1.0000      -0.292553        -7.9608
 120   1.0000      -0.291930        -7.9438
 121   1.0000      -0.291178        -7.9234
 122   1.0000      -0.290591        -7.9074
 123   1.0000      -0.286075        -7.7845
 124   1.0000      -0.284416        -7.7394
 125   1.0000      -0.283817        -7.7230
 126   1.0000      -0.283295        -7.7089
 127   1.0000      -0.281570        -7.6619
 128   1.0000      -0.280706        -7.6384
 129   1.0000      -0.279157        -7.5963
 130   1.0000      -0.278325        -7.5736
 131   1.0000      -0.277945        -7.5633
 132   1.0000      -0.276551        -7.5253
 133   1.0000      -0.275863        -7.5066
 134   1.0000      -0.275108        -7.4861
 135   1.0000      -0.273622        -7.4456
 136   1.0000      -0.273020        -7.4292
 137   1.0000      -0.272132        -7.4051
 138   1.0000      -0.269803        -7.3417
 139   1.0000      -0.269190        -7.3250
 140   1.0000      -0.266325        -7.2471
 141   1.0000      -0.263747        -7.1769
 142   1.0000      -0.263320        -7.1653
 143   1.0000      -0.262681        -7.1479
 144   1.0000      -0.260306        -7.0833
 145   1.0000      -0.258042        -7.0217
 146   1.0000      -0.257317        -7.0019
 147   1.0000      -0.256857        -6.9894
 148   1.0000      -0.256421        -6.9776
 149   1.0000      -0.256058        -6.9677
 150   1.0000      -0.253484        -6.8976
 151   1.0000      -0.253374        -6.8947
 152   1.0000      -0.249485        -6.7888
 153   1.0000      -0.247860        -6.7446
 154   1.0000      -0.247701        -6.7403
 155   1.0000      -0.242623        -6.6021
 156   1.0000      -0.240996        -6.5578
 157   1.0000      -0.233827        -6.3628
 158   1.0000      -0.216612        -5.8943
 159   1.0000      -0.212284        -5.7765
 160   1.0000      -0.206500        -5.6191
 161   1.0000      -0.205848        -5.6014
 162   1.0000      -0.187803        -5.1104
 163   0.0000      -0.145162        -3.9501
 164   0.0000      -0.138339        -3.7644
 165   0.0000      -0.124561        -3.3895
 166   0.0000      -0.122264        -3.3270
 167   0.0000      -0.118117        -3.2141

MULLIKEN ATOMIC CHARGES AND SPIN POPULATIONS
--------------------------------------------
   0 Au:    0.503848   -0.054564
   1 Au:    0.452906   -0.163335
   2 Au:    0.415748   -0.110005
   3 Au:    0.417769   -0.110439
   4 Au:   -0.037027   -0.066907
   5 Au:    0.398980   -0.286227
   6 Au:    0.288597    0.010758
   7 Au:    0.173418   -0.037044
   8 Au:   -0.069758    0.038986
   9 Au:   -0.041557   -0.067062
  10 Au:    0.069697   -0.034717
  11 Au:   -0.066358    0.039743
  12 Au:    0.448804   -0.066848
  13 Au:    0.449269   -0.067165
  14 Au:    0.169652   -0.036027
  15 Au:    0.504408   -0.055604
  16 Cr:   -4.078396    3.066458
Sum of atomic charges         :    0.0000000

LOEWDIN ATOMIC CHARGES AND SPIN POPULATIONS
-------------------------------------------
   0 Au:    0.135921   -0.091239
   1 Au:    0.135105   -0.144714
   2 Au:    0.101734   -0.129294
   3 Au:    0.101461   -0.129366
   4 Au:    0.015267   -0.065614
   5 Au:    0.105954   -0.175459
   6 Au:    0.005182   -0.019741
   7 Au:    0.066865   -0.063678
   8 Au:   -0.045281   -0.037794
   9 Au:    0.015354   -0.065934
  10 Au:    0.044632   -0.053244
  11 Au:   -0.044995   -0.037317
  12 Au:    0.153944   -0.096344
  13 Au:    0.153984   -0.096577
  14 Au:    0.066021   -0.062840
  15 Au:    0.136248   -0.092007
  16 Cr:   -1.147398    3.361161

  Mayer bond orders larger than 0.100000
B(  0-Au,  1-Au) :   0.2155 B(  0-Au,  3-Au) :   0.1479 B(  0-Au,  7-Au) :   0.2057
B(  0-Au, 12-Au) :   0.2684 B(  0-Au, 16-Cr) :   0.4977 B(  1-Au, 15-Au) :   0.2164
B(  1-Au, 16-Cr) :   0.6194 B(  2-Au,  3-Au) :   0.2389 B(  2-Au,  4-Au) :   0.2351
B(  2-Au, 14-Au) :   0.1262 B(  2-Au, 15-Au) :   0.1477 B(  2-Au, 16-Cr) :   0.6099
B(  3-Au,  7-Au) :   0.1273 B(  3-Au,  9-Au) :   0.2365 B(  3-Au, 16-Cr) :   0.6060
B(  4-Au,  6-Au) :   0.3704 B(  4-Au,  9-Au) :   0.3050 B(  4-Au, 11-Au) :   0.1950
B(  4-Au, 14-Au) :   0.2420 B(  4-Au, 16-Cr) :   0.2890 B(  5-Au,  6-Au) :   0.2170
B(  5-Au,  8-Au) :   0.3471 B(  5-Au, 11-Au) :   0.3466 B(  5-Au, 16-Cr) :   0.1141
B(  6-Au,  8-Au) :   0.1850 B(  6-Au,  9-Au) :   0.3723 B(  6-Au, 11-Au) :   0.1835
B(  7-Au,  8-Au) :   0.4559 B(  7-Au,  9-Au) :   0.2407 B(  7-Au, 10-Au) :   0.1307
B(  7-Au, 12-Au) :   0.1185 B(  7-Au, 16-Cr) :   0.5209 B(  8-Au,  9-Au) :   0.1951
B(  8-Au, 10-Au) :   0.2285 B(  8-Au, 11-Au) :   0.2982 B(  8-Au, 16-Cr) :   0.2295
B(  9-Au, 16-Cr) :   0.2896 B( 10-Au, 11-Au) :   0.2279 B( 10-Au, 12-Au) :   0.2125
B( 10-Au, 13-Au) :   0.2125 B( 10-Au, 14-Au) :   0.1315 B( 10-Au, 16-Cr) :   0.5230
B( 11-Au, 14-Au) :   0.4561 B( 11-Au, 16-Cr) :   0.2282 B( 12-Au, 13-Au) :   0.2743
B( 12-Au, 16-Cr) :   0.5861 B( 13-Au, 14-Au) :   0.1197 B( 13-Au, 15-Au) :   0.2677
B( 13-Au, 16-Cr) :   0.5847 B( 14-Au, 15-Au) :   0.2054 B( 14-Au, 16-Cr) :   0.5185
B( 15-Au, 16-Cr) :   0.5006

FINAL SINGLE POINT ENERGY     -3218.024728784308

DIPOLE MOMENT
-------------
                                X             Y             Z
Electronic contribution:     40.92574      28.51347       6.89839
Nuclear contribution   :    -41.42608     -28.96247      -7.04251
                        -----------------------------------------
Total Dipole Moment    :     -0.50033      -0.44901      -0.14412
                        -----------------------------------------
Magnitude (a.u.)       :      0.68754
Magnitude (Debye)      :      1.74759

Rotational constants in cm-1:     0.001098     0.000650     0.000649
Rotational constants in MHz :    32.910697    19.473954    19.466722

                             ****ORCA TERMINATED NORMALLY****
TOTAL RUN TIME: 0 days 0 hours 37 minutes 13 seconds 741 msec
