                         Program Version 5.0.3 -  RELEASE  -
|  1> %pal nprocs 1 end
|  2>
|  3> !PBE def2-TZVP OPT UNO
|  4> !SLOWCONV KDIIS
|  5>
|  6> %geom maxiter 300 end
|  7>
|  8> *xyzfile 0 3 8.xyz                           ****END OF INPUT****
 Total Charge           Charge          ....    0
 Multiplicity           Mult            ....    3
 Number of Electrons    NEL             ....  328
FINAL SINGLE POINT ENERGY     -3217.493580697633
FINAL SINGLE POINT ENERGY     -3217.496375601308
FINAL SINGLE POINT ENERGY     -3217.497237313729
FINAL SINGLE POINT ENERGY     -3217.497803866052
FINAL SINGLE POINT ENERGY     -3217.498137994517
FINAL SINGLE POINT ENERGY     -3217.498400318949
FINAL SINGLE POINT ENERGY     -3217.498625013943
FINAL SINGLE POINT ENERGY     -3217.498951604518
FINAL SINGLE POINT ENERGY     -3217.499114963403
FINAL SINGLE POINT ENERGY     -3217.499217004562
FINAL SINGLE POINT ENERGY     -3217.499350853117
FINAL SINGLE POINT ENERGY     -3217.499413573422
FINAL SINGLE POINT ENERGY     -3217.499440476612
FINAL SINGLE POINT ENERGY     -3217.499463867554
FINAL SINGLE POINT ENERGY     -3217.499475864902
FINAL SINGLE POINT ENERGY     -3217.499480328968
FINAL SINGLE POINT ENERGY     -3217.499483066319
                    ***********************HURRAY********************

CARTESIAN COORDINATES (ANGSTROEM)
---------------------------------
  Au     5.797307    5.483055    9.391583
  Au     3.978372    7.177994    8.038326
  Au     5.288848    9.708976    7.538700
  Au     5.888735    8.260405    9.917036
  Au     7.785270   10.810436    7.606747
  Au    12.368103    9.629094    7.396142
  Au    10.287591   10.934695    8.715105
  Au     8.355469    6.632646    9.458288
  Au    10.542899    8.026308    8.654934
  Au     8.366344    9.403981    9.929150
  Au     9.183753    6.887248    6.538437
  Au     9.919745    9.525791    6.180485
  Au     7.547871    4.790223    7.366661
  Au     6.951336    6.221013    5.012244
  Au     7.343808    9.058309    5.458673
  Au     4.790440    7.897206    5.425005
  Cr     6.600936    7.332310    7.464670

 Multiplicity           Mult            ....    3
 Number of Electrons    NEL             ....  328
 Basis Dimension        Dim             ....  685

ORBITAL ENERGIES
----------------
                 SPIN UP ORBITALS
  NO   OCC          E(Eh)            E(eV)
   0   1.0000    -214.506693     -5837.0239
   1   1.0000     -24.307363      -661.4370
   2   1.0000     -20.673419      -562.5523
   3   1.0000     -20.671915      -562.5114
   4   1.0000     -20.667069      -562.3795
   5   1.0000      -4.036343      -109.8345
   6   1.0000      -4.036248      -109.8319
   7   1.0000      -4.032885      -109.7404
   8   1.0000      -4.031341      -109.6984
   9   1.0000      -4.031182      -109.6940
  10   1.0000      -4.029269      -109.6420
  11   1.0000      -4.029163      -109.6391
  12   1.0000      -4.027085      -109.5825
  13   1.0000      -4.026964      -109.5793
  14   1.0000      -4.024824      -109.5210
  15   1.0000      -4.022206      -109.4498
  16   1.0000      -4.022145      -109.4481
  17   1.0000      -4.017759      -109.3288
  18   1.0000      -4.017609      -109.3247
  19   1.0000      -4.015562      -109.2690
  20   1.0000      -4.013720      -109.2189
  21   1.0000      -2.808332       -76.4186
  22   1.0000      -2.252895       -61.3044
  23   1.0000      -2.252816       -61.3023
  24   1.0000      -2.249875       -61.2222
  25   1.0000      -2.248481       -61.1843
  26   1.0000      -2.248347       -61.1806
  27   1.0000      -2.247456       -61.1564
  28   1.0000      -2.246859       -61.1402
  29   1.0000      -2.246492       -61.1301
  30   1.0000      -2.246432       -61.1285
  31   1.0000      -2.245533       -61.1041
  32   1.0000      -2.245122       -61.0929
  33   1.0000      -2.244930       -61.0876
  34   1.0000      -2.244525       -61.0766
  35   1.0000      -2.244299       -61.0705
  36   1.0000      -2.243991       -61.0621
  37   1.0000      -2.243283       -61.0428
  38   1.0000      -2.242537       -61.0225
  39   1.0000      -2.242301       -61.0161
  40   1.0000      -2.241525       -60.9950
  41   1.0000      -2.241277       -60.9883
  42   1.0000      -2.240893       -60.9778
  43   1.0000      -2.240186       -60.9585
  44   1.0000      -2.239865       -60.9498
  45   1.0000      -2.239705       -60.9455
  46   1.0000      -2.239344       -60.9356
  47   1.0000      -2.239341       -60.9356
  48   1.0000      -2.238826       -60.9216
  49   1.0000      -2.238346       -60.9085
  50   1.0000      -2.237454       -60.8842
  51   1.0000      -2.237383       -60.8823
  52   1.0000      -2.236426       -60.8562
  53   1.0000      -2.235882       -60.8414
  54   1.0000      -2.234684       -60.8088
  55   1.0000      -2.234594       -60.8064
  56   1.0000      -2.234378       -60.8005
  57   1.0000      -2.233851       -60.7862
  58   1.0000      -2.231766       -60.7295
  59   1.0000      -2.230988       -60.7083
  60   1.0000      -2.230487       -60.6946
  61   1.0000      -2.230345       -60.6908
  62   1.0000      -2.229360       -60.6640
  63   1.0000      -2.229213       -60.6600
  64   1.0000      -2.227316       -60.6083
  65   1.0000      -2.227275       -60.6072
  66   1.0000      -2.226503       -60.5862
  67   1.0000      -2.225657       -60.5632
  68   1.0000      -2.225363       -60.5552
  69   1.0000      -2.223412       -60.5021
  70   1.0000      -1.800917       -49.0054
  71   1.0000      -1.799381       -48.9637
  72   1.0000      -1.793052       -48.7914
  73   1.0000      -0.429707       -11.6929
  74   1.0000      -0.394869       -10.7449
  75   1.0000      -0.390149       -10.6165
  76   1.0000      -0.386430       -10.5153
  77   1.0000      -0.379896       -10.3375
  78   1.0000      -0.372670       -10.1409
  79   1.0000      -0.370329       -10.0772
  80   1.0000      -0.365275        -9.9396
  81   1.0000      -0.361404        -9.8343
  82   1.0000      -0.359615        -9.7856
  83   1.0000      -0.359029        -9.7697
  84   1.0000      -0.356090        -9.6897
  85   1.0000      -0.354440        -9.6448
  86   1.0000      -0.352561        -9.5937
  87   1.0000      -0.351882        -9.5752
  88   1.0000      -0.348016        -9.4700
  89   1.0000      -0.347102        -9.4451
  90   1.0000      -0.344747        -9.3810
  91   1.0000      -0.344674        -9.3791
  92   1.0000      -0.341820        -9.3014
  93   1.0000      -0.339710        -9.2440
  94   1.0000      -0.336236        -9.1494
  95   1.0000      -0.335008        -9.1160
  96   1.0000      -0.331934        -9.0324
  97   1.0000      -0.328973        -8.9518
  98   1.0000      -0.327701        -8.9172
  99   1.0000      -0.326628        -8.8880
 100   1.0000      -0.325402        -8.8546
 101   1.0000      -0.324824        -8.8389
 102   1.0000      -0.322866        -8.7856
 103   1.0000      -0.319593        -8.6966
 104   1.0000      -0.318444        -8.6653
 105   1.0000      -0.318245        -8.6599
 106   1.0000      -0.316118        -8.6020
 107   1.0000      -0.314331        -8.5534
 108   1.0000      -0.312052        -8.4914
 109   1.0000      -0.306296        -8.3347
 110   1.0000      -0.302931        -8.2432
 111   1.0000      -0.301513        -8.2046
 112   1.0000      -0.299106        -8.1391
 113   1.0000      -0.298261        -8.1161
 114   1.0000      -0.296347        -8.0640
 115   1.0000      -0.292978        -7.9723
 116   1.0000      -0.290120        -7.8946
 117   1.0000      -0.290065        -7.8931
 118   1.0000      -0.286839        -7.8053
 119   1.0000      -0.284377        -7.7383
 120   1.0000      -0.283222        -7.7069
 121   1.0000      -0.282268        -7.6809
 122   1.0000      -0.281693        -7.6652
 123   1.0000      -0.277151        -7.5417
 124   1.0000      -0.275506        -7.4969
 125   1.0000      -0.275187        -7.4882
 126   1.0000      -0.274078        -7.4580
 127   1.0000      -0.272771        -7.4225
 128   1.0000      -0.271398        -7.3851
 129   1.0000      -0.270830        -7.3697
 130   1.0000      -0.269946        -7.3456
 131   1.0000      -0.268636        -7.3100
 132   1.0000      -0.267472        -7.2783
 133   1.0000      -0.266799        -7.2600
 134   1.0000      -0.266363        -7.2481
 135   1.0000      -0.264600        -7.2001
 136   1.0000      -0.264301        -7.1920
 137   1.0000      -0.263322        -7.1654
 138   1.0000      -0.260467        -7.0877
 139   1.0000      -0.260322        -7.0837
 140   1.0000      -0.257611        -7.0099
 141   1.0000      -0.254820        -6.9340
 142   1.0000      -0.254664        -6.9298
 143   1.0000      -0.253908        -6.9092
 144   1.0000      -0.251763        -6.8508
 145   1.0000      -0.249928        -6.8009
 146   1.0000      -0.248743        -6.7686
 147   1.0000      -0.248659        -6.7664
 148   1.0000      -0.247957        -6.7473
 149   1.0000      -0.247765        -6.7420
 150   1.0000      -0.245668        -6.6850
 151   1.0000      -0.245309        -6.6752
 152   1.0000      -0.242100        -6.5879
 153   1.0000      -0.240541        -6.5455
 154   1.0000      -0.240288        -6.5386
 155   1.0000      -0.236371        -6.4320
 156   1.0000      -0.233412        -6.3515
 157   1.0000      -0.227397        -6.1878
 158   1.0000      -0.220159        -5.9908
 159   1.0000      -0.219869        -5.9829
 160   1.0000      -0.219236        -5.9657
 161   1.0000      -0.217212        -5.9106
 162   1.0000      -0.211406        -5.7527
 163   1.0000      -0.200813        -5.4644
 164   1.0000      -0.196676        -5.3518
 165   0.0000      -0.180823        -4.9204
 166   0.0000      -0.179597        -4.8871
 167   0.0000      -0.169561        -4.6140
 168   0.0000      -0.140431        -3.8213
 169   0.0000      -0.134660        -3.6643

                 SPIN DOWN ORBITALS
  NO   OCC          E(Eh)            E(eV)
   0   1.0000    -214.506283     -5837.0127
   1   1.0000     -24.262194      -660.2079
   2   1.0000     -20.641592      -561.6863
   3   1.0000     -20.638786      -561.6099
   4   1.0000     -20.628498      -561.3300
   5   1.0000      -4.036125      -109.8286
   6   1.0000      -4.036023      -109.8258
   7   1.0000      -4.032578      -109.7320
   8   1.0000      -4.031430      -109.7008
   9   1.0000      -4.031271      -109.6965
  10   1.0000      -4.029112      -109.6377
  11   1.0000      -4.029006      -109.6348
  12   1.0000      -4.026979      -109.5797
  13   1.0000      -4.026860      -109.5764
  14   1.0000      -4.024631      -109.5158
  15   1.0000      -4.022800      -109.4660
  16   1.0000      -4.022740      -109.4643
  17   1.0000      -4.018259      -109.3424
  18   1.0000      -4.018107      -109.3383
  19   1.0000      -4.015935      -109.2791
  20   1.0000      -4.014108      -109.2294
  21   1.0000      -2.686607       -73.1063
  22   1.0000      -2.252856       -61.3033
  23   1.0000      -2.252770       -61.3010
  24   1.0000      -2.249537       -61.2130
  25   1.0000      -2.247788       -61.1654
  26   1.0000      -2.247647       -61.1616
  27   1.0000      -2.247229       -61.1502
  28   1.0000      -2.246765       -61.1376
  29   1.0000      -2.246554       -61.1319
  30   1.0000      -2.246433       -61.1285
  31   1.0000      -2.245186       -61.0946
  32   1.0000      -2.245033       -61.0904
  33   1.0000      -2.244858       -61.0857
  34   1.0000      -2.244579       -61.0781
  35   1.0000      -2.243842       -61.0580
  36   1.0000      -2.243786       -61.0565
  37   1.0000      -2.243101       -61.0379
  38   1.0000      -2.242396       -61.0187
  39   1.0000      -2.242255       -61.0149
  40   1.0000      -2.241271       -60.9881
  41   1.0000      -2.241212       -60.9865
  42   1.0000      -2.241079       -60.9829
  43   1.0000      -2.240473       -60.9664
  44   1.0000      -2.240338       -60.9627
  45   1.0000      -2.239945       -60.9520
  46   1.0000      -2.239732       -60.9462
  47   1.0000      -2.239301       -60.9345
  48   1.0000      -2.238818       -60.9213
  49   1.0000      -2.238256       -60.9061
  50   1.0000      -2.237425       -60.8834
  51   1.0000      -2.237354       -60.8815
  52   1.0000      -2.236492       -60.8581
  53   1.0000      -2.236415       -60.8560
  54   1.0000      -2.235258       -60.8244
  55   1.0000      -2.235228       -60.8236
  56   1.0000      -2.234489       -60.8036
  57   1.0000      -2.234342       -60.7995
  58   1.0000      -2.232258       -60.7428
  59   1.0000      -2.231610       -60.7252
  60   1.0000      -2.230897       -60.7058
  61   1.0000      -2.230864       -60.7049
  62   1.0000      -2.229858       -60.6775
  63   1.0000      -2.229726       -60.6739
  64   1.0000      -2.227569       -60.6152
  65   1.0000      -2.227553       -60.6148
  66   1.0000      -2.226769       -60.5935
  67   1.0000      -2.225908       -60.5700
  68   1.0000      -2.225670       -60.5636
  69   1.0000      -2.223943       -60.5166
  70   1.0000      -1.689924       -45.9852
  71   1.0000      -1.683924       -45.8219
  72   1.0000      -1.659552       -45.1587
  73   1.0000      -0.424964       -11.5639
  74   1.0000      -0.393410       -10.7052
  75   1.0000      -0.390532       -10.6269
  76   1.0000      -0.386342       -10.5129
  77   1.0000      -0.378386       -10.2964
  78   1.0000      -0.369580       -10.0568
  79   1.0000      -0.369079       -10.0432
  80   1.0000      -0.365069        -9.9340
  81   1.0000      -0.361125        -9.8267
  82   1.0000      -0.359150        -9.7730
  83   1.0000      -0.358806        -9.7636
  84   1.0000      -0.355215        -9.6659
  85   1.0000      -0.352427        -9.5900
  86   1.0000      -0.352048        -9.5797
  87   1.0000      -0.350382        -9.5344
  88   1.0000      -0.348473        -9.4824
  89   1.0000      -0.347514        -9.4563
  90   1.0000      -0.345444        -9.4000
  91   1.0000      -0.344414        -9.3720
  92   1.0000      -0.342157        -9.3106
  93   1.0000      -0.338864        -9.2209
  94   1.0000      -0.336737        -9.1631
  95   1.0000      -0.336006        -9.1432
  96   1.0000      -0.331378        -9.0173
  97   1.0000      -0.329740        -8.9727
  98   1.0000      -0.328023        -8.9260
  99   1.0000      -0.327120        -8.9014
 100   1.0000      -0.324926        -8.8417
 101   1.0000      -0.324288        -8.8243
 102   1.0000      -0.323014        -8.7897
 103   1.0000      -0.320448        -8.7198
 104   1.0000      -0.319361        -8.6902
 105   1.0000      -0.319022        -8.6810
 106   1.0000      -0.317453        -8.6383
 107   1.0000      -0.311867        -8.4863
 108   1.0000      -0.308721        -8.4007
 109   1.0000      -0.305174        -8.3042
 110   1.0000      -0.302352        -8.2274
 111   1.0000      -0.301219        -8.1966
 112   1.0000      -0.299176        -8.1410
 113   1.0000      -0.299064        -8.1380
 114   1.0000      -0.294721        -8.0198
 115   1.0000      -0.292159        -7.9501
 116   1.0000      -0.290790        -7.9128
 117   1.0000      -0.289055        -7.8656
 118   1.0000      -0.287642        -7.8271
 119   1.0000      -0.284372        -7.7382
 120   1.0000      -0.283442        -7.7129
 121   1.0000      -0.282927        -7.6988
 122   1.0000      -0.282117        -7.6768
 123   1.0000      -0.277938        -7.5631
 124   1.0000      -0.276289        -7.5182
 125   1.0000      -0.275735        -7.5031
 126   1.0000      -0.275418        -7.4945
 127   1.0000      -0.273351        -7.4383
 128   1.0000      -0.272480        -7.4146
 129   1.0000      -0.271123        -7.3776
 130   1.0000      -0.270204        -7.3526
 131   1.0000      -0.269551        -7.3349
 132   1.0000      -0.268304        -7.3009
 133   1.0000      -0.267670        -7.2837
 134   1.0000      -0.266930        -7.2635
 135   1.0000      -0.265738        -7.2311
 136   1.0000      -0.265014        -7.2114
 137   1.0000      -0.264367        -7.1938
 138   1.0000      -0.261627        -7.1192
 139   1.0000      -0.261416        -7.1135
 140   1.0000      -0.258469        -7.0333
 141   1.0000      -0.256026        -6.9668
 142   1.0000      -0.255203        -6.9444
 143   1.0000      -0.254688        -6.9304
 144   1.0000      -0.252850        -6.8804
 145   1.0000      -0.250701        -6.8219
 146   1.0000      -0.249904        -6.8002
 147   1.0000      -0.249784        -6.7970
 148   1.0000      -0.249017        -6.7761
 149   1.0000      -0.248913        -6.7733
 150   1.0000      -0.246450        -6.7063
 151   1.0000      -0.245917        -6.6917
 152   1.0000      -0.242416        -6.5965
 153   1.0000      -0.241441        -6.5700
 154   1.0000      -0.240616        -6.5475
 155   1.0000      -0.237532        -6.4636
 156   1.0000      -0.234184        -6.3725
 157   1.0000      -0.227698        -6.1960
 158   1.0000      -0.213939        -5.8216
 159   1.0000      -0.209988        -5.7141
 160   1.0000      -0.205331        -5.5873
 161   1.0000      -0.205004        -5.5784
 162   1.0000      -0.186908        -5.0860
 163   0.0000      -0.149336        -4.0636
 164   0.0000      -0.143873        -3.9150
 165   0.0000      -0.130486        -3.5507
 166   0.0000      -0.127950        -3.4817
 167   0.0000      -0.125172        -3.4061

MULLIKEN ATOMIC CHARGES AND SPIN POPULATIONS
--------------------------------------------
   0 Au:    0.550086   -0.033919
   1 Au:    0.505748   -0.106639
   2 Au:    0.471707   -0.070487
   3 Au:    0.473458   -0.070782
   4 Au:   -0.036649   -0.059300
   5 Au:    0.444740   -0.222073
   6 Au:    0.312172    0.002929
   7 Au:    0.208436   -0.019231
   8 Au:   -0.084888    0.020594
   9 Au:   -0.041059   -0.059444
  10 Au:    0.088173   -0.013680
  11 Au:   -0.081122    0.021328
  12 Au:    0.493681   -0.040648
  13 Au:    0.494412   -0.040948
  14 Au:    0.205078   -0.018528
  15 Au:    0.550531   -0.034478
  16 Cr:   -4.554504    2.745305
Sum of atomic charges         :   -0.0000000

LOEWDIN ATOMIC CHARGES AND SPIN POPULATIONS
-------------------------------------------
   0 Au:    0.139490   -0.074282
   1 Au:    0.142145   -0.117212
   2 Au:    0.105291   -0.106091
   3 Au:    0.105008   -0.106193
   4 Au:    0.016460   -0.058114
   5 Au:    0.109761   -0.148079
   6 Au:    0.005913   -0.018993
   7 Au:    0.070904   -0.048615
   8 Au:   -0.046403   -0.035655
   9 Au:    0.016548   -0.058340
  10 Au:    0.047006   -0.040770
  11 Au:   -0.046106   -0.035238
  12 Au:    0.158421   -0.077238
  13 Au:    0.158466   -0.077452
  14 Au:    0.070082   -0.047917
  15 Au:    0.139800   -0.074792
  16 Cr:   -1.192788    3.124979

  Mayer bond orders larger than 0.100000
B(  0-Au,  1-Au) :   0.2293 B(  0-Au,  3-Au) :   0.1557 B(  0-Au,  7-Au) :   0.2090
B(  0-Au, 12-Au) :   0.2778 B(  0-Au, 16-Cr) :   0.4978 B(  1-Au,  2-Au) :   0.1093
B(  1-Au,  3-Au) :   0.1109 B(  1-Au, 10-Au) :   0.1172 B(  1-Au, 15-Au) :   0.2303
B(  1-Au, 16-Cr) :   0.6187 B(  2-Au,  3-Au) :   0.2464 B(  2-Au,  4-Au) :   0.2383
B(  2-Au, 12-Au) :   0.1088 B(  2-Au, 14-Au) :   0.1330 B(  2-Au, 15-Au) :   0.1554
B(  2-Au, 16-Cr) :   0.5916 B(  3-Au,  7-Au) :   0.1341 B(  3-Au,  9-Au) :   0.2396
B(  3-Au, 13-Au) :   0.1087 B(  3-Au, 16-Cr) :   0.5878 B(  4-Au,  6-Au) :   0.3724
B(  4-Au,  9-Au) :   0.3157 B(  4-Au, 11-Au) :   0.2141 B(  4-Au, 14-Au) :   0.2525
B(  4-Au, 16-Cr) :   0.3177 B(  5-Au,  6-Au) :   0.2377 B(  5-Au,  8-Au) :   0.3582
B(  5-Au, 11-Au) :   0.3578 B(  5-Au, 16-Cr) :   0.1292 B(  6-Au,  8-Au) :   0.2061
B(  6-Au,  9-Au) :   0.3741 B(  6-Au, 11-Au) :   0.2045 B(  7-Au,  8-Au) :   0.4568
B(  7-Au,  9-Au) :   0.2514 B(  7-Au, 10-Au) :   0.1321 B(  7-Au, 12-Au) :   0.1279
B(  7-Au, 16-Cr) :   0.5161 B(  8-Au,  9-Au) :   0.2143 B(  8-Au, 10-Au) :   0.2274
B(  8-Au, 11-Au) :   0.3440 B(  8-Au, 16-Cr) :   0.2499 B(  9-Au, 16-Cr) :   0.3184
B( 10-Au, 11-Au) :   0.2271 B( 10-Au, 12-Au) :   0.2170 B( 10-Au, 13-Au) :   0.2170
B( 10-Au, 14-Au) :   0.1331 B( 10-Au, 16-Cr) :   0.5224 B( 11-Au, 14-Au) :   0.4567
B( 11-Au, 16-Cr) :   0.2486 B( 12-Au, 13-Au) :   0.2851 B( 12-Au, 16-Cr) :   0.5825
B( 13-Au, 14-Au) :   0.1291 B( 13-Au, 15-Au) :   0.2771 B( 13-Au, 16-Cr) :   0.5813
B( 14-Au, 15-Au) :   0.2088 B( 14-Au, 16-Cr) :   0.5138 B( 15-Au, 16-Cr) :   0.5008

FINAL SINGLE POINT ENERGY     -3217.499484332129

DIPOLE MOMENT
-------------
                                X             Y             Z
Electronic contribution:     40.92535      28.52601       6.90612
Nuclear contribution   :    -41.42608     -28.96247      -7.04251
                        -----------------------------------------
Total Dipole Moment    :     -0.50073      -0.43646      -0.13638
                        -----------------------------------------
Magnitude (a.u.)       :      0.67810
Magnitude (Debye)      :      1.72360

Rotational constants in cm-1:     0.001098     0.000650     0.000649
Rotational constants in MHz :    32.910697    19.473954    19.466722

                             ****ORCA TERMINATED NORMALLY****
TOTAL RUN TIME: 0 days 4 hours 1 minutes 3 seconds 721 msec
