                         Program Version 5.0.3 -  RELEASE  -
|  1> %pal nprocs 16 end
|  2>
|  3> !PBE def2-TZVP OPT UNO
|  4> !KDIIS
|  5>
|  6> %geom
|  7>   maxiter 400
|  8> end
|  9>
| 10>
| 11> *xyzfile 0 5 4-3.xyz
| 12>
| 13>                          ****END OF INPUT****
 Total Charge           Charge          ....    0
 Multiplicity           Mult            ....    5
 Number of Electrons    NEL             ....  310
FINAL SINGLE POINT ENERGY     -3188.224701946079
FINAL SINGLE POINT ENERGY     -3188.224807651119
FINAL SINGLE POINT ENERGY     -3188.225049643507
FINAL SINGLE POINT ENERGY     -3188.225259094517
FINAL SINGLE POINT ENERGY     -3188.225498203034
FINAL SINGLE POINT ENERGY     -3188.225749073702
FINAL SINGLE POINT ENERGY     -3188.225922531476
FINAL SINGLE POINT ENERGY     -3188.226048301423
FINAL SINGLE POINT ENERGY     -3188.226089774899
FINAL SINGLE POINT ENERGY     -3188.226115167944
FINAL SINGLE POINT ENERGY     -3188.226128691958
FINAL SINGLE POINT ENERGY     -3188.226137297167
FINAL SINGLE POINT ENERGY     -3188.226142212547
FINAL SINGLE POINT ENERGY     -3188.226145158057
                    ***********************HURRAY********************

CARTESIAN COORDINATES (ANGSTROEM)
---------------------------------
  Au     7.638888    9.851455    7.011986
  Au     6.739074    4.710937    8.662246
  Au     8.419051    7.242074    6.067675
  Au     4.609469    6.443001    9.146935
  Au     4.829844    8.748795    7.551135
  Au     6.136711    8.487614    5.104861
  Au     5.720785    6.182452    6.593032
  Au     5.411600    8.825503   10.372585
  Au     6.534505    6.459953   11.160395
  Au     9.159135    7.492713   10.654982
  Au     8.108048    9.883319    9.850102
  Au     5.833305   11.045828    8.766576
  Au     8.673891    4.754818   10.659980
  Au     9.826429    8.487681    8.139214
  Au     9.361563    5.742424    8.152042
  Mn     7.198707    7.503181    8.611168

 Multiplicity           Mult            ....    5
 Number of Electrons    NEL             ....  310
 Basis Dimension        Dim             ....  645

ORBITAL ENERGIES
----------------
                 SPIN UP ORBITALS
  NO   OCC          E(Eh)            E(eV)
   0   1.0000    -234.204022     -6373.0154
   1   1.0000     -26.896690      -731.8961
   2   1.0000     -23.045684      -627.1049
   3   1.0000     -23.045133      -627.0900
   4   1.0000     -23.044367      -627.0691
   5   1.0000      -4.033051      -109.7449
   6   1.0000      -4.032961      -109.7424
   7   1.0000      -4.032680      -109.7348
   8   1.0000      -4.032529      -109.7307
   9   1.0000      -4.031918      -109.7141
  10   1.0000      -4.031890      -109.7133
  11   1.0000      -4.031756      -109.7097
  12   1.0000      -4.031729      -109.7089
  13   1.0000      -4.027587      -109.5962
  14   1.0000      -4.027465      -109.5929
  15   1.0000      -4.027449      -109.5925
  16   1.0000      -4.027375      -109.5904
  17   1.0000      -4.024347      -109.5081
  18   1.0000      -4.023096      -109.4740
  19   1.0000      -4.023062      -109.4731
  20   1.0000      -3.108840       -84.5958
  21   1.0000      -2.249330       -61.2074
  22   1.0000      -2.249129       -61.2019
  23   1.0000      -2.248998       -61.1983
  24   1.0000      -2.248873       -61.1949
  25   1.0000      -2.247798       -61.1657
  26   1.0000      -2.247582       -61.1598
  27   1.0000      -2.247501       -61.1576
  28   1.0000      -2.247231       -61.1503
  29   1.0000      -2.246495       -61.1302
  30   1.0000      -2.246333       -61.1258
  31   1.0000      -2.245407       -61.1006
  32   1.0000      -2.245234       -61.0959
  33   1.0000      -2.245034       -61.0905
  34   1.0000      -2.244800       -61.0841
  35   1.0000      -2.244477       -61.0753
  36   1.0000      -2.244228       -61.0686
  37   1.0000      -2.243913       -61.0600
  38   1.0000      -2.243833       -61.0578
  39   1.0000      -2.243772       -61.0561
  40   1.0000      -2.243610       -61.0517
  41   1.0000      -2.243259       -61.0422
  42   1.0000      -2.242785       -61.0293
  43   1.0000      -2.242724       -61.0276
  44   1.0000      -2.242576       -61.0236
  45   1.0000      -2.242106       -61.0108
  46   1.0000      -2.241728       -61.0005
  47   1.0000      -2.240859       -60.9769
  48   1.0000      -2.240720       -60.9731
  49   1.0000      -2.240594       -60.9697
  50   1.0000      -2.240347       -60.9629
  51   1.0000      -2.239347       -60.9357
  52   1.0000      -2.238574       -60.9147
  53   1.0000      -2.238045       -60.9003
  54   1.0000      -2.237826       -60.8943
  55   1.0000      -2.236857       -60.8680
  56   1.0000      -2.236824       -60.8671
  57   1.0000      -2.236590       -60.8607
  58   1.0000      -2.236391       -60.8553
  59   1.0000      -2.236370       -60.8547
  60   1.0000      -2.236359       -60.8544
  61   1.0000      -2.235697       -60.8364
  62   1.0000      -2.235622       -60.8344
  63   1.0000      -2.235570       -60.8330
  64   1.0000      -2.235333       -60.8265
  65   1.0000      -2.235241       -60.8240
  66   1.0000      -2.012951       -54.7752
  67   1.0000      -2.011024       -54.7227
  68   1.0000      -2.010717       -54.7144
  69   1.0000      -0.438452       -11.9309
  70   1.0000      -0.393960       -10.7202
  71   1.0000      -0.391861       -10.6631
  72   1.0000      -0.388537       -10.5726
  73   1.0000      -0.381043       -10.3687
  74   1.0000      -0.380622       -10.3572
  75   1.0000      -0.373295       -10.1579
  76   1.0000      -0.373058       -10.1514
  77   1.0000      -0.371434       -10.1072
  78   1.0000      -0.365540        -9.9469
  79   1.0000      -0.363533        -9.8922
  80   1.0000      -0.359468        -9.7816
  81   1.0000      -0.353657        -9.6235
  82   1.0000      -0.352936        -9.6039
  83   1.0000      -0.351365        -9.5611
  84   1.0000      -0.351071        -9.5531
  85   1.0000      -0.350244        -9.5306
  86   1.0000      -0.350167        -9.5285
  87   1.0000      -0.345070        -9.3898
  88   1.0000      -0.344141        -9.3646
  89   1.0000      -0.343515        -9.3475
  90   1.0000      -0.342158        -9.3106
  91   1.0000      -0.339118        -9.2279
  92   1.0000      -0.336661        -9.1610
  93   1.0000      -0.335320        -9.1245
  94   1.0000      -0.334626        -9.1056
  95   1.0000      -0.331083        -9.0092
  96   1.0000      -0.330198        -8.9852
  97   1.0000      -0.324102        -8.8193
  98   1.0000      -0.319172        -8.6851
  99   1.0000      -0.317275        -8.6335
 100   1.0000      -0.316943        -8.6245
 101   1.0000      -0.315542        -8.5863
 102   1.0000      -0.315340        -8.5808
 103   1.0000      -0.313965        -8.5434
 104   1.0000      -0.312729        -8.5098
 105   1.0000      -0.309284        -8.4160
 106   1.0000      -0.308645        -8.3987
 107   1.0000      -0.304307        -8.2806
 108   1.0000      -0.298482        -8.1221
 109   1.0000      -0.297979        -8.1084
 110   1.0000      -0.295891        -8.0516
 111   1.0000      -0.292114        -7.9488
 112   1.0000      -0.290295        -7.8993
 113   1.0000      -0.290134        -7.8949
 114   1.0000      -0.289300        -7.8723
 115   1.0000      -0.286029        -7.7832
 116   1.0000      -0.278880        -7.5887
 117   1.0000      -0.277300        -7.5457
 118   1.0000      -0.276525        -7.5246
 119   1.0000      -0.275906        -7.5078
 120   1.0000      -0.274526        -7.4702
 121   1.0000      -0.274300        -7.4641
 122   1.0000      -0.273004        -7.4288
 123   1.0000      -0.271239        -7.3808
 124   1.0000      -0.269248        -7.3266
 125   1.0000      -0.268978        -7.3193
 126   1.0000      -0.265105        -7.2139
 127   1.0000      -0.264650        -7.2015
 128   1.0000      -0.263856        -7.1799
 129   1.0000      -0.262132        -7.1330
 130   1.0000      -0.262103        -7.1322
 131   1.0000      -0.261090        -7.1046
 132   1.0000      -0.260403        -7.0859
 133   1.0000      -0.260252        -7.0818
 134   1.0000      -0.259194        -7.0530
 135   1.0000      -0.257703        -7.0125
 136   1.0000      -0.257606        -7.0098
 137   1.0000      -0.256157        -6.9704
 138   1.0000      -0.255137        -6.9426
 139   1.0000      -0.254939        -6.9373
 140   1.0000      -0.253277        -6.8920
 141   1.0000      -0.252546        -6.8721
 142   1.0000      -0.250942        -6.8285
 143   1.0000      -0.250305        -6.8111
 144   1.0000      -0.249651        -6.7933
 145   1.0000      -0.249202        -6.7811
 146   1.0000      -0.247453        -6.7336
 147   1.0000      -0.246628        -6.7111
 148   1.0000      -0.242717        -6.6047
 149   1.0000      -0.242422        -6.5966
 150   1.0000      -0.237736        -6.4691
 151   1.0000      -0.236690        -6.4407
 152   1.0000      -0.230314        -6.2672
 153   1.0000      -0.225834        -6.1452
 154   1.0000      -0.214232        -5.8295
 155   1.0000      -0.199088        -5.4175
 156   1.0000      -0.195883        -5.3303
 157   0.0000      -0.185618        -5.0509
 158   0.0000      -0.149558        -4.0697
 159   0.0000      -0.142446        -3.8762
 160   0.0000      -0.138289        -3.7630
 161   0.0000      -0.122712        -3.3392

                 SPIN DOWN ORBITALS
  NO   OCC          E(Eh)            E(eV)
   0   1.0000    -234.203327     -6372.9965
   1   1.0000     -26.828974      -730.0535
   2   1.0000     -22.994244      -625.7052
   3   1.0000     -22.993542      -625.6861
   4   1.0000     -22.993174      -625.6761
   5   1.0000      -4.033041      -109.7446
   6   1.0000      -4.032955      -109.7423
   7   1.0000      -4.032606      -109.7328
   8   1.0000      -4.032461      -109.7288
   9   1.0000      -4.031642      -109.7066
  10   1.0000      -4.031604      -109.7055
  11   1.0000      -4.031480      -109.7022
  12   1.0000      -4.031455      -109.7015
  13   1.0000      -4.027110      -109.5832
  14   1.0000      -4.026999      -109.5802
  15   1.0000      -4.026979      -109.5797
  16   1.0000      -4.026909      -109.5778
  17   1.0000      -4.024544      -109.5134
  18   1.0000      -4.023738      -109.4915
  19   1.0000      -4.023703      -109.4905
  20   1.0000      -2.942515       -80.0699
  21   1.0000      -2.249020       -61.1989
  22   1.0000      -2.248758       -61.1918
  23   1.0000      -2.248669       -61.1894
  24   1.0000      -2.248491       -61.1845
  25   1.0000      -2.247781       -61.1652
  26   1.0000      -2.247626       -61.1610
  27   1.0000      -2.247519       -61.1581
  28   1.0000      -2.247337       -61.1532
  29   1.0000      -2.246268       -61.1241
  30   1.0000      -2.246068       -61.1186
  31   1.0000      -2.245346       -61.0990
  32   1.0000      -2.245146       -61.0935
  33   1.0000      -2.244823       -61.0848
  34   1.0000      -2.244645       -61.0799
  35   1.0000      -2.244317       -61.0710
  36   1.0000      -2.243817       -61.0574
  37   1.0000      -2.243650       -61.0528
  38   1.0000      -2.243522       -61.0493
  39   1.0000      -2.243375       -61.0453
  40   1.0000      -2.243287       -61.0430
  41   1.0000      -2.243119       -61.0384
  42   1.0000      -2.242402       -61.0189
  43   1.0000      -2.242373       -61.0181
  44   1.0000      -2.242332       -61.0170
  45   1.0000      -2.241980       -61.0074
  46   1.0000      -2.241675       -60.9991
  47   1.0000      -2.240700       -60.9726
  48   1.0000      -2.240461       -60.9660
  49   1.0000      -2.239890       -60.9505
  50   1.0000      -2.239572       -60.9419
  51   1.0000      -2.238506       -60.9128
  52   1.0000      -2.237984       -60.8986
  53   1.0000      -2.237943       -60.8975
  54   1.0000      -2.237637       -60.8892
  55   1.0000      -2.237519       -60.8860
  56   1.0000      -2.237498       -60.8854
  57   1.0000      -2.236715       -60.8641
  58   1.0000      -2.236494       -60.8581
  59   1.0000      -2.236372       -60.8548
  60   1.0000      -2.236208       -60.8503
  61   1.0000      -2.236202       -60.8501
  62   1.0000      -2.236156       -60.8489
  63   1.0000      -2.235884       -60.8415
  64   1.0000      -2.235653       -60.8352
  65   1.0000      -2.235566       -60.8328
  66   1.0000      -1.849313       -50.3224
  67   1.0000      -1.847949       -50.2853
  68   1.0000      -1.847478       -50.2724
  69   1.0000      -0.432326       -11.7642
  70   1.0000      -0.393236       -10.7005
  71   1.0000      -0.390911       -10.6372
  72   1.0000      -0.388165       -10.5625
  73   1.0000      -0.376142       -10.2353
  74   1.0000      -0.374948       -10.2029
  75   1.0000      -0.369286       -10.0488
  76   1.0000      -0.368711       -10.0331
  77   1.0000      -0.367826       -10.0090
  78   1.0000      -0.363446        -9.8899
  79   1.0000      -0.362233        -9.8569
  80   1.0000      -0.359979        -9.7955
  81   1.0000      -0.352955        -9.6044
  82   1.0000      -0.352662        -9.5964
  83   1.0000      -0.351698        -9.5702
  84   1.0000      -0.348912        -9.4944
  85   1.0000      -0.348279        -9.4771
  86   1.0000      -0.345497        -9.4015
  87   1.0000      -0.344385        -9.3712
  88   1.0000      -0.344004        -9.3608
  89   1.0000      -0.343472        -9.3463
  90   1.0000      -0.342152        -9.3104
  91   1.0000      -0.339195        -9.2300
  92   1.0000      -0.336180        -9.1479
  93   1.0000      -0.335408        -9.1269
  94   1.0000      -0.335089        -9.1182
  95   1.0000      -0.330061        -8.9814
  96   1.0000      -0.328654        -8.9431
  97   1.0000      -0.324084        -8.8188
  98   1.0000      -0.317291        -8.6339
  99   1.0000      -0.317085        -8.6283
 100   1.0000      -0.315821        -8.5939
 101   1.0000      -0.312574        -8.5056
 102   1.0000      -0.311401        -8.4736
 103   1.0000      -0.310647        -8.4531
 104   1.0000      -0.307516        -8.3679
 105   1.0000      -0.306913        -8.3515
 106   1.0000      -0.306182        -8.3316
 107   1.0000      -0.296799        -8.0763
 108   1.0000      -0.292912        -7.9705
 109   1.0000      -0.291182        -7.9235
 110   1.0000      -0.290780        -7.9125
 111   1.0000      -0.290733        -7.9112
 112   1.0000      -0.289679        -7.8826
 113   1.0000      -0.289274        -7.8715
 114   1.0000      -0.286708        -7.8017
 115   1.0000      -0.282151        -7.6777
 116   1.0000      -0.278441        -7.5768
 117   1.0000      -0.276320        -7.5190
 118   1.0000      -0.276217        -7.5162
 119   1.0000      -0.276140        -7.5141
 120   1.0000      -0.274172        -7.4606
 121   1.0000      -0.273398        -7.4395
 122   1.0000      -0.272553        -7.4165
 123   1.0000      -0.269236        -7.3263
 124   1.0000      -0.269020        -7.3204
 125   1.0000      -0.267817        -7.2877
 126   1.0000      -0.264399        -7.1947
 127   1.0000      -0.264334        -7.1929
 128   1.0000      -0.263721        -7.1762
 129   1.0000      -0.262112        -7.1324
 130   1.0000      -0.260910        -7.0997
 131   1.0000      -0.260415        -7.0862
 132   1.0000      -0.259207        -7.0534
 133   1.0000      -0.259040        -7.0488
 134   1.0000      -0.258890        -7.0448
 135   1.0000      -0.256886        -6.9902
 136   1.0000      -0.256717        -6.9856
 137   1.0000      -0.256630        -6.9833
 138   1.0000      -0.255391        -6.9495
 139   1.0000      -0.253164        -6.8889
 140   1.0000      -0.252177        -6.8621
 141   1.0000      -0.250686        -6.8215
 142   1.0000      -0.249288        -6.7835
 143   1.0000      -0.248867        -6.7720
 144   1.0000      -0.246260        -6.7011
 145   1.0000      -0.239632        -6.5207
 146   1.0000      -0.238583        -6.4922
 147   1.0000      -0.230931        -6.2840
 148   1.0000      -0.230554        -6.2737
 149   1.0000      -0.219845        -5.9823
 150   1.0000      -0.210964        -5.7406
 151   1.0000      -0.204586        -5.5671
 152   1.0000      -0.196929        -5.3587
 153   0.0000      -0.149185        -4.0595
 154   0.0000      -0.145968        -3.9720
 155   0.0000      -0.137709        -3.7472
 156   0.0000      -0.128195        -3.4884
 157   0.0000      -0.126625        -3.4457

MULLIKEN ATOMIC CHARGES AND SPIN POPULATIONS
--------------------------------------------
   0 Au:   -0.064776   -0.016902
   1 Au:    0.125571    0.052124
   2 Au:    0.164960   -0.022654
   3 Au:    0.348826   -0.100016
   4 Au:   -0.064459   -0.016559
   5 Au:    0.372633   -0.008554
   6 Au:    0.163487   -0.023132
   7 Au:    0.161586   -0.022686
   8 Au:    0.124025    0.051947
   9 Au:    0.124151    0.051751
  10 Au:    0.162165   -0.023316
  11 Au:    0.373112   -0.008250
  12 Au:    0.357217    0.008965
  13 Au:    0.349317   -0.099901
  14 Au:    0.123741    0.052479
  15 Mn:   -2.821555    4.124705
Sum of atomic charges         :    0.0000000

LOEWDIN ATOMIC CHARGES AND SPIN POPULATIONS
-------------------------------------------
   0 Au:   -0.025000   -0.004404
   1 Au:    0.022102    0.017559
   2 Au:    0.033812   -0.037035
   3 Au:    0.062849   -0.042038
   4 Au:   -0.025072   -0.004333
   5 Au:    0.095529   -0.034345
   6 Au:    0.033862   -0.036947
   7 Au:    0.032761   -0.036866
   8 Au:    0.021487    0.017448
   9 Au:    0.021866    0.017273
  10 Au:    0.033225   -0.037178
  11 Au:    0.095788   -0.034003
  12 Au:    0.085523    0.006863
  13 Au:    0.063215   -0.042011
  14 Au:    0.021970    0.017912
  15 Mn:   -0.573914    4.232106

  Mayer bond orders larger than 0.100000
B(  0-Au,  2-Au) :   0.1963 B(  0-Au,  4-Au) :   0.1898 B(  0-Au,  5-Au) :   0.2639
B(  0-Au, 10-Au) :   0.1989 B(  0-Au, 11-Au) :   0.2626 B(  0-Au, 13-Au) :   0.2238
B(  0-Au, 15-Mn) :   0.3906 B(  1-Au,  3-Au) :   0.2010 B(  1-Au,  6-Au) :   0.2672
B(  1-Au,  8-Au) :   0.1396 B(  1-Au, 12-Au) :   0.2835 B(  1-Au, 14-Au) :   0.1755
B(  1-Au, 15-Mn) :   0.4018 B(  2-Au,  5-Au) :   0.3007 B(  2-Au,  6-Au) :   0.1514
B(  2-Au, 13-Au) :   0.1816 B(  2-Au, 14-Au) :   0.2676 B(  2-Au, 15-Mn) :   0.4008
B(  3-Au,  4-Au) :   0.2246 B(  3-Au,  6-Au) :   0.1815 B(  3-Au,  7-Au) :   0.1821
B(  3-Au,  8-Au) :   0.2017 B(  3-Au, 15-Mn) :   0.4067 B(  4-Au,  5-Au) :   0.2628
B(  4-Au,  6-Au) :   0.1968 B(  4-Au,  7-Au) :   0.1963 B(  4-Au, 11-Au) :   0.2631
B(  4-Au, 15-Mn) :   0.3899 B(  5-Au,  6-Au) :   0.2997 B(  6-Au, 15-Mn) :   0.4029
B(  7-Au,  8-Au) :   0.2686 B(  7-Au, 10-Au) :   0.1523 B(  7-Au, 11-Au) :   0.3013
B(  7-Au, 15-Mn) :   0.4003 B(  8-Au,  9-Au) :   0.1754 B(  8-Au, 12-Au) :   0.2838
B(  8-Au, 15-Mn) :   0.4005 B(  9-Au, 10-Au) :   0.2688 B(  9-Au, 12-Au) :   0.2845
B(  9-Au, 13-Au) :   0.2013 B(  9-Au, 14-Au) :   0.1385 B(  9-Au, 15-Mn) :   0.4010
B( 10-Au, 11-Au) :   0.3000 B( 10-Au, 13-Au) :   0.1814 B( 10-Au, 15-Mn) :   0.4012
B( 12-Au, 14-Au) :   0.2843 B( 13-Au, 14-Au) :   0.2024 B( 13-Au, 15-Mn) :   0.4075
B( 14-Au, 15-Mn) :   0.4028

FINAL SINGLE POINT ENERGY     -3188.226147069402

DIPOLE MOMENT
-------------
                                X             Y             Z
Electronic contribution:     -2.43208       4.50553      -3.17457
Nuclear contribution   :      2.38373      -4.41227       3.10364
                        -----------------------------------------
Total Dipole Moment    :     -0.04835       0.09326      -0.07093
                        -----------------------------------------
Magnitude (a.u.)       :      0.12675
Magnitude (Debye)      :      0.32217

Rotational constants in cm-1:     0.001090     0.000869     0.000843
Rotational constants in MHz :    32.671727    26.039582    25.277905

                             ****ORCA TERMINATED NORMALLY****
TOTAL RUN TIME: 0 days 0 hours 45 minutes 43 seconds 356 msec
