                         Program Version 5.0.3 -  RELEASE  -
|  1> %pal nprocs 1 end
|  2>
|  3> !PBE def2-TZVP OPT UNO
|  4> !SLOWCONV KDIIS
|  5>
|  6> %geom maxiter 300 end
|  7>
|  8> *xyzfile 0 3 5.xyz                           ****END OF INPUT****
 Total Charge           Charge          ....    0
 Multiplicity           Mult            ....    3
 Number of Electrons    NEL             ....  216
FINAL SINGLE POINT ENERGY     -2621.725178280480
FINAL SINGLE POINT ENERGY     -2621.725450267585
FINAL SINGLE POINT ENERGY     -2621.725843284611
FINAL SINGLE POINT ENERGY     -2621.726042228604
FINAL SINGLE POINT ENERGY     -2621.726357558835
FINAL SINGLE POINT ENERGY     -2621.726489024525
FINAL SINGLE POINT ENERGY     -2621.726581924912
FINAL SINGLE POINT ENERGY     -2621.726665979499
FINAL SINGLE POINT ENERGY     -2621.726727372933
FINAL SINGLE POINT ENERGY     -2621.726778287528
FINAL SINGLE POINT ENERGY     -2621.726795859671
FINAL SINGLE POINT ENERGY     -2621.726813342699
FINAL SINGLE POINT ENERGY     -2621.726815110503
                    ***********************HURRAY********************

CARTESIAN COORDINATES (ANGSTROEM)
---------------------------------
  Au     7.396864    6.375312    6.488323
  Au     8.288566    9.110046    6.948014
  Au     9.434052    7.454374    5.185402
  Au     6.407517    5.482329    8.917534
  Au     4.654632    6.398719    6.896739
  Au     6.003734   10.548342    7.621372
  Au     6.658708    7.396158   10.850816
  Au     7.738378    9.649937    9.620915
  Au     4.794366    9.306435   10.073550
  Au     3.761590    8.902733    7.525188
  Fe     6.197522    8.000707    8.262548

 Multiplicity           Mult            ....    3
 Number of Electrons    NEL             ....  216
 Basis Dimension        Dim             ....  445

ORBITAL ENERGIES
----------------
                 SPIN UP ORBITALS
  NO   OCC          E(Eh)            E(eV)
   0   1.0000    -254.738939     -6931.7989
   1   1.0000     -29.575166      -804.7812
   2   1.0000     -25.516902      -694.3502
   3   1.0000     -25.510236      -694.1688
   4   1.0000     -25.506042      -694.0547
   5   1.0000      -4.025810      -109.5479
   6   1.0000      -4.020871      -109.4134
   7   1.0000      -4.020493      -109.4032
   8   1.0000      -4.020380      -109.4001
   9   1.0000      -4.019434      -109.3744
  10   1.0000      -4.019295      -109.3706
  11   1.0000      -4.015105      -109.2566
  12   1.0000      -4.015086      -109.2560
  13   1.0000      -4.012708      -109.1913
  14   1.0000      -4.004896      -108.9787
  15   1.0000      -3.350441       -91.1701
  16   1.0000      -2.245363       -61.0994
  17   1.0000      -2.240492       -60.9669
  18   1.0000      -2.238615       -60.9158
  19   1.0000      -2.237185       -60.8769
  20   1.0000      -2.237132       -60.8754
  21   1.0000      -2.236417       -60.8560
  22   1.0000      -2.236180       -60.8496
  23   1.0000      -2.234587       -60.8062
  24   1.0000      -2.234157       -60.7945
  25   1.0000      -2.233887       -60.7872
  26   1.0000      -2.233779       -60.7842
  27   1.0000      -2.232859       -60.7592
  28   1.0000      -2.232215       -60.7417
  29   1.0000      -2.230956       -60.7074
  30   1.0000      -2.230848       -60.7044
  31   1.0000      -2.230460       -60.6939
  32   1.0000      -2.229564       -60.6695
  33   1.0000      -2.228748       -60.6473
  34   1.0000      -2.228533       -60.6415
  35   1.0000      -2.228311       -60.6354
  36   1.0000      -2.228256       -60.6339
  37   1.0000      -2.228071       -60.6289
  38   1.0000      -2.227162       -60.6042
  39   1.0000      -2.226512       -60.5865
  40   1.0000      -2.224371       -60.5282
  41   1.0000      -2.223837       -60.5137
  42   1.0000      -2.223528       -60.5053
  43   1.0000      -2.221624       -60.4535
  44   1.0000      -2.218446       -60.3670
  45   1.0000      -2.210525       -60.1515
  46   1.0000      -2.176581       -59.2278
  47   1.0000      -2.162373       -58.8412
  48   1.0000      -2.154316       -58.6219
  49   1.0000      -0.413261       -11.2454
  50   1.0000      -0.379407       -10.3242
  51   1.0000      -0.373514       -10.1638
  52   1.0000      -0.360760        -9.8168
  53   1.0000      -0.358293        -9.7496
  54   1.0000      -0.352195        -9.5837
  55   1.0000      -0.342497        -9.3198
  56   1.0000      -0.339462        -9.2372
  57   1.0000      -0.335225        -9.1219
  58   1.0000      -0.333643        -9.0789
  59   1.0000      -0.329273        -8.9600
  60   1.0000      -0.326417        -8.8822
  61   1.0000      -0.325567        -8.8591
  62   1.0000      -0.324932        -8.8418
  63   1.0000      -0.322495        -8.7755
  64   1.0000      -0.320718        -8.7272
  65   1.0000      -0.319335        -8.6895
  66   1.0000      -0.317696        -8.6449
  67   1.0000      -0.311359        -8.4725
  68   1.0000      -0.310713        -8.4549
  69   1.0000      -0.306627        -8.3437
  70   1.0000      -0.306355        -8.3363
  71   1.0000      -0.305376        -8.3097
  72   1.0000      -0.298784        -8.1303
  73   1.0000      -0.298560        -8.1242
  74   1.0000      -0.293060        -7.9746
  75   1.0000      -0.292608        -7.9623
  76   1.0000      -0.288063        -7.8386
  77   1.0000      -0.279840        -7.6148
  78   1.0000      -0.274493        -7.4693
  79   1.0000      -0.274212        -7.4617
  80   1.0000      -0.272468        -7.4142
  81   1.0000      -0.270234        -7.3534
  82   1.0000      -0.269422        -7.3313
  83   1.0000      -0.268476        -7.3056
  84   1.0000      -0.266804        -7.2601
  85   1.0000      -0.264618        -7.2006
  86   1.0000      -0.263631        -7.1738
  87   1.0000      -0.260373        -7.0851
  88   1.0000      -0.259899        -7.0722
  89   1.0000      -0.257531        -7.0078
  90   1.0000      -0.257281        -7.0010
  91   1.0000      -0.255579        -6.9547
  92   1.0000      -0.250762        -6.8236
  93   1.0000      -0.250521        -6.8170
  94   1.0000      -0.249006        -6.7758
  95   1.0000      -0.246704        -6.7132
  96   1.0000      -0.243228        -6.6186
  97   1.0000      -0.242281        -6.5928
  98   1.0000      -0.241586        -6.5739
  99   1.0000      -0.239245        -6.5102
 100   1.0000      -0.237884        -6.4731
 101   1.0000      -0.237476        -6.4621
 102   1.0000      -0.235715        -6.4141
 103   1.0000      -0.232873        -6.3368
 104   1.0000      -0.232124        -6.3164
 105   1.0000      -0.230190        -6.2638
 106   1.0000      -0.224573        -6.1109
 107   1.0000      -0.219471        -5.9721
 108   1.0000      -0.201862        -5.4930
 109   0.0000      -0.165820        -4.5122
 110   0.0000      -0.161808        -4.4030
 111   0.0000      -0.135128        -3.6770
 112   0.0000      -0.133837        -3.6419
 113   0.0000      -0.128352        -3.4926

                 SPIN DOWN ORBITALS
  NO   OCC          E(Eh)            E(eV)
   0   1.0000    -254.738285     -6931.7811
   1   1.0000     -29.521540      -803.3219
   2   1.0000     -25.474310      -693.1912
   3   1.0000     -25.470389      -693.0845
   4   1.0000     -25.466974      -692.9916
   5   1.0000      -4.025422      -109.5373
   6   1.0000      -4.020776      -109.4109
   7   1.0000      -4.020447      -109.4019
   8   1.0000      -4.020336      -109.3989
   9   1.0000      -4.019322      -109.3713
  10   1.0000      -4.019180      -109.3675
  11   1.0000      -4.015302      -109.2619
  12   1.0000      -4.015271      -109.2611
  13   1.0000      -4.012805      -109.1940
  14   1.0000      -4.005285      -108.9893
  15   1.0000      -3.228860       -87.8617
  16   1.0000      -2.244886       -61.0865
  17   1.0000      -2.240248       -60.9602
  18   1.0000      -2.237726       -60.8916
  19   1.0000      -2.236709       -60.8640
  20   1.0000      -2.236653       -60.8624
  21   1.0000      -2.235795       -60.8391
  22   1.0000      -2.235718       -60.8370
  23   1.0000      -2.234620       -60.8071
  24   1.0000      -2.234315       -60.7988
  25   1.0000      -2.233909       -60.7877
  26   1.0000      -2.233764       -60.7838
  27   1.0000      -2.232652       -60.7536
  28   1.0000      -2.232336       -60.7449
  29   1.0000      -2.230693       -60.7003
  30   1.0000      -2.230662       -60.6994
  31   1.0000      -2.230539       -60.6960
  32   1.0000      -2.229760       -60.6748
  33   1.0000      -2.228629       -60.6441
  34   1.0000      -2.228540       -60.6416
  35   1.0000      -2.228501       -60.6406
  36   1.0000      -2.228243       -60.6336
  37   1.0000      -2.228207       -60.6326
  38   1.0000      -2.227120       -60.6030
  39   1.0000      -2.226824       -60.5950
  40   1.0000      -2.224710       -60.5374
  41   1.0000      -2.224177       -60.5229
  42   1.0000      -2.224010       -60.5184
  43   1.0000      -2.222008       -60.4639
  44   1.0000      -2.219134       -60.3857
  45   1.0000      -2.210623       -60.1541
  46   1.0000      -2.051477       -55.8235
  47   1.0000      -2.045587       -55.6633
  48   1.0000      -2.039092       -55.4865
  49   1.0000      -0.408788       -11.1237
  50   1.0000      -0.379549       -10.3281
  51   1.0000      -0.371756       -10.1160
  52   1.0000      -0.355182        -9.6650
  53   1.0000      -0.354931        -9.6582
  54   1.0000      -0.346366        -9.4251
  55   1.0000      -0.338190        -9.2026
  56   1.0000      -0.336886        -9.1671
  57   1.0000      -0.333983        -9.0881
  58   1.0000      -0.332110        -9.0372
  59   1.0000      -0.328282        -8.9330
  60   1.0000      -0.325846        -8.8667
  61   1.0000      -0.325372        -8.8538
  62   1.0000      -0.323142        -8.7931
  63   1.0000      -0.321286        -8.7426
  64   1.0000      -0.319338        -8.6896
  65   1.0000      -0.319266        -8.6877
  66   1.0000      -0.315676        -8.5900
  67   1.0000      -0.307518        -8.3680
  68   1.0000      -0.306292        -8.3346
  69   1.0000      -0.305374        -8.3096
  70   1.0000      -0.303700        -8.2641
  71   1.0000      -0.302363        -8.2277
  72   1.0000      -0.297777        -8.1029
  73   1.0000      -0.297100        -8.0845
  74   1.0000      -0.294077        -8.0023
  75   1.0000      -0.293683        -7.9915
  76   1.0000      -0.288786        -7.8583
  77   1.0000      -0.276153        -7.5145
  78   1.0000      -0.275540        -7.4978
  79   1.0000      -0.273303        -7.4370
  80   1.0000      -0.271206        -7.3799
  81   1.0000      -0.269604        -7.3363
  82   1.0000      -0.268475        -7.3056
  83   1.0000      -0.268353        -7.3023
  84   1.0000      -0.265084        -7.2133
  85   1.0000      -0.264547        -7.1987
  86   1.0000      -0.264177        -7.1886
  87   1.0000      -0.260330        -7.0839
  88   1.0000      -0.259420        -7.0592
  89   1.0000      -0.257942        -7.0190
  90   1.0000      -0.256776        -6.9872
  91   1.0000      -0.255526        -6.9532
  92   1.0000      -0.251134        -6.8337
  93   1.0000      -0.249646        -6.7932
  94   1.0000      -0.248187        -6.7535
  95   1.0000      -0.244582        -6.6554
  96   1.0000      -0.243151        -6.6165
  97   1.0000      -0.240899        -6.5552
  98   1.0000      -0.239519        -6.5176
  99   1.0000      -0.239103        -6.5063
 100   1.0000      -0.236402        -6.4328
 101   1.0000      -0.234377        -6.3777
 102   1.0000      -0.230247        -6.2653
 103   1.0000      -0.211210        -5.7473
 104   1.0000      -0.189721        -5.1626
 105   1.0000      -0.185162        -5.0385
 106   1.0000      -0.171043        -4.6543
 107   0.0000      -0.149760        -4.0752
 108   0.0000      -0.149440        -4.0665
 109   0.0000      -0.144112        -3.9215
 110   0.0000      -0.139347        -3.7918
 111   0.0000      -0.131809        -3.5867

MULLIKEN ATOMIC CHARGES AND SPIN POPULATIONS
--------------------------------------------
   0 Au:   -0.031681   -0.064164
   1 Au:   -0.062755   -0.024121
   2 Au:    0.265584    0.018363
   3 Au:    0.250595   -0.145065
   4 Au:    0.249021   -0.145452
   5 Au:    0.271477   -0.102814
   6 Au:    0.215727   -0.088489
   7 Au:    0.273042   -0.102681
   8 Au:    0.202420   -0.088991
   9 Au:    0.216575   -0.088798
  10 Fe:   -1.850005    2.832212
Sum of atomic charges         :   -0.0000000

LOEWDIN ATOMIC CHARGES AND SPIN POPULATIONS
-------------------------------------------
   0 Au:   -0.031740   -0.041066
   1 Au:   -0.016277   -0.016219
   2 Au:    0.088804    0.003020
   3 Au:    0.101385   -0.133867
   4 Au:    0.101220   -0.133939
   5 Au:    0.073933   -0.087511
   6 Au:    0.073017   -0.121260
   7 Au:    0.073807   -0.087397
   8 Au:    0.044580   -0.086690
   9 Au:    0.072815   -0.121919
  10 Fe:   -0.581543    2.826847

  Mayer bond orders larger than 0.100000
B(  0-Au,  1-Au) :   0.2398 B(  0-Au,  2-Au) :   0.5780 B(  0-Au,  3-Au) :   0.2132
B(  0-Au,  4-Au) :   0.2108 B(  0-Au, 10-Fe) :   0.4738 B(  1-Au,  2-Au) :   0.5177
B(  1-Au,  5-Au) :   0.2403 B(  1-Au,  7-Au) :   0.2409 B(  1-Au, 10-Fe) :   0.4968
B(  2-Au, 10-Fe) :   0.1037 B(  3-Au,  4-Au) :   0.1450 B(  3-Au,  6-Au) :   0.2654
B(  3-Au, 10-Fe) :   0.6307 B(  4-Au,  9-Au) :   0.2662 B(  4-Au, 10-Fe) :   0.6319
B(  5-Au,  7-Au) :   0.1848 B(  5-Au,  9-Au) :   0.2255 B(  5-Au, 10-Fe) :   0.5988
B(  6-Au,  7-Au) :   0.2237 B(  6-Au,  8-Au) :   0.2721 B(  6-Au, 10-Fe) :   0.5199
B(  7-Au, 10-Fe) :   0.5972 B(  8-Au,  9-Au) :   0.2732 B(  8-Au, 10-Fe) :   0.6275
B(  9-Au, 10-Fe) :   0.5171

FINAL SINGLE POINT ENERGY     -2621.726815562799

DIPOLE MOMENT
-------------
                                X             Y             Z
Electronic contribution:     11.96552       2.32528      -9.45293
Nuclear contribution   :    -11.98154      -2.33828       9.46051
                        -----------------------------------------
Total Dipole Moment    :     -0.01602      -0.01300       0.00758
                        -----------------------------------------
Magnitude (a.u.)       :      0.02198
Magnitude (Debye)      :      0.05587

Rotational constants in cm-1:     0.001990     0.001476     0.001349
Rotational constants in MHz :    59.664077    44.256980    40.440593

                             ****ORCA TERMINATED NORMALLY****
TOTAL RUN TIME: 0 days 1 hours 12 minutes 23 seconds 362 msec
