                         Program Version 5.0.3 -  RELEASE  -
|  1> !SC-NEVPT2 def2-TZVP def2-TZVP/C
|  2> !MOREAD RIJCOSX def2/J
|  3> %maxcore 4000
|  4> %moinp "casscf.gbw"
|  5> %pal nprocs 6 end
|  6>
|  7> %casscf
|  8>  mult 6,4
|  9>  bweight 1,1
| 10>  nroots 1,24
| 11>  nel 5
| 12>  norb 5
| 13>  ptsettings
| 14>   d4tpre 1e-14 # default = 1e-10
| 15>   d3tpre 1e-14
| 16>  end
| 17>  rel
| 18>    dosoc true
| 19>    gtensor true
| 20>  end
| 21> end
| 22>
| 23>
| 24> *xyzfile 0 6 pbe.xyz
| 25>
| 26>
| 27>                          ****END OF INPUT****

CARTESIAN COORDINATES (ANGSTROEM)
---------------------------------
  Au     9.530715    5.694890    5.281152
  Au    10.518164    5.416299    9.281785
  Au     8.754077    4.249989    7.503100
  Au     8.013763    5.806430   10.195361
  Au     9.977513    8.014137    9.915276
  Au     8.850638    8.337943    5.323241
  Au     6.247108    5.185222    8.178305
  Au     4.790025    7.246430    6.941548
  Au     5.595540    7.011065   10.216113
  Au     4.831743    9.335973    8.826054
  Au     6.903198    6.134351    5.680381
  Au     6.737488    9.181141    6.820619
  Au     7.440581    8.978228    9.690303
  Au     9.259749    9.685796    7.764773
  Mn     8.583790    6.974194    7.737390

 Total Charge           Charge          ....    0
 Multiplicity           Mult            ....    6
 Number of Electrons    NEL             ....  291
 Basis Dimension        Dim             ....  605

ORBITAL ENERGIES
----------------

  NO   OCC          E(Eh)            E(eV)
   0   2.0000    -240.568977     -6546.2147
   1   2.0000     -29.142066      -792.9959
   2   2.0000     -24.847839      -676.1441
   3   2.0000     -24.846750      -676.1144
   4   2.0000     -24.846713      -676.1134
   5   2.0000      -4.719747      -128.4308
   6   2.0000      -4.719588      -128.4265
   7   2.0000      -4.719484      -128.4237
   8   2.0000      -4.716956      -128.3549
   9   2.0000      -4.716825      -128.3513
  10   2.0000      -4.715623      -128.3186
  11   2.0000      -4.712768      -128.2409
  12   2.0000      -4.712686      -128.2387
  13   2.0000      -4.709441      -128.1504
  14   2.0000      -4.709308      -128.1468
  15   2.0000      -4.709252      -128.1453
  16   2.0000      -4.707709      -128.1033
  17   2.0000      -4.707603      -128.1004
  18   2.0000      -4.706914      -128.0816
  19   2.0000      -3.846818      -104.6772
  20   2.0000      -2.760504       -75.1171
  21   2.0000      -2.759777       -75.0973
  22   2.0000      -2.759217       -75.0821
  23   2.0000      -2.758656       -75.0669
  24   2.0000      -2.757470       -75.0346
  25   2.0000      -2.757221       -75.0278
  26   2.0000      -2.756219       -75.0005
  27   2.0000      -2.755116       -74.9705
  28   2.0000      -2.754195       -74.9455
  29   2.0000      -2.754103       -74.9430
  30   2.0000      -2.753338       -74.9221
  31   2.0000      -2.752667       -74.9039
  32   2.0000      -2.752001       -74.8857
  33   2.0000      -2.751947       -74.8843
  34   2.0000      -2.750829       -74.8539
  35   2.0000      -2.750717       -74.8508
  36   2.0000      -2.750452       -74.8436
  37   2.0000      -2.750210       -74.8370
  38   2.0000      -2.749776       -74.8252
  39   2.0000      -2.748717       -74.7964
  40   2.0000      -2.748326       -74.7858
  41   2.0000      -2.747694       -74.7685
  42   2.0000      -2.746952       -74.7484
  43   2.0000      -2.746502       -74.7361
  44   2.0000      -2.746318       -74.7311
  45   2.0000      -2.745591       -74.7113
  46   2.0000      -2.745404       -74.7062
  47   2.0000      -2.744809       -74.6901
  48   2.0000      -2.744265       -74.6752
  49   2.0000      -2.743822       -74.6632
  50   2.0000      -2.743666       -74.6589
  51   2.0000      -2.743351       -74.6504
  52   2.0000      -2.742754       -74.6341
  53   2.0000      -2.742487       -74.6269
  54   2.0000      -2.742296       -74.6217
  55   2.0000      -2.742183       -74.6186
  56   2.0000      -2.742133       -74.6172
  57   2.0000      -2.741727       -74.6062
  58   2.0000      -2.740994       -74.5862
  59   2.0000      -2.740673       -74.5775
  60   2.0000      -2.739141       -74.5358
  61   2.0000      -2.738206       -74.5104
  62   2.0000      -2.515680       -68.4551
  63   2.0000      -2.514931       -68.4347
  64   2.0000      -2.514730       -68.4293
  65   2.0000      -0.573055       -15.5936
  66   2.0000      -0.560199       -15.2438
  67   2.0000      -0.554945       -15.1008
  68   2.0000      -0.553043       -15.0491
  69   2.0000      -0.551075       -14.9955
  70   2.0000      -0.550426       -14.9778
  71   2.0000      -0.549089       -14.9415
  72   2.0000      -0.548336       -14.9210
  73   2.0000      -0.543115       -14.7789
  74   2.0000      -0.542009       -14.7488
  75   2.0000      -0.541230       -14.7276
  76   2.0000      -0.538468       -14.6525
  77   2.0000      -0.537396       -14.6233
  78   2.0000      -0.536492       -14.5987
  79   2.0000      -0.535667       -14.5762
  80   2.0000      -0.530538       -14.4367
  81   2.0000      -0.529403       -14.4058
  82   2.0000      -0.529016       -14.3952
  83   2.0000      -0.524879       -14.2827
  84   2.0000      -0.524767       -14.2796
  85   2.0000      -0.516249       -14.0478
  86   2.0000      -0.515385       -14.0243
  87   2.0000      -0.513163       -13.9639
  88   2.0000      -0.510416       -13.8891
  89   2.0000      -0.510363       -13.8877
  90   2.0000      -0.509459       -13.8631
  91   2.0000      -0.506725       -13.7887
  92   2.0000      -0.505815       -13.7639
  93   2.0000      -0.501200       -13.6383
  94   2.0000      -0.499724       -13.5982
  95   2.0000      -0.493802       -13.4370
  96   2.0000      -0.487531       -13.2664
  97   2.0000      -0.484190       -13.1755
  98   2.0000      -0.478149       -13.0111
  99   2.0000      -0.475983       -12.9522
 100   2.0000      -0.470877       -12.8132
 101   2.0000      -0.469955       -12.7881
 102   2.0000      -0.467661       -12.7257
 103   2.0000      -0.465002       -12.6534
 104   2.0000      -0.463851       -12.6220
 105   2.0000      -0.461160       -12.5488
 106   2.0000      -0.458693       -12.4817
 107   2.0000      -0.457461       -12.4481
 108   2.0000      -0.457361       -12.4454
 109   2.0000      -0.455732       -12.4011
 110   2.0000      -0.453949       -12.3526
 111   2.0000      -0.451306       -12.2807
 112   2.0000      -0.449595       -12.2341
 113   2.0000      -0.447482       -12.1766
 114   2.0000      -0.447239       -12.1700
 115   2.0000      -0.445257       -12.1160
 116   2.0000      -0.443380       -12.0650
 117   2.0000      -0.442174       -12.0322
 118   2.0000      -0.439997       -11.9729
 119   2.0000      -0.439041       -11.9469
 120   2.0000      -0.436296       -11.8722
 121   2.0000      -0.436034       -11.8651
 122   2.0000      -0.434117       -11.8129
 123   2.0000      -0.433385       -11.7930
 124   2.0000      -0.431676       -11.7465
 125   2.0000      -0.426711       -11.6114
 126   2.0000      -0.422492       -11.4966
 127   2.0000      -0.421924       -11.4811
 128   2.0000      -0.420371       -11.4389
 129   2.0000      -0.419922       -11.4267
 130   2.0000      -0.415072       -11.2947
 131   2.0000      -0.411971       -11.2103
 132   2.0000      -0.411649       -11.2015
 133   2.0000      -0.403932       -10.9916
 134   2.0000      -0.395302       -10.7567
 135   2.0000      -0.384852       -10.4724
 136   2.0000      -0.370282       -10.0759
 137   2.0000      -0.363786        -9.8991
 138   2.0000      -0.352193        -9.5837
 139   2.0000      -0.253399        -6.8953
 140   2.0000      -0.250691        -6.8217
 141   2.0000      -0.235188        -6.3998
 142   2.0000      -0.226903        -6.1743
 143   1.0000      -0.161779        -4.4022
 144   1.0000      -0.166984        -4.5439
 145   1.0000      -0.167466        -4.5570
 146   1.0000      -0.163425        -4.4470
 147   1.0000      -0.160742        -4.3740
 148   0.0000      -0.043606        -1.1866
 149   0.0000      -0.016332        -0.4444
 150   0.0000      -0.012054        -0.3280
 151   0.0000      -0.004856        -0.1321
 152   0.0000       0.013851         0.3769

MULLIKEN ATOMIC CHARGES AND SPIN DENSITIES
------------------------------------------
   0 Au:    0.313373    0.006709
   1 Au:    0.313546    0.006728
   2 Au:    0.082114    0.009998
   3 Au:   -0.058477    0.008487
   4 Au:    0.260075    0.009430
   5 Au:    0.260497    0.009455
   6 Au:   -0.006103    0.005065
   7 Au:    0.203714    0.003599
   8 Au:    0.202650    0.003614
   9 Au:    0.378393    0.002263
  10 Au:   -0.058924    0.008390
  11 Au:   -0.324406    0.006678
  12 Au:   -0.319975    0.006653
  13 Au:    0.348151    0.008209
  14 Mn:   -1.594627    3.904721
Sum of atomic charges       :    0.0000000

LOEWDIN ATOMIC CHARGES AND SPIN DENSITIES
-----------------------------------------
   0 Au:    0.084151    0.009272
   1 Au:    0.084640    0.009294
   2 Au:   -0.010621    0.012222
   3 Au:   -0.068416    0.011977
   4 Au:    0.036815    0.012554
   5 Au:    0.037199    0.012567
   6 Au:   -0.026639    0.007784
   7 Au:    0.037107    0.004055
   8 Au:    0.036780    0.004065
   9 Au:    0.121029    0.003321
  10 Au:   -0.068843    0.011876
  11 Au:   -0.114484    0.009166
  12 Au:   -0.114065    0.009147
  13 Au:    0.073733    0.012090
  14 Mn:   -0.108388    3.870610

  Mayer bond orders larger than 0.100000
B(  0-Au,  2-Au) :   0.1658 B(  0-Au,  5-Au) :   0.2047 B(  0-Au, 10-Au) :   0.3588
B(  0-Au, 14-Mn) :   0.3074 B(  1-Au,  2-Au) :   0.1647 B(  1-Au,  3-Au) :   0.3582
B(  1-Au,  4-Au) :   0.2053 B(  1-Au, 14-Mn) :   0.3081 B(  2-Au,  6-Au) :   0.2720
B(  2-Au, 14-Mn) :   0.4959 B(  3-Au,  4-Au) :   0.1208 B(  3-Au,  6-Au) :   0.2681
B(  3-Au,  8-Au) :   0.4520 B(  3-Au, 14-Mn) :   0.4373 B(  4-Au, 12-Au) :   0.3251
B(  4-Au, 13-Au) :   0.1081 B(  4-Au, 14-Mn) :   0.4137 B(  5-Au, 10-Au) :   0.1226
B(  5-Au, 11-Au) :   0.3249 B(  5-Au, 13-Au) :   0.1066 B(  5-Au, 14-Mn) :   0.4138
B(  6-Au,  7-Au) :   0.1686 B(  6-Au,  8-Au) :   0.1675 B(  6-Au, 10-Au) :   0.2683
B(  6-Au, 14-Mn) :   0.2650 B(  7-Au,  9-Au) :   0.1505 B(  7-Au, 10-Au) :   0.4519
B(  7-Au, 11-Au) :   0.3017 B(  8-Au,  9-Au) :   0.1506 B(  8-Au, 12-Au) :   0.3011
B(  9-Au, 11-Au) :   0.3342 B(  9-Au, 12-Au) :   0.3336 B( 10-Au, 14-Mn) :   0.4353
B( 11-Au, 12-Au) :   0.2460 B( 11-Au, 13-Au) :   0.3009 B( 11-Au, 14-Mn) :   0.3547
B( 12-Au, 13-Au) :   0.3008 B( 12-Au, 14-Mn) :   0.3527 B( 13-Au, 14-Mn) :   0.3349

FINAL SINGLE POINT ENERGY     -3044.137014641611

DIPOLE MOMENT
-------------
                                X             Y             Z
Electronic contribution:    -33.04603       6.95940       8.56448
Nuclear contribution   :     33.17091      -6.88089      -8.58960
                        -----------------------------------------
Total Dipole Moment    :      0.12488       0.07851      -0.02512
                        -----------------------------------------
Magnitude (a.u.)       :      0.14963
Magnitude (Debye)      :      0.38034

Rotational constants in cm-1:     0.001137     0.000970     0.000906
Rotational constants in MHz :    34.088371    29.065900    27.165973

                             ****ORCA TERMINATED NORMALLY****
TOTAL RUN TIME: 0 days 2 hours 13 minutes 19 seconds 122 msec
