                         Program Version 5.0.3 -  RELEASE  -
|  1> !CASSCF def2-TZVP def2-TZVP/C
|  2> !MOREAD RIJCOSX
|  3> %maxcore 6000
|  4> %moinp "pbe.qro"
|  5> %pal nprocs 6 end
|  6>
|  7> %casscf
|  8>  mult 6,4
|  9>  bweight 1,1
| 10>  nroots 1,24
| 11>  nel 5
| 12>  norb 5
| 13> end
| 14>
| 15>
| 16> *xyzfile 0 6 pbe.xyz
| 17>
| 18>
| 19>                          ****END OF INPUT****

CARTESIAN COORDINATES (ANGSTROEM)
---------------------------------
  Au     9.066252    6.810736    8.556787
  Au     9.000919    9.511091    7.546276
  Au     7.916612    9.616141    4.962143
  Au     9.043649    7.265093    5.844002
  Au     6.368438   10.988417    6.857036
  Au     7.756942   11.384502    9.194946
  Au     6.439604    6.700014    9.547191
  Au     5.582964    9.650762    9.453358
  Au     3.877062    9.764245    7.242295
  Au     3.867892    7.583181    8.918145
  Au     4.697005    5.098051    8.013328
  Au     5.175760    9.368957    4.846374
  Au     4.180812    7.086663    6.137360
  Au     7.186386    5.476470    6.955020
  Au     8.120389    8.800522   10.178319
  Au     6.557762    6.954462    4.642405
  Mn     6.530586    8.205715    7.181047

 Total Charge           Charge          ....    0
 Multiplicity           Mult            ....    6
 Number of Electrons    NEL             ....  329
 Basis Dimension        Dim             ....  685

ORBITAL ENERGIES
----------------

  NO   OCC          E(Eh)            E(eV)
   0   2.0000    -240.571594     -6546.2859
   1   2.0000     -29.143492      -793.0347
   2   2.0000     -24.848971      -676.1749
   3   2.0000     -24.848665      -676.1666
   4   2.0000     -24.848652      -676.1662
   5   2.0000      -4.721498      -128.4785
   6   2.0000      -4.720689      -128.4565
   7   2.0000      -4.720677      -128.4562
   8   2.0000      -4.719880      -128.4345
   9   2.0000      -4.718389      -128.3939
  10   2.0000      -4.717358      -128.3658
  11   2.0000      -4.716847      -128.3519
  12   2.0000      -4.716826      -128.3513
  13   2.0000      -4.714137      -128.2782
  14   2.0000      -4.713588      -128.2632
  15   2.0000      -4.713279      -128.2548
  16   2.0000      -4.712869      -128.2437
  17   2.0000      -4.712576      -128.2357
  18   2.0000      -4.712232      -128.2264
  19   2.0000      -4.711387      -128.2034
  20   2.0000      -4.710510      -128.1795
  21   2.0000      -3.848486      -104.7226
  22   2.0000      -2.760102       -75.1062
  23   2.0000      -2.759761       -75.0969
  24   2.0000      -2.759366       -75.0862
  25   2.0000      -2.758986       -75.0758
  26   2.0000      -2.758004       -75.0491
  27   2.0000      -2.757452       -75.0341
  28   2.0000      -2.757205       -75.0274
  29   2.0000      -2.757094       -75.0243
  30   2.0000      -2.756840       -75.0174
  31   2.0000      -2.756636       -75.0119
  32   2.0000      -2.756505       -75.0083
  33   2.0000      -2.756339       -75.0038
  34   2.0000      -2.755497       -74.9809
  35   2.0000      -2.755400       -74.9782
  36   2.0000      -2.754400       -74.9510
  37   2.0000      -2.754292       -74.9481
  38   2.0000      -2.753722       -74.9326
  39   2.0000      -2.753590       -74.9290
  40   2.0000      -2.753376       -74.9232
  41   2.0000      -2.752945       -74.9115
  42   2.0000      -2.752735       -74.9057
  43   2.0000      -2.752073       -74.8877
  44   2.0000      -2.751818       -74.8808
  45   2.0000      -2.751498       -74.8721
  46   2.0000      -2.750887       -74.8554
  47   2.0000      -2.750653       -74.8491
  48   2.0000      -2.749830       -74.8267
  49   2.0000      -2.749640       -74.8215
  50   2.0000      -2.749139       -74.8079
  51   2.0000      -2.748758       -74.7975
  52   2.0000      -2.748426       -74.7885
  53   2.0000      -2.748057       -74.7784
  54   2.0000      -2.747913       -74.7745
  55   2.0000      -2.747743       -74.7699
  56   2.0000      -2.747244       -74.7563
  57   2.0000      -2.746774       -74.7435
  58   2.0000      -2.746636       -74.7398
  59   2.0000      -2.746528       -74.7368
  60   2.0000      -2.746310       -74.7309
  61   2.0000      -2.746068       -74.7243
  62   2.0000      -2.746042       -74.7236
  63   2.0000      -2.745669       -74.7134
  64   2.0000      -2.745518       -74.7093
  65   2.0000      -2.745100       -74.6980
  66   2.0000      -2.744827       -74.6905
  67   2.0000      -2.744502       -74.6817
  68   2.0000      -2.744360       -74.6778
  69   2.0000      -2.744176       -74.6728
  70   2.0000      -2.517831       -68.5137
  71   2.0000      -2.517287       -68.4989
  72   2.0000      -2.517157       -68.4953
  73   2.0000      -0.582647       -15.8546
  74   2.0000      -0.560427       -15.2500
  75   2.0000      -0.557262       -15.1639
  76   2.0000      -0.556634       -15.1468
  77   2.0000      -0.555754       -15.1228
  78   2.0000      -0.552398       -15.0315
  79   2.0000      -0.551146       -14.9974
  80   2.0000      -0.550359       -14.9760
  81   2.0000      -0.549212       -14.9448
  82   2.0000      -0.548799       -14.9336
  83   2.0000      -0.548226       -14.9180
  84   2.0000      -0.546362       -14.8673
  85   2.0000      -0.545937       -14.8557
  86   2.0000      -0.544860       -14.8264
  87   2.0000      -0.544252       -14.8098
  88   2.0000      -0.543001       -14.7758
  89   2.0000      -0.541398       -14.7322
  90   2.0000      -0.540467       -14.7068
  91   2.0000      -0.538962       -14.6659
  92   2.0000      -0.537166       -14.6170
  93   2.0000      -0.536298       -14.5934
  94   2.0000      -0.533145       -14.5076
  95   2.0000      -0.532085       -14.4788
  96   2.0000      -0.530674       -14.4404
  97   2.0000      -0.527589       -14.3564
  98   2.0000      -0.525861       -14.3094
  99   2.0000      -0.523336       -14.2407
 100   2.0000      -0.518771       -14.1165
 101   2.0000      -0.516588       -14.0571
 102   2.0000      -0.511313       -13.9135
 103   2.0000      -0.509605       -13.8670
 104   2.0000      -0.508085       -13.8257
 105   2.0000      -0.505736       -13.7618
 106   2.0000      -0.502670       -13.6783
 107   2.0000      -0.500699       -13.6247
 108   2.0000      -0.498417       -13.5626
 109   2.0000      -0.497751       -13.5445
 110   2.0000      -0.486964       -13.2510
 111   2.0000      -0.486379       -13.2350
 112   2.0000      -0.480938       -13.0870
 113   2.0000      -0.479514       -13.0482
 114   2.0000      -0.476202       -12.9581
 115   2.0000      -0.473380       -12.8813
 116   2.0000      -0.468071       -12.7368
 117   2.0000      -0.466970       -12.7069
 118   2.0000      -0.462021       -12.5722
 119   2.0000      -0.460697       -12.5362
 120   2.0000      -0.460235       -12.5236
 121   2.0000      -0.459360       -12.4998
 122   2.0000      -0.457521       -12.4498
 123   2.0000      -0.456258       -12.4154
 124   2.0000      -0.453686       -12.3454
 125   2.0000      -0.452486       -12.3128
 126   2.0000      -0.450392       -12.2558
 127   2.0000      -0.449943       -12.2436
 128   2.0000      -0.449397       -12.2287
 129   2.0000      -0.448009       -12.1910
 130   2.0000      -0.447317       -12.1721
 131   2.0000      -0.446271       -12.1436
 132   2.0000      -0.445275       -12.1166
 133   2.0000      -0.443649       -12.0723
 134   2.0000      -0.440573       -11.9886
 135   2.0000      -0.439949       -11.9716
 136   2.0000      -0.436069       -11.8660
 137   2.0000      -0.435670       -11.8552
 138   2.0000      -0.434923       -11.8349
 139   2.0000      -0.433359       -11.7923
 140   2.0000      -0.430544       -11.7157
 141   2.0000      -0.424686       -11.5563
 142   2.0000      -0.423616       -11.5272
 143   2.0000      -0.423100       -11.5131
 144   2.0000      -0.422110       -11.4862
 145   2.0000      -0.421419       -11.4674
 146   2.0000      -0.420073       -11.4308
 147   2.0000      -0.418866       -11.3979
 148   2.0000      -0.417687       -11.3658
 149   2.0000      -0.409116       -11.1326
 150   2.0000      -0.404272       -11.0008
 151   2.0000      -0.397990       -10.8298
 152   2.0000      -0.394720       -10.7409
 153   2.0000      -0.391511       -10.6535
 154   2.0000      -0.378843       -10.3088
 155   2.0000      -0.372077       -10.1247
 156   2.0000      -0.371131       -10.0990
 157   2.0000      -0.261372        -7.1123
 158   2.0000      -0.255647        -6.9565
 159   2.0000      -0.244958        -6.6657
 160   2.0000      -0.237332        -6.4581
 161   2.0000      -0.233319        -6.3489
 162   1.0000      -0.168390        -4.5821
 163   1.0000      -0.163576        -4.4511
 164   1.0000      -0.162691        -4.4270
 165   1.0000      -0.163388        -4.4460
 166   1.0000      -0.166776        -4.5382
 167   0.0000      -0.036934        -1.0050
 168   0.0000      -0.012328        -0.3355
 169   0.0000      -0.004308        -0.1172
 170   0.0000      -0.001794        -0.0488
 171   0.0000       0.000657         0.0179

MULLIKEN ATOMIC CHARGES AND SPIN DENSITIES
------------------------------------------
   0 Au:    0.194783    0.004812
   1 Au:   -0.166344    0.008849
   2 Au:    0.232933    0.006180
   3 Au:    0.325130    0.005498
   4 Au:   -0.054839    0.009145
   5 Au:    0.429986    0.004098
   6 Au:   -0.163683    0.009099
   7 Au:   -0.216156    0.008590
   8 Au:    0.240869    0.005131
   9 Au:    0.259462    0.004554
  10 Au:    0.401526    0.004282
  11 Au:    0.330348    0.005758
  12 Au:   -0.020281    0.008745
  13 Au:   -0.014857    0.008883
  14 Au:    0.271080    0.004504
  15 Au:    0.227067    0.007660
  16 Mn:   -2.277023    3.894212
Sum of atomic charges       :    0.0000000

LOEWDIN ATOMIC CHARGES AND SPIN DENSITIES
-----------------------------------------
   0 Au:    0.032322    0.006932
   1 Au:   -0.051335    0.011861
   2 Au:    0.040199    0.008011
   3 Au:    0.020852    0.007977
   4 Au:   -0.028122    0.011225
   5 Au:    0.141075    0.004869
   6 Au:   -0.046883    0.011542
   7 Au:   -0.057266    0.010970
   8 Au:    0.038277    0.007333
   9 Au:    0.008931    0.006909
  10 Au:    0.118861    0.005118
  11 Au:    0.027134    0.008196
  12 Au:   -0.026776    0.011603
  13 Au:   -0.018666    0.010975
  14 Au:    0.014548    0.006366
  15 Au:    0.035032    0.009627
  16 Mn:   -0.248183    3.860484

  Mayer bond orders larger than 0.100000
B(  0-Au,  1-Au) :   0.2001 B(  0-Au,  3-Au) :   0.1750 B(  0-Au,  6-Au) :   0.2031
B(  0-Au, 13-Au) :   0.1790 B(  0-Au, 14-Au) :   0.2000 B(  0-Au, 16-Mn) :   0.3041
B(  1-Au,  2-Au) :   0.1861 B(  1-Au,  3-Au) :   0.2188 B(  1-Au,  4-Au) :   0.1493
B(  1-Au,  5-Au) :   0.2375 B(  1-Au,  7-Au) :   0.1422 B(  1-Au, 14-Au) :   0.2313
B(  1-Au, 16-Mn) :   0.3468 B(  2-Au,  3-Au) :   0.1707 B(  2-Au,  4-Au) :   0.1611
B(  2-Au, 11-Au) :   0.1849 B(  2-Au, 16-Mn) :   0.3719 B(  3-Au, 13-Au) :   0.1846
B(  3-Au, 15-Au) :   0.1902 B(  3-Au, 16-Mn) :   0.3080 B(  4-Au,  5-Au) :   0.2394
B(  4-Au,  7-Au) :   0.1751 B(  4-Au,  8-Au) :   0.1755 B(  4-Au, 11-Au) :   0.1927
B(  4-Au, 16-Mn) :   0.3960 B(  5-Au,  7-Au) :   0.2493 B(  5-Au, 14-Au) :   0.1653
B(  6-Au,  7-Au) :   0.1584 B(  6-Au,  9-Au) :   0.2139 B(  6-Au, 10-Au) :   0.2494
B(  6-Au, 12-Au) :   0.1034 B(  6-Au, 13-Au) :   0.1671 B(  6-Au, 14-Au) :   0.2502
B(  6-Au, 16-Mn) :   0.4023 B(  7-Au,  8-Au) :   0.1937 B(  7-Au,  9-Au) :   0.2584
B(  7-Au, 14-Au) :   0.2404 B(  7-Au, 16-Mn) :   0.3932 B(  8-Au,  9-Au) :   0.1780
B(  8-Au, 11-Au) :   0.1681 B(  8-Au, 12-Au) :   0.1574 B(  8-Au, 16-Mn) :   0.3303
B(  9-Au, 10-Au) :   0.1871 B(  9-Au, 12-Au) :   0.2264 B(  9-Au, 16-Mn) :   0.2442
B( 10-Au, 12-Au) :   0.2179 B( 10-Au, 13-Au) :   0.2341 B( 10-Au, 16-Mn) :   0.1232
B( 11-Au, 12-Au) :   0.1910 B( 11-Au, 15-Au) :   0.1665 B( 11-Au, 16-Mn) :   0.3246
B( 12-Au, 13-Au) :   0.1018 B( 12-Au, 15-Au) :   0.1401 B( 12-Au, 16-Mn) :   0.3565
B( 13-Au, 15-Au) :   0.1368 B( 13-Au, 16-Mn) :   0.3895 B( 14-Au, 16-Mn) :   0.1886
B( 15-Au, 16-Mn) :   0.4049

FINAL SINGLE POINT ENERGY     -3306.833227640424

DIPOLE MOMENT
-------------
                                X             Y             Z
Electronic contribution:      0.80064       1.83976       9.23593
Nuclear contribution   :     -0.79830      -1.75603      -9.14356
                        -----------------------------------------
Total Dipole Moment    :      0.00234       0.08373       0.09237
                        -----------------------------------------
Magnitude (a.u.)       :      0.12470
Magnitude (Debye)      :      0.31696

Rotational constants in cm-1:     0.000904     0.000815     0.000811
Rotational constants in MHz :    27.113646    24.438174    24.322988

                             ****ORCA TERMINATED NORMALLY****
TOTAL RUN TIME: 0 days 0 hours 31 minutes 25 seconds 253 msec
