                         Program Version 5.0.3 -  RELEASE  -
|  1> %pal nprocs 1 end
|  2>
|  3> !PBE def2-TZVP OPT UNO
|  4> !SLOWCONV KDIIS
|  5>
|  6> %geom maxiter 300 end
|  7>
|  8> *xyzfile 0 5 0.xyz                           ****END OF INPUT****
 Total Charge           Charge          ....    0
 Multiplicity           Mult            ....    5
 Number of Electrons    NEL             ....  214
FINAL SINGLE POINT ENERGY     -2402.470598283991
FINAL SINGLE POINT ENERGY     -2402.471449627978
FINAL SINGLE POINT ENERGY     -2402.471714147625
FINAL SINGLE POINT ENERGY     -2402.472040227238
FINAL SINGLE POINT ENERGY     -2402.472053256444
                    ***********************HURRAY********************

CARTESIAN COORDINATES (ANGSTROEM)
---------------------------------
  Au     7.798623    6.285975    5.170911
  Au     5.572559    7.652629    6.322152
  Au     6.030380    5.507326    9.812774
  Au     6.508558    4.846350    7.263255
  Au     5.078174    8.372378    8.852576
  Au     9.415951    5.892469    7.489944
  Au     9.006699    6.574609   10.045897
  Au     6.745623    7.945411   11.134792
  Au     8.052196    9.440198    9.084502
  Au     8.482725    8.695011    6.549240
  Cr     7.259591    7.135804    8.225311

 Multiplicity           Mult            ....    5
 Number of Electrons    NEL             ....  214
 Basis Dimension        Dim             ....  445

ORBITAL ENERGIES
----------------
                 SPIN UP ORBITALS
  NO   OCC          E(Eh)            E(eV)
   0   1.0000    -214.500123     -5836.8451
   1   1.0000     -24.305864      -661.3962
   2   1.0000     -20.669550      -562.4470
   3   1.0000     -20.669543      -562.4468
   4   1.0000     -20.669030      -562.4329
   5   1.0000      -4.022996      -109.4713
   6   1.0000      -4.022917      -109.4691
   7   1.0000      -4.022847      -109.4672
   8   1.0000      -4.022807      -109.4661
   9   1.0000      -4.021511      -109.4309
  10   1.0000      -4.021455      -109.4294
  11   1.0000      -4.021394      -109.4277
  12   1.0000      -4.021339      -109.4262
  13   1.0000      -4.017211      -109.3139
  14   1.0000      -4.016208      -109.2866
  15   1.0000      -2.803415       -76.2848
  16   1.0000      -2.242170       -61.0125
  17   1.0000      -2.242038       -61.0089
  18   1.0000      -2.242025       -61.0086
  19   1.0000      -2.241799       -61.0024
  20   1.0000      -2.239704       -60.9454
  21   1.0000      -2.239295       -60.9343
  22   1.0000      -2.239279       -60.9339
  23   1.0000      -2.238908       -60.9238
  24   1.0000      -2.237886       -60.8960
  25   1.0000      -2.237498       -60.8854
  26   1.0000      -2.237484       -60.8850
  27   1.0000      -2.236966       -60.8709
  28   1.0000      -2.234622       -60.8072
  29   1.0000      -2.234388       -60.8008
  30   1.0000      -2.234385       -60.8007
  31   1.0000      -2.233971       -60.7895
  32   1.0000      -2.230507       -60.6952
  33   1.0000      -2.230133       -60.6850
  34   1.0000      -2.230026       -60.6821
  35   1.0000      -2.230003       -60.6815
  36   1.0000      -2.229548       -60.6691
  37   1.0000      -2.229243       -60.6608
  38   1.0000      -2.228915       -60.6519
  39   1.0000      -2.228897       -60.6514
  40   1.0000      -2.228661       -60.6449
  41   1.0000      -2.228311       -60.6354
  42   1.0000      -2.228296       -60.6350
  43   1.0000      -2.227929       -60.6250
  44   1.0000      -2.227820       -60.6221
  45   1.0000      -2.227815       -60.6219
  46   1.0000      -1.793123       -48.7934
  47   1.0000      -1.792809       -48.7848
  48   1.0000      -1.792796       -48.7845
  49   1.0000      -0.409153       -11.1336
  50   1.0000      -0.367234        -9.9930
  51   1.0000      -0.364709        -9.9242
  52   1.0000      -0.355204        -9.6656
  53   1.0000      -0.353117        -9.6088
  54   1.0000      -0.353067        -9.6074
  55   1.0000      -0.348786        -9.4909
  56   1.0000      -0.345164        -9.3924
  57   1.0000      -0.343964        -9.3597
  58   1.0000      -0.343930        -9.3588
  59   1.0000      -0.337716        -9.1897
  60   1.0000      -0.337658        -9.1882
  61   1.0000      -0.334288        -9.0964
  62   1.0000      -0.329332        -8.9616
  63   1.0000      -0.329275        -8.9600
  64   1.0000      -0.322846        -8.7851
  65   1.0000      -0.315538        -8.5862
  66   1.0000      -0.310444        -8.4476
  67   1.0000      -0.309774        -8.4294
  68   1.0000      -0.309727        -8.4281
  69   1.0000      -0.305835        -8.3222
  70   1.0000      -0.303984        -8.2718
  71   1.0000      -0.301311        -8.1991
  72   1.0000      -0.301274        -8.1981
  73   1.0000      -0.292128        -7.9492
  74   1.0000      -0.291133        -7.9221
  75   1.0000      -0.291034        -7.9194
  76   1.0000      -0.289794        -7.8857
  77   1.0000      -0.287230        -7.8159
  78   1.0000      -0.286256        -7.7894
  79   1.0000      -0.285063        -7.7569
  80   1.0000      -0.285015        -7.7556
  81   1.0000      -0.272601        -7.4178
  82   1.0000      -0.270794        -7.3687
  83   1.0000      -0.270602        -7.3634
  84   1.0000      -0.266746        -7.2585
  85   1.0000      -0.262571        -7.1449
  86   1.0000      -0.262538        -7.1440
  87   1.0000      -0.262504        -7.1431
  88   1.0000      -0.259526        -7.0621
  89   1.0000      -0.259413        -7.0590
  90   1.0000      -0.258844        -7.0435
  91   1.0000      -0.258820        -7.0429
  92   1.0000      -0.255952        -6.9648
  93   1.0000      -0.252718        -6.8768
  94   1.0000      -0.252506        -6.8710
  95   1.0000      -0.252460        -6.8698
  96   1.0000      -0.250638        -6.8202
  97   1.0000      -0.246468        -6.7067
  98   1.0000      -0.246448        -6.7062
  99   1.0000      -0.242014        -6.5855
 100   1.0000      -0.234489        -6.3808
 101   1.0000      -0.234428        -6.3791
 102   1.0000      -0.233858        -6.3636
 103   1.0000      -0.217678        -5.9233
 104   1.0000      -0.212536        -5.7834
 105   1.0000      -0.212235        -5.7752
 106   1.0000      -0.203364        -5.5338
 107   1.0000      -0.203341        -5.5332
 108   1.0000      -0.185542        -5.0489
 109   0.0000      -0.157249        -4.2790
 110   0.0000      -0.157212        -4.2780
 111   0.0000      -0.156681        -4.2635
 112   0.0000      -0.110579        -3.0090
 113   0.0000      -0.107888        -2.9358

                 SPIN DOWN ORBITALS
  NO   OCC          E(Eh)            E(eV)
   0   1.0000    -214.499695     -5836.8334
   1   1.0000     -24.263219      -660.2358
   2   1.0000     -20.637778      -561.5825
   3   1.0000     -20.637763      -561.5821
   4   1.0000     -20.634793      -561.5013
   5   1.0000      -4.021386      -109.4275
   6   1.0000      -4.021317      -109.4256
   7   1.0000      -4.021248      -109.4237
   8   1.0000      -4.021213      -109.4228
   9   1.0000      -4.019925      -109.3877
  10   1.0000      -4.019875      -109.3864
  11   1.0000      -4.019815      -109.3847
  12   1.0000      -4.019763      -109.3833
  13   1.0000      -4.015070      -109.2556
  14   1.0000      -4.014113      -109.2296
  15   1.0000      -2.688775       -73.1653
  16   1.0000      -2.240339       -60.9627
  17   1.0000      -2.240234       -60.9599
  18   1.0000      -2.240225       -60.9596
  19   1.0000      -2.240030       -60.9543
  20   1.0000      -2.237596       -60.8881
  21   1.0000      -2.237207       -60.8775
  22   1.0000      -2.237192       -60.8771
  23   1.0000      -2.236835       -60.8674
  24   1.0000      -2.235954       -60.8434
  25   1.0000      -2.235583       -60.8333
  26   1.0000      -2.235571       -60.8330
  27   1.0000      -2.235037       -60.8185
  28   1.0000      -2.232968       -60.7621
  29   1.0000      -2.232780       -60.7570
  30   1.0000      -2.232775       -60.7569
  31   1.0000      -2.232353       -60.7454
  32   1.0000      -2.229032       -60.6550
  33   1.0000      -2.228546       -60.6418
  34   1.0000      -2.228526       -60.6413
  35   1.0000      -2.228073       -60.6289
  36   1.0000      -2.227181       -60.6047
  37   1.0000      -2.227132       -60.6033
  38   1.0000      -2.226945       -60.5982
  39   1.0000      -2.226937       -60.5980
  40   1.0000      -2.226821       -60.5949
  41   1.0000      -2.226807       -60.5945
  42   1.0000      -2.226448       -60.5847
  43   1.0000      -2.226248       -60.5793
  44   1.0000      -2.225944       -60.5710
  45   1.0000      -2.225930       -60.5706
  46   1.0000      -1.682547       -45.7844
  47   1.0000      -1.682509       -45.7834
  48   1.0000      -1.675224       -45.5852
  49   1.0000      -0.399714       -10.8768
  50   1.0000      -0.362286        -9.8583
  51   1.0000      -0.357159        -9.7188
  52   1.0000      -0.349793        -9.5183
  53   1.0000      -0.349745        -9.5171
  54   1.0000      -0.347712        -9.4617
  55   1.0000      -0.344829        -9.3833
  56   1.0000      -0.335814        -9.1380
  57   1.0000      -0.335760        -9.1365
  58   1.0000      -0.334693        -9.1075
  59   1.0000      -0.334648        -9.1062
  60   1.0000      -0.333955        -9.0874
  61   1.0000      -0.327622        -8.9151
  62   1.0000      -0.326690        -8.8897
  63   1.0000      -0.326629        -8.8880
  64   1.0000      -0.320646        -8.7252
  65   1.0000      -0.313757        -8.5378
  66   1.0000      -0.307364        -8.3638
  67   1.0000      -0.303342        -8.2544
  68   1.0000      -0.302732        -8.2378
  69   1.0000      -0.300817        -8.1857
  70   1.0000      -0.300780        -8.1846
  71   1.0000      -0.299815        -8.1584
  72   1.0000      -0.299770        -8.1572
  73   1.0000      -0.290331        -7.9003
  74   1.0000      -0.289960        -7.8902
  75   1.0000      -0.289867        -7.8877
  76   1.0000      -0.286757        -7.8031
  77   1.0000      -0.286001        -7.7825
  78   1.0000      -0.284657        -7.7459
  79   1.0000      -0.283618        -7.7176
  80   1.0000      -0.283570        -7.7163
  81   1.0000      -0.270977        -7.3737
  82   1.0000      -0.270881        -7.3710
  83   1.0000      -0.268707        -7.3119
  84   1.0000      -0.264865        -7.2073
  85   1.0000      -0.261213        -7.1080
  86   1.0000      -0.260401        -7.0859
  87   1.0000      -0.260366        -7.0849
  88   1.0000      -0.258220        -7.0265
  89   1.0000      -0.258174        -7.0253
  90   1.0000      -0.256431        -6.9778
  91   1.0000      -0.256412        -6.9773
  92   1.0000      -0.254675        -6.9301
  93   1.0000      -0.250568        -6.8183
  94   1.0000      -0.250382        -6.8132
  95   1.0000      -0.250334        -6.8119
  96   1.0000      -0.248145        -6.7524
  97   1.0000      -0.243709        -6.6317
  98   1.0000      -0.243689        -6.6311
  99   1.0000      -0.239266        -6.5108
 100   1.0000      -0.233366        -6.3502
 101   1.0000      -0.233310        -6.3487
 102   1.0000      -0.231913        -6.3107
 103   1.0000      -0.199866        -5.4386
 104   1.0000      -0.194581        -5.2948
 105   0.0000      -0.180939        -4.9236
 106   0.0000      -0.180882        -4.9220
 107   0.0000      -0.122392        -3.3305
 108   0.0000      -0.114313        -3.1106
 109   0.0000      -0.110589        -3.0093

MULLIKEN ATOMIC CHARGES AND SPIN POPULATIONS
--------------------------------------------
   0 Au:    0.367897    0.186015
   1 Au:    0.365607    0.057345
   2 Au:    0.397998    0.053800
   3 Au:    0.366150    0.058391
   4 Au:    0.398329    0.054685
   5 Au:    0.367318    0.057563
   6 Au:    0.398230    0.054415
   7 Au:    0.400846    0.177466
   8 Au:    0.399132    0.055306
   9 Au:    0.366334    0.056556
  10 Cr:   -3.827841    3.188456
Sum of atomic charges         :    0.0000000

LOEWDIN ATOMIC CHARGES AND SPIN POPULATIONS
-------------------------------------------
   0 Au:    0.067309    0.174342
   1 Au:    0.127463    0.057023
   2 Au:    0.136360    0.056196
   3 Au:    0.126884    0.057327
   4 Au:    0.135798    0.056146
   5 Au:    0.127237    0.057088
   6 Au:    0.136020    0.056044
   7 Au:    0.065786    0.168412
   8 Au:    0.135542    0.056076
   9 Au:    0.127661    0.056941
  10 Cr:   -1.186059    3.204405

  Mayer bond orders larger than 0.100000
B(  0-Au,  1-Au) :   0.1919 B(  0-Au,  3-Au) :   0.1950 B(  0-Au,  5-Au) :   0.1917
B(  0-Au,  9-Au) :   0.1894 B(  0-Au, 10-Cr) :   0.6285 B(  1-Au,  4-Au) :   0.4566
B(  1-Au,  6-Au) :   0.1272 B(  1-Au, 10-Cr) :   0.7514 B(  2-Au,  3-Au) :   0.4567
B(  2-Au,  7-Au) :   0.1833 B(  2-Au,  9-Au) :   0.1266 B(  2-Au, 10-Cr) :   0.7739
B(  3-Au,  8-Au) :   0.1285 B(  3-Au, 10-Cr) :   0.7497 B(  4-Au,  5-Au) :   0.1278
B(  4-Au,  7-Au) :   0.1862 B(  4-Au, 10-Cr) :   0.7716 B(  5-Au,  6-Au) :   0.4559
B(  5-Au, 10-Cr) :   0.7503 B(  6-Au,  7-Au) :   0.1860 B(  6-Au, 10-Cr) :   0.7731
B(  7-Au,  8-Au) :   0.1887 B(  7-Au, 10-Cr) :   0.6466 B(  8-Au,  9-Au) :   0.4556
B(  8-Au, 10-Cr) :   0.7716 B(  9-Au, 10-Cr) :   0.7523

FINAL SINGLE POINT ENERGY     -2402.472053762123

DIPOLE MOMENT
-------------
                                X             Y             Z
Electronic contribution:      0.33733      -0.51409      -1.85889
Nuclear contribution   :     -0.33407       0.50920       1.84219
                        -----------------------------------------
Total Dipole Moment    :      0.00326      -0.00489      -0.01670
                        -----------------------------------------
Magnitude (a.u.)       :      0.01770
Magnitude (Debye)      :      0.04500

Rotational constants in cm-1:     0.002177     0.001594     0.001593
Rotational constants in MHz :    65.264761    47.787572    47.770293

                             ****ORCA TERMINATED NORMALLY****
TOTAL RUN TIME: 0 days 0 hours 42 minutes 56 seconds 208 msec
