                         Program Version 5.0.3 -  RELEASE  -
|  1> %pal nprocs 16 end
|  2>
|  3> !PBE def2-TZVP OPT UNO
|  4> !SLOWCONV KDIIS
|  5>
|  6> %geom maxiter 300 end
|  7>
|  8> *xyzfile 0 3 1.xyz                           ****END OF INPUT****
 Total Charge           Charge          ....    0
 Multiplicity           Mult            ....    3
 Number of Electrons    NEL             ....  254
FINAL SINGLE POINT ENERGY     -2893.387659311209
FINAL SINGLE POINT ENERGY     -2893.388598422307
FINAL SINGLE POINT ENERGY     -2893.389299822872
FINAL SINGLE POINT ENERGY     -2893.389530848990
FINAL SINGLE POINT ENERGY     -2893.389839906366
FINAL SINGLE POINT ENERGY     -2893.389947245718
FINAL SINGLE POINT ENERGY     -2893.390037306970
FINAL SINGLE POINT ENERGY     -2893.390109758778
FINAL SINGLE POINT ENERGY     -2893.390147748367
FINAL SINGLE POINT ENERGY     -2893.390183345491
FINAL SINGLE POINT ENERGY     -2893.390492861723
FINAL SINGLE POINT ENERGY     -2893.390516504181
FINAL SINGLE POINT ENERGY     -2893.390540268028
FINAL SINGLE POINT ENERGY     -2893.390557085448
FINAL SINGLE POINT ENERGY     -2893.390565009259
FINAL SINGLE POINT ENERGY     -2893.390572509607
FINAL SINGLE POINT ENERGY     -2893.390577466357
FINAL SINGLE POINT ENERGY     -2893.390579578303
FINAL SINGLE POINT ENERGY     -2893.390580634798
                    ***********************HURRAY********************

CARTESIAN COORDINATES (ANGSTROEM)
---------------------------------
  Au    11.072205    7.117073   10.352978
  Au     8.272656    6.824324   10.943885
  Au     9.282898    9.353866   10.244418
  Au    11.385967    8.905765    8.128203
  Au    11.516843    6.139168    7.684687
  Au     7.951298    3.218784    8.089383
  Au     8.795914    9.772281    7.526035
  Au     9.099926    5.180438    6.578688
  Au     9.809579    7.703871    5.939516
  Au     9.713223    4.793688    9.486342
  Au     6.845171    8.341793    8.926837
  Au     6.914928    5.650022    8.767788
  Fe     9.182764    7.235901    8.448611

 Multiplicity           Mult            ....    3
 Number of Electrons    NEL             ....  254
 Basis Dimension        Dim             ....  525

ORBITAL ENERGIES
----------------
                 SPIN UP ORBITALS
  NO   OCC          E(Eh)            E(eV)
   0   1.0000    -254.752775     -6932.1754
   1   1.0000     -29.589781      -805.1789
   2   1.0000     -25.531922      -694.7589
   3   1.0000     -25.525549      -694.5855
   4   1.0000     -25.518844      -694.4031
   5   1.0000      -4.032485      -109.7295
   6   1.0000      -4.027375      -109.5904
   7   1.0000      -4.026288      -109.5609
   8   1.0000      -4.026282      -109.5607
   9   1.0000      -4.023562      -109.4867
  10   1.0000      -4.022650      -109.4619
  11   1.0000      -4.022616      -109.4609
  12   1.0000      -4.022422      -109.4557
  13   1.0000      -4.022045      -109.4454
  14   1.0000      -4.018287      -109.3431
  15   1.0000      -4.017929      -109.3334
  16   1.0000      -4.017513      -109.3221
  17   1.0000      -3.365220       -91.5723
  18   1.0000      -2.249243       -61.2050
  19   1.0000      -2.245815       -61.1117
  20   1.0000      -2.243304       -61.0434
  21   1.0000      -2.242858       -61.0313
  22   1.0000      -2.242164       -61.0124
  23   1.0000      -2.242084       -61.0102
  24   1.0000      -2.241268       -60.9880
  25   1.0000      -2.241028       -60.9815
  26   1.0000      -2.240270       -60.9609
  27   1.0000      -2.239928       -60.9515
  28   1.0000      -2.239643       -60.9438
  29   1.0000      -2.238772       -60.9201
  30   1.0000      -2.238605       -60.9155
  31   1.0000      -2.238189       -60.9042
  32   1.0000      -2.238021       -60.8997
  33   1.0000      -2.237566       -60.8873
  34   1.0000      -2.237462       -60.8844
  35   1.0000      -2.237050       -60.8732
  36   1.0000      -2.236074       -60.8467
  37   1.0000      -2.235460       -60.8299
  38   1.0000      -2.234851       -60.8134
  39   1.0000      -2.234414       -60.8015
  40   1.0000      -2.234262       -60.7974
  41   1.0000      -2.232644       -60.7533
  42   1.0000      -2.232530       -60.7502
  43   1.0000      -2.232208       -60.7415
  44   1.0000      -2.231406       -60.7197
  45   1.0000      -2.231366       -60.7185
  46   1.0000      -2.230959       -60.7075
  47   1.0000      -2.230703       -60.7005
  48   1.0000      -2.230487       -60.6946
  49   1.0000      -2.230058       -60.6830
  50   1.0000      -2.229107       -60.6571
  51   1.0000      -2.228820       -60.6493
  52   1.0000      -2.228231       -60.6332
  53   1.0000      -2.228005       -60.6271
  54   1.0000      -2.192454       -59.6597
  55   1.0000      -2.179835       -59.3163
  56   1.0000      -2.164487       -58.8987
  57   1.0000      -0.433477       -11.7955
  58   1.0000      -0.385042       -10.4775
  59   1.0000      -0.381320       -10.3762
  60   1.0000      -0.379117       -10.3163
  61   1.0000      -0.373722       -10.1695
  62   1.0000      -0.372796       -10.1443
  63   1.0000      -0.367477        -9.9996
  64   1.0000      -0.365178        -9.9370
  65   1.0000      -0.357549        -9.7294
  66   1.0000      -0.347295        -9.4504
  67   1.0000      -0.346610        -9.4317
  68   1.0000      -0.345965        -9.4142
  69   1.0000      -0.342163        -9.3107
  70   1.0000      -0.341799        -9.3008
  71   1.0000      -0.339986        -9.2515
  72   1.0000      -0.332794        -9.0558
  73   1.0000      -0.330137        -8.9835
  74   1.0000      -0.329512        -8.9665
  75   1.0000      -0.328789        -8.9468
  76   1.0000      -0.327062        -8.8998
  77   1.0000      -0.325926        -8.8689
  78   1.0000      -0.321783        -8.7561
  79   1.0000      -0.320475        -8.7206
  80   1.0000      -0.317613        -8.6427
  81   1.0000      -0.315380        -8.5819
  82   1.0000      -0.310511        -8.4494
  83   1.0000      -0.309239        -8.4148
  84   1.0000      -0.307210        -8.3596
  85   1.0000      -0.305839        -8.3223
  86   1.0000      -0.300007        -8.1636
  87   1.0000      -0.296411        -8.0658
  88   1.0000      -0.295133        -8.0310
  89   1.0000      -0.293797        -7.9946
  90   1.0000      -0.285668        -7.7734
  91   1.0000      -0.285501        -7.7689
  92   1.0000      -0.284000        -7.7280
  93   1.0000      -0.282250        -7.6804
  94   1.0000      -0.280167        -7.6237
  95   1.0000      -0.279218        -7.5979
  96   1.0000      -0.276073        -7.5123
  97   1.0000      -0.273755        -7.4492
  98   1.0000      -0.271418        -7.3856
  99   1.0000      -0.269974        -7.3464
 100   1.0000      -0.268031        -7.2935
 101   1.0000      -0.265696        -7.2300
 102   1.0000      -0.265322        -7.2198
 103   1.0000      -0.263272        -7.1640
 104   1.0000      -0.262460        -7.1419
 105   1.0000      -0.261856        -7.1255
 106   1.0000      -0.258078        -7.0226
 107   1.0000      -0.256351        -6.9757
 108   1.0000      -0.255554        -6.9540
 109   1.0000      -0.252963        -6.8835
 110   1.0000      -0.251861        -6.8535
 111   1.0000      -0.250633        -6.8201
 112   1.0000      -0.250297        -6.8109
 113   1.0000      -0.249684        -6.7942
 114   1.0000      -0.248634        -6.7657
 115   1.0000      -0.246186        -6.6990
 116   1.0000      -0.245220        -6.6728
 117   1.0000      -0.244855        -6.6628
 118   1.0000      -0.244583        -6.6554
 119   1.0000      -0.242655        -6.6030
 120   1.0000      -0.241023        -6.5586
 121   1.0000      -0.240854        -6.5540
 122   1.0000      -0.237156        -6.4534
 123   1.0000      -0.236460        -6.4344
 124   1.0000      -0.233043        -6.3414
 125   1.0000      -0.230430        -6.2703
 126   1.0000      -0.208413        -5.6712
 127   1.0000      -0.183775        -5.0008
 128   0.0000      -0.176054        -4.7907
 129   0.0000      -0.174978        -4.7614
 130   0.0000      -0.151154        -4.1131
 131   0.0000      -0.137205        -3.7335
 132   0.0000      -0.112859        -3.0710

                 SPIN DOWN ORBITALS
  NO   OCC          E(Eh)            E(eV)
   0   1.0000    -254.752116     -6932.1575
   1   1.0000     -29.534156      -803.6652
   2   1.0000     -25.486532      -693.5238
   3   1.0000     -25.483397      -693.4385
   4   1.0000     -25.480352      -693.3556
   5   1.0000      -4.032438      -109.7282
   6   1.0000      -4.027896      -109.6046
   7   1.0000      -4.026804      -109.5749
   8   1.0000      -4.026793      -109.5746
   9   1.0000      -4.023811      -109.4935
  10   1.0000      -4.022690      -109.4629
  11   1.0000      -4.022678      -109.4626
  12   1.0000      -4.022411      -109.4554
  13   1.0000      -4.022019      -109.4447
  14   1.0000      -4.018613      -109.3520
  15   1.0000      -4.018262      -109.3425
  16   1.0000      -4.018060      -109.3370
  17   1.0000      -3.240074       -88.1669
  18   1.0000      -2.249059       -61.2000
  19   1.0000      -2.245304       -61.0978
  20   1.0000      -2.243546       -61.0500
  21   1.0000      -2.243124       -61.0385
  22   1.0000      -2.242374       -61.0181
  23   1.0000      -2.242256       -61.0149
  24   1.0000      -2.241516       -60.9948
  25   1.0000      -2.241159       -60.9850
  26   1.0000      -2.240511       -60.9674
  27   1.0000      -2.240267       -60.9608
  28   1.0000      -2.239349       -60.9358
  29   1.0000      -2.239201       -60.9318
  30   1.0000      -2.238940       -60.9247
  31   1.0000      -2.238704       -60.9182
  32   1.0000      -2.238688       -60.9178
  33   1.0000      -2.238220       -60.9051
  34   1.0000      -2.237472       -60.8847
  35   1.0000      -2.237056       -60.8734
  36   1.0000      -2.236332       -60.8537
  37   1.0000      -2.235129       -60.8210
  38   1.0000      -2.234935       -60.8157
  39   1.0000      -2.234750       -60.8106
  40   1.0000      -2.234005       -60.7904
  41   1.0000      -2.233145       -60.7670
  42   1.0000      -2.232438       -60.7477
  43   1.0000      -2.232142       -60.7397
  44   1.0000      -2.231789       -60.7301
  45   1.0000      -2.231603       -60.7250
  46   1.0000      -2.231492       -60.7220
  47   1.0000      -2.231292       -60.7165
  48   1.0000      -2.230893       -60.7057
  49   1.0000      -2.230372       -60.6915
  50   1.0000      -2.229846       -60.6772
  51   1.0000      -2.229403       -60.6651
  52   1.0000      -2.228926       -60.6522
  53   1.0000      -2.228361       -60.6368
  54   1.0000      -2.060460       -56.0680
  55   1.0000      -2.057164       -55.9783
  56   1.0000      -2.051917       -55.8355
  57   1.0000      -0.430217       -11.7068
  58   1.0000      -0.385022       -10.4770
  59   1.0000      -0.381356       -10.3772
  60   1.0000      -0.377423       -10.2702
  61   1.0000      -0.368170       -10.0184
  62   1.0000      -0.364719        -9.9245
  63   1.0000      -0.361211        -9.8291
  64   1.0000      -0.359959        -9.7950
  65   1.0000      -0.354268        -9.6401
  66   1.0000      -0.347421        -9.4538
  67   1.0000      -0.346215        -9.4210
  68   1.0000      -0.345523        -9.4022
  69   1.0000      -0.343726        -9.3532
  70   1.0000      -0.341494        -9.2925
  71   1.0000      -0.341157        -9.2834
  72   1.0000      -0.333755        -9.0819
  73   1.0000      -0.330958        -9.0058
  74   1.0000      -0.329996        -8.9796
  75   1.0000      -0.329414        -8.9638
  76   1.0000      -0.328004        -8.9254
  77   1.0000      -0.325358        -8.8534
  78   1.0000      -0.322755        -8.7826
  79   1.0000      -0.320227        -8.7138
  80   1.0000      -0.314652        -8.5621
  81   1.0000      -0.310423        -8.4470
  82   1.0000      -0.309442        -8.4203
  83   1.0000      -0.308652        -8.3989
  84   1.0000      -0.302671        -8.2361
  85   1.0000      -0.299628        -8.1533
  86   1.0000      -0.299313        -8.1447
  87   1.0000      -0.295571        -8.0429
  88   1.0000      -0.290735        -7.9113
  89   1.0000      -0.290559        -7.9065
  90   1.0000      -0.285651        -7.7730
  91   1.0000      -0.284346        -7.7374
  92   1.0000      -0.281061        -7.6481
  93   1.0000      -0.278601        -7.5811
  94   1.0000      -0.277635        -7.5548
  95   1.0000      -0.277258        -7.5446
  96   1.0000      -0.275836        -7.5059
  97   1.0000      -0.273476        -7.4417
  98   1.0000      -0.270898        -7.3715
  99   1.0000      -0.268321        -7.3014
 100   1.0000      -0.268183        -7.2976
 101   1.0000      -0.266784        -7.2596
 102   1.0000      -0.266388        -7.2488
 103   1.0000      -0.264361        -7.1936
 104   1.0000      -0.262665        -7.1475
 105   1.0000      -0.261332        -7.1112
 106   1.0000      -0.259695        -7.0667
 107   1.0000      -0.256165        -6.9706
 108   1.0000      -0.255691        -6.9577
 109   1.0000      -0.254048        -6.9130
 110   1.0000      -0.251918        -6.8550
 111   1.0000      -0.251064        -6.8318
 112   1.0000      -0.250752        -6.8233
 113   1.0000      -0.247889        -6.7454
 114   1.0000      -0.246915        -6.7189
 115   1.0000      -0.245969        -6.6932
 116   1.0000      -0.243649        -6.6300
 117   1.0000      -0.240702        -6.5498
 118   1.0000      -0.240651        -6.5484
 119   1.0000      -0.237170        -6.4537
 120   1.0000      -0.236232        -6.4282
 121   1.0000      -0.216145        -5.8816
 122   1.0000      -0.198486        -5.4011
 123   1.0000      -0.195787        -5.3276
 124   1.0000      -0.195013        -5.3066
 125   1.0000      -0.178884        -4.8677
 126   0.0000      -0.160308        -4.3622
 127   0.0000      -0.153352        -4.1729
 128   0.0000      -0.149509        -4.0684
 129   0.0000      -0.144636        -3.9357
 130   0.0000      -0.140727        -3.8294

MULLIKEN ATOMIC CHARGES AND SPIN POPULATIONS
--------------------------------------------
   0 Au:    0.324500   -0.084308
   1 Au:    0.292911   -0.155810
   2 Au:    0.176690    0.010591
   3 Au:    0.172757    0.018525
   4 Au:    0.292411   -0.155596
   5 Au:    0.389515    0.027262
   6 Au:    0.286876   -0.130109
   7 Au:    0.021995    0.046023
   8 Au:    0.333926   -0.130027
   9 Au:    0.017447   -0.149770
  10 Au:    0.333520   -0.128815
  11 Au:    0.018545    0.053364
  12 Fe:   -2.661093    2.778670
Sum of atomic charges         :    0.0000000

LOEWDIN ATOMIC CHARGES AND SPIN POPULATIONS
-------------------------------------------
   0 Au:    0.095328   -0.127651
   1 Au:    0.081381   -0.115018
   2 Au:    0.034767   -0.036904
   3 Au:    0.033607   -0.033077
   4 Au:    0.080579   -0.114303
   5 Au:    0.107122    0.006698
   6 Au:    0.074433   -0.121233
   7 Au:    0.004773   -0.016814
   8 Au:    0.100709   -0.109305
   9 Au:   -0.001494   -0.090677
  10 Au:    0.099795   -0.107374
  11 Au:    0.003527   -0.013097
  12 Fe:   -0.714528    2.878754

  Mayer bond orders larger than 0.100000
B(  0-Au,  1-Au) :   0.1542 B(  0-Au,  2-Au) :   0.1941 B(  0-Au,  3-Au) :   0.1928
B(  0-Au,  4-Au) :   0.1530 B(  0-Au,  9-Au) :   0.2601 B(  0-Au, 12-Fe) :   0.4256
B(  1-Au,  2-Au) :   0.2046 B(  1-Au,  9-Au) :   0.1607 B(  1-Au, 10-Au) :   0.1253
B(  1-Au, 11-Au) :   0.1789 B(  1-Au, 12-Fe) :   0.5826 B(  2-Au,  3-Au) :   0.1221
B(  2-Au,  6-Au) :   0.2418 B(  2-Au, 10-Au) :   0.1208 B(  2-Au, 12-Fe) :   0.5285
B(  3-Au,  4-Au) :   0.2107 B(  3-Au,  6-Au) :   0.2369 B(  3-Au,  8-Au) :   0.1196
B(  3-Au, 12-Fe) :   0.5271 B(  4-Au,  7-Au) :   0.1764 B(  4-Au,  8-Au) :   0.1248
B(  4-Au,  9-Au) :   0.1633 B(  4-Au, 12-Fe) :   0.5807 B(  5-Au,  7-Au) :   0.3553
B(  5-Au,  9-Au) :   0.3800 B(  5-Au, 11-Au) :   0.3557 B(  6-Au,  8-Au) :   0.1861
B(  6-Au, 10-Au) :   0.1875 B(  6-Au, 12-Fe) :   0.5031 B(  7-Au,  8-Au) :   0.2950
B(  7-Au,  9-Au) :   0.1710 B(  7-Au, 12-Fe) :   0.5111 B(  8-Au, 12-Fe) :   0.5597
B(  9-Au, 11-Au) :   0.1647 B(  9-Au, 12-Fe) :   0.5338 B( 10-Au, 11-Au) :   0.2954
B( 10-Au, 12-Fe) :   0.5589 B( 11-Au, 12-Fe) :   0.5093

FINAL SINGLE POINT ENERGY     -2893.390580958774

DIPOLE MOMENT
-------------
                                X             Y             Z
Electronic contribution:      1.60074     -12.36522       4.23992
Nuclear contribution   :     -1.48228      12.14439      -4.07619
                        -----------------------------------------
Total Dipole Moment    :      0.11846      -0.22083       0.16373
                        -----------------------------------------
Magnitude (a.u.)       :      0.29935
Magnitude (Debye)      :      0.76088

Rotational constants in cm-1:     0.001661     0.001253     0.001135
Rotational constants in MHz :    49.798106    37.551520    34.016742

                             ****ORCA TERMINATED NORMALLY****
TOTAL RUN TIME: 0 days 0 hours 48 minutes 3 seconds 473 msec
