                         Program Version 5.0.3 -  RELEASE  -
|  1> %pal nprocs 1 end
|  2>
|  3> !PBE def2-TZVP OPT UNO
|  4> !SLOWCONV KDIIS
|  5>
|  6> %geom maxiter 300 end
|  7>
|  8> *xyzfile 0 4 0.xyz                           ****END OF INPUT****
 Total Charge           Charge          ....    0
 Multiplicity           Mult            ....    4
 Number of Electrons    NEL             ....  215
FINAL SINGLE POINT ENERGY     -2509.004351765109
FINAL SINGLE POINT ENERGY     -2509.005619345553
FINAL SINGLE POINT ENERGY     -2509.007550790948
FINAL SINGLE POINT ENERGY     -2509.008939647506
FINAL SINGLE POINT ENERGY     -2509.009805652494
FINAL SINGLE POINT ENERGY     -2509.010134502395
FINAL SINGLE POINT ENERGY     -2509.010169591052
FINAL SINGLE POINT ENERGY     -2509.010206031624
FINAL SINGLE POINT ENERGY     -2509.010209875641
                    ***********************HURRAY********************

CARTESIAN COORDINATES (ANGSTROEM)
---------------------------------
  Au     8.223142    8.974742   10.708606
  Au     9.919438    7.524330    8.956072
  Au     6.517022    7.546549    8.946978
  Au     9.937985   10.408418    8.960451
  Au     6.536043   10.430427    8.951372
  Au     6.543204   10.434449    6.252537
  Au     9.945682   10.412232    6.261583
  Au     6.524406    7.550424    6.248161
  Au     9.926890    7.528421    6.257178
  Au     8.239523    8.983912    4.500083
  Mn     8.231338    8.979337    7.604210

 Multiplicity           Mult            ....    4
 Number of Electrons    NEL             ....  215
 Basis Dimension        Dim             ....  445

ORBITAL ENERGIES
----------------
                 SPIN UP ORBITALS
  NO   OCC          E(Eh)            E(eV)
   0   1.0000    -234.204683     -6373.0334
   1   1.0000     -26.902406      -732.0517
   2   1.0000     -23.052663      -627.2949
   3   1.0000     -23.051010      -627.2499
   4   1.0000     -23.050710      -627.2417
   5   1.0000      -4.022110      -109.4472
   6   1.0000      -4.022105      -109.4470
   7   1.0000      -4.022035      -109.4451
   8   1.0000      -4.022031      -109.4450
   9   1.0000      -4.021905      -109.4416
  10   1.0000      -4.021900      -109.4415
  11   1.0000      -4.021830      -109.4396
  12   1.0000      -4.021826      -109.4394
  13   1.0000      -4.013043      -109.2004
  14   1.0000      -4.013042      -109.2004
  15   1.0000      -3.103321       -84.4457
  16   1.0000      -2.241150       -60.9848
  17   1.0000      -2.241148       -60.9847
  18   1.0000      -2.240701       -60.9726
  19   1.0000      -2.240577       -60.9692
  20   1.0000      -2.239411       -60.9375
  21   1.0000      -2.239208       -60.9320
  22   1.0000      -2.238411       -60.9102
  23   1.0000      -2.238256       -60.9061
  24   1.0000      -2.237386       -60.8824
  25   1.0000      -2.237309       -60.8803
  26   1.0000      -2.236360       -60.8545
  27   1.0000      -2.236109       -60.8476
  28   1.0000      -2.234353       -60.7998
  29   1.0000      -2.234351       -60.7998
  30   1.0000      -2.233716       -60.7825
  31   1.0000      -2.233513       -60.7770
  32   1.0000      -2.230933       -60.7068
  33   1.0000      -2.230754       -60.7019
  34   1.0000      -2.230373       -60.6915
  35   1.0000      -2.230191       -60.6866
  36   1.0000      -2.229835       -60.6769
  37   1.0000      -2.229686       -60.6728
  38   1.0000      -2.229376       -60.6644
  39   1.0000      -2.229209       -60.6599
  40   1.0000      -2.225610       -60.5619
  41   1.0000      -2.225552       -60.5604
  42   1.0000      -2.225380       -60.5557
  43   1.0000      -2.225329       -60.5543
  44   1.0000      -2.224741       -60.5383
  45   1.0000      -2.224687       -60.5368
  46   1.0000      -2.007890       -54.6375
  47   1.0000      -2.005359       -54.5686
  48   1.0000      -2.003872       -54.5281
  49   1.0000      -0.416164       -11.3244
  50   1.0000      -0.369965       -10.0673
  51   1.0000      -0.368373       -10.0239
  52   1.0000      -0.361390        -9.8339
  53   1.0000      -0.359429        -9.7806
  54   1.0000      -0.357563        -9.7298
  55   1.0000      -0.350730        -9.5439
  56   1.0000      -0.346578        -9.4309
  57   1.0000      -0.344681        -9.3792
  58   1.0000      -0.343884        -9.3576
  59   1.0000      -0.343358        -9.3433
  60   1.0000      -0.334659        -9.1065
  61   1.0000      -0.334237        -9.0951
  62   1.0000      -0.329365        -8.9625
  63   1.0000      -0.323124        -8.7926
  64   1.0000      -0.321669        -8.7531
  65   1.0000      -0.319854        -8.7037
  66   1.0000      -0.318663        -8.6713
  67   1.0000      -0.310418        -8.4469
  68   1.0000      -0.307383        -8.3643
  69   1.0000      -0.306808        -8.3487
  70   1.0000      -0.306701        -8.3458
  71   1.0000      -0.304419        -8.2837
  72   1.0000      -0.303334        -8.2541
  73   1.0000      -0.300097        -8.1660
  74   1.0000      -0.293409        -7.9841
  75   1.0000      -0.292906        -7.9704
  76   1.0000      -0.292615        -7.9625
  77   1.0000      -0.287954        -7.8356
  78   1.0000      -0.284184        -7.7330
  79   1.0000      -0.280386        -7.6297
  80   1.0000      -0.274542        -7.4707
  81   1.0000      -0.270013        -7.3474
  82   1.0000      -0.269942        -7.3455
  83   1.0000      -0.269184        -7.3249
  84   1.0000      -0.268829        -7.3152
  85   1.0000      -0.264594        -7.2000
  86   1.0000      -0.263975        -7.1831
  87   1.0000      -0.262525        -7.1437
  88   1.0000      -0.259527        -7.0621
  89   1.0000      -0.258994        -7.0476
  90   1.0000      -0.257082        -6.9956
  91   1.0000      -0.254761        -6.9324
  92   1.0000      -0.254232        -6.9180
  93   1.0000      -0.253482        -6.8976
  94   1.0000      -0.252022        -6.8579
  95   1.0000      -0.251580        -6.8458
  96   1.0000      -0.250189        -6.8080
  97   1.0000      -0.250179        -6.8077
  98   1.0000      -0.247400        -6.7321
  99   1.0000      -0.246971        -6.7204
 100   1.0000      -0.240517        -6.5448
 101   1.0000      -0.239977        -6.5301
 102   1.0000      -0.238659        -6.4942
 103   1.0000      -0.230772        -6.2796
 104   1.0000      -0.229803        -6.2532
 105   1.0000      -0.229573        -6.2470
 106   1.0000      -0.225733        -6.1425
 107   1.0000      -0.222494        -6.0544
 108   1.0000      -0.187730        -5.1084
 109   0.0000      -0.174166        -4.7393
 110   0.0000      -0.173395        -4.7183
 111   0.0000      -0.157074        -4.2742
 112   0.0000      -0.115314        -3.1379
 113   0.0000      -0.105078        -2.8593

                 SPIN DOWN ORBITALS
  NO   OCC          E(Eh)            E(eV)
   0   1.0000    -234.203988     -6373.0145
   1   1.0000     -26.842600      -730.4243
   2   1.0000     -23.006916      -626.0500
   3   1.0000     -23.006626      -626.0421
   4   1.0000     -23.004535      -625.9852
   5   1.0000      -4.021500      -109.4306
   6   1.0000      -4.021494      -109.4304
   7   1.0000      -4.021424      -109.4285
   8   1.0000      -4.021420      -109.4284
   9   1.0000      -4.021294      -109.4250
  10   1.0000      -4.021289      -109.4248
  11   1.0000      -4.021219      -109.4229
  12   1.0000      -4.021215      -109.4228
  13   1.0000      -4.013097      -109.2019
  14   1.0000      -4.013096      -109.2019
  15   1.0000      -2.957400       -80.4749
  16   1.0000      -2.239935       -60.9517
  17   1.0000      -2.239932       -60.9517
  18   1.0000      -2.239570       -60.9418
  19   1.0000      -2.239487       -60.9395
  20   1.0000      -2.237944       -60.8976
  21   1.0000      -2.237771       -60.8929
  22   1.0000      -2.236981       -60.8713
  23   1.0000      -2.236900       -60.8691
  24   1.0000      -2.236863       -60.8681
  25   1.0000      -2.236720       -60.8643
  26   1.0000      -2.235756       -60.8380
  27   1.0000      -2.235499       -60.8310
  28   1.0000      -2.234134       -60.7939
  29   1.0000      -2.234112       -60.7933
  30   1.0000      -2.233513       -60.7770
  31   1.0000      -2.233310       -60.7715
  32   1.0000      -2.230513       -60.6953
  33   1.0000      -2.230318       -60.6900
  34   1.0000      -2.230004       -60.6815
  35   1.0000      -2.229810       -60.6762
  36   1.0000      -2.229481       -60.6673
  37   1.0000      -2.229320       -60.6629
  38   1.0000      -2.229039       -60.6552
  39   1.0000      -2.228865       -60.6505
  40   1.0000      -2.225572       -60.5609
  41   1.0000      -2.225513       -60.5593
  42   1.0000      -2.225478       -60.5583
  43   1.0000      -2.225414       -60.5566
  44   1.0000      -2.224807       -60.5401
  45   1.0000      -2.224761       -60.5388
  46   1.0000      -1.865634       -50.7665
  47   1.0000      -1.862449       -50.6798
  48   1.0000      -1.859653       -50.6037
  49   1.0000      -0.408133       -11.1059
  50   1.0000      -0.367229        -9.9928
  51   1.0000      -0.361051        -9.8247
  52   1.0000      -0.358905        -9.7663
  53   1.0000      -0.348035        -9.4705
  54   1.0000      -0.347894        -9.4667
  55   1.0000      -0.346135        -9.4188
  56   1.0000      -0.344521        -9.3749
  57   1.0000      -0.344492        -9.3741
  58   1.0000      -0.336076        -9.1451
  59   1.0000      -0.335236        -9.1222
  60   1.0000      -0.329902        -8.9771
  61   1.0000      -0.327545        -8.9129
  62   1.0000      -0.327314        -8.9067
  63   1.0000      -0.323521        -8.8034
  64   1.0000      -0.320558        -8.7228
  65   1.0000      -0.320188        -8.7128
  66   1.0000      -0.310873        -8.4593
  67   1.0000      -0.308322        -8.3899
  68   1.0000      -0.307452        -8.3662
  69   1.0000      -0.307327        -8.3628
  70   1.0000      -0.305036        -8.3005
  71   1.0000      -0.304360        -8.2821
  72   1.0000      -0.300038        -8.1645
  73   1.0000      -0.294181        -8.0051
  74   1.0000      -0.294099        -8.0028
  75   1.0000      -0.293824        -7.9954
  76   1.0000      -0.289905        -7.8887
  77   1.0000      -0.286698        -7.8015
  78   1.0000      -0.284722        -7.7477
  79   1.0000      -0.281398        -7.6572
  80   1.0000      -0.275102        -7.4859
  81   1.0000      -0.270518        -7.3612
  82   1.0000      -0.269083        -7.3221
  83   1.0000      -0.268378        -7.3029
  84   1.0000      -0.267923        -7.2906
  85   1.0000      -0.265824        -7.2334
  86   1.0000      -0.264036        -7.1848
  87   1.0000      -0.263336        -7.1657
  88   1.0000      -0.260167        -7.0795
  89   1.0000      -0.259574        -7.0634
  90   1.0000      -0.257157        -6.9976
  91   1.0000      -0.255607        -6.9554
  92   1.0000      -0.255019        -6.9394
  93   1.0000      -0.251856        -6.8534
  94   1.0000      -0.251853        -6.8533
  95   1.0000      -0.250618        -6.8197
  96   1.0000      -0.248180        -6.7533
  97   1.0000      -0.246411        -6.7052
  98   1.0000      -0.240692        -6.5496
  99   1.0000      -0.240227        -6.5369
 100   1.0000      -0.240121        -6.5340
 101   1.0000      -0.230773        -6.2797
 102   1.0000      -0.224301        -6.1035
 103   1.0000      -0.201186        -5.4745
 104   1.0000      -0.195481        -5.3193
 105   1.0000      -0.194851        -5.3022
 106   0.0000      -0.175529        -4.7764
 107   0.0000      -0.140556        -3.8247
 108   0.0000      -0.129772        -3.5313
 109   0.0000      -0.128631        -3.5002
 110   0.0000      -0.127899        -3.4803

MULLIKEN ATOMIC CHARGES AND SPIN POPULATIONS
--------------------------------------------
   0 Au:    0.195359    0.055288
   1 Au:    0.248253   -0.098680
   2 Au:    0.248250   -0.098667
   3 Au:    0.248287   -0.098679
   4 Au:    0.248293   -0.098657
   5 Au:    0.248295   -0.098663
   6 Au:    0.248292   -0.098660
   7 Au:    0.248304   -0.098657
   8 Au:    0.248314   -0.098641
   9 Au:    0.195357    0.055299
  10 Mn:   -2.377005    3.678717
Sum of atomic charges         :    0.0000000

LOEWDIN ATOMIC CHARGES AND SPIN POPULATIONS
-------------------------------------------
   0 Au:   -0.002992   -0.010332
   1 Au:    0.084407   -0.073362
   2 Au:    0.084408   -0.073395
   3 Au:    0.084382   -0.073363
   4 Au:    0.084387   -0.073390
   5 Au:    0.084415   -0.073357
   6 Au:    0.084418   -0.073398
   7 Au:    0.084401   -0.073352
   8 Au:    0.084405   -0.073384
   9 Au:   -0.002995   -0.010318
  10 Mn:   -0.669237    3.607650

  Mayer bond orders larger than 0.100000
B(  0-Au,  1-Au) :   0.1999 B(  0-Au,  2-Au) :   0.1997 B(  0-Au,  3-Au) :   0.2000
B(  0-Au,  4-Au) :   0.1998 B(  0-Au,  9-Au) :   0.1680 B(  0-Au, 10-Mn) :   0.3980
B(  1-Au,  3-Au) :   0.1695 B(  1-Au,  8-Au) :   0.3327 B(  1-Au, 10-Mn) :   0.6343
B(  2-Au,  4-Au) :   0.1696 B(  2-Au,  7-Au) :   0.3328 B(  2-Au, 10-Mn) :   0.6342
B(  3-Au,  6-Au) :   0.3327 B(  3-Au, 10-Mn) :   0.6342 B(  4-Au,  5-Au) :   0.3327
B(  4-Au, 10-Mn) :   0.6342 B(  5-Au,  7-Au) :   0.1695 B(  5-Au,  9-Au) :   0.1999
B(  5-Au, 10-Mn) :   0.6342 B(  6-Au,  8-Au) :   0.1697 B(  6-Au,  9-Au) :   0.1997
B(  6-Au, 10-Mn) :   0.6342 B(  7-Au,  9-Au) :   0.1999 B(  7-Au, 10-Mn) :   0.6342
B(  8-Au,  9-Au) :   0.1998 B(  8-Au, 10-Mn) :   0.6342 B(  9-Au, 10-Mn) :   0.3981

FINAL SINGLE POINT ENERGY     -2509.010210567275

DIPOLE MOMENT
-------------
                                X             Y             Z
Electronic contribution:     -0.00019       0.00198       0.00333
Nuclear contribution   :      0.00018      -0.00193      -0.00334
                        -----------------------------------------
Total Dipole Moment    :     -0.00001       0.00005      -0.00000
                        -----------------------------------------
Magnitude (a.u.)       :      0.00005
Magnitude (Debye)      :      0.00013

Rotational constants in cm-1:     0.002151     0.001696     0.001502
Rotational constants in MHz :    64.487260    50.832463    45.019299

                             ****ORCA TERMINATED NORMALLY****
TOTAL RUN TIME: 0 days 1 hours 22 minutes 18 seconds 577 msec
