                         Program Version 5.0.3 -  RELEASE  -
|  1> !CASSCF def2-TZVP def2-TZVP/C
|  2> !MOREAD RIJCOSX
|  3> %maxcore 6000
|  4> %moinp "pbe.qro"
|  5> %pal nprocs 2 end
|  6>
|  7> %casscf
|  8>  mult 5,3
|  9>  bweight 1,1
| 10>  nroots 5,45
| 11>  nel 6
| 12>  norb 5
| 13> end
| 14>
| 15>
| 16> *xyzfile 0 5 pbe.xyz
| 17>
| 18>
| 19>                          ****END OF INPUT****

CARTESIAN COORDINATES (ANGSTROEM)
---------------------------------
  Au    11.594697    4.361410    7.022919
  Au    10.929901    6.894328    6.204083
  Au     6.302455    9.070601    6.071740
  Au     8.877277    4.640179    6.289869
  Au     9.128194    8.839842    5.784637
  Au     7.175556    6.521196    5.476674
  Au     9.790009    8.303548    9.699897
  Au     7.879377    9.542341    8.296935
  Au     6.148543    7.234332    8.245947
  Au    10.552237    5.831805    9.140493
  Au     7.539477    5.065795    9.000771
  Au     9.594300    3.272525    8.661176
  Cr     8.685334    6.993076    7.597584

 Total Charge           Charge          ....    0
 Multiplicity           Mult            ....    5
 Number of Electrons    NEL             ....  252
 Basis Dimension        Dim             ....  525

ORBITAL ENERGIES
----------------

  NO   OCC          E(Eh)            E(eV)
   0   2.0000    -220.614059     -6003.2138
   1   2.0000     -26.473144      -720.3709
   2   2.0000     -22.404014      -609.6442
   3   2.0000     -22.401468      -609.5749
   4   2.0000     -22.397645      -609.4709
   5   2.0000      -4.722320      -128.5009
   6   2.0000      -4.717090      -128.3585
   7   2.0000      -4.713010      -128.2475
   8   2.0000      -4.712692      -128.2389
   9   2.0000      -4.711560      -128.2081
  10   2.0000      -4.709000      -128.1384
  11   2.0000      -4.708849      -128.1343
  12   2.0000      -4.708295      -128.1192
  13   2.0000      -4.706165      -128.0613
  14   2.0000      -4.701195      -127.9260
  15   2.0000      -4.700578      -127.9092
  16   2.0000      -4.697584      -127.8278
  17   2.0000      -3.512198       -95.5718
  18   2.0000      -2.762441       -75.1698
  19   2.0000      -2.759635       -75.0935
  20   2.0000      -2.756375       -75.0048
  21   2.0000      -2.755755       -74.9879
  22   2.0000      -2.754509       -74.9540
  23   2.0000      -2.753000       -74.9129
  24   2.0000      -2.752308       -74.8941
  25   2.0000      -2.751138       -74.8623
  26   2.0000      -2.750454       -74.8436
  27   2.0000      -2.749805       -74.8260
  28   2.0000      -2.749345       -74.8135
  29   2.0000      -2.748512       -74.7908
  30   2.0000      -2.748090       -74.7793
  31   2.0000      -2.747778       -74.7708
  32   2.0000      -2.747520       -74.7638
  33   2.0000      -2.747143       -74.7536
  34   2.0000      -2.746989       -74.7494
  35   2.0000      -2.746006       -74.7226
  36   2.0000      -2.745180       -74.7002
  37   2.0000      -2.744401       -74.6789
  38   2.0000      -2.743476       -74.6538
  39   2.0000      -2.741938       -74.6119
  40   2.0000      -2.741337       -74.5956
  41   2.0000      -2.740756       -74.5798
  42   2.0000      -2.739777       -74.5531
  43   2.0000      -2.738747       -74.5251
  44   2.0000      -2.738275       -74.5122
  45   2.0000      -2.737973       -74.5040
  46   2.0000      -2.737146       -74.4815
  47   2.0000      -2.735258       -74.4302
  48   2.0000      -2.734933       -74.4213
  49   2.0000      -2.734694       -74.4148
  50   2.0000      -2.732778       -74.3627
  51   2.0000      -2.732128       -74.3450
  52   2.0000      -2.731596       -74.3305
  53   2.0000      -2.728206       -74.2383
  54   2.0000      -2.266775       -61.6821
  55   2.0000      -2.265001       -61.6338
  56   2.0000      -2.263527       -61.5937
  57   2.0000      -0.560676       -15.2568
  58   2.0000      -0.557290       -15.1646
  59   2.0000      -0.551512       -15.0074
  60   2.0000      -0.548089       -14.9142
  61   2.0000      -0.542227       -14.7548
  62   2.0000      -0.540197       -14.6995
  63   2.0000      -0.535902       -14.5826
  64   2.0000      -0.533713       -14.5231
  65   2.0000      -0.531119       -14.4525
  66   2.0000      -0.530352       -14.4316
  67   2.0000      -0.526255       -14.3201
  68   2.0000      -0.525212       -14.2917
  69   2.0000      -0.524248       -14.2655
  70   2.0000      -0.520878       -14.1738
  71   2.0000      -0.520304       -14.1582
  72   2.0000      -0.519473       -14.1356
  73   2.0000      -0.512109       -13.9352
  74   2.0000      -0.511305       -13.9133
  75   2.0000      -0.508758       -13.8440
  76   2.0000      -0.506339       -13.7782
  77   2.0000      -0.503754       -13.7078
  78   2.0000      -0.500743       -13.6259
  79   2.0000      -0.494690       -13.4612
  80   2.0000      -0.492874       -13.4118
  81   2.0000      -0.491265       -13.3680
  82   2.0000      -0.484252       -13.1772
  83   2.0000      -0.480106       -13.0643
  84   2.0000      -0.478210       -13.0127
  85   2.0000      -0.474991       -12.9252
  86   2.0000      -0.473664       -12.8891
  87   2.0000      -0.470583       -12.8052
  88   2.0000      -0.470422       -12.8008
  89   2.0000      -0.467141       -12.7116
  90   2.0000      -0.462579       -12.5874
  91   2.0000      -0.461924       -12.5696
  92   2.0000      -0.457901       -12.4601
  93   2.0000      -0.457743       -12.4558
  94   2.0000      -0.456555       -12.4235
  95   2.0000      -0.453978       -12.3534
  96   2.0000      -0.453638       -12.3441
  97   2.0000      -0.451341       -12.2816
  98   2.0000      -0.449087       -12.2203
  99   2.0000      -0.448298       -12.1988
 100   2.0000      -0.442527       -12.0418
 101   2.0000      -0.442001       -12.0275
 102   2.0000      -0.438614       -11.9353
 103   2.0000      -0.438049       -11.9199
 104   2.0000      -0.436122       -11.8675
 105   2.0000      -0.435151       -11.8411
 106   2.0000      -0.433045       -11.7837
 107   2.0000      -0.432462       -11.7679
 108   2.0000      -0.426684       -11.6107
 109   2.0000      -0.426175       -11.5968
 110   2.0000      -0.423828       -11.5329
 111   2.0000      -0.418409       -11.3855
 112   2.0000      -0.416356       -11.3296
 113   2.0000      -0.411390       -11.1945
 114   2.0000      -0.408120       -11.1055
 115   2.0000      -0.407333       -11.0841
 116   2.0000      -0.402265       -10.9462
 117   2.0000      -0.393007       -10.6943
 118   2.0000      -0.372787       -10.1440
 119   2.0000      -0.312828        -8.5125
 120   2.0000      -0.307835        -8.3766
 121   2.0000      -0.258978        -7.0472
 122   2.0000      -0.221339        -6.0229
 123   1.2000      -0.190618        -5.1870
 124   1.2000      -0.198722        -5.4075
 125   1.2000      -0.192814        -5.2467
 126   1.2000      -0.151905        -4.1335
 127   1.2000      -0.153077        -4.1654
 128   0.0000      -0.012528        -0.3409
 129   0.0000      -0.002642        -0.0719
 130   0.0000       0.003792         0.1032
 131   0.0000       0.017415         0.4739
 132   0.0000       0.025524         0.6945

MULLIKEN ATOMIC CHARGES AND SPIN DENSITIES
------------------------------------------
   0 Au:    0.343822    0.113636
   1 Au:    0.267098    0.048017
   2 Au:    0.508010    0.033105
   3 Au:    0.153866    0.029107
   4 Au:    0.272503    0.053193
   5 Au:    0.454033    0.032921
   6 Au:    0.274429    0.032915
   7 Au:    0.384034    0.055752
   8 Au:    0.270546    0.056787
   9 Au:    0.102296    0.075934
  10 Au:    0.261371    0.047433
  11 Au:    0.351213    0.110761
  12 Cr:   -3.643218    2.310439
Sum of atomic charges       :    0.0000000

LOEWDIN ATOMIC CHARGES AND SPIN DENSITIES
-----------------------------------------
   0 Au:    0.129825    0.102160
   1 Au:    0.060531    0.081730
   2 Au:    0.179423    0.063028
   3 Au:   -0.025554    0.049852
   4 Au:    0.071384    0.079001
   5 Au:    0.078476    0.050777
   6 Au:    0.150860    0.073121
   7 Au:    0.052279    0.069418
   8 Au:    0.072958    0.081936
   9 Au:    0.014042    0.106509
  10 Au:    0.062020    0.080195
  11 Au:    0.131469    0.099502
  12 Cr:   -0.977713    2.062769

  Mayer bond orders larger than 0.100000
B(  0-Au,  1-Au) :   0.1539 B(  0-Au,  3-Au) :   0.1667 B(  0-Au,  9-Au) :   0.2188
B(  0-Au, 11-Au) :   0.1201 B(  0-Au, 12-Cr) :   0.3530 B(  1-Au,  4-Au) :   0.4462
B(  1-Au, 12-Cr) :   0.6263 B(  2-Au,  4-Au) :   0.1328 B(  2-Au,  5-Au) :   0.1742
B(  2-Au,  7-Au) :   0.1577 B(  2-Au,  8-Au) :   0.1327 B(  2-Au, 12-Cr) :   0.3094
B(  3-Au,  5-Au) :   0.3540 B(  3-Au,  9-Au) :   0.1035 B(  3-Au, 11-Au) :   0.1610
B(  3-Au, 12-Cr) :   0.6057 B(  4-Au, 12-Cr) :   0.5194 B(  5-Au, 12-Cr) :   0.6175
B(  6-Au,  7-Au) :   0.3160 B(  6-Au,  9-Au) :   0.3182 B(  6-Au, 12-Cr) :   0.6002
B(  7-Au, 12-Cr) :   0.4244 B(  8-Au, 10-Au) :   0.4462 B(  8-Au, 12-Cr) :   0.5091
B(  9-Au, 11-Au) :   0.2319 B(  9-Au, 12-Cr) :   0.4664 B( 10-Au, 11-Au) :   0.1494
B( 10-Au, 12-Cr) :   0.6287 B( 11-Au, 12-Cr) :   0.3458

FINAL SINGLE POINT ENERGY     -2660.818748799494

DIPOLE MOMENT
-------------
                                X             Y             Z
Electronic contribution:      3.72264     -12.70699      -3.77739
Nuclear contribution   :     -3.76767      12.69239       3.73214
                        -----------------------------------------
Total Dipole Moment    :     -0.04502      -0.01459      -0.04526
                        -----------------------------------------
Magnitude (a.u.)       :      0.06549
Magnitude (Debye)      :      0.16645

Rotational constants in cm-1:     0.001793     0.001041     0.001035
Rotational constants in MHz :    53.745825    31.200667    31.034795

                             ****ORCA TERMINATED NORMALLY****
TOTAL RUN TIME: 0 days 1 hours 31 minutes 6 seconds 261 msec
