                         Program Version 5.0.3 -  RELEASE  -
|  1> %pal nprocs 1 end
|  2>
|  3> !PBE def2-TZVP OPT UNO
|  4> !SLOWCONV
|  5>
|  6> *xyzfile 0 4 6.xyz                           ****END OF INPUT****
 Total Charge           Charge          ....    0
 Multiplicity           Mult            ....    4
 Number of Electrons    NEL             ....  311
FINAL SINGLE POINT ENERGY     -3300.905314016285
FINAL SINGLE POINT ENERGY     -3300.907712572325
FINAL SINGLE POINT ENERGY     -3300.908453639933
FINAL SINGLE POINT ENERGY     -3300.909098671274
FINAL SINGLE POINT ENERGY     -3300.909632124947
FINAL SINGLE POINT ENERGY     -3300.910038674609
FINAL SINGLE POINT ENERGY     -3300.910304345954
FINAL SINGLE POINT ENERGY     -3300.910413399478
FINAL SINGLE POINT ENERGY     -3300.910716913752
FINAL SINGLE POINT ENERGY     -3300.910902702677
FINAL SINGLE POINT ENERGY     -3300.910975216348
FINAL SINGLE POINT ENERGY     -3300.911011673709
FINAL SINGLE POINT ENERGY     -3300.911050770240
FINAL SINGLE POINT ENERGY     -3300.911068704040
FINAL SINGLE POINT ENERGY     -3300.911077191469
FINAL SINGLE POINT ENERGY     -3300.911082143116
                    ***********************HURRAY********************

CARTESIAN COORDINATES (ANGSTROEM)
---------------------------------
  Au     5.776039    7.440422    5.889958
  Au     8.439488    7.838301    5.213179
  Au     9.839849    9.859324    6.593181
  Au     7.043765    9.941455    6.543059
  Au    10.388895    6.920572    7.033627
  Au     7.808423    5.843279    7.148165
  Au     5.464789    6.243692    8.440093
  Au     3.364656    7.543327    9.597908
  Au     7.877815    6.250697    9.864126
  Au     4.925662    9.115078    8.010264
  Au     7.100527   10.360394    9.258753
  Au     9.943071   10.189643    9.303970
  Au     5.840642    8.149843   10.612756
  Au    10.463670    7.431987    9.716797
  Au     8.431099    8.725643   11.188691
  Fe     8.378078    8.270623    8.191806

 Multiplicity           Mult            ....    4
 Number of Electrons    NEL             ....  311
 Basis Dimension        Dim             ....  645

ORBITAL ENERGIES
----------------
                 SPIN UP ORBITALS
  NO   OCC          E(Eh)            E(eV)
   0   1.0000    -254.759757     -6932.3654
   1   1.0000     -29.596236      -805.3545
   2   1.0000     -25.538987      -694.9512
   3   1.0000     -25.534222      -694.8215
   4   1.0000     -25.521655      -694.4795
   5   1.0000      -4.038192      -109.8848
   6   1.0000      -4.038174      -109.8843
   7   1.0000      -4.033684      -109.7621
   8   1.0000      -4.033640      -109.7609
   9   1.0000      -4.029277      -109.6422
  10   1.0000      -4.027914      -109.6051
  11   1.0000      -4.025491      -109.5392
  12   1.0000      -4.025435      -109.5376
  13   1.0000      -4.025418      -109.5372
  14   1.0000      -4.025377      -109.5361
  15   1.0000      -4.024971      -109.5250
  16   1.0000      -4.024873      -109.5224
  17   1.0000      -4.023795      -109.4930
  18   1.0000      -4.019985      -109.3893
  19   1.0000      -4.015336      -109.2629
  20   1.0000      -3.375034       -91.8393
  21   1.0000      -2.253492       -61.3206
  22   1.0000      -2.253477       -61.3202
  23   1.0000      -2.252319       -61.2887
  24   1.0000      -2.252281       -61.2877
  25   1.0000      -2.249110       -61.2014
  26   1.0000      -2.249038       -61.1994
  27   1.0000      -2.248279       -61.1788
  28   1.0000      -2.248216       -61.1771
  29   1.0000      -2.246926       -61.1420
  30   1.0000      -2.246887       -61.1409
  31   1.0000      -2.245701       -61.1086
  32   1.0000      -2.244469       -61.0751
  33   1.0000      -2.244014       -61.0627
  34   1.0000      -2.243630       -61.0523
  35   1.0000      -2.242677       -61.0263
  36   1.0000      -2.242565       -61.0233
  37   1.0000      -2.241490       -60.9941
  38   1.0000      -2.241367       -60.9907
  39   1.0000      -2.241267       -60.9880
  40   1.0000      -2.241041       -60.9818
  41   1.0000      -2.240866       -60.9771
  42   1.0000      -2.240251       -60.9603
  43   1.0000      -2.240236       -60.9599
  44   1.0000      -2.239464       -60.9389
  45   1.0000      -2.239329       -60.9352
  46   1.0000      -2.238923       -60.9242
  47   1.0000      -2.238630       -60.9162
  48   1.0000      -2.238252       -60.9059
  49   1.0000      -2.237846       -60.8949
  50   1.0000      -2.236636       -60.8619
  51   1.0000      -2.236544       -60.8595
  52   1.0000      -2.236067       -60.8465
  53   1.0000      -2.235908       -60.8421
  54   1.0000      -2.235428       -60.8291
  55   1.0000      -2.235103       -60.8202
  56   1.0000      -2.234608       -60.8068
  57   1.0000      -2.234440       -60.8022
  58   1.0000      -2.233992       -60.7900
  59   1.0000      -2.232991       -60.7628
  60   1.0000      -2.232861       -60.7592
  61   1.0000      -2.231056       -60.7101
  62   1.0000      -2.230388       -60.6919
  63   1.0000      -2.229685       -60.6728
  64   1.0000      -2.228368       -60.6370
  65   1.0000      -2.226518       -60.5866
  66   1.0000      -2.203686       -59.9653
  67   1.0000      -2.193765       -59.6954
  68   1.0000      -2.168717       -59.0138
  69   1.0000      -0.433653       -11.8003
  70   1.0000      -0.396692       -10.7945
  71   1.0000      -0.389495       -10.5987
  72   1.0000      -0.386306       -10.5119
  73   1.0000      -0.379087       -10.3155
  74   1.0000      -0.372225       -10.1288
  75   1.0000      -0.371013       -10.0958
  76   1.0000      -0.368253       -10.0207
  77   1.0000      -0.367215        -9.9924
  78   1.0000      -0.366119        -9.9626
  79   1.0000      -0.360552        -9.8111
  80   1.0000      -0.359877        -9.7927
  81   1.0000      -0.357070        -9.7164
  82   1.0000      -0.354521        -9.6470
  83   1.0000      -0.353302        -9.6138
  84   1.0000      -0.351488        -9.5645
  85   1.0000      -0.350004        -9.5241
  86   1.0000      -0.346067        -9.4170
  87   1.0000      -0.346012        -9.4155
  88   1.0000      -0.343813        -9.3556
  89   1.0000      -0.340572        -9.2674
  90   1.0000      -0.340035        -9.2528
  91   1.0000      -0.336431        -9.1547
  92   1.0000      -0.335630        -9.1330
  93   1.0000      -0.334572        -9.1042
  94   1.0000      -0.333703        -9.0805
  95   1.0000      -0.327646        -8.9157
  96   1.0000      -0.326661        -8.8889
  97   1.0000      -0.323986        -8.8161
  98   1.0000      -0.323076        -8.7913
  99   1.0000      -0.318769        -8.6741
 100   1.0000      -0.318535        -8.6678
 101   1.0000      -0.316181        -8.6037
 102   1.0000      -0.315143        -8.5755
 103   1.0000      -0.312557        -8.5051
 104   1.0000      -0.309022        -8.4089
 105   1.0000      -0.306056        -8.3282
 106   1.0000      -0.304523        -8.2865
 107   1.0000      -0.300907        -8.1881
 108   1.0000      -0.297665        -8.0999
 109   1.0000      -0.294744        -8.0204
 110   1.0000      -0.293661        -7.9909
 111   1.0000      -0.292359        -7.9555
 112   1.0000      -0.290037        -7.8923
 113   1.0000      -0.288795        -7.8585
 114   1.0000      -0.288102        -7.8397
 115   1.0000      -0.283112        -7.7039
 116   1.0000      -0.279533        -7.6065
 117   1.0000      -0.278738        -7.5848
 118   1.0000      -0.276723        -7.5300
 119   1.0000      -0.274351        -7.4655
 120   1.0000      -0.273461        -7.4412
 121   1.0000      -0.273424        -7.4403
 122   1.0000      -0.271455        -7.3867
 123   1.0000      -0.270751        -7.3675
 124   1.0000      -0.269478        -7.3329
 125   1.0000      -0.268911        -7.3174
 126   1.0000      -0.268342        -7.3020
 127   1.0000      -0.265964        -7.2373
 128   1.0000      -0.263407        -7.1677
 129   1.0000      -0.262758        -7.1500
 130   1.0000      -0.262048        -7.1307
 131   1.0000      -0.260515        -7.0890
 132   1.0000      -0.259555        -7.0628
 133   1.0000      -0.259465        -7.0604
 134   1.0000      -0.256662        -6.9841
 135   1.0000      -0.256533        -6.9806
 136   1.0000      -0.255549        -6.9538
 137   1.0000      -0.254961        -6.9378
 138   1.0000      -0.254158        -6.9160
 139   1.0000      -0.252672        -6.8755
 140   1.0000      -0.251354        -6.8397
 141   1.0000      -0.248931        -6.7738
 142   1.0000      -0.247943        -6.7469
 143   1.0000      -0.247860        -6.7446
 144   1.0000      -0.247448        -6.7334
 145   1.0000      -0.245846        -6.6898
 146   1.0000      -0.245164        -6.6713
 147   1.0000      -0.244213        -6.6454
 148   1.0000      -0.241943        -6.5836
 149   1.0000      -0.241328        -6.5669
 150   1.0000      -0.238716        -6.4958
 151   1.0000      -0.237807        -6.4711
 152   1.0000      -0.229109        -6.2344
 153   1.0000      -0.226421        -6.1612
 154   1.0000      -0.209473        -5.7001
 155   1.0000      -0.202413        -5.5079
 156   1.0000      -0.200991        -5.4692
 157   0.0000      -0.190307        -5.1785
 158   0.0000      -0.151197        -4.1143
 159   0.0000      -0.132866        -3.6155
 160   0.0000      -0.129303        -3.5185
 161   0.0000      -0.128850        -3.5062

                 SPIN DOWN ORBITALS
  NO   OCC          E(Eh)            E(eV)
   0   1.0000    -254.759069     -6932.3467
   1   1.0000     -29.538072      -803.7718
   2   1.0000     -25.491944      -693.6711
   3   1.0000     -25.489781      -693.6122
   4   1.0000     -25.481384      -693.3837
   5   1.0000      -4.037759      -109.8730
   6   1.0000      -4.037732      -109.8723
   7   1.0000      -4.033232      -109.7498
   8   1.0000      -4.033196      -109.7489
   9   1.0000      -4.029510      -109.6485
  10   1.0000      -4.028114      -109.6105
  11   1.0000      -4.025686      -109.5445
  12   1.0000      -4.025630      -109.5429
  13   1.0000      -4.025325      -109.5347
  14   1.0000      -4.025286      -109.5336
  15   1.0000      -4.024778      -109.5198
  16   1.0000      -4.024677      -109.5170
  17   1.0000      -4.024189      -109.5037
  18   1.0000      -4.020129      -109.3933
  19   1.0000      -4.015588      -109.2697
  20   1.0000      -3.243171       -88.2512
  21   1.0000      -2.253289       -61.3151
  22   1.0000      -2.253268       -61.3145
  23   1.0000      -2.251465       -61.2655
  24   1.0000      -2.251450       -61.2651
  25   1.0000      -2.248560       -61.1864
  26   1.0000      -2.248494       -61.1846
  27   1.0000      -2.247409       -61.1551
  28   1.0000      -2.247348       -61.1535
  29   1.0000      -2.246706       -61.1360
  30   1.0000      -2.246656       -61.1346
  31   1.0000      -2.245749       -61.1099
  32   1.0000      -2.244299       -61.0705
  33   1.0000      -2.243937       -61.0606
  34   1.0000      -2.243801       -61.0569
  35   1.0000      -2.242940       -61.0335
  36   1.0000      -2.242606       -61.0244
  37   1.0000      -2.241760       -61.0014
  38   1.0000      -2.241602       -60.9971
  39   1.0000      -2.241419       -60.9921
  40   1.0000      -2.240561       -60.9688
  41   1.0000      -2.240481       -60.9666
  42   1.0000      -2.240297       -60.9616
  43   1.0000      -2.240158       -60.9578
  44   1.0000      -2.239646       -60.9439
  45   1.0000      -2.239251       -60.9331
  46   1.0000      -2.238640       -60.9165
  47   1.0000      -2.238345       -60.9085
  48   1.0000      -2.238269       -60.9064
  49   1.0000      -2.237943       -60.8975
  50   1.0000      -2.236493       -60.8581
  51   1.0000      -2.236373       -60.8548
  52   1.0000      -2.236303       -60.8529
  53   1.0000      -2.236158       -60.8489
  54   1.0000      -2.235647       -60.8350
  55   1.0000      -2.235585       -60.8334
  56   1.0000      -2.234726       -60.8100
  57   1.0000      -2.234612       -60.8069
  58   1.0000      -2.234115       -60.7934
  59   1.0000      -2.233252       -60.7699
  60   1.0000      -2.232971       -60.7622
  61   1.0000      -2.231316       -60.7172
  62   1.0000      -2.230410       -60.6925
  63   1.0000      -2.229832       -60.6768
  64   1.0000      -2.228848       -60.6500
  65   1.0000      -2.226738       -60.5926
  66   1.0000      -2.065916       -56.2164
  67   1.0000      -2.062883       -56.1339
  68   1.0000      -2.050146       -55.7873
  69   1.0000      -0.430128       -11.7044
  70   1.0000      -0.395358       -10.7582
  71   1.0000      -0.389042       -10.5864
  72   1.0000      -0.386280       -10.5112
  73   1.0000      -0.374128       -10.1805
  74   1.0000      -0.368117       -10.0170
  75   1.0000      -0.366195        -9.9647
  76   1.0000      -0.365206        -9.9378
  77   1.0000      -0.362722        -9.8702
  78   1.0000      -0.362640        -9.8679
  79   1.0000      -0.357417        -9.7258
  80   1.0000      -0.357286        -9.7223
  81   1.0000      -0.354993        -9.6598
  82   1.0000      -0.353285        -9.6134
  83   1.0000      -0.353239        -9.6121
  84   1.0000      -0.350388        -9.5345
  85   1.0000      -0.349834        -9.5195
  86   1.0000      -0.345392        -9.3986
  87   1.0000      -0.345192        -9.3932
  88   1.0000      -0.342969        -9.3327
  89   1.0000      -0.340615        -9.2686
  90   1.0000      -0.335977        -9.1424
  91   1.0000      -0.335913        -9.1407
  92   1.0000      -0.335141        -9.1197
  93   1.0000      -0.333893        -9.0857
  94   1.0000      -0.329984        -8.9793
  95   1.0000      -0.327966        -8.9244
  96   1.0000      -0.323309        -8.7977
  97   1.0000      -0.322597        -8.7783
  98   1.0000      -0.318367        -8.6632
  99   1.0000      -0.317298        -8.6341
 100   1.0000      -0.315164        -8.5760
 101   1.0000      -0.314655        -8.5622
 102   1.0000      -0.311138        -8.4665
 103   1.0000      -0.307257        -8.3609
 104   1.0000      -0.307137        -8.3576
 105   1.0000      -0.304949        -8.2981
 106   1.0000      -0.301827        -8.2131
 107   1.0000      -0.297695        -8.1007
 108   1.0000      -0.294066        -8.0019
 109   1.0000      -0.293466        -7.9856
 110   1.0000      -0.292795        -7.9674
 111   1.0000      -0.288743        -7.8571
 112   1.0000      -0.288036        -7.8379
 113   1.0000      -0.287700        -7.8287
 114   1.0000      -0.283485        -7.7140
 115   1.0000      -0.281546        -7.6613
 116   1.0000      -0.278378        -7.5751
 117   1.0000      -0.276723        -7.5300
 118   1.0000      -0.276416        -7.5217
 119   1.0000      -0.272572        -7.4171
 120   1.0000      -0.271864        -7.3978
 121   1.0000      -0.271498        -7.3878
 122   1.0000      -0.271091        -7.3768
 123   1.0000      -0.269191        -7.3251
 124   1.0000      -0.268854        -7.3159
 125   1.0000      -0.267693        -7.2843
 126   1.0000      -0.265784        -7.2324
 127   1.0000      -0.263359        -7.1664
 128   1.0000      -0.262735        -7.1494
 129   1.0000      -0.262099        -7.1321
 130   1.0000      -0.260601        -7.0913
 131   1.0000      -0.259597        -7.0640
 132   1.0000      -0.259150        -7.0518
 133   1.0000      -0.256756        -6.9867
 134   1.0000      -0.256067        -6.9679
 135   1.0000      -0.255288        -6.9467
 136   1.0000      -0.252456        -6.8697
 137   1.0000      -0.252376        -6.8675
 138   1.0000      -0.251646        -6.8476
 139   1.0000      -0.248481        -6.7615
 140   1.0000      -0.248223        -6.7545
 141   1.0000      -0.245958        -6.6928
 142   1.0000      -0.244304        -6.6479
 143   1.0000      -0.241925        -6.5831
 144   1.0000      -0.241766        -6.5788
 145   1.0000      -0.239966        -6.5298
 146   1.0000      -0.239162        -6.5079
 147   1.0000      -0.230107        -6.2615
 148   1.0000      -0.229812        -6.2535
 149   1.0000      -0.214904        -5.8478
 150   1.0000      -0.211431        -5.7533
 151   1.0000      -0.207613        -5.6494
 152   1.0000      -0.207331        -5.6418
 153   1.0000      -0.182911        -4.9773
 154   0.0000      -0.165449        -4.5021
 155   0.0000      -0.161925        -4.4062
 156   0.0000      -0.154328        -4.1995
 157   0.0000      -0.148835        -4.0500
 158   0.0000      -0.146560        -3.9881

MULLIKEN ATOMIC CHARGES AND SPIN POPULATIONS
--------------------------------------------
   0 Au:    0.149231    0.040524
   1 Au:    0.189925    0.032357
   2 Au:    0.292766   -0.005381
   3 Au:    0.192823   -0.050899
   4 Au:    0.291861   -0.005523
   5 Au:    0.192422   -0.052143
   6 Au:   -0.185355    0.046673
   7 Au:    0.550251   -0.055126
   8 Au:    0.154133   -0.056765
   9 Au:   -0.186988    0.046582
  10 Au:    0.155204   -0.058773
  11 Au:    0.277009    0.020216
  12 Au:   -0.258176    0.004441
  13 Au:    0.277698    0.019573
  14 Au:    0.280011    0.025341
  15 Fe:   -2.372817    3.048904
Sum of atomic charges         :    0.0000000

LOEWDIN ATOMIC CHARGES AND SPIN POPULATIONS
-------------------------------------------
   0 Au:    0.029140    0.018857
   1 Au:    0.029063   -0.015883
   2 Au:    0.087079   -0.020268
   3 Au:    0.043109   -0.008620
   4 Au:    0.087068   -0.020263
   5 Au:    0.042458   -0.008767
   6 Au:   -0.079985    0.012049
   7 Au:    0.153374   -0.030532
   8 Au:    0.063692   -0.016415
   9 Au:   -0.080122    0.011751
  10 Au:    0.063321   -0.016974
  11 Au:    0.065949   -0.000598
  12 Au:   -0.064292   -0.019970
  13 Au:    0.065954   -0.000996
  14 Au:    0.039293   -0.019437
  15 Fe:   -0.545100    3.136064

  Mayer bond orders larger than 0.100000
B(  0-Au,  1-Au) :   0.3391 B(  0-Au,  3-Au) :   0.1890 B(  0-Au,  5-Au) :   0.1920
B(  0-Au,  6-Au) :   0.2325 B(  0-Au,  9-Au) :   0.2341 B(  0-Au, 15-Fe) :   0.2117
B(  1-Au,  2-Au) :   0.2204 B(  1-Au,  3-Au) :   0.1680 B(  1-Au,  4-Au) :   0.2201
B(  1-Au,  5-Au) :   0.1697 B(  1-Au, 15-Fe) :   0.3416 B(  2-Au,  3-Au) :   0.2254
B(  2-Au, 11-Au) :   0.2791 B(  2-Au, 15-Fe) :   0.4592 B(  3-Au,  9-Au) :   0.4078
B(  3-Au, 10-Au) :   0.2109 B(  3-Au, 15-Fe) :   0.4654 B(  4-Au,  5-Au) :   0.2252
B(  4-Au, 13-Au) :   0.2792 B(  4-Au, 15-Fe) :   0.4609 B(  5-Au,  6-Au) :   0.4073
B(  5-Au,  8-Au) :   0.2113 B(  5-Au, 15-Fe) :   0.4631 B(  6-Au,  7-Au) :   0.3213
B(  6-Au,  8-Au) :   0.2852 B(  6-Au,  9-Au) :   0.2744 B(  6-Au, 12-Au) :   0.2722
B(  6-Au, 15-Fe) :   0.2038 B(  7-Au,  9-Au) :   0.3227 B(  7-Au, 12-Au) :   0.3458
B(  8-Au, 12-Au) :   0.2280 B(  8-Au, 13-Au) :   0.1728 B(  8-Au, 14-Au) :   0.1414
B(  8-Au, 15-Fe) :   0.5104 B(  9-Au, 10-Au) :   0.2847 B(  9-Au, 12-Au) :   0.2709
B(  9-Au, 15-Fe) :   0.2037 B( 10-Au, 11-Au) :   0.1724 B( 10-Au, 12-Au) :   0.2276
B( 10-Au, 14-Au) :   0.1435 B( 10-Au, 15-Fe) :   0.5083 B( 11-Au, 13-Au) :   0.1668
B( 11-Au, 14-Au) :   0.2140 B( 11-Au, 15-Fe) :   0.4634 B( 12-Au, 14-Au) :   0.4705
B( 12-Au, 15-Fe) :   0.2122 B( 13-Au, 14-Au) :   0.2150 B( 13-Au, 15-Fe) :   0.4617
B( 14-Au, 15-Fe) :   0.2933

FINAL SINGLE POINT ENERGY     -3300.911086131248

DIPOLE MOMENT
-------------
                                X             Y             Z
Electronic contribution:    -32.94543      -5.59597       3.97302
Nuclear contribution   :     33.03728       5.62148      -3.91837
                        -----------------------------------------
Total Dipole Moment    :      0.09185       0.02551       0.05465
                        -----------------------------------------
Magnitude (a.u.)       :      0.10988
Magnitude (Debye)      :      0.27929

Rotational constants in cm-1:     0.001126     0.000877     0.000763
Rotational constants in MHz :    33.743519    26.297830    22.888199

                             ****ORCA TERMINATED NORMALLY****
TOTAL RUN TIME: 0 days 3 hours 39 minutes 44 seconds 930 msec
