                         Program Version 5.0.3 -  RELEASE  -
|  1> !RI-B2PLYP def2-TZVP def2-TZVP/C
|  2> !RIJCOSX VERYSLOWCONV
|  3>
|  4> %scf
|  5>   AutoTRAHIter 200
|  6>   maxiter 400
|  7> end
|  8>
|  9>
| 10> %pal nprocs 6 end
| 11>
| 12> *xyzfile 0 6 pbe.xyz
| 13>
| 14> $new_job
| 15>
| 16> !RI-B2PLYP def2-TZVP def2-TZVP/C
| 17> !RIJCOSX VERYSLOWCONV
| 18>
| 19> %scf
| 20>   AutoTRAHIter 200
| 21>   maxiter 400
| 22> end
| 23>
| 24>
| 25> %pal nprocs 6 end
| 26>
| 27> *xyzfile 0 4 pbe.xyz
| 28>
| 29>
| 30>
| 31>
| 32>
| 33>                          ****END OF INPUT****
 Total Charge           Charge          ....    0
 Multiplicity           Mult            ....    6
 Number of Electrons    NEL             ....  215
MP2 TOTAL ENERGY:    -2506.685491885 Eh
FINAL SINGLE POINT ENERGY     -2506.685491884577

CARTESIAN COORDINATES (ANGSTROEM)
---------------------------------
  Au     5.375438    3.938820    6.302104
  Au     8.228185    6.936406    7.533212
  Au     4.631038    5.177032    4.028374
  Au     6.804650    6.238355    5.444410
  Au     3.957912    6.635825    6.254948
  Au     6.330075    3.484324    8.709481
  Au     4.285340    8.167737    8.344516
  Au     7.868609    5.491503    9.967090
  Au     6.678195    7.847077    9.915840
  Au     5.005860    9.828676   10.331861
  Mn     5.836267    6.003457    8.055276

 Multiplicity           Mult            ....    4
 Number of Electrons    NEL             ....  215
 Basis Dimension        Dim             ....  445

ORBITAL ENERGIES
----------------
                 SPIN UP ORBITALS
  NO   OCC          E(Eh)            E(eV)
   0   1.0000    -237.622476     -6466.0363
   1   1.0000     -28.127118      -765.3778
   2   1.0000     -24.045520      -654.3119
   3   1.0000     -24.044388      -654.2811
   4   1.0000     -24.044020      -654.2711
   5   1.0000      -4.404356      -119.8486
   6   1.0000      -4.399633      -119.7201
   7   1.0000      -4.399202      -119.7084
   8   1.0000      -4.399153      -119.7070
   9   1.0000      -4.396372      -119.6314
  10   1.0000      -4.394163      -119.5713
  11   1.0000      -4.392868      -119.5360
  12   1.0000      -4.391346      -119.4946
  13   1.0000      -4.386400      -119.3600
  14   1.0000      -4.375470      -119.0626
  15   1.0000      -3.604968       -98.0962
  16   1.0000      -2.527222       -68.7692
  17   1.0000      -2.525070       -68.7106
  18   1.0000      -2.523080       -68.6565
  19   1.0000      -2.520389       -68.5833
  20   1.0000      -2.519152       -68.5496
  21   1.0000      -2.518736       -68.5383
  22   1.0000      -2.518111       -68.5213
  23   1.0000      -2.517251       -68.4979
  24   1.0000      -2.516843       -68.4868
  25   1.0000      -2.516474       -68.4767
  26   1.0000      -2.515146       -68.4406
  27   1.0000      -2.514962       -68.4356
  28   1.0000      -2.514416       -68.4207
  29   1.0000      -2.512932       -68.3803
  30   1.0000      -2.512708       -68.3743
  31   1.0000      -2.511284       -68.3355
  32   1.0000      -2.511036       -68.3288
  33   1.0000      -2.510255       -68.3075
  34   1.0000      -2.509414       -68.2846
  35   1.0000      -2.508438       -68.2581
  36   1.0000      -2.507963       -68.2451
  37   1.0000      -2.507521       -68.2331
  38   1.0000      -2.506435       -68.2036
  39   1.0000      -2.505142       -68.1684
  40   1.0000      -2.501929       -68.0810
  41   1.0000      -2.501548       -68.0706
  42   1.0000      -2.498518       -67.9881
  43   1.0000      -2.495897       -67.9168
  44   1.0000      -2.492134       -67.8144
  45   1.0000      -2.487920       -67.6997
  46   1.0000      -2.407504       -65.5115
  47   1.0000      -2.405281       -65.4510
  48   1.0000      -2.405214       -65.4492
  49   1.0000      -0.512227       -13.9384
  50   1.0000      -0.510183       -13.8828
  51   1.0000      -0.509811       -13.8727
  52   1.0000      -0.505393       -13.7524
  53   1.0000      -0.498905       -13.5759
  54   1.0000      -0.477687       -12.9985
  55   1.0000      -0.475728       -12.9452
  56   1.0000      -0.465429       -12.6650
  57   1.0000      -0.460992       -12.5442
  58   1.0000      -0.453002       -12.3268
  59   1.0000      -0.447920       -12.1885
  60   1.0000      -0.443521       -12.0688
  61   1.0000      -0.438370       -11.9287
  62   1.0000      -0.437538       -11.9060
  63   1.0000      -0.431760       -11.7488
  64   1.0000      -0.428260       -11.6535
  65   1.0000      -0.427017       -11.6197
  66   1.0000      -0.424284       -11.5454
  67   1.0000      -0.414536       -11.2801
  68   1.0000      -0.412291       -11.2190
  69   1.0000      -0.410720       -11.1763
  70   1.0000      -0.405132       -11.0242
  71   1.0000      -0.403571       -10.9817
  72   1.0000      -0.402351       -10.9485
  73   1.0000      -0.394472       -10.7341
  74   1.0000      -0.393675       -10.7124
  75   1.0000      -0.392166       -10.6714
  76   1.0000      -0.388216       -10.5639
  77   1.0000      -0.386768       -10.5245
  78   1.0000      -0.385317       -10.4850
  79   1.0000      -0.383581       -10.4378
  80   1.0000      -0.382112       -10.3978
  81   1.0000      -0.378037       -10.2869
  82   1.0000      -0.376555       -10.2466
  83   1.0000      -0.373134       -10.1535
  84   1.0000      -0.372186       -10.1277
  85   1.0000      -0.370168       -10.0728
  86   1.0000      -0.369634       -10.0582
  87   1.0000      -0.367523       -10.0008
  88   1.0000      -0.366675        -9.9777
  89   1.0000      -0.365303        -9.9404
  90   1.0000      -0.363795        -9.8994
  91   1.0000      -0.362056        -9.8521
  92   1.0000      -0.360194        -9.8014
  93   1.0000      -0.358929        -9.7670
  94   1.0000      -0.353341        -9.6149
  95   1.0000      -0.352609        -9.5950
  96   1.0000      -0.349212        -9.5025
  97   1.0000      -0.347431        -9.4541
  98   1.0000      -0.344936        -9.3862
  99   1.0000      -0.340617        -9.2686
 100   1.0000      -0.338536        -9.2120
 101   1.0000      -0.334944        -9.1143
 102   1.0000      -0.329554        -8.9676
 103   1.0000      -0.321339        -8.7441
 104   1.0000      -0.319726        -8.7002
 105   1.0000      -0.312914        -8.5148
 106   1.0000      -0.296080        -8.0568
 107   1.0000      -0.251964        -6.8563
 108   1.0000      -0.235671        -6.4129
 109   0.0000      -0.139690        -3.8012
 110   0.0000      -0.085308        -2.3213
 111   0.0000      -0.072210        -1.9649
 112   0.0000      -0.061753        -1.6804
 113   0.0000      -0.047627        -1.2960

                 SPIN DOWN ORBITALS
  NO   OCC          E(Eh)            E(eV)
   0   1.0000    -237.620358     -6465.9787
   1   1.0000     -28.025841      -762.6219
   2   1.0000     -23.952114      -651.7702
   3   1.0000     -23.951807      -651.7618
   4   1.0000     -23.951049      -651.7412
   5   1.0000      -4.404565      -119.8543
   6   1.0000      -4.401257      -119.7643
   7   1.0000      -4.399128      -119.7064
   8   1.0000      -4.399051      -119.7043
   9   1.0000      -4.396242      -119.6278
  10   1.0000      -4.395536      -119.6086
  11   1.0000      -4.393758      -119.5602
  12   1.0000      -4.389974      -119.4573
  13   1.0000      -4.386333      -119.3582
  14   1.0000      -4.376245      -119.0837
  15   1.0000      -3.320013       -90.3421
  16   1.0000      -2.526715       -68.7554
  17   1.0000      -2.525217       -68.7146
  18   1.0000      -2.523291       -68.6622
  19   1.0000      -2.520040       -68.5738
  20   1.0000      -2.519137       -68.5492
  21   1.0000      -2.518381       -68.5286
  22   1.0000      -2.516724       -68.4835
  23   1.0000      -2.516603       -68.4803
  24   1.0000      -2.516420       -68.4753
  25   1.0000      -2.515889       -68.4608
  26   1.0000      -2.515045       -68.4379
  27   1.0000      -2.514893       -68.4337
  28   1.0000      -2.513842       -68.4051
  29   1.0000      -2.512866       -68.3786
  30   1.0000      -2.512283       -68.3627
  31   1.0000      -2.511129       -68.3313
  32   1.0000      -2.510876       -68.3244
  33   1.0000      -2.510251       -68.3074
  34   1.0000      -2.509553       -68.2884
  35   1.0000      -2.508356       -68.2558
  36   1.0000      -2.507587       -68.2349
  37   1.0000      -2.506162       -68.1961
  38   1.0000      -2.505547       -68.1794
  39   1.0000      -2.505255       -68.1714
  40   1.0000      -2.502365       -68.0928
  41   1.0000      -2.500714       -68.0479
  42   1.0000      -2.497462       -67.9594
  43   1.0000      -2.496634       -67.9369
  44   1.0000      -2.492816       -67.8330
  45   1.0000      -2.488166       -67.7064
  46   1.0000      -2.081490       -56.6402
  47   1.0000      -2.079934       -56.5979
  48   1.0000      -2.078154       -56.5494
  49   1.0000      -0.487724       -13.2716
  50   1.0000      -0.478000       -13.0070
  51   1.0000      -0.470596       -12.8056
  52   1.0000      -0.466197       -12.6859
  53   1.0000      -0.462359       -12.5814
  54   1.0000      -0.457989       -12.4625
  55   1.0000      -0.452770       -12.3205
  56   1.0000      -0.442901       -12.0519
  57   1.0000      -0.441609       -12.0168
  58   1.0000      -0.436320       -11.8729
  59   1.0000      -0.433274       -11.7900
  60   1.0000      -0.432037       -11.7563
  61   1.0000      -0.429769       -11.6946
  62   1.0000      -0.422963       -11.5094
  63   1.0000      -0.419644       -11.4191
  64   1.0000      -0.416518       -11.3340
  65   1.0000      -0.414839       -11.2883
  66   1.0000      -0.412798       -11.2328
  67   1.0000      -0.410417       -11.1680
  68   1.0000      -0.409022       -11.1301
  69   1.0000      -0.401837       -10.9345
  70   1.0000      -0.396594       -10.7919
  71   1.0000      -0.394321       -10.7300
  72   1.0000      -0.391700       -10.6587
  73   1.0000      -0.391201       -10.6451
  74   1.0000      -0.388997       -10.5851
  75   1.0000      -0.388401       -10.5689
  76   1.0000      -0.385419       -10.4878
  77   1.0000      -0.381566       -10.3829
  78   1.0000      -0.378507       -10.2997
  79   1.0000      -0.375220       -10.2103
  80   1.0000      -0.374560       -10.1923
  81   1.0000      -0.370688       -10.0869
  82   1.0000      -0.370075       -10.0702
  83   1.0000      -0.369035       -10.0420
  84   1.0000      -0.367523       -10.0008
  85   1.0000      -0.366006        -9.9595
  86   1.0000      -0.363282        -9.8854
  87   1.0000      -0.362990        -9.8775
  88   1.0000      -0.360986        -9.8229
  89   1.0000      -0.355194        -9.6653
  90   1.0000      -0.354528        -9.6472
  91   1.0000      -0.353042        -9.6068
  92   1.0000      -0.349435        -9.5086
  93   1.0000      -0.347037        -9.4434
  94   1.0000      -0.342724        -9.3260
  95   1.0000      -0.341118        -9.2823
  96   1.0000      -0.337160        -9.1746
  97   1.0000      -0.333818        -9.0836
  98   1.0000      -0.329990        -8.9795
  99   1.0000      -0.328392        -8.9360
 100   1.0000      -0.315847        -8.5946
 101   1.0000      -0.309466        -8.4210
 102   1.0000      -0.278921        -7.5898
 103   1.0000      -0.246281        -6.7016
 104   1.0000      -0.243792        -6.6339
 105   1.0000      -0.184416        -5.0182
 106   0.0000      -0.083055        -2.2601
 107   0.0000      -0.069207        -1.8832
 108   0.0000      -0.062668        -1.7053
 109   0.0000      -0.041675        -1.1340
 110   0.0000      -0.029081        -0.7913

MULLIKEN ATOMIC CHARGES AND SPIN POPULATIONS
--------------------------------------------
   0 Au:   -0.104679   -0.184515
   1 Au:    0.157809   -0.037702
   2 Au:    0.351493   -0.195355
   3 Au:   -0.025825   -0.358633
   4 Au:    0.154749   -0.113269
   5 Au:    0.140770   -0.131462
   6 Au:   -0.207554   -0.015707
   7 Au:    0.295318   -0.436873
   8 Au:   -0.254888   -0.118472
   9 Au:    0.323064   -0.129027
  10 Mn:   -0.830257    4.721015
Sum of atomic charges         :   -0.0000000

LOEWDIN ATOMIC CHARGES AND SPIN POPULATIONS
-------------------------------------------
   0 Au:   -0.081515   -0.140271
   1 Au:    0.097739   -0.170357
   2 Au:    0.121865   -0.166469
   3 Au:   -0.045231   -0.225959
   4 Au:   -0.024798   -0.090849
   5 Au:    0.031616   -0.201714
   6 Au:   -0.059145   -0.024031
   7 Au:    0.033274   -0.362738
   8 Au:   -0.105792   -0.092850
   9 Au:    0.086968   -0.089960
  10 Mn:   -0.054981    4.565199

  Mayer bond orders larger than 0.100000
B(  0-Au,  2-Au) :   0.3378 B(  0-Au,  3-Au) :   0.1707 B(  0-Au,  4-Au) :   0.1061
B(  0-Au,  5-Au) :   0.3618 B(  0-Au, 10-Mn) :   0.5152 B(  1-Au,  3-Au) :   0.4023
B(  1-Au,  7-Au) :   0.1293 B(  1-Au,  8-Au) :   0.1966 B(  1-Au, 10-Mn) :   0.4932
B(  2-Au,  3-Au) :   0.3701 B(  2-Au,  4-Au) :   0.2388 B(  3-Au,  4-Au) :   0.1295
B(  3-Au, 10-Mn) :   0.2996 B(  4-Au,  6-Au) :   0.5317 B(  4-Au, 10-Mn) :   0.4682
B(  5-Au,  7-Au) :   0.2839 B(  5-Au, 10-Mn) :   0.5661 B(  6-Au,  8-Au) :   0.2712
B(  6-Au,  9-Au) :   0.4390 B(  6-Au, 10-Mn) :   0.5759 B(  7-Au,  8-Au) :   0.2586
B(  7-Au, 10-Mn) :   0.3506 B(  8-Au,  9-Au) :   0.5567 B(  8-Au, 10-Mn) :   0.3762

MP2 TOTAL ENERGY:    -2506.647293988 Eh
FINAL SINGLE POINT ENERGY     -2506.647293987824

DIPOLE MOMENT
-------------
                                X             Y             Z
Electronic contribution:      3.13976      13.55418     -13.79277
Nuclear contribution   :     -2.90696     -13.44115      13.47643
                        -----------------------------------------
Total Dipole Moment    :      0.23280       0.11303      -0.31634
                        -----------------------------------------
Magnitude (a.u.)       :      0.40871
Magnitude (Debye)      :      1.03885

Rotational constants in cm-1:     0.002112     0.001296     0.001018
Rotational constants in MHz :    63.302758    38.851175    30.531471

                             ****ORCA TERMINATED NORMALLY****
TOTAL RUN TIME: 0 days 0 hours 21 minutes 6 seconds 441 msec
