                         Program Version 5.0.3 -  RELEASE  -
|  1> !PBE def2-TZVP VERYSLOWCONV
|  2> !KDIIS
|  3>
|  4> %scf
|  5>   AutoTRAHIter 200
|  6>   maxiter 400
|  7> end
|  8>
|  9>
| 10> %pal nprocs 6 end
| 11>
| 12> *xyzfile 0 6 pbe.xyz
| 13>
| 14> $new_job
| 15>
| 16> !PBE def2-TZVP VERYSLOWCONV
| 17> !KDIIS
| 18>
| 19> %scf
| 20>   AutoTRAHIter 200
| 21>   maxiter 400
| 22> end
| 23>
| 24>
| 25> %pal nprocs 6 end
| 26>
| 27> *xyzfile 0 4 pbe.xyz
| 28>
| 29>
| 30>
| 31>
| 32>
| 33>                          ****END OF INPUT****
 Total Charge           Charge          ....    0
 Multiplicity           Mult            ....    6
 Number of Electrons    NEL             ....  215
FINAL SINGLE POINT ENERGY     -2509.045330170985

CARTESIAN COORDINATES (ANGSTROEM)
---------------------------------
  Au     5.375438    3.938820    6.302104
  Au     8.228185    6.936406    7.533212
  Au     4.631038    5.177032    4.028374
  Au     6.804650    6.238355    5.444410
  Au     3.957912    6.635825    6.254948
  Au     6.330075    3.484324    8.709481
  Au     4.285340    8.167737    8.344516
  Au     7.868609    5.491503    9.967090
  Au     6.678195    7.847077    9.915840
  Au     5.005860    9.828676   10.331861
  Mn     5.836267    6.003457    8.055276

 Multiplicity           Mult            ....    4
 Number of Electrons    NEL             ....  215
 Basis Dimension        Dim             ....  445

ORBITAL ENERGIES
----------------
                 SPIN UP ORBITALS
  NO   OCC          E(Eh)            E(eV)
   0   1.0000    -234.201862     -6372.9567
   1   1.0000     -26.898125      -731.9352
   2   1.0000     -23.048564      -627.1833
   3   1.0000     -23.046410      -627.1247
   4   1.0000     -23.044982      -627.0858
   5   1.0000      -4.028626      -109.6245
   6   1.0000      -4.026574      -109.5687
   7   1.0000      -4.026122      -109.5564
   8   1.0000      -4.025955      -109.5518
   9   1.0000      -4.023041      -109.4725
  10   1.0000      -4.022168      -109.4488
  11   1.0000      -4.022061      -109.4458
  12   1.0000      -4.021116      -109.4201
  13   1.0000      -4.017403      -109.3191
  14   1.0000      -4.006155      -109.0130
  15   1.0000      -3.106122       -84.5219
  16   1.0000      -2.248629       -61.1883
  17   1.0000      -2.247532       -61.1584
  18   1.0000      -2.245210       -61.0953
  19   1.0000      -2.243072       -61.0371
  20   1.0000      -2.242276       -61.0154
  21   1.0000      -2.241941       -61.0063
  22   1.0000      -2.241128       -60.9842
  23   1.0000      -2.240367       -60.9635
  24   1.0000      -2.239365       -60.9362
  25   1.0000      -2.238731       -60.9190
  26   1.0000      -2.238513       -60.9130
  27   1.0000      -2.237484       -60.8850
  28   1.0000      -2.236572       -60.8602
  29   1.0000      -2.235638       -60.8348
  30   1.0000      -2.235471       -60.8302
  31   1.0000      -2.235133       -60.8211
  32   1.0000      -2.234028       -60.7910
  33   1.0000      -2.233696       -60.7820
  34   1.0000      -2.233047       -60.7643
  35   1.0000      -2.232624       -60.7528
  36   1.0000      -2.232474       -60.7487
  37   1.0000      -2.231016       -60.7090
  38   1.0000      -2.230490       -60.6947
  39   1.0000      -2.230250       -60.6882
  40   1.0000      -2.228690       -60.6457
  41   1.0000      -2.226145       -60.5765
  42   1.0000      -2.224982       -60.5448
  43   1.0000      -2.223807       -60.5129
  44   1.0000      -2.219755       -60.4026
  45   1.0000      -2.212135       -60.1953
  46   1.0000      -2.013308       -54.7849
  47   1.0000      -2.007649       -54.6309
  48   1.0000      -2.004726       -54.5514
  49   1.0000      -0.407150       -11.0791
  50   1.0000      -0.385449       -10.4886
  51   1.0000      -0.377126       -10.2621
  52   1.0000      -0.371668       -10.1136
  53   1.0000      -0.362474        -9.8634
  54   1.0000      -0.359932        -9.7942
  55   1.0000      -0.353343        -9.6149
  56   1.0000      -0.342575        -9.3219
  57   1.0000      -0.340914        -9.2767
  58   1.0000      -0.337077        -9.1723
  59   1.0000      -0.334838        -9.1114
  60   1.0000      -0.331756        -9.0275
  61   1.0000      -0.329803        -8.9744
  62   1.0000      -0.325515        -8.8577
  63   1.0000      -0.324166        -8.8210
  64   1.0000      -0.320448        -8.7198
  65   1.0000      -0.317525        -8.6403
  66   1.0000      -0.315627        -8.5887
  67   1.0000      -0.312977        -8.5165
  68   1.0000      -0.309296        -8.4164
  69   1.0000      -0.307062        -8.3556
  70   1.0000      -0.300251        -8.1703
  71   1.0000      -0.298258        -8.1160
  72   1.0000      -0.296006        -8.0547
  73   1.0000      -0.294513        -8.0141
  74   1.0000      -0.291627        -7.9356
  75   1.0000      -0.289362        -7.8739
  76   1.0000      -0.288098        -7.8396
  77   1.0000      -0.281530        -7.6608
  78   1.0000      -0.281478        -7.6594
  79   1.0000      -0.278410        -7.5759
  80   1.0000      -0.277278        -7.5451
  81   1.0000      -0.274274        -7.4634
  82   1.0000      -0.273348        -7.4382
  83   1.0000      -0.272582        -7.4173
  84   1.0000      -0.270820        -7.3694
  85   1.0000      -0.269320        -7.3286
  86   1.0000      -0.268707        -7.3119
  87   1.0000      -0.265569        -7.2265
  88   1.0000      -0.264770        -7.2048
  89   1.0000      -0.262772        -7.1504
  90   1.0000      -0.260754        -7.0955
  91   1.0000      -0.259689        -7.0665
  92   1.0000      -0.258209        -7.0262
  93   1.0000      -0.256825        -6.9886
  94   1.0000      -0.254495        -6.9252
  95   1.0000      -0.252267        -6.8645
  96   1.0000      -0.251181        -6.8350
  97   1.0000      -0.249937        -6.8011
  98   1.0000      -0.247346        -6.7306
  99   1.0000      -0.245393        -6.6775
 100   1.0000      -0.244390        -6.6502
 101   1.0000      -0.242464        -6.5978
 102   1.0000      -0.241722        -6.5776
 103   1.0000      -0.239591        -6.5196
 104   1.0000      -0.238187        -6.4814
 105   1.0000      -0.233484        -6.3534
 106   1.0000      -0.231841        -6.3087
 107   1.0000      -0.217274        -5.9123
 108   1.0000      -0.210445        -5.7265
 109   0.0000      -0.199210        -5.4208
 110   0.0000      -0.155474        -4.2307
 111   0.0000      -0.139322        -3.7911
 112   0.0000      -0.127792        -3.4774
 113   0.0000      -0.119991        -3.2651

                 SPIN DOWN ORBITALS
  NO   OCC          E(Eh)            E(eV)
   0   1.0000    -234.201127     -6372.9367
   1   1.0000     -26.833021      -730.1636
   2   1.0000     -22.998530      -625.8218
   3   1.0000     -22.997329      -625.7891
   4   1.0000     -22.995743      -625.7460
   5   1.0000      -4.028654      -109.6252
   6   1.0000      -4.027056      -109.5818
   7   1.0000      -4.026243      -109.5596
   8   1.0000      -4.025717      -109.5453
   9   1.0000      -4.022586      -109.4601
  10   1.0000      -4.022154      -109.4484
  11   1.0000      -4.021724      -109.4367
  12   1.0000      -4.021122      -109.4203
  13   1.0000      -4.017308      -109.3165
  14   1.0000      -4.006571      -109.0243
  15   1.0000      -2.946184       -80.1697
  16   1.0000      -2.248750       -61.1916
  17   1.0000      -2.247882       -61.1680
  18   1.0000      -2.244849       -61.0854
  19   1.0000      -2.242959       -61.0340
  20   1.0000      -2.242466       -61.0206
  21   1.0000      -2.242024       -61.0086
  22   1.0000      -2.241038       -60.9817
  23   1.0000      -2.240044       -60.9547
  24   1.0000      -2.239578       -60.9420
  25   1.0000      -2.238672       -60.9174
  26   1.0000      -2.238214       -60.9049
  27   1.0000      -2.237231       -60.8781
  28   1.0000      -2.236333       -60.8537
  29   1.0000      -2.235905       -60.8421
  30   1.0000      -2.234891       -60.8145
  31   1.0000      -2.234450       -60.8025
  32   1.0000      -2.233638       -60.7804
  33   1.0000      -2.233524       -60.7773
  34   1.0000      -2.233003       -60.7631
  35   1.0000      -2.232889       -60.7600
  36   1.0000      -2.232147       -60.7398
  37   1.0000      -2.231652       -60.7263
  38   1.0000      -2.231072       -60.7106
  39   1.0000      -2.230227       -60.6876
  40   1.0000      -2.228983       -60.6537
  41   1.0000      -2.225544       -60.5601
  42   1.0000      -2.225191       -60.5505
  43   1.0000      -2.223384       -60.5014
  44   1.0000      -2.220255       -60.4162
  45   1.0000      -2.212411       -60.2028
  46   1.0000      -1.855138       -50.4809
  47   1.0000      -1.850949       -50.3669
  48   1.0000      -1.848489       -50.2999
  49   1.0000      -0.404479       -11.0064
  50   1.0000      -0.386475       -10.5165
  51   1.0000      -0.375661       -10.2223
  52   1.0000      -0.367089        -9.9890
  53   1.0000      -0.361885        -9.8474
  54   1.0000      -0.356853        -9.7105
  55   1.0000      -0.349507        -9.5106
  56   1.0000      -0.338940        -9.2230
  57   1.0000      -0.336948        -9.1688
  58   1.0000      -0.334902        -9.1131
  59   1.0000      -0.331577        -9.0227
  60   1.0000      -0.329230        -8.9588
  61   1.0000      -0.327560        -8.9134
  62   1.0000      -0.319227        -8.6866
  63   1.0000      -0.318530        -8.6676
  64   1.0000      -0.316151        -8.6029
  65   1.0000      -0.314056        -8.5459
  66   1.0000      -0.313679        -8.5356
  67   1.0000      -0.309598        -8.4246
  68   1.0000      -0.306860        -8.3501
  69   1.0000      -0.306041        -8.3278
  70   1.0000      -0.298251        -8.1158
  71   1.0000      -0.296568        -8.0700
  72   1.0000      -0.294680        -8.0187
  73   1.0000      -0.293118        -7.9762
  74   1.0000      -0.291461        -7.9311
  75   1.0000      -0.289432        -7.8759
  76   1.0000      -0.288170        -7.8415
  77   1.0000      -0.282245        -7.6803
  78   1.0000      -0.280449        -7.6314
  79   1.0000      -0.277980        -7.5642
  80   1.0000      -0.276886        -7.5344
  81   1.0000      -0.275053        -7.4846
  82   1.0000      -0.272406        -7.4126
  83   1.0000      -0.271582        -7.3901
  84   1.0000      -0.270234        -7.3534
  85   1.0000      -0.269645        -7.3374
  86   1.0000      -0.267777        -7.2866
  87   1.0000      -0.265291        -7.2189
  88   1.0000      -0.263574        -7.1722
  89   1.0000      -0.261876        -7.1260
  90   1.0000      -0.259868        -7.0714
  91   1.0000      -0.258592        -7.0367
  92   1.0000      -0.258093        -7.0231
  93   1.0000      -0.254497        -6.9252
  94   1.0000      -0.253561        -6.8997
  95   1.0000      -0.252789        -6.8787
  96   1.0000      -0.249537        -6.7903
  97   1.0000      -0.247571        -6.7368
  98   1.0000      -0.244083        -6.6418
  99   1.0000      -0.242046        -6.5864
 100   1.0000      -0.240918        -6.5557
 101   1.0000      -0.233867        -6.3638
 102   1.0000      -0.228363        -6.2141
 103   1.0000      -0.221199        -6.0191
 104   1.0000      -0.215189        -5.8556
 105   1.0000      -0.172896        -4.7047
 106   0.0000      -0.150847        -4.1048
 107   0.0000      -0.140765        -3.8304
 108   0.0000      -0.138706        -3.7744
 109   0.0000      -0.130430        -3.5492
 110   0.0000      -0.124509        -3.3881

MULLIKEN ATOMIC CHARGES AND SPIN POPULATIONS
--------------------------------------------
   0 Au:   -0.034580   -0.155576
   1 Au:    0.165846   -0.027619
   2 Au:    0.370278   -0.079925
   3 Au:   -0.000063   -0.212571
   4 Au:    0.152806   -0.106176
   5 Au:    0.186495   -0.096664
   6 Au:   -0.149238    0.023202
   7 Au:    0.281095   -0.335084
   8 Au:   -0.134083   -0.085592
   9 Au:    0.319705   -0.102767
  10 Mn:   -1.158260    4.178771
Sum of atomic charges         :   -0.0000000

LOEWDIN ATOMIC CHARGES AND SPIN POPULATIONS
-------------------------------------------
   0 Au:   -0.043623   -0.097898
   1 Au:    0.104482   -0.089486
   2 Au:    0.090194   -0.102819
   3 Au:   -0.018291   -0.128927
   4 Au:    0.018333   -0.076692
   5 Au:    0.080884   -0.145521
   6 Au:   -0.006646    0.006650
   7 Au:    0.052712   -0.280834
   8 Au:   -0.072084   -0.054285
   9 Au:    0.073952   -0.087688
  10 Mn:   -0.279913    4.057500

  Mayer bond orders larger than 0.100000
B(  0-Au,  2-Au) :   0.3856 B(  0-Au,  3-Au) :   0.1915 B(  0-Au,  4-Au) :   0.1289
B(  0-Au,  5-Au) :   0.4059 B(  0-Au, 10-Mn) :   0.5726 B(  1-Au,  3-Au) :   0.4488
B(  1-Au,  7-Au) :   0.1712 B(  1-Au,  8-Au) :   0.1722 B(  1-Au, 10-Mn) :   0.5796
B(  2-Au,  3-Au) :   0.3697 B(  2-Au,  4-Au) :   0.2929 B(  3-Au,  4-Au) :   0.1604
B(  3-Au, 10-Mn) :   0.4513 B(  4-Au,  6-Au) :   0.5517 B(  4-Au, 10-Mn) :   0.5245
B(  5-Au,  7-Au) :   0.2761 B(  5-Au, 10-Mn) :   0.6292 B(  6-Au,  8-Au) :   0.2472
B(  6-Au,  9-Au) :   0.4584 B(  6-Au, 10-Mn) :   0.6179 B(  7-Au,  8-Au) :   0.3478
B(  7-Au, 10-Mn) :   0.4516 B(  8-Au,  9-Au) :   0.5587 B(  8-Au, 10-Mn) :   0.4280

FINAL SINGLE POINT ENERGY     -2509.017576747678

DIPOLE MOMENT
-------------
                                X             Y             Z
Electronic contribution:      3.06017      13.47374     -13.63268
Nuclear contribution   :     -2.90696     -13.44115      13.47643
                        -----------------------------------------
Total Dipole Moment    :      0.15321       0.03259      -0.15625
                        -----------------------------------------
Magnitude (a.u.)       :      0.22124
Magnitude (Debye)      :      0.56236

Rotational constants in cm-1:     0.002112     0.001296     0.001018
Rotational constants in MHz :    63.302758    38.851175    30.531471

                             ****ORCA TERMINATED NORMALLY****
TOTAL RUN TIME: 0 days 0 hours 2 minutes 27 seconds 622 msec
