                         Program Version 5.0.3 -  RELEASE  -
|  1> !R2SCAN def2-TZVP VERYSLOWCONV
|  2> !KDIIS
|  3> %scf
|  4>   AutoTRAHIter 200
|  5>   maxiter 400
|  6> end
|  7>
|  8> %pal nprocs 6 end
|  9>
| 10> *xyzfile 0 6 pbe.xyz
| 11>
| 12> $new_job
| 13>
| 14> !R2SCAN def2-TZVP VERYSLOWCONV
| 15> !KDIIS
| 16> %scf
| 17>   AutoTRAHIter 200
| 18>   maxiter 400
| 19> end
| 20>
| 21>
| 22> %pal nprocs 6 end
| 23>
| 24> *xyzfile 0 4 pbe.xyz
| 25>
| 26>
| 27>
| 28>
| 29>
| 30>                          ****END OF INPUT****
 Total Charge           Charge          ....    0
 Multiplicity           Mult            ....    6
 Number of Electrons    NEL             ....  215
FINAL SINGLE POINT ENERGY     -2509.453053810540

CARTESIAN COORDINATES (ANGSTROEM)
---------------------------------
  Au     5.375438    3.938820    6.302104
  Au     8.228185    6.936406    7.533212
  Au     4.631038    5.177032    4.028374
  Au     6.804650    6.238355    5.444410
  Au     3.957912    6.635825    6.254948
  Au     6.330075    3.484324    8.709481
  Au     4.285340    8.167737    8.344516
  Au     7.868609    5.491503    9.967090
  Au     6.678195    7.847077    9.915840
  Au     5.005860    9.828676   10.331861
  Mn     5.836267    6.003457    8.055276

 Multiplicity           Mult            ....    4
 Number of Electrons    NEL             ....  215
 Basis Dimension        Dim             ....  445

ORBITAL ENERGIES
----------------
                 SPIN UP ORBITALS
  NO   OCC          E(Eh)            E(eV)
   0   1.0000    -235.043988     -6395.8721
   1   1.0000     -27.224631      -740.8199
   2   1.0000     -23.272961      -633.2895
   3   1.0000     -23.270821      -633.2312
   4   1.0000     -23.270204      -633.2145
   5   1.0000      -4.119052      -112.0851
   6   1.0000      -4.118682      -112.0750
   7   1.0000      -4.117920      -112.0543
   8   1.0000      -4.117422      -112.0407
   9   1.0000      -4.114396      -111.9584
  10   1.0000      -4.112985      -111.9200
  11   1.0000      -4.112643      -111.9107
  12   1.0000      -4.112228      -111.8994
  13   1.0000      -4.108686      -111.8030
  14   1.0000      -4.096841      -111.4807
  15   1.0000      -3.245901       -88.3255
  16   1.0000      -2.311661       -62.9035
  17   1.0000      -2.311397       -62.8963
  18   1.0000      -2.310565       -62.8737
  19   1.0000      -2.307675       -62.7950
  20   1.0000      -2.306128       -62.7529
  21   1.0000      -2.305392       -62.7329
  22   1.0000      -2.305209       -62.7279
  23   1.0000      -2.303638       -62.6852
  24   1.0000      -2.303344       -62.6772
  25   1.0000      -2.302973       -62.6671
  26   1.0000      -2.302638       -62.6580
  27   1.0000      -2.301548       -62.6283
  28   1.0000      -2.300413       -62.5974
  29   1.0000      -2.300210       -62.5919
  30   1.0000      -2.298899       -62.5562
  31   1.0000      -2.298657       -62.5496
  32   1.0000      -2.298583       -62.5476
  33   1.0000      -2.297867       -62.5282
  34   1.0000      -2.297088       -62.5069
  35   1.0000      -2.297049       -62.5059
  36   1.0000      -2.296412       -62.4885
  37   1.0000      -2.294902       -62.4475
  38   1.0000      -2.294763       -62.4437
  39   1.0000      -2.294132       -62.4265
  40   1.0000      -2.292571       -62.3840
  41   1.0000      -2.289783       -62.3082
  42   1.0000      -2.288065       -62.2614
  43   1.0000      -2.287963       -62.2586
  44   1.0000      -2.282946       -62.1221
  45   1.0000      -2.275957       -61.9320
  46   1.0000      -2.106155       -57.3114
  47   1.0000      -2.101118       -57.1743
  48   1.0000      -2.099455       -57.1291
  49   1.0000      -0.413589       -11.2543
  50   1.0000      -0.392662       -10.6849
  51   1.0000      -0.385679       -10.4949
  52   1.0000      -0.381585       -10.3835
  53   1.0000      -0.373229       -10.1561
  54   1.0000      -0.370928       -10.0935
  55   1.0000      -0.364354        -9.9146
  56   1.0000      -0.355023        -9.6607
  57   1.0000      -0.353568        -9.6211
  58   1.0000      -0.348001        -9.4696
  59   1.0000      -0.346069        -9.4170
  60   1.0000      -0.342126        -9.3097
  61   1.0000      -0.340165        -9.2564
  62   1.0000      -0.337288        -9.1781
  63   1.0000      -0.334078        -9.0907
  64   1.0000      -0.331979        -9.0336
  65   1.0000      -0.327664        -8.9162
  66   1.0000      -0.325542        -8.8584
  67   1.0000      -0.323217        -8.7952
  68   1.0000      -0.318320        -8.6619
  69   1.0000      -0.316497        -8.6123
  70   1.0000      -0.310160        -8.4399
  71   1.0000      -0.308135        -8.3848
  72   1.0000      -0.305241        -8.3060
  73   1.0000      -0.303928        -8.2703
  74   1.0000      -0.301127        -8.1941
  75   1.0000      -0.297936        -8.1073
  76   1.0000      -0.296990        -8.0815
  77   1.0000      -0.291644        -7.9360
  78   1.0000      -0.290138        -7.8951
  79   1.0000      -0.288272        -7.8443
  80   1.0000      -0.286768        -7.8034
  81   1.0000      -0.283789        -7.7223
  82   1.0000      -0.282819        -7.6959
  83   1.0000      -0.281378        -7.6567
  84   1.0000      -0.280053        -7.6206
  85   1.0000      -0.278217        -7.5707
  86   1.0000      -0.277720        -7.5572
  87   1.0000      -0.275923        -7.5082
  88   1.0000      -0.273353        -7.4383
  89   1.0000      -0.272904        -7.4261
  90   1.0000      -0.270271        -7.3544
  91   1.0000      -0.269382        -7.3303
  92   1.0000      -0.267842        -7.2884
  93   1.0000      -0.266929        -7.2635
  94   1.0000      -0.265097        -7.2137
  95   1.0000      -0.263358        -7.1663
  96   1.0000      -0.261581        -7.1180
  97   1.0000      -0.259314        -7.0563
  98   1.0000      -0.257070        -6.9952
  99   1.0000      -0.256683        -6.9847
 100   1.0000      -0.253504        -6.8982
 101   1.0000      -0.251049        -6.8314
 102   1.0000      -0.250683        -6.8214
 103   1.0000      -0.249460        -6.7882
 104   1.0000      -0.246431        -6.7057
 105   1.0000      -0.241862        -6.5814
 106   1.0000      -0.237854        -6.4723
 107   1.0000      -0.221962        -6.0399
 108   1.0000      -0.213997        -5.8232
 109   0.0000      -0.198971        -5.4143
 110   0.0000      -0.150449        -4.0939
 111   0.0000      -0.134690        -3.6651
 112   0.0000      -0.122184        -3.3248
 113   0.0000      -0.113571        -3.0904

                 SPIN DOWN ORBITALS
  NO   OCC          E(Eh)            E(eV)
   0   1.0000    -235.042948     -6395.8438
   1   1.0000     -27.136762      -738.4288
   2   1.0000     -23.204703      -631.4321
   3   1.0000     -23.204184      -631.4179
   4   1.0000     -23.202873      -631.3823
   5   1.0000      -4.119066      -112.0855
   6   1.0000      -4.118898      -112.0809
   7   1.0000      -4.118741      -112.0766
   8   1.0000      -4.117777      -112.0504
   9   1.0000      -4.114122      -111.9510
  10   1.0000      -4.113446      -111.9326
  11   1.0000      -4.113081      -111.9226
  12   1.0000      -4.111477      -111.8790
  13   1.0000      -4.108858      -111.8077
  14   1.0000      -4.097483      -111.4982
  15   1.0000      -3.035878       -82.6104
  16   1.0000      -2.312293       -62.9207
  17   1.0000      -2.311179       -62.8904
  18   1.0000      -2.310071       -62.8602
  19   1.0000      -2.307464       -62.7893
  20   1.0000      -2.306677       -62.7679
  21   1.0000      -2.306363       -62.7593
  22   1.0000      -2.305200       -62.7277
  23   1.0000      -2.304399       -62.7059
  24   1.0000      -2.303066       -62.6696
  25   1.0000      -2.302376       -62.6508
  26   1.0000      -2.301801       -62.6352
  27   1.0000      -2.301084       -62.6157
  28   1.0000      -2.300796       -62.6078
  29   1.0000      -2.300495       -62.5997
  30   1.0000      -2.298757       -62.5524
  31   1.0000      -2.298279       -62.5393
  32   1.0000      -2.297557       -62.5197
  33   1.0000      -2.297342       -62.5138
  34   1.0000      -2.297065       -62.5063
  35   1.0000      -2.296984       -62.5041
  36   1.0000      -2.296810       -62.4994
  37   1.0000      -2.295747       -62.4704
  38   1.0000      -2.294950       -62.4488
  39   1.0000      -2.294664       -62.4410
  40   1.0000      -2.292989       -62.3954
  41   1.0000      -2.288887       -62.2838
  42   1.0000      -2.288657       -62.2775
  43   1.0000      -2.287609       -62.2490
  44   1.0000      -2.283609       -62.1402
  45   1.0000      -2.276309       -61.9415
  46   1.0000      -1.895934       -51.5910
  47   1.0000      -1.893316       -51.5198
  48   1.0000      -1.891018       -51.4572
  49   1.0000      -0.411979       -11.2105
  50   1.0000      -0.394386       -10.7318
  51   1.0000      -0.383807       -10.4439
  52   1.0000      -0.377301       -10.2669
  53   1.0000      -0.371457       -10.1079
  54   1.0000      -0.366468        -9.9721
  55   1.0000      -0.359091        -9.7714
  56   1.0000      -0.348911        -9.4944
  57   1.0000      -0.346732        -9.4351
  58   1.0000      -0.344587        -9.3767
  59   1.0000      -0.341523        -9.2933
  60   1.0000      -0.339036        -9.2256
  61   1.0000      -0.337591        -9.1863
  62   1.0000      -0.329473        -8.9654
  63   1.0000      -0.328654        -8.9431
  64   1.0000      -0.325231        -8.8500
  65   1.0000      -0.323384        -8.7997
  66   1.0000      -0.322889        -8.7863
  67   1.0000      -0.319201        -8.6859
  68   1.0000      -0.316317        -8.6074
  69   1.0000      -0.315268        -8.5789
  70   1.0000      -0.307775        -8.3750
  71   1.0000      -0.305603        -8.3159
  72   1.0000      -0.303259        -8.2521
  73   1.0000      -0.302190        -8.2230
  74   1.0000      -0.300799        -8.1852
  75   1.0000      -0.298466        -8.1217
  76   1.0000      -0.297424        -8.0933
  77   1.0000      -0.291400        -7.9294
  78   1.0000      -0.290045        -7.8925
  79   1.0000      -0.286667        -7.8006
  80   1.0000      -0.286116        -7.7856
  81   1.0000      -0.284165        -7.7325
  82   1.0000      -0.281205        -7.6520
  83   1.0000      -0.279991        -7.6190
  84   1.0000      -0.279154        -7.5962
  85   1.0000      -0.278841        -7.5877
  86   1.0000      -0.276743        -7.5306
  87   1.0000      -0.273663        -7.4468
  88   1.0000      -0.272627        -7.4186
  89   1.0000      -0.269996        -7.3470
  90   1.0000      -0.268278        -7.3002
  91   1.0000      -0.266900        -7.2627
  92   1.0000      -0.266476        -7.2512
  93   1.0000      -0.262162        -7.1338
  94   1.0000      -0.261725        -7.1219
  95   1.0000      -0.260688        -7.0937
  96   1.0000      -0.257537        -7.0079
  97   1.0000      -0.254691        -6.9305
  98   1.0000      -0.251200        -6.8355
  99   1.0000      -0.249841        -6.7985
 100   1.0000      -0.248945        -6.7741
 101   1.0000      -0.240169        -6.5353
 102   1.0000      -0.234418        -6.3788
 103   1.0000      -0.224131        -6.0989
 104   1.0000      -0.219101        -5.9620
 105   1.0000      -0.172724        -4.7001
 106   0.0000      -0.145370        -3.9557
 107   0.0000      -0.131220        -3.5707
 108   0.0000      -0.130400        -3.5484
 109   0.0000      -0.112957        -3.0737
 110   0.0000      -0.107915        -2.9365

MULLIKEN ATOMIC CHARGES AND SPIN POPULATIONS
--------------------------------------------
   0 Au:   -0.057431   -0.173170
   1 Au:    0.158483   -0.038606
   2 Au:    0.335260   -0.111543
   3 Au:   -0.005325   -0.257966
   4 Au:    0.152021   -0.109211
   5 Au:    0.174512   -0.114642
   6 Au:   -0.152595    0.023409
   7 Au:    0.268912   -0.393761
   8 Au:   -0.151027   -0.084058
   9 Au:    0.300483   -0.130035
  10 Mn:   -1.023293    4.389583
Sum of atomic charges         :   -0.0000000

LOEWDIN ATOMIC CHARGES AND SPIN POPULATIONS
-------------------------------------------
   0 Au:   -0.052494   -0.116873
   1 Au:    0.102317   -0.116186
   2 Au:    0.088464   -0.122015
   3 Au:   -0.023740   -0.159078
   4 Au:    0.009273   -0.081214
   5 Au:    0.069140   -0.170613
   6 Au:   -0.017122    0.000027
   7 Au:    0.045973   -0.319341
   8 Au:   -0.077827   -0.067251
   9 Au:    0.070176   -0.100537
  10 Mn:   -0.214158    4.253080

  Mayer bond orders larger than 0.100000
B(  0-Au,  2-Au) :   0.3739 B(  0-Au,  3-Au) :   0.1493 B(  0-Au,  4-Au) :   0.1017
B(  0-Au,  5-Au) :   0.3934 B(  0-Au, 10-Mn) :   0.5576 B(  1-Au,  3-Au) :   0.4425
B(  1-Au,  7-Au) :   0.1525 B(  1-Au,  8-Au) :   0.1623 B(  1-Au, 10-Mn) :   0.5543
B(  2-Au,  3-Au) :   0.3754 B(  2-Au,  4-Au) :   0.2735 B(  3-Au,  4-Au) :   0.1335
B(  3-Au, 10-Mn) :   0.3982 B(  4-Au,  6-Au) :   0.5657 B(  4-Au, 10-Mn) :   0.5079
B(  5-Au,  7-Au) :   0.2746 B(  5-Au, 10-Mn) :   0.6038 B(  6-Au,  8-Au) :   0.2245
B(  6-Au,  9-Au) :   0.4458 B(  6-Au, 10-Mn) :   0.6023 B(  7-Au,  8-Au) :   0.3173
B(  7-Au, 10-Mn) :   0.4095 B(  8-Au,  9-Au) :   0.5509 B(  8-Au, 10-Mn) :   0.4085

FINAL SINGLE POINT ENERGY     -2509.421325765063

DIPOLE MOMENT
-------------
                                X             Y             Z
Electronic contribution:      3.09826      13.49410     -13.64383
Nuclear contribution   :     -2.90696     -13.44115      13.47643
                        -----------------------------------------
Total Dipole Moment    :      0.19130       0.05295      -0.16740
                        -----------------------------------------
Magnitude (a.u.)       :      0.25965
Magnitude (Debye)      :      0.65999

Rotational constants in cm-1:     0.002112     0.001296     0.001018
Rotational constants in MHz :    63.302758    38.851175    30.531471

                             ****ORCA TERMINATED NORMALLY****
TOTAL RUN TIME: 0 days 0 hours 3 minutes 55 seconds 476 msec
