                         Program Version 5.0.3 -  RELEASE  -
|  1> !RI-B2PLYP def2-TZVP def2-TZVP/C
|  2> !RIJCOSX VERYSLOWCONV
|  3>
|  4> %scf
|  5>   AutoTRAHIter 200
|  6>   maxiter 400
|  7> end
|  8>
|  9>
| 10> %pal nprocs 6 end
| 11>
| 12> *xyzfile 0 5 pbe.xyz
| 13>
| 14> $new_job
| 15>
| 16> !RI-B2PLYP def2-TZVP def2-TZVP/C
| 17> !RIJCOSX VERYSLOWCONV
| 18>
| 19> %scf
| 20>   AutoTRAHIter 200
| 21>   maxiter 400
| 22> end
| 23>
| 24>
| 25> %pal nprocs 6 end
| 26>
| 27> *xyzfile 0 3 pbe.xyz
| 28>
| 29>
| 30>
| 31>
| 32>
| 33>                          ****END OF INPUT****
 Total Charge           Charge          ....    0
 Multiplicity           Mult            ....    5
 Number of Electrons    NEL             ....  254
MP2 TOTAL ENERGY:    -2890.518569002 Eh
FINAL SINGLE POINT ENERGY     -2890.518569002064

CARTESIAN COORDINATES (ANGSTROEM)
---------------------------------
  Au     8.325103    7.335938   11.047545
  Au    10.234949    8.983428   12.175636
  Au     9.476890    4.869828    9.992557
  Au     7.057268    5.823815    9.027238
  Au     9.540791    9.733631    9.646885
  Au     6.978282    8.592269    8.785953
  Au     9.058704    4.846912    7.150139
  Au    11.534566    8.500229    8.015777
  Au     9.103587    9.336517    6.970377
  Au     7.558271    7.054125    6.441805
  Au    11.528910    5.725756    8.154195
  Au    11.301143    7.112513   10.504127
  Fe     9.298813    7.177813    8.556360

 Multiplicity           Mult            ....    3
 Number of Electrons    NEL             ....  254
 Basis Dimension        Dim             ....  525

ORBITAL ENERGIES
----------------
                 SPIN UP ORBITALS
  NO   OCC          E(Eh)            E(eV)
   0   1.0000    -258.333424     -7029.6098
   1   1.0000     -30.892750      -840.6345
   2   1.0000     -26.602673      -723.8955
   3   1.0000     -26.597942      -723.7668
   4   1.0000     -26.572488      -723.0742
   5   1.0000      -4.408088      -119.9502
   6   1.0000      -4.401761      -119.7780
   7   1.0000      -4.399721      -119.7225
   8   1.0000      -4.399217      -119.7088
   9   1.0000      -4.397790      -119.6700
  10   1.0000      -4.397661      -119.6664
  11   1.0000      -4.397292      -119.6564
  12   1.0000      -4.394961      -119.5930
  13   1.0000      -4.394857      -119.5901
  14   1.0000      -4.390517      -119.4720
  15   1.0000      -4.384702      -119.3138
  16   1.0000      -4.384488      -119.3080
  17   1.0000      -3.903942      -106.2317
  18   1.0000      -2.636929       -71.7545
  19   1.0000      -2.627609       -71.5009
  20   1.0000      -2.573527       -70.0292
  21   1.0000      -2.529000       -68.8176
  22   1.0000      -2.526577       -68.7517
  23   1.0000      -2.523745       -68.6746
  24   1.0000      -2.522935       -68.6525
  25   1.0000      -2.522024       -68.6278
  26   1.0000      -2.521587       -68.6159
  27   1.0000      -2.519054       -68.5469
  28   1.0000      -2.519036       -68.5465
  29   1.0000      -2.517901       -68.5156
  30   1.0000      -2.517550       -68.5060
  31   1.0000      -2.517498       -68.5046
  32   1.0000      -2.517272       -68.4984
  33   1.0000      -2.516745       -68.4841
  34   1.0000      -2.516309       -68.4723
  35   1.0000      -2.515373       -68.4468
  36   1.0000      -2.514622       -68.4263
  37   1.0000      -2.514423       -68.4209
  38   1.0000      -2.513704       -68.4014
  39   1.0000      -2.513513       -68.3962
  40   1.0000      -2.512922       -68.3801
  41   1.0000      -2.512797       -68.3767
  42   1.0000      -2.511402       -68.3387
  43   1.0000      -2.511281       -68.3354
  44   1.0000      -2.510374       -68.3108
  45   1.0000      -2.510341       -68.3098
  46   1.0000      -2.510269       -68.3079
  47   1.0000      -2.509680       -68.2919
  48   1.0000      -2.508465       -68.2588
  49   1.0000      -2.505586       -68.1805
  50   1.0000      -2.505339       -68.1737
  51   1.0000      -2.505316       -68.1731
  52   1.0000      -2.503513       -68.1240
  53   1.0000      -2.501946       -68.0814
  54   1.0000      -2.499483       -68.0144
  55   1.0000      -2.499223       -68.0073
  56   1.0000      -2.498091       -67.9765
  57   1.0000      -0.560518       -15.2525
  58   1.0000      -0.556292       -15.1375
  59   1.0000      -0.536970       -14.6117
  60   1.0000      -0.536216       -14.5912
  61   1.0000      -0.519409       -14.1338
  62   1.0000      -0.500386       -13.6162
  63   1.0000      -0.468271       -12.7423
  64   1.0000      -0.466965       -12.7068
  65   1.0000      -0.463403       -12.6098
  66   1.0000      -0.456324       -12.4172
  67   1.0000      -0.454746       -12.3743
  68   1.0000      -0.453804       -12.3486
  69   1.0000      -0.449979       -12.2446
  70   1.0000      -0.447833       -12.1861
  71   1.0000      -0.445851       -12.1322
  72   1.0000      -0.440807       -11.9950
  73   1.0000      -0.440451       -11.9853
  74   1.0000      -0.438225       -11.9247
  75   1.0000      -0.437417       -11.9027
  76   1.0000      -0.437083       -11.8936
  77   1.0000      -0.432493       -11.7687
  78   1.0000      -0.432367       -11.7653
  79   1.0000      -0.430270       -11.7083
  80   1.0000      -0.427220       -11.6252
  81   1.0000      -0.423329       -11.5194
  82   1.0000      -0.420880       -11.4527
  83   1.0000      -0.414528       -11.2799
  84   1.0000      -0.413286       -11.2461
  85   1.0000      -0.412126       -11.2145
  86   1.0000      -0.411882       -11.2079
  87   1.0000      -0.406289       -11.0557
  88   1.0000      -0.404381       -11.0038
  89   1.0000      -0.403097       -10.9688
  90   1.0000      -0.393554       -10.7091
  91   1.0000      -0.390893       -10.6367
  92   1.0000      -0.386125       -10.5070
  93   1.0000      -0.384946       -10.4749
  94   1.0000      -0.380736       -10.3604
  95   1.0000      -0.380463       -10.3529
  96   1.0000      -0.375718       -10.2238
  97   1.0000      -0.374011       -10.1773
  98   1.0000      -0.372446       -10.1348
  99   1.0000      -0.371546       -10.1103
 100   1.0000      -0.370411       -10.0794
 101   1.0000      -0.366936        -9.9848
 102   1.0000      -0.366308        -9.9678
 103   1.0000      -0.364453        -9.9173
 104   1.0000      -0.364116        -9.9081
 105   1.0000      -0.361782        -9.8446
 106   1.0000      -0.360010        -9.7964
 107   1.0000      -0.359612        -9.7855
 108   1.0000      -0.358262        -9.7488
 109   1.0000      -0.356930        -9.7126
 110   1.0000      -0.355473        -9.6729
 111   1.0000      -0.352170        -9.5830
 112   1.0000      -0.351822        -9.5736
 113   1.0000      -0.345474        -9.4008
 114   1.0000      -0.345083        -9.3902
 115   1.0000      -0.343832        -9.3561
 116   1.0000      -0.342723        -9.3260
 117   1.0000      -0.341357        -9.2888
 118   1.0000      -0.337236        -9.1766
 119   1.0000      -0.335833        -9.1385
 120   1.0000      -0.331938        -9.0325
 121   1.0000      -0.326857        -8.8942
 122   1.0000      -0.316889        -8.6230
 123   1.0000      -0.313465        -8.5298
 124   1.0000      -0.297325        -8.0906
 125   1.0000      -0.287060        -7.8113
 126   1.0000      -0.225697        -6.1415
 127   1.0000      -0.201452        -5.4818
 128   0.0000      -0.111092        -3.0230
 129   0.0000      -0.108692        -2.9577
 130   0.0000      -0.089937        -2.4473
 131   0.0000      -0.076293        -2.0760
 132   0.0000      -0.048548        -1.3211

                 SPIN DOWN ORBITALS
  NO   OCC          E(Eh)            E(eV)
   0   1.0000    -258.331433     -7029.5557
   1   1.0000     -30.800659      -838.1285
   2   1.0000     -26.510058      -721.3754
   3   1.0000     -26.508519      -721.3335
   4   1.0000     -26.502222      -721.1621
   5   1.0000      -4.408007      -119.9480
   6   1.0000      -4.402905      -119.8091
   7   1.0000      -4.399955      -119.7289
   8   1.0000      -4.399484      -119.7161
   9   1.0000      -4.398612      -119.6923
  10   1.0000      -4.398478      -119.6887
  11   1.0000      -4.398307      -119.6840
  12   1.0000      -4.395480      -119.6071
  13   1.0000      -4.395323      -119.6028
  14   1.0000      -4.391448      -119.4974
  15   1.0000      -4.385064      -119.3237
  16   1.0000      -4.384839      -119.3175
  17   1.0000      -3.662064       -99.6498
  18   1.0000      -2.528725       -68.8101
  19   1.0000      -2.526281       -68.7436
  20   1.0000      -2.524180       -68.6864
  21   1.0000      -2.522320       -68.6358
  22   1.0000      -2.522114       -68.6302
  23   1.0000      -2.521850       -68.6230
  24   1.0000      -2.520109       -68.5757
  25   1.0000      -2.518662       -68.5363
  26   1.0000      -2.518497       -68.5318
  27   1.0000      -2.517590       -68.5071
  28   1.0000      -2.517276       -68.4986
  29   1.0000      -2.516673       -68.4821
  30   1.0000      -2.516620       -68.4807
  31   1.0000      -2.515937       -68.4621
  32   1.0000      -2.515335       -68.4457
  33   1.0000      -2.514906       -68.4341
  34   1.0000      -2.514351       -68.4190
  35   1.0000      -2.514123       -68.4128
  36   1.0000      -2.513950       -68.4081
  37   1.0000      -2.513373       -68.3924
  38   1.0000      -2.513197       -68.3876
  39   1.0000      -2.512220       -68.3610
  40   1.0000      -2.512039       -68.3561
  41   1.0000      -2.510879       -68.3245
  42   1.0000      -2.510681       -68.3191
  43   1.0000      -2.510447       -68.3127
  44   1.0000      -2.510100       -68.3033
  45   1.0000      -2.509941       -68.2990
  46   1.0000      -2.506984       -68.2185
  47   1.0000      -2.506181       -68.1967
  48   1.0000      -2.504462       -68.1499
  49   1.0000      -2.503018       -68.1106
  50   1.0000      -2.502739       -68.1030
  51   1.0000      -2.500295       -68.0365
  52   1.0000      -2.499762       -68.0220
  53   1.0000      -2.498272       -67.9814
  54   1.0000      -2.344322       -63.7922
  55   1.0000      -2.333654       -63.5019
  56   1.0000      -2.331872       -63.4535
  57   1.0000      -0.517385       -14.0788
  58   1.0000      -0.476380       -12.9630
  59   1.0000      -0.473261       -12.8781
  60   1.0000      -0.471936       -12.8420
  61   1.0000      -0.467893       -12.7320
  62   1.0000      -0.463792       -12.6204
  63   1.0000      -0.461989       -12.5714
  64   1.0000      -0.457255       -12.4425
  65   1.0000      -0.457022       -12.4362
  66   1.0000      -0.454956       -12.3800
  67   1.0000      -0.452198       -12.3049
  68   1.0000      -0.449787       -12.2393
  69   1.0000      -0.446922       -12.1614
  70   1.0000      -0.446372       -12.1464
  71   1.0000      -0.443907       -12.0793
  72   1.0000      -0.439942       -11.9714
  73   1.0000      -0.438038       -11.9196
  74   1.0000      -0.436524       -11.8784
  75   1.0000      -0.431335       -11.7372
  76   1.0000      -0.431232       -11.7344
  77   1.0000      -0.424443       -11.5497
  78   1.0000      -0.423093       -11.5129
  79   1.0000      -0.418172       -11.3790
  80   1.0000      -0.416639       -11.3373
  81   1.0000      -0.414659       -11.2834
  82   1.0000      -0.412806       -11.2330
  83   1.0000      -0.409135       -11.1331
  84   1.0000      -0.408490       -11.1156
  85   1.0000      -0.401960       -10.9379
  86   1.0000      -0.399133       -10.8610
  87   1.0000      -0.391136       -10.6433
  88   1.0000      -0.390497       -10.6260
  89   1.0000      -0.389597       -10.6015
  90   1.0000      -0.385419       -10.4878
  91   1.0000      -0.380760       -10.3610
  92   1.0000      -0.379890       -10.3373
  93   1.0000      -0.378269       -10.2932
  94   1.0000      -0.376433       -10.2433
  95   1.0000      -0.373811       -10.1719
  96   1.0000      -0.370156       -10.0724
  97   1.0000      -0.368853       -10.0370
  98   1.0000      -0.367631       -10.0038
  99   1.0000      -0.366624        -9.9764
 100   1.0000      -0.365425        -9.9437
 101   1.0000      -0.362841        -9.8734
 102   1.0000      -0.361555        -9.8384
 103   1.0000      -0.360012        -9.7964
 104   1.0000      -0.358861        -9.7651
 105   1.0000      -0.356450        -9.6995
 106   1.0000      -0.356165        -9.6917
 107   1.0000      -0.353701        -9.6247
 108   1.0000      -0.349491        -9.5101
 109   1.0000      -0.348444        -9.4816
 110   1.0000      -0.346318        -9.4238
 111   1.0000      -0.345685        -9.4066
 112   1.0000      -0.344867        -9.3843
 113   1.0000      -0.341087        -9.2814
 114   1.0000      -0.338640        -9.2149
 115   1.0000      -0.334758        -9.1092
 116   1.0000      -0.330373        -8.9899
 117   1.0000      -0.325471        -8.8565
 118   1.0000      -0.319932        -8.7058
 119   1.0000      -0.318113        -8.6563
 120   1.0000      -0.313986        -8.5440
 121   1.0000      -0.298383        -8.1194
 122   1.0000      -0.235492        -6.4081
 123   1.0000      -0.216554        -5.8927
 124   1.0000      -0.213282        -5.8037
 125   1.0000      -0.206927        -5.6308
 126   0.0000      -0.095113        -2.5881
 127   0.0000      -0.080984        -2.2037
 128   0.0000      -0.049524        -1.3476
 129   0.0000      -0.047585        -1.2949
 130   0.0000      -0.034187        -0.9303

MULLIKEN ATOMIC CHARGES AND SPIN POPULATIONS
--------------------------------------------
   0 Au:    0.069751   -0.019559
   1 Au:    0.327918    0.054873
   2 Au:    0.199767   -0.185592
   3 Au:    0.326649   -0.193857
   4 Au:   -0.033634   -0.037383
   5 Au:    0.197521   -0.177624
   6 Au:    0.143004   -0.040461
   7 Au:    0.283449   -0.257406
   8 Au:    0.314453   -0.219526
   9 Au:    0.143982   -0.038140
  10 Au:    0.311878   -0.220291
  11 Au:   -0.039412   -0.038835
  12 Fe:   -2.245326    3.373800
Sum of atomic charges         :   -0.0000000

LOEWDIN ATOMIC CHARGES AND SPIN POPULATIONS
-------------------------------------------
   0 Au:    0.015841   -0.083585
   1 Au:    0.136193   -0.008623
   2 Au:    0.044016   -0.164548
   3 Au:    0.029212   -0.109165
   4 Au:   -0.050164   -0.077723
   5 Au:    0.043055   -0.161891
   6 Au:    0.031568   -0.100138
   7 Au:    0.085956   -0.155917
   8 Au:    0.070461   -0.183320
   9 Au:    0.030182   -0.097736
  10 Au:    0.068513   -0.186786
  11 Au:   -0.052367   -0.078607
  12 Fe:   -0.452465    3.408039

  Mayer bond orders larger than 0.100000
B(  0-Au,  1-Au) :   0.3180 B(  0-Au,  2-Au) :   0.1766 B(  0-Au,  3-Au) :   0.2423
B(  0-Au,  4-Au) :   0.1949 B(  0-Au,  5-Au) :   0.1789 B(  0-Au, 11-Au) :   0.1915
B(  0-Au, 12-Fe) :   0.3193 B(  1-Au,  4-Au) :   0.3562 B(  1-Au, 11-Au) :   0.3574
B(  2-Au,  3-Au) :   0.1837 B(  2-Au,  6-Au) :   0.1690 B(  2-Au, 11-Au) :   0.1035
B(  2-Au, 12-Fe) :   0.5217 B(  3-Au,  5-Au) :   0.1786 B(  3-Au,  6-Au) :   0.1218
B(  3-Au,  9-Au) :   0.1227 B(  3-Au, 12-Fe) :   0.4536 B(  4-Au,  5-Au) :   0.1008
B(  4-Au,  7-Au) :   0.1365 B(  4-Au,  8-Au) :   0.3114 B(  4-Au, 11-Au) :   0.1253
B(  4-Au, 12-Fe) :   0.4456 B(  5-Au,  9-Au) :   0.1783 B(  5-Au, 12-Fe) :   0.5215
B(  6-Au,  9-Au) :   0.1931 B(  6-Au, 10-Au) :   0.1565 B(  6-Au, 12-Fe) :   0.4731
B(  7-Au,  8-Au) :   0.1576 B(  7-Au, 10-Au) :   0.1554 B(  7-Au, 11-Au) :   0.1323
B(  7-Au, 12-Fe) :   0.5183 B(  8-Au,  9-Au) :   0.1570 B(  8-Au, 12-Fe) :   0.4426
B(  9-Au, 12-Fe) :   0.4686 B( 10-Au, 11-Au) :   0.3150 B( 10-Au, 12-Fe) :   0.4425
B( 11-Au, 12-Fe) :   0.4457

MP2 TOTAL ENERGY:    -2890.527405266 Eh
FINAL SINGLE POINT ENERGY     -2890.527405265533

DIPOLE MOMENT
-------------
                                X             Y             Z
Electronic contribution:      0.45090       5.82553      16.93371
Nuclear contribution   :     -0.35741      -5.64834     -16.60349
                        -----------------------------------------
Total Dipole Moment    :      0.09349       0.17719       0.33023
                        -----------------------------------------
Magnitude (a.u.)       :      0.38625
Magnitude (Debye)      :      0.98176

Rotational constants in cm-1:     0.001561     0.001300     0.001202
Rotational constants in MHz :    46.799173    38.977309    36.032870

                             ****ORCA TERMINATED NORMALLY****
TOTAL RUN TIME: 0 days 1 hours 48 minutes 33 seconds 384 msec
