                         Program Version 5.0.3 -  RELEASE  -
|  1> !PBE def2-TZVP VERYSLOWCONV
|  2>
|  3> %scf
|  4>   AutoTRAHIter 200
|  5>   maxiter 400
|  6> end
|  7>
|  8>
|  9> %pal nprocs 6 end
| 10>
| 11> *xyzfile 0 5 pbe.xyz
| 12>
| 13> $new_job
| 14>
| 15> !PBE def2-TZVP VERYSLOWCONV
| 16>
| 17> %scf
| 18>   AutoTRAHIter 200
| 19>   maxiter 400
| 20> end
| 21>
| 22>
| 23> %pal nprocs 6 end
| 24>
| 25> *xyzfile 0 3 pbe.xyz
| 26>
| 27>
| 28>
| 29>
| 30>
| 31>                          ****END OF INPUT****
 Total Charge           Charge          ....    0
 Multiplicity           Mult            ....    5
 Number of Electrons    NEL             ....  254
FINAL SINGLE POINT ENERGY     -2893.386663883369

CARTESIAN COORDINATES (ANGSTROEM)
---------------------------------
  Au     8.325103    7.335938   11.047545
  Au    10.234949    8.983428   12.175636
  Au     9.476890    4.869828    9.992557
  Au     7.057268    5.823815    9.027238
  Au     9.540791    9.733631    9.646885
  Au     6.978282    8.592269    8.785953
  Au     9.058704    4.846912    7.150139
  Au    11.534566    8.500229    8.015777
  Au     9.103587    9.336517    6.970377
  Au     7.558271    7.054125    6.441805
  Au    11.528910    5.725756    8.154195
  Au    11.301143    7.112513   10.504127
  Fe     9.298813    7.177813    8.556360

 Multiplicity           Mult            ....    3
 Number of Electrons    NEL             ....  254
 Basis Dimension        Dim             ....  525

ORBITAL ENERGIES
----------------
                 SPIN UP ORBITALS
  NO   OCC          E(Eh)            E(eV)
   0   1.0000    -254.752841     -6932.1772
   1   1.0000     -29.589933      -805.1830
   2   1.0000     -25.528647      -694.6698
   3   1.0000     -25.527872      -694.6487
   4   1.0000     -25.520081      -694.4367
   5   1.0000      -4.029784      -109.6560
   6   1.0000      -4.029045      -109.6359
   7   1.0000      -4.026226      -109.5592
   8   1.0000      -4.026053      -109.5545
   9   1.0000      -4.024761      -109.5193
  10   1.0000      -4.024749      -109.5190
  11   1.0000      -4.022910      -109.4690
  12   1.0000      -4.022129      -109.4477
  13   1.0000      -4.021968      -109.4433
  14   1.0000      -4.020036      -109.3908
  15   1.0000      -4.014345      -109.2359
  16   1.0000      -4.014148      -109.2305
  17   1.0000      -3.365774       -91.5874
  18   1.0000      -2.246920       -61.1418
  19   1.0000      -2.244472       -61.0752
  20   1.0000      -2.244269       -61.0697
  21   1.0000      -2.244176       -61.0671
  22   1.0000      -2.243231       -61.0414
  23   1.0000      -2.241921       -61.0058
  24   1.0000      -2.240728       -60.9733
  25   1.0000      -2.240515       -60.9675
  26   1.0000      -2.240331       -60.9625
  27   1.0000      -2.240120       -60.9568
  28   1.0000      -2.239487       -60.9395
  29   1.0000      -2.238738       -60.9192
  30   1.0000      -2.238298       -60.9072
  31   1.0000      -2.238103       -60.9019
  32   1.0000      -2.237778       -60.8930
  33   1.0000      -2.237058       -60.8734
  34   1.0000      -2.236995       -60.8717
  35   1.0000      -2.236344       -60.8540
  36   1.0000      -2.236032       -60.8455
  37   1.0000      -2.235562       -60.8327
  38   1.0000      -2.235383       -60.8279
  39   1.0000      -2.234801       -60.8120
  40   1.0000      -2.234528       -60.8046
  41   1.0000      -2.233773       -60.7841
  42   1.0000      -2.233431       -60.7747
  43   1.0000      -2.233275       -60.7705
  44   1.0000      -2.233106       -60.7659
  45   1.0000      -2.232225       -60.7419
  46   1.0000      -2.231482       -60.7217
  47   1.0000      -2.230570       -60.6969
  48   1.0000      -2.230283       -60.6891
  49   1.0000      -2.228748       -60.6473
  50   1.0000      -2.228049       -60.6283
  51   1.0000      -2.226191       -60.5777
  52   1.0000      -2.224526       -60.5324
  53   1.0000      -2.223775       -60.5120
  54   1.0000      -2.185876       -59.4807
  55   1.0000      -2.184884       -59.4537
  56   1.0000      -2.167765       -58.9879
  57   1.0000      -0.433163       -11.7870
  58   1.0000      -0.383744       -10.4422
  59   1.0000      -0.382667       -10.4129
  60   1.0000      -0.379196       -10.3185
  61   1.0000      -0.376087       -10.2338
  62   1.0000      -0.368000       -10.0138
  63   1.0000      -0.366738        -9.9795
  64   1.0000      -0.359498        -9.7824
  65   1.0000      -0.359100        -9.7716
  66   1.0000      -0.348122        -9.4729
  67   1.0000      -0.347152        -9.4465
  68   1.0000      -0.345400        -9.3988
  69   1.0000      -0.341377        -9.2893
  70   1.0000      -0.340120        -9.2551
  71   1.0000      -0.337678        -9.1887
  72   1.0000      -0.335952        -9.1417
  73   1.0000      -0.331574        -9.0226
  74   1.0000      -0.331274        -9.0144
  75   1.0000      -0.330399        -8.9906
  76   1.0000      -0.323066        -8.7911
  77   1.0000      -0.322648        -8.7797
  78   1.0000      -0.318684        -8.6718
  79   1.0000      -0.317954        -8.6520
  80   1.0000      -0.317789        -8.6475
  81   1.0000      -0.315624        -8.5886
  82   1.0000      -0.313308        -8.5255
  83   1.0000      -0.310091        -8.4380
  84   1.0000      -0.306905        -8.3513
  85   1.0000      -0.303120        -8.2483
  86   1.0000      -0.302309        -8.2262
  87   1.0000      -0.298441        -8.1210
  88   1.0000      -0.297680        -8.1003
  89   1.0000      -0.294570        -8.0157
  90   1.0000      -0.286738        -7.8025
  91   1.0000      -0.284439        -7.7400
  92   1.0000      -0.283280        -7.7084
  93   1.0000      -0.281879        -7.6703
  94   1.0000      -0.281496        -7.6599
  95   1.0000      -0.279545        -7.6068
  96   1.0000      -0.274427        -7.4675
  97   1.0000      -0.274400        -7.4668
  98   1.0000      -0.271122        -7.3776
  99   1.0000      -0.270810        -7.3691
 100   1.0000      -0.268460        -7.3052
 101   1.0000      -0.265813        -7.2331
 102   1.0000      -0.264729        -7.2036
 103   1.0000      -0.264365        -7.1937
 104   1.0000      -0.263084        -7.1589
 105   1.0000      -0.261636        -7.1195
 106   1.0000      -0.259664        -7.0658
 107   1.0000      -0.256371        -6.9762
 108   1.0000      -0.255338        -6.9481
 109   1.0000      -0.253126        -6.8879
 110   1.0000      -0.251279        -6.8377
 111   1.0000      -0.250220        -6.8088
 112   1.0000      -0.249950        -6.8015
 113   1.0000      -0.248325        -6.7573
 114   1.0000      -0.247022        -6.7218
 115   1.0000      -0.246566        -6.7094
 116   1.0000      -0.244502        -6.6532
 117   1.0000      -0.243894        -6.6367
 118   1.0000      -0.243227        -6.6185
 119   1.0000      -0.242065        -6.5869
 120   1.0000      -0.241445        -6.5701
 121   1.0000      -0.240726        -6.5505
 122   1.0000      -0.238118        -6.4795
 123   1.0000      -0.237438        -6.4610
 124   1.0000      -0.234705        -6.3867
 125   1.0000      -0.229513        -6.2454
 126   1.0000      -0.202687        -5.5154
 127   1.0000      -0.185867        -5.0577
 128   0.0000      -0.176200        -4.7946
 129   0.0000      -0.172696        -4.6993
 130   0.0000      -0.155113        -4.2208
 131   0.0000      -0.138590        -3.7712
 132   0.0000      -0.112794        -3.0693

                 SPIN DOWN ORBITALS
  NO   OCC          E(Eh)            E(eV)
   0   1.0000    -254.752177     -6932.1592
   1   1.0000     -29.533829      -803.6563
   2   1.0000     -25.485108      -693.4850
   3   1.0000     -25.483861      -693.4511
   4   1.0000     -25.480508      -693.3599
   5   1.0000      -4.029823      -109.6570
   6   1.0000      -4.029462      -109.6472
   7   1.0000      -4.026316      -109.5616
   8   1.0000      -4.026147      -109.5570
   9   1.0000      -4.025013      -109.5262
  10   1.0000      -4.025000      -109.5258
  11   1.0000      -4.023199      -109.4768
  12   1.0000      -4.022484      -109.4573
  13   1.0000      -4.022316      -109.4528
  14   1.0000      -4.021053      -109.4184
  15   1.0000      -4.014470      -109.2393
  16   1.0000      -4.014256      -109.2335
  17   1.0000      -3.239603       -88.1541
  18   1.0000      -2.246881       -61.1407
  19   1.0000      -2.244587       -61.0783
  20   1.0000      -2.244315       -61.0709
  21   1.0000      -2.244114       -61.0654
  22   1.0000      -2.242998       -61.0351
  23   1.0000      -2.242628       -61.0250
  24   1.0000      -2.241159       -60.9850
  25   1.0000      -2.240722       -60.9731
  26   1.0000      -2.240503       -60.9672
  27   1.0000      -2.240410       -60.9647
  28   1.0000      -2.239294       -60.9343
  29   1.0000      -2.238454       -60.9114
  30   1.0000      -2.238437       -60.9110
  31   1.0000      -2.237786       -60.8932
  32   1.0000      -2.237704       -60.8910
  33   1.0000      -2.237162       -60.8763
  34   1.0000      -2.237050       -60.8732
  35   1.0000      -2.236762       -60.8654
  36   1.0000      -2.236640       -60.8621
  37   1.0000      -2.236137       -60.8484
  38   1.0000      -2.235955       -60.8434
  39   1.0000      -2.235693       -60.8363
  40   1.0000      -2.235096       -60.8201
  41   1.0000      -2.234410       -60.8014
  42   1.0000      -2.234062       -60.7919
  43   1.0000      -2.233744       -60.7833
  44   1.0000      -2.233582       -60.7789
  45   1.0000      -2.232846       -60.7588
  46   1.0000      -2.232509       -60.7496
  47   1.0000      -2.231374       -60.7188
  48   1.0000      -2.229748       -60.6745
  49   1.0000      -2.228576       -60.6426
  50   1.0000      -2.228443       -60.6390
  51   1.0000      -2.226615       -60.5893
  52   1.0000      -2.224835       -60.5408
  53   1.0000      -2.223945       -60.5166
  54   1.0000      -2.059146       -56.0322
  55   1.0000      -2.056967       -55.9729
  56   1.0000      -2.052080       -55.8399
  57   1.0000      -0.429777       -11.6948
  58   1.0000      -0.383460       -10.4345
  59   1.0000      -0.382365       -10.4047
  60   1.0000      -0.378022       -10.2865
  61   1.0000      -0.368993       -10.0408
  62   1.0000      -0.362928        -9.8758
  63   1.0000      -0.360296        -9.8041
  64   1.0000      -0.356012        -9.6876
  65   1.0000      -0.352418        -9.5898
  66   1.0000      -0.348852        -9.4927
  67   1.0000      -0.347998        -9.4695
  68   1.0000      -0.345006        -9.3881
  69   1.0000      -0.342202        -9.3118
  70   1.0000      -0.339807        -9.2466
  71   1.0000      -0.338555        -9.2126
  72   1.0000      -0.334847        -9.1116
  73   1.0000      -0.333145        -9.0653
  74   1.0000      -0.331789        -9.0284
  75   1.0000      -0.329895        -8.9769
  76   1.0000      -0.325296        -8.8518
  77   1.0000      -0.321336        -8.7440
  78   1.0000      -0.319120        -8.6837
  79   1.0000      -0.317750        -8.6464
  80   1.0000      -0.317573        -8.6416
  81   1.0000      -0.311738        -8.4828
  82   1.0000      -0.311657        -8.4806
  83   1.0000      -0.308544        -8.3959
  84   1.0000      -0.307059        -8.3555
  85   1.0000      -0.302393        -8.2285
  86   1.0000      -0.295734        -8.0473
  87   1.0000      -0.294924        -8.0253
  88   1.0000      -0.291609        -7.9351
  89   1.0000      -0.288590        -7.8529
  90   1.0000      -0.287786        -7.8311
  91   1.0000      -0.283219        -7.7068
  92   1.0000      -0.282361        -7.6834
  93   1.0000      -0.281268        -7.6537
  94   1.0000      -0.278927        -7.5900
  95   1.0000      -0.276905        -7.5350
  96   1.0000      -0.274230        -7.4622
  97   1.0000      -0.272374        -7.4117
  98   1.0000      -0.270962        -7.3733
  99   1.0000      -0.269793        -7.3414
 100   1.0000      -0.268293        -7.3006
 101   1.0000      -0.265737        -7.2311
 102   1.0000      -0.265088        -7.2134
 103   1.0000      -0.264314        -7.1923
 104   1.0000      -0.263162        -7.1610
 105   1.0000      -0.261981        -7.1289
 106   1.0000      -0.259861        -7.0712
 107   1.0000      -0.256891        -6.9904
 108   1.0000      -0.255664        -6.9570
 109   1.0000      -0.253341        -6.8938
 110   1.0000      -0.252718        -6.8768
 111   1.0000      -0.250337        -6.8120
 112   1.0000      -0.249949        -6.8015
 113   1.0000      -0.248778        -6.7696
 114   1.0000      -0.246386        -6.7045
 115   1.0000      -0.245666        -6.6849
 116   1.0000      -0.244572        -6.6552
 117   1.0000      -0.240988        -6.5576
 118   1.0000      -0.239178        -6.5084
 119   1.0000      -0.239015        -6.5039
 120   1.0000      -0.231546        -6.3007
 121   1.0000      -0.210814        -5.7365
 122   1.0000      -0.200946        -5.4680
 123   1.0000      -0.196772        -5.3544
 124   1.0000      -0.191632        -5.2146
 125   1.0000      -0.181001        -4.9253
 126   0.0000      -0.156574        -4.2606
 127   0.0000      -0.151887        -4.1330
 128   0.0000      -0.150654        -4.0995
 129   0.0000      -0.146891        -3.9971
 130   0.0000      -0.144956        -3.9445

MULLIKEN ATOMIC CHARGES AND SPIN POPULATIONS
--------------------------------------------
   0 Au:    0.044974   -0.065369
   1 Au:    0.371318    0.018311
   2 Au:    0.238255   -0.109768
   3 Au:    0.353301   -0.142966
   4 Au:   -0.022344    0.004471
   5 Au:    0.237007   -0.106555
   6 Au:    0.208424    0.018717
   7 Au:    0.332645   -0.176119
   8 Au:    0.360170   -0.132395
   9 Au:    0.209156    0.017873
  10 Au:    0.359103   -0.131731
  11 Au:   -0.025036    0.007858
  12 Fe:   -2.666973    2.797674
Sum of atomic charges         :    0.0000000

LOEWDIN ATOMIC CHARGES AND SPIN POPULATIONS
-------------------------------------------
   0 Au:    0.023682   -0.077660
   1 Au:    0.124518   -0.016537
   2 Au:    0.072595   -0.103194
   3 Au:    0.059014   -0.085933
   4 Au:   -0.021576   -0.031118
   5 Au:    0.071904   -0.101731
   6 Au:    0.056530   -0.048260
   7 Au:    0.108073   -0.118655
   8 Au:    0.095259   -0.123441
   9 Au:    0.054937   -0.048097
  10 Au:    0.094339   -0.123378
  11 Au:   -0.022762   -0.029325
  12 Fe:   -0.716511    2.907328

  Mayer bond orders larger than 0.100000
B(  0-Au,  1-Au) :   0.3458 B(  0-Au,  2-Au) :   0.1650 B(  0-Au,  3-Au) :   0.2372
B(  0-Au,  4-Au) :   0.1684 B(  0-Au,  5-Au) :   0.1657 B(  0-Au, 11-Au) :   0.1677
B(  0-Au, 12-Fe) :   0.4907 B(  1-Au,  4-Au) :   0.3757 B(  1-Au, 11-Au) :   0.3773
B(  1-Au, 12-Fe) :   0.1081 B(  2-Au,  3-Au) :   0.2212 B(  2-Au,  6-Au) :   0.1879
B(  2-Au, 10-Au) :   0.1029 B(  2-Au, 11-Au) :   0.1332 B(  2-Au, 12-Fe) :   0.5791
B(  3-Au,  5-Au) :   0.2167 B(  3-Au,  6-Au) :   0.1389 B(  3-Au,  9-Au) :   0.1410
B(  3-Au, 12-Fe) :   0.5054 B(  4-Au,  5-Au) :   0.1330 B(  4-Au,  7-Au) :   0.1483
B(  4-Au,  8-Au) :   0.3233 B(  4-Au, 11-Au) :   0.1279 B(  4-Au, 12-Fe) :   0.5290
B(  5-Au,  9-Au) :   0.1956 B(  5-Au, 12-Fe) :   0.5769 B(  6-Au,  9-Au) :   0.2315
B(  6-Au, 10-Au) :   0.1799 B(  6-Au, 12-Fe) :   0.5289 B(  7-Au,  8-Au) :   0.2029
B(  7-Au, 10-Au) :   0.2011 B(  7-Au, 11-Au) :   0.1457 B(  7-Au, 12-Fe) :   0.5771
B(  8-Au,  9-Au) :   0.1814 B(  8-Au, 12-Fe) :   0.5113 B(  9-Au, 12-Fe) :   0.5236
B( 10-Au, 11-Au) :   0.3285 B( 10-Au, 12-Fe) :   0.5085 B( 11-Au, 12-Fe) :   0.5263

FINAL SINGLE POINT ENERGY     -2893.390265129943

DIPOLE MOMENT
-------------
                                X             Y             Z
Electronic contribution:      0.40131       5.78728      16.93785
Nuclear contribution   :     -0.35741      -5.64834     -16.60349
                        -----------------------------------------
Total Dipole Moment    :      0.04391       0.13894       0.33437
                        -----------------------------------------
Magnitude (a.u.)       :      0.36474
Magnitude (Debye)      :      0.92709

Rotational constants in cm-1:     0.001561     0.001300     0.001202
Rotational constants in MHz :    46.799173    38.977309    36.032870

                             ****ORCA TERMINATED NORMALLY****
TOTAL RUN TIME: 0 days 0 hours 9 minutes 51 seconds 311 msec
