                         Program Version 5.0.3 -  RELEASE  -
|  1> !R2SCAN def2-TZVP VERYSLOWCONV
|  2> !KDIIS
|  3> %scf
|  4>   AutoTRAHIter 200
|  5>   maxiter 400
|  6> end
|  7>
|  8> %pal nprocs 6 end
|  9>
| 10> *xyzfile 0 5 pbe.xyz
| 11>
| 12> $new_job
| 13>
| 14> !R2SCAN def2-TZVP VERYSLOWCONV
| 15> !KDIIS
| 16> %scf
| 17>   AutoTRAHIter 200
| 18>   maxiter 400
| 19> end
| 20>
| 21>
| 22> %pal nprocs 6 end
| 23>
| 24> *xyzfile 0 3 pbe.xyz
| 25>
| 26>
| 27>
| 28>
| 29>
| 30>                          ****END OF INPUT****
 Total Charge           Charge          ....    0
 Multiplicity           Mult            ....    5
 Number of Electrons    NEL             ....  254
FINAL SINGLE POINT ENERGY     -2893.821783136247

CARTESIAN COORDINATES (ANGSTROEM)
---------------------------------
  Au     8.325103    7.335938   11.047545
  Au    10.234949    8.983428   12.175636
  Au     9.476890    4.869828    9.992557
  Au     7.057268    5.823815    9.027238
  Au     9.540791    9.733631    9.646885
  Au     6.978282    8.592269    8.785953
  Au     9.058704    4.846912    7.150139
  Au    11.534566    8.500229    8.015777
  Au     9.103587    9.336517    6.970377
  Au     7.558271    7.054125    6.441805
  Au    11.528910    5.725756    8.154195
  Au    11.301143    7.112513   10.504127
  Fe     9.298813    7.177813    8.556360

 Multiplicity           Mult            ....    3
 Number of Electrons    NEL             ....  254
 Basis Dimension        Dim             ....  525

ORBITAL ENERGIES
----------------
                 SPIN UP ORBITALS
  NO   OCC          E(Eh)            E(eV)
   0   1.0000    -255.637970     -6956.2628
   1   1.0000     -29.936852      -814.6232
   2   1.0000     -25.771936      -701.2900
   3   1.0000     -25.769227      -701.2163
   4   1.0000     -25.760384      -700.9757
   5   1.0000      -4.121820      -112.1604
   6   1.0000      -4.120055      -112.1124
   7   1.0000      -4.117407      -112.0403
   8   1.0000      -4.117211      -112.0350
   9   1.0000      -4.116071      -112.0040
  10   1.0000      -4.116066      -112.0038
  11   1.0000      -4.114036      -111.9486
  12   1.0000      -4.113053      -111.9219
  13   1.0000      -4.112864      -111.9167
  14   1.0000      -4.111326      -111.8749
  15   1.0000      -4.104892      -111.6998
  16   1.0000      -4.104692      -111.6943
  17   1.0000      -3.515109       -95.6510
  18   1.0000      -2.311752       -62.9060
  19   1.0000      -2.308779       -62.8251
  20   1.0000      -2.308578       -62.8196
  21   1.0000      -2.308263       -62.8110
  22   1.0000      -2.308038       -62.8049
  23   1.0000      -2.305903       -62.7468
  24   1.0000      -2.304962       -62.7212
  25   1.0000      -2.304878       -62.7189
  26   1.0000      -2.304468       -62.7078
  27   1.0000      -2.304331       -62.7040
  28   1.0000      -2.303732       -62.6877
  29   1.0000      -2.302916       -62.6655
  30   1.0000      -2.302563       -62.6559
  31   1.0000      -2.302187       -62.6457
  32   1.0000      -2.301727       -62.6332
  33   1.0000      -2.301039       -62.6144
  34   1.0000      -2.300971       -62.6126
  35   1.0000      -2.300335       -62.5953
  36   1.0000      -2.300018       -62.5867
  37   1.0000      -2.299622       -62.5759
  38   1.0000      -2.299366       -62.5689
  39   1.0000      -2.298495       -62.5452
  40   1.0000      -2.298280       -62.5394
  41   1.0000      -2.297441       -62.5166
  42   1.0000      -2.297103       -62.5074
  43   1.0000      -2.297015       -62.5049
  44   1.0000      -2.296794       -62.4989
  45   1.0000      -2.296269       -62.4847
  46   1.0000      -2.295239       -62.4566
  47   1.0000      -2.294604       -62.4394
  48   1.0000      -2.293870       -62.4194
  49   1.0000      -2.292335       -62.3776
  50   1.0000      -2.291249       -62.3480
  51   1.0000      -2.289412       -62.2981
  52   1.0000      -2.289163       -62.2913
  53   1.0000      -2.287809       -62.2545
  54   1.0000      -2.286993       -62.2322
  55   1.0000      -2.284522       -62.1650
  56   1.0000      -2.265173       -61.6385
  57   1.0000      -0.439653       -11.9636
  58   1.0000      -0.392650       -10.6846
  59   1.0000      -0.391418       -10.6510
  60   1.0000      -0.387755       -10.5514
  61   1.0000      -0.386842       -10.5265
  62   1.0000      -0.381166       -10.3721
  63   1.0000      -0.378169       -10.2905
  64   1.0000      -0.373349       -10.1593
  65   1.0000      -0.369046       -10.0422
  66   1.0000      -0.357283        -9.7222
  67   1.0000      -0.357159        -9.7188
  68   1.0000      -0.355229        -9.6663
  69   1.0000      -0.351158        -9.5555
  70   1.0000      -0.349179        -9.5016
  71   1.0000      -0.347344        -9.4517
  72   1.0000      -0.346699        -9.4342
  73   1.0000      -0.340963        -9.2781
  74   1.0000      -0.340874        -9.2757
  75   1.0000      -0.339801        -9.2465
  76   1.0000      -0.334379        -9.0989
  77   1.0000      -0.332166        -9.0387
  78   1.0000      -0.328891        -8.9496
  79   1.0000      -0.328233        -8.9317
  80   1.0000      -0.327155        -8.9023
  81   1.0000      -0.325500        -8.8573
  82   1.0000      -0.324001        -8.8165
  83   1.0000      -0.319089        -8.6829
  84   1.0000      -0.316900        -8.6233
  85   1.0000      -0.313791        -8.5387
  86   1.0000      -0.312739        -8.5101
  87   1.0000      -0.311729        -8.4826
  88   1.0000      -0.308810        -8.4031
  89   1.0000      -0.304564        -8.2876
  90   1.0000      -0.295995        -8.0544
  91   1.0000      -0.293865        -7.9965
  92   1.0000      -0.292559        -7.9609
  93   1.0000      -0.291706        -7.9377
  94   1.0000      -0.289877        -7.8880
  95   1.0000      -0.289711        -7.8834
  96   1.0000      -0.283929        -7.7261
  97   1.0000      -0.283125        -7.7042
  98   1.0000      -0.280520        -7.6333
  99   1.0000      -0.279461        -7.6045
 100   1.0000      -0.277436        -7.5494
 101   1.0000      -0.275036        -7.4841
 102   1.0000      -0.274087        -7.4583
 103   1.0000      -0.272899        -7.4260
 104   1.0000      -0.271687        -7.3930
 105   1.0000      -0.270754        -7.3676
 106   1.0000      -0.268581        -7.3085
 107   1.0000      -0.266013        -7.2386
 108   1.0000      -0.264078        -7.1859
 109   1.0000      -0.263849        -7.1797
 110   1.0000      -0.262524        -7.1436
 111   1.0000      -0.260225        -7.0811
 112   1.0000      -0.259952        -7.0737
 113   1.0000      -0.258700        -7.0396
 114   1.0000      -0.257663        -7.0114
 115   1.0000      -0.256829        -6.9887
 116   1.0000      -0.256047        -6.9674
 117   1.0000      -0.253881        -6.9085
 118   1.0000      -0.253361        -6.8943
 119   1.0000      -0.251106        -6.8329
 120   1.0000      -0.250153        -6.8070
 121   1.0000      -0.249997        -6.8028
 122   1.0000      -0.244652        -6.6573
 123   1.0000      -0.244196        -6.6449
 124   1.0000      -0.242007        -6.5853
 125   1.0000      -0.236423        -6.4334
 126   1.0000      -0.204887        -5.5753
 127   1.0000      -0.187183        -5.0935
 128   0.0000      -0.173384        -4.7180
 129   0.0000      -0.170369        -4.6360
 130   0.0000      -0.152400        -4.1470
 131   0.0000      -0.133713        -3.6385
 132   0.0000      -0.107963        -2.9378

                 SPIN DOWN ORBITALS
  NO   OCC          E(Eh)            E(eV)
   0   1.0000    -255.636980     -6956.2359
   1   1.0000     -29.858733      -812.4974
   2   1.0000     -25.709730      -699.5973
   3   1.0000     -25.708052      -699.5517
   4   1.0000     -25.705047      -699.4699
   5   1.0000      -4.121988      -112.1650
   6   1.0000      -4.120760      -112.1316
   7   1.0000      -4.117649      -112.0469
   8   1.0000      -4.117456      -112.0417
   9   1.0000      -4.116577      -112.0177
  10   1.0000      -4.116571      -112.0176
  11   1.0000      -4.114636      -111.9649
  12   1.0000      -4.113600      -111.9368
  13   1.0000      -4.113402      -111.9314
  14   1.0000      -4.112488      -111.9065
  15   1.0000      -4.105125      -111.7061
  16   1.0000      -4.104906      -111.7002
  17   1.0000      -3.346387       -91.0598
  18   1.0000      -2.311665       -62.9036
  19   1.0000      -2.308897       -62.8283
  20   1.0000      -2.308584       -62.8198
  21   1.0000      -2.308453       -62.8162
  22   1.0000      -2.307911       -62.8014
  23   1.0000      -2.306852       -62.7726
  24   1.0000      -2.305538       -62.7369
  25   1.0000      -2.305136       -62.7259
  26   1.0000      -2.304919       -62.7200
  27   1.0000      -2.304620       -62.7119
  28   1.0000      -2.303448       -62.6800
  29   1.0000      -2.302667       -62.6588
  30   1.0000      -2.302616       -62.6574
  31   1.0000      -2.301889       -62.6376
  32   1.0000      -2.301741       -62.6335
  33   1.0000      -2.301151       -62.6175
  34   1.0000      -2.300969       -62.6126
  35   1.0000      -2.300848       -62.6093
  36   1.0000      -2.300707       -62.6054
  37   1.0000      -2.300247       -62.5929
  38   1.0000      -2.300080       -62.5884
  39   1.0000      -2.299736       -62.5790
  40   1.0000      -2.299125       -62.5624
  41   1.0000      -2.298278       -62.5393
  42   1.0000      -2.297956       -62.5306
  43   1.0000      -2.297544       -62.5193
  44   1.0000      -2.297332       -62.5136
  45   1.0000      -2.297003       -62.5046
  46   1.0000      -2.296606       -62.4938
  47   1.0000      -2.295582       -62.4660
  48   1.0000      -2.293090       -62.3982
  49   1.0000      -2.291860       -62.3647
  50   1.0000      -2.291753       -62.3618
  51   1.0000      -2.289697       -62.3058
  52   1.0000      -2.288339       -62.2689
  53   1.0000      -2.287394       -62.2431
  54   1.0000      -2.117405       -57.6175
  55   1.0000      -2.113854       -57.5209
  56   1.0000      -2.108801       -57.3834
  57   1.0000      -0.437689       -11.9101
  58   1.0000      -0.390931       -10.6378
  59   1.0000      -0.390364       -10.6224
  60   1.0000      -0.386029       -10.5044
  61   1.0000      -0.377835       -10.2814
  62   1.0000      -0.371880       -10.1194
  63   1.0000      -0.369260       -10.0481
  64   1.0000      -0.365244        -9.9388
  65   1.0000      -0.361517        -9.8374
  66   1.0000      -0.358389        -9.7523
  67   1.0000      -0.358031        -9.7425
  68   1.0000      -0.354838        -9.6556
  69   1.0000      -0.351835        -9.5739
  70   1.0000      -0.349459        -9.5093
  71   1.0000      -0.348767        -9.4904
  72   1.0000      -0.344872        -9.3845
  73   1.0000      -0.342820        -9.3286
  74   1.0000      -0.341595        -9.2953
  75   1.0000      -0.339675        -9.2430
  76   1.0000      -0.335393        -9.1265
  77   1.0000      -0.330699        -8.9988
  78   1.0000      -0.329109        -8.9555
  79   1.0000      -0.327172        -8.9028
  80   1.0000      -0.326861        -8.8943
  81   1.0000      -0.321195        -8.7402
  82   1.0000      -0.320741        -8.7278
  83   1.0000      -0.317720        -8.6456
  84   1.0000      -0.316531        -8.6132
  85   1.0000      -0.311532        -8.4772
  86   1.0000      -0.304901        -8.2968
  87   1.0000      -0.303875        -8.2689
  88   1.0000      -0.300388        -8.1740
  89   1.0000      -0.297527        -8.0961
  90   1.0000      -0.297006        -8.0819
  91   1.0000      -0.291344        -7.9279
  92   1.0000      -0.291012        -7.9188
  93   1.0000      -0.289628        -7.8812
  94   1.0000      -0.287735        -7.8297
  95   1.0000      -0.285970        -7.7817
  96   1.0000      -0.282908        -7.6983
  97   1.0000      -0.280897        -7.6436
  98   1.0000      -0.279291        -7.5999
  99   1.0000      -0.278320        -7.5735
 100   1.0000      -0.277259        -7.5446
 101   1.0000      -0.274565        -7.4713
 102   1.0000      -0.273839        -7.4515
 103   1.0000      -0.272602        -7.4179
 104   1.0000      -0.271619        -7.3911
 105   1.0000      -0.270277        -7.3546
 106   1.0000      -0.268461        -7.3052
 107   1.0000      -0.265505        -7.2248
 108   1.0000      -0.263609        -7.1732
 109   1.0000      -0.261882        -7.1262
 110   1.0000      -0.261086        -7.1045
 111   1.0000      -0.258748        -7.0409
 112   1.0000      -0.258330        -7.0295
 113   1.0000      -0.256777        -6.9873
 114   1.0000      -0.254232        -6.9180
 115   1.0000      -0.253449        -6.8967
 116   1.0000      -0.251545        -6.8449
 117   1.0000      -0.247821        -6.7436
 118   1.0000      -0.246107        -6.6969
 119   1.0000      -0.245929        -6.6921
 120   1.0000      -0.238952        -6.5022
 121   1.0000      -0.212977        -5.7954
 122   1.0000      -0.201685        -5.4881
 123   1.0000      -0.197446        -5.3728
 124   1.0000      -0.191676        -5.2158
 125   1.0000      -0.184557        -5.0221
 126   0.0000      -0.149657        -4.0724
 127   0.0000      -0.147138        -4.0038
 128   0.0000      -0.144789        -3.9399
 129   0.0000      -0.139545        -3.7972
 130   0.0000      -0.132421        -3.6034

MULLIKEN ATOMIC CHARGES AND SPIN POPULATIONS
--------------------------------------------
   0 Au:    0.057710   -0.053777
   1 Au:    0.330416    0.020063
   2 Au:    0.214560   -0.135324
   3 Au:    0.341656   -0.161552
   4 Au:   -0.023482   -0.002603
   5 Au:    0.212559   -0.132095
   6 Au:    0.169827    0.007248
   7 Au:    0.306670   -0.211611
   8 Au:    0.334846   -0.163403
   9 Au:    0.171173    0.006294
  10 Au:    0.333929   -0.162610
  11 Au:   -0.026534    0.001080
  12 Fe:   -2.423332    2.988289
Sum of atomic charges         :    0.0000000

LOEWDIN ATOMIC CHARGES AND SPIN POPULATIONS
-------------------------------------------
   0 Au:    0.024148   -0.080452
   1 Au:    0.120585   -0.018887
   2 Au:    0.064414   -0.122727
   3 Au:    0.054675   -0.095666
   4 Au:   -0.027236   -0.043837
   5 Au:    0.063568   -0.121403
   6 Au:    0.046551   -0.062704
   7 Au:    0.102785   -0.136008
   8 Au:    0.088781   -0.145515
   9 Au:    0.045059   -0.062611
  10 Au:    0.087830   -0.145482
  11 Au:   -0.028573   -0.041955
  12 Fe:   -0.642586    3.077246

  Mayer bond orders larger than 0.100000
B(  0-Au,  1-Au) :   0.3341 B(  0-Au,  2-Au) :   0.1616 B(  0-Au,  3-Au) :   0.2431
B(  0-Au,  4-Au) :   0.1544 B(  0-Au,  5-Au) :   0.1621 B(  0-Au, 11-Au) :   0.1534
B(  0-Au, 12-Fe) :   0.4685 B(  1-Au,  4-Au) :   0.3724 B(  1-Au, 11-Au) :   0.3740
B(  2-Au,  3-Au) :   0.2107 B(  2-Au,  6-Au) :   0.1766 B(  2-Au, 11-Au) :   0.1153
B(  2-Au, 12-Fe) :   0.5654 B(  3-Au,  5-Au) :   0.2058 B(  3-Au,  6-Au) :   0.1218
B(  3-Au,  9-Au) :   0.1238 B(  3-Au, 12-Fe) :   0.4969 B(  4-Au,  5-Au) :   0.1154
B(  4-Au,  7-Au) :   0.1373 B(  4-Au,  8-Au) :   0.3240 B(  4-Au, 12-Fe) :   0.5052
B(  5-Au,  9-Au) :   0.1847 B(  5-Au, 12-Fe) :   0.5631 B(  6-Au,  9-Au) :   0.2202
B(  6-Au, 10-Au) :   0.1672 B(  6-Au, 12-Fe) :   0.5165 B(  7-Au,  8-Au) :   0.1927
B(  7-Au, 10-Au) :   0.1904 B(  7-Au, 11-Au) :   0.1345 B(  7-Au, 12-Fe) :   0.5763
B(  8-Au,  9-Au) :   0.1686 B(  8-Au, 12-Fe) :   0.5046 B(  9-Au, 12-Fe) :   0.5105
B( 10-Au, 11-Au) :   0.3294 B( 10-Au, 12-Fe) :   0.5012 B( 11-Au, 12-Fe) :   0.5025

FINAL SINGLE POINT ENERGY     -2893.834994055403

DIPOLE MOMENT
-------------
                                X             Y             Z
Electronic contribution:      0.40296       5.79772      16.96719
Nuclear contribution   :     -0.35741      -5.64834     -16.60349
                        -----------------------------------------
Total Dipole Moment    :      0.04556       0.14938       0.36370
                        -----------------------------------------
Magnitude (a.u.)       :      0.39582
Magnitude (Debye)      :      1.00608

Rotational constants in cm-1:     0.001561     0.001300     0.001202
Rotational constants in MHz :    46.799173    38.977309    36.032870

                             ****ORCA TERMINATED NORMALLY****
TOTAL RUN TIME: 0 days 0 hours 9 minutes 39 seconds 471 msec
