                         Program Version 5.0.3 -  RELEASE  -
|  1> !SC-NEVPT2 def2-TZVP def2-TZVP/C
|  2> !MOREAD RIJCOSX def2/J
|  3> %maxcore 4000
|  4> %moinp "casscf.gbw"
|  5> %pal nprocs 8 end
|  6>
|  7> %casscf
|  8>  mult 5,3
|  9>  bweight 1,1
| 10>  nroots 5,45
| 11>  nel 6
| 12>  norb 5
| 13>  ptsettings
| 14>   d4tpre 1e-14 # default = 1e-10
| 15>   d3tpre 1e-14
| 16>  end
| 17>  rel
| 18>    dosoc true
| 19>    gtensor true
| 20>  end
| 21> end
| 22>
| 23>
| 24> *xyzfile 0 5 pbe.xyz
| 25>
| 26>
| 27>                          ****END OF INPUT****

CARTESIAN COORDINATES (ANGSTROEM)
---------------------------------
  Au     9.642388    3.820694    6.848470
  Au    10.876038    7.915393    6.263629
  Au     8.195024    8.605742    6.243049
  Au    10.366426    8.338158    8.952805
  Au     8.283219    7.030907   10.482861
  Au    11.264684    5.766637    7.966380
  Au     9.190510    4.457787    9.505054
  Au     6.510884    5.150604    9.490060
  Au     7.749413    9.240380    8.901614
  Au     7.025685    4.724638    6.802553
  Au     6.121807    7.297399    7.785034
  Au     9.107071    6.031996    5.271044
  Cr     8.693506    6.534630    7.876462

 Total Charge           Charge          ....    0
 Multiplicity           Mult            ....    5
 Number of Electrons    NEL             ....  252
 Basis Dimension        Dim             ....  525

ORBITAL ENERGIES
----------------

  NO   OCC          E(Eh)            E(eV)
   0   2.0000    -220.523611     -6000.7525
   1   2.0000     -26.366255      -717.4623
   2   2.0000     -22.300463      -606.8264
   3   2.0000     -22.298040      -606.7605
   4   2.0000     -22.286892      -606.4572
   5   2.0000      -4.714546      -128.2893
   6   2.0000      -4.714516      -128.2885
   7   2.0000      -4.714504      -128.2882
   8   2.0000      -4.714501      -128.2881
   9   2.0000      -4.710543      -128.1804
  10   2.0000      -4.710513      -128.1796
  11   2.0000      -4.705741      -128.0497
  12   2.0000      -4.705735      -128.0496
  13   2.0000      -4.705691      -128.0484
  14   2.0000      -4.705680      -128.0481
  15   2.0000      -4.705187      -128.0346
  16   2.0000      -4.705180      -128.0344
  17   2.0000      -3.418104       -93.0113
  18   2.0000      -2.753714       -74.9324
  19   2.0000      -2.753621       -74.9298
  20   2.0000      -2.753273       -74.9204
  21   2.0000      -2.753234       -74.9193
  22   2.0000      -2.752521       -74.8999
  23   2.0000      -2.752381       -74.8961
  24   2.0000      -2.752205       -74.8913
  25   2.0000      -2.751883       -74.8825
  26   2.0000      -2.750090       -74.8337
  27   2.0000      -2.750050       -74.8327
  28   2.0000      -2.749520       -74.8182
  29   2.0000      -2.749267       -74.8114
  30   2.0000      -2.747958       -74.7757
  31   2.0000      -2.747793       -74.7712
  32   2.0000      -2.746355       -74.7321
  33   2.0000      -2.745516       -74.7093
  34   2.0000      -2.745124       -74.6986
  35   2.0000      -2.744921       -74.6931
  36   2.0000      -2.744381       -74.6784
  37   2.0000      -2.744269       -74.6754
  38   2.0000      -2.743092       -74.6433
  39   2.0000      -2.743067       -74.6427
  40   2.0000      -2.742293       -74.6216
  41   2.0000      -2.742094       -74.6162
  42   2.0000      -2.741953       -74.6123
  43   2.0000      -2.741700       -74.6054
  44   2.0000      -2.740868       -74.5828
  45   2.0000      -2.740587       -74.5752
  46   2.0000      -2.739310       -74.5404
  47   2.0000      -2.739118       -74.5352
  48   2.0000      -2.739061       -74.5336
  49   2.0000      -2.738965       -74.5310
  50   2.0000      -2.737998       -74.5047
  51   2.0000      -2.737890       -74.5018
  52   2.0000      -2.737737       -74.4976
  53   2.0000      -2.737611       -74.4942
  54   2.0000      -2.181897       -59.3724
  55   2.0000      -2.180495       -59.3343
  56   2.0000      -2.171534       -59.0904
  57   2.0000      -0.559844       -15.2341
  58   2.0000      -0.547730       -14.9045
  59   2.0000      -0.546049       -14.8587
  60   2.0000      -0.538889       -14.6639
  61   2.0000      -0.538808       -14.6617
  62   2.0000      -0.536530       -14.5997
  63   2.0000      -0.536125       -14.5887
  64   2.0000      -0.535021       -14.5587
  65   2.0000      -0.533009       -14.5039
  66   2.0000      -0.531406       -14.4603
  67   2.0000      -0.530983       -14.4488
  68   2.0000      -0.525638       -14.3034
  69   2.0000      -0.525302       -14.2942
  70   2.0000      -0.525135       -14.2897
  71   2.0000      -0.522306       -14.2127
  72   2.0000      -0.519657       -14.1406
  73   2.0000      -0.515516       -14.0279
  74   2.0000      -0.515340       -14.0231
  75   2.0000      -0.513318       -13.9681
  76   2.0000      -0.513297       -13.9675
  77   2.0000      -0.512705       -13.9514
  78   2.0000      -0.509834       -13.8733
  79   2.0000      -0.497516       -13.5381
  80   2.0000      -0.496406       -13.5079
  81   2.0000      -0.493544       -13.4300
  82   2.0000      -0.493359       -13.4250
  83   2.0000      -0.490619       -13.3504
  84   2.0000      -0.488991       -13.3061
  85   2.0000      -0.485670       -13.2158
  86   2.0000      -0.481378       -13.0989
  87   2.0000      -0.479016       -13.0347
  88   2.0000      -0.470367       -12.7993
  89   2.0000      -0.468621       -12.7518
  90   2.0000      -0.466390       -12.6911
  91   2.0000      -0.461684       -12.5631
  92   2.0000      -0.458036       -12.4638
  93   2.0000      -0.454114       -12.3571
  94   2.0000      -0.452819       -12.3218
  95   2.0000      -0.449974       -12.2444
  96   2.0000      -0.449305       -12.2262
  97   2.0000      -0.448433       -12.2025
  98   2.0000      -0.447363       -12.1734
  99   2.0000      -0.447229       -12.1697
 100   2.0000      -0.446484       -12.1494
 101   2.0000      -0.440148       -11.9770
 102   2.0000      -0.436302       -11.8724
 103   2.0000      -0.435729       -11.8568
 104   2.0000      -0.431812       -11.7502
 105   2.0000      -0.431178       -11.7330
 106   2.0000      -0.425962       -11.5910
 107   2.0000      -0.425478       -11.5779
 108   2.0000      -0.424471       -11.5504
 109   2.0000      -0.424015       -11.5380
 110   2.0000      -0.422988       -11.5101
 111   2.0000      -0.422070       -11.4851
 112   2.0000      -0.420702       -11.4479
 113   2.0000      -0.419532       -11.4160
 114   2.0000      -0.416234       -11.3263
 115   2.0000      -0.411734       -11.2038
 116   2.0000      -0.407518       -11.0891
 117   2.0000      -0.381531       -10.3820
 118   2.0000      -0.344024        -9.3614
 119   2.0000      -0.341600        -9.2954
 120   2.0000      -0.310148        -8.4395
 121   2.0000      -0.241434        -6.5697
 122   2.0000      -0.222801        -6.0627
 123   1.2000      -0.107135        -2.9153
 124   1.2000      -0.137077        -3.7300
 125   1.2000      -0.119894        -3.2625
 126   1.2000      -0.110316        -3.0018
 127   1.2000      -0.118785        -3.2323
 128   0.0000      -0.023351        -0.6354
 129   0.0000       0.000869         0.0237
 130   0.0000       0.008305         0.2260
 131   0.0000       0.012621         0.3434
 132   0.0000       0.030282         0.8240

MULLIKEN ATOMIC CHARGES AND SPIN DENSITIES
------------------------------------------
   0 Au:    0.561101    0.011044
   1 Au:    0.510230    0.034072
   2 Au:    0.490261    0.017336
   3 Au:    0.490359    0.017381
   4 Au:    0.494122    0.018676
   5 Au:    0.492159    0.018696
   6 Au:    0.489260    0.017386
   7 Au:    0.510264    0.034109
   8 Au:    0.561070    0.011060
   9 Au:    0.488752    0.017398
  10 Au:    0.493623    0.018639
  11 Au:    0.492787    0.018717
  12 Cr:   -6.073988    2.765485
Sum of atomic charges       :    0.0000000

LOEWDIN ATOMIC CHARGES AND SPIN DENSITIES
-----------------------------------------
   0 Au:    0.115125    0.025267
   1 Au:    0.148980    0.070977
   2 Au:    0.088289    0.055961
   3 Au:    0.088245    0.056053
   4 Au:    0.114232    0.058509
   5 Au:    0.113492    0.058599
   6 Au:    0.087381    0.055841
   7 Au:    0.149133    0.070951
   8 Au:    0.114896    0.025486
   9 Au:    0.087539    0.055980
  10 Au:    0.114215    0.058679
  11 Au:    0.113689    0.058466
  12 Cr:   -1.335215    2.349230

  Mayer bond orders larger than 0.100000
B(  0-Au,  5-Au) :   0.1432 B(  0-Au,  6-Au) :   0.1438 B(  0-Au,  9-Au) :   0.1442
B(  0-Au, 11-Au) :   0.1435 B(  0-Au, 12-Cr) :   0.3829 B(  1-Au,  2-Au) :   0.1435
B(  1-Au,  3-Au) :   0.1431 B(  1-Au,  5-Au) :   0.1419 B(  1-Au, 11-Au) :   0.1422
B(  1-Au, 12-Cr) :   0.4232 B(  2-Au,  6-Au) :   0.1933 B(  2-Au,  8-Au) :   0.1440
B(  2-Au, 10-Au) :   0.1424 B(  2-Au, 11-Au) :   0.1270 B(  2-Au, 12-Cr) :   0.3291
B(  3-Au,  4-Au) :   0.1423 B(  3-Au,  5-Au) :   0.1273 B(  3-Au,  8-Au) :   0.1442
B(  3-Au,  9-Au) :   0.1931 B(  3-Au, 12-Cr) :   0.3296 B(  4-Au,  6-Au) :   0.1270
B(  4-Au,  7-Au) :   0.1419 B(  4-Au,  8-Au) :   0.1436 B(  4-Au, 11-Au) :   0.1840
B(  4-Au, 12-Cr) :   0.3294 B(  5-Au,  6-Au) :   0.1427 B(  5-Au, 10-Au) :   0.1842
B(  5-Au, 12-Cr) :   0.3310 B(  6-Au,  7-Au) :   0.1440 B(  6-Au, 12-Cr) :   0.3297
B(  7-Au,  9-Au) :   0.1436 B(  7-Au, 10-Au) :   0.1417 B(  7-Au, 12-Cr) :   0.4237
B(  8-Au, 10-Au) :   0.1433 B(  8-Au, 12-Cr) :   0.3798 B(  9-Au, 10-Au) :   0.1270
B(  9-Au, 11-Au) :   0.1427 B(  9-Au, 12-Cr) :   0.3298 B( 10-Au, 12-Cr) :   0.3303
B( 11-Au, 12-Cr) :   0.3297

FINAL SINGLE POINT ENERGY     -2666.911597384637

DIPOLE MOMENT
-------------
                                X             Y             Z
Electronic contribution:      0.03132      -0.10179      -0.01375
Nuclear contribution   :     -0.03240       0.10304       0.01462
                        -----------------------------------------
Total Dipole Moment    :     -0.00108       0.00125       0.00086
                        -----------------------------------------
Magnitude (a.u.)       :      0.00186
Magnitude (Debye)      :      0.00474

Rotational constants in cm-1:     0.001440     0.001439     0.001210
Rotational constants in MHz :    43.175280    43.133640    36.285925

                             ****ORCA TERMINATED NORMALLY****
TOTAL RUN TIME: 0 days 2 hours 7 minutes 5 seconds 981 msec
