                         Program Version 5.0.3 -  RELEASE  -
|  1> !SC-NEVPT2 def2-TZVP def2-TZVP/C
|  2> !MOREAD RIJCOSX def2/J
|  3> %maxcore 4000
|  4> %moinp "casscf.gbw"
|  5> %pal nprocs 8 end
|  6>
|  7> %casscf
|  8>  mult 5,3
|  9>  bweight 1,1
| 10>  nroots 5,45
| 11>  nel 6
| 12>  norb 5
| 13>  ptsettings
| 14>   d4tpre 1e-14 # default = 1e-10
| 15>   d3tpre 1e-14
| 16>  end
| 17>  rel
| 18>    dosoc true
| 19>    gtensor true
| 20>  end
| 21> end
| 22>
| 23>
| 24> *xyzfile 0 5 pbe.xyz
| 25>
| 26>
| 27>                          ****END OF INPUT****

CARTESIAN COORDINATES (ANGSTROEM)
---------------------------------
  Au    11.524664    8.550357    8.129408
  Au     9.709825    7.340841    6.417815
  Au     9.905197   10.206893    6.606987
  Au     7.879516    9.166561    5.115028
  Au     7.094331    6.493481    5.754796
  Au     5.748141    7.970629    3.856802
  Au     7.203304   10.694558    7.477272
  Au     9.373423   11.427380    9.039072
  Au     7.330752    7.102025   10.345328
  Au     7.756401    9.859103   10.753732
  Au     8.235617    5.629679    8.083020
  Au    10.506433    9.393181   10.603968
  Au    10.070924    6.762779    9.775041
  Au     5.588229    6.505262    8.113424
  Au     5.392402    8.766993    6.471790
  Au     5.654142    9.082670    9.174227
  Cr     8.627925    8.652401    8.511178

 Total Charge           Charge          ....    0
 Multiplicity           Mult            ....    5
 Number of Electrons    NEL             ....  328
 Basis Dimension        Dim             ....  685

ORBITAL ENERGIES
----------------

  NO   OCC          E(Eh)            E(eV)
   0   2.0000    -220.504521     -6000.2331
   1   2.0000     -26.341422      -716.7865
   2   2.0000     -22.275059      -606.1352
   3   2.0000     -22.275017      -606.1340
   4   2.0000     -22.261627      -605.7697
   5   2.0000      -4.720789      -128.4592
   6   2.0000      -4.720352      -128.4473
   7   2.0000      -4.714869      -128.2981
   8   2.0000      -4.714008      -128.2747
   9   2.0000      -4.713643      -128.2647
  10   2.0000      -4.713550      -128.2622
  11   2.0000      -4.713345      -128.2566
  12   2.0000      -4.713300      -128.2554
  13   2.0000      -4.710168      -128.1702
  14   2.0000      -4.710065      -128.1674
  15   2.0000      -4.709776      -128.1595
  16   2.0000      -4.709605      -128.1549
  17   2.0000      -4.708254      -128.1181
  18   2.0000      -4.708233      -128.1175
  19   2.0000      -4.706069      -128.0586
  20   2.0000      -4.697669      -127.8301
  21   2.0000      -3.397370       -92.4471
  22   2.0000      -2.760351       -75.1130
  23   2.0000      -2.759789       -75.0977
  24   2.0000      -2.759361       -75.0860
  25   2.0000      -2.757423       -75.0333
  26   2.0000      -2.757255       -75.0287
  27   2.0000      -2.756721       -75.0142
  28   2.0000      -2.756693       -75.0134
  29   2.0000      -2.753072       -74.9149
  30   2.0000      -2.752773       -74.9068
  31   2.0000      -2.752302       -74.8939
  32   2.0000      -2.752251       -74.8926
  33   2.0000      -2.750855       -74.8546
  34   2.0000      -2.750674       -74.8496
  35   2.0000      -2.750213       -74.8371
  36   2.0000      -2.749868       -74.8277
  37   2.0000      -2.749754       -74.8246
  38   2.0000      -2.749615       -74.8208
  39   2.0000      -2.749503       -74.8178
  40   2.0000      -2.749367       -74.8141
  41   2.0000      -2.748753       -74.7974
  42   2.0000      -2.748494       -74.7903
  43   2.0000      -2.748268       -74.7842
  44   2.0000      -2.747456       -74.7621
  45   2.0000      -2.747340       -74.7589
  46   2.0000      -2.747254       -74.7566
  47   2.0000      -2.747097       -74.7523
  48   2.0000      -2.746734       -74.7424
  49   2.0000      -2.746036       -74.7234
  50   2.0000      -2.745653       -74.7130
  51   2.0000      -2.745440       -74.7072
  52   2.0000      -2.745261       -74.7024
  53   2.0000      -2.744697       -74.6870
  54   2.0000      -2.744675       -74.6864
  55   2.0000      -2.743850       -74.6640
  56   2.0000      -2.743708       -74.6601
  57   2.0000      -2.743374       -74.6510
  58   2.0000      -2.743006       -74.6410
  59   2.0000      -2.742432       -74.6254
  60   2.0000      -2.741806       -74.6083
  61   2.0000      -2.741770       -74.6074
  62   2.0000      -2.741505       -74.6001
  63   2.0000      -2.741123       -74.5898
  64   2.0000      -2.740903       -74.5838
  65   2.0000      -2.739536       -74.5466
  66   2.0000      -2.738889       -74.5290
  67   2.0000      -2.733426       -74.3803
  68   2.0000      -2.733318       -74.3774
  69   2.0000      -2.732737       -74.3615
  70   2.0000      -2.163202       -58.8637
  71   2.0000      -2.162955       -58.8570
  72   2.0000      -2.150139       -58.5082
  73   2.0000      -0.566174       -15.4064
  74   2.0000      -0.556939       -15.1551
  75   2.0000      -0.554749       -15.0955
  76   2.0000      -0.552777       -15.0418
  77   2.0000      -0.550592       -14.9824
  78   2.0000      -0.546579       -14.8732
  79   2.0000      -0.546200       -14.8629
  80   2.0000      -0.542795       -14.7702
  81   2.0000      -0.541740       -14.7415
  82   2.0000      -0.540492       -14.7075
  83   2.0000      -0.538243       -14.6463
  84   2.0000      -0.537173       -14.6172
  85   2.0000      -0.536565       -14.6007
  86   2.0000      -0.536274       -14.5928
  87   2.0000      -0.534394       -14.5416
  88   2.0000      -0.533741       -14.5238
  89   2.0000      -0.530849       -14.4451
  90   2.0000      -0.529354       -14.4045
  91   2.0000      -0.527991       -14.3674
  92   2.0000      -0.526960       -14.3393
  93   2.0000      -0.525263       -14.2931
  94   2.0000      -0.524765       -14.2796
  95   2.0000      -0.523663       -14.2496
  96   2.0000      -0.520766       -14.1708
  97   2.0000      -0.519681       -14.1412
  98   2.0000      -0.514228       -13.9929
  99   2.0000      -0.513750       -13.9799
 100   2.0000      -0.512914       -13.9571
 101   2.0000      -0.509930       -13.8759
 102   2.0000      -0.508282       -13.8311
 103   2.0000      -0.506699       -13.7880
 104   2.0000      -0.504821       -13.7369
 105   2.0000      -0.499162       -13.5829
 106   2.0000      -0.496231       -13.5031
 107   2.0000      -0.491553       -13.3758
 108   2.0000      -0.490491       -13.3469
 109   2.0000      -0.489856       -13.3296
 110   2.0000      -0.485738       -13.2176
 111   2.0000      -0.484169       -13.1749
 112   2.0000      -0.479263       -13.0414
 113   2.0000      -0.476008       -12.9528
 114   2.0000      -0.473415       -12.8823
 115   2.0000      -0.471794       -12.8382
 116   2.0000      -0.468009       -12.7352
 117   2.0000      -0.467250       -12.7145
 118   2.0000      -0.464950       -12.6519
 119   2.0000      -0.462448       -12.5839
 120   2.0000      -0.462293       -12.5796
 121   2.0000      -0.460907       -12.5419
 122   2.0000      -0.456674       -12.4267
 123   2.0000      -0.456490       -12.4217
 124   2.0000      -0.451375       -12.2826
 125   2.0000      -0.450151       -12.2492
 126   2.0000      -0.449926       -12.2431
 127   2.0000      -0.449707       -12.2371
 128   2.0000      -0.448669       -12.2089
 129   2.0000      -0.446049       -12.1376
 130   2.0000      -0.444909       -12.1066
 131   2.0000      -0.440670       -11.9912
 132   2.0000      -0.439901       -11.9703
 133   2.0000      -0.439377       -11.9561
 134   2.0000      -0.436842       -11.8871
 135   2.0000      -0.433510       -11.7964
 136   2.0000      -0.431601       -11.7445
 137   2.0000      -0.428817       -11.6687
 138   2.0000      -0.427729       -11.6391
 139   2.0000      -0.426861       -11.6155
 140   2.0000      -0.425720       -11.5844
 141   2.0000      -0.425483       -11.5780
 142   2.0000      -0.422996       -11.5103
 143   2.0000      -0.421157       -11.4603
 144   2.0000      -0.418081       -11.3765
 145   2.0000      -0.416227       -11.3261
 146   2.0000      -0.414578       -11.2812
 147   2.0000      -0.413067       -11.2401
 148   2.0000      -0.410153       -11.1608
 149   2.0000      -0.407631       -11.0922
 150   2.0000      -0.407542       -11.0898
 151   2.0000      -0.397293       -10.8109
 152   2.0000      -0.394140       -10.7251
 153   2.0000      -0.381817       -10.3898
 154   2.0000      -0.381115       -10.3707
 155   2.0000      -0.354322        -9.6416
 156   2.0000      -0.346860        -9.4385
 157   2.0000      -0.283714        -7.7203
 158   2.0000      -0.251505        -6.8438
 159   2.0000      -0.238291        -6.4842
 160   2.0000      -0.229549        -6.2463
 161   1.2000      -0.087774        -2.3885
 162   1.2000      -0.157653        -4.2899
 163   1.2000      -0.092605        -2.5199
 164   1.2000      -0.090755        -2.4696
 165   1.2000      -0.105924        -2.8823
 166   0.0000      -0.030728        -0.8362
 167   0.0000      -0.016462        -0.4480
 168   0.0000      -0.009163        -0.2493
 169   0.0000       0.002969         0.0808
 170   0.0000       0.004893         0.1332

MULLIKEN ATOMIC CHARGES AND SPIN DENSITIES
------------------------------------------
   0 Au:    0.502422    0.013223
   1 Au:    0.384995    0.040704
   2 Au:    0.566989    0.034149
   3 Au:   -0.194543    0.022069
   4 Au:   -0.126417    0.022734
   5 Au:    0.685342    0.011393
   6 Au:    0.381584    0.040331
   7 Au:    0.501817    0.013506
   8 Au:    0.526627    0.034232
   9 Au:    0.474371    0.003379
  10 Au:    0.400368    0.037317
  11 Au:    0.463091    0.003827
  12 Au:    0.474923    0.003676
  13 Au:    0.180149    0.076564
  14 Au:   -0.120891    0.022660
  15 Au:    0.399259    0.037608
  16 Cr:   -5.500085    2.582630
Sum of atomic charges       :    0.0000000

LOEWDIN ATOMIC CHARGES AND SPIN DENSITIES
-----------------------------------------
   0 Au:    0.149968    0.031418
   1 Au:    0.071287    0.057174
   2 Au:    0.089037    0.061535
   3 Au:   -0.029467    0.031502
   4 Au:   -0.053076    0.035276
   5 Au:    0.251900    0.014874
   6 Au:    0.070923    0.057028
   7 Au:    0.150281    0.031826
   8 Au:    0.065198    0.062689
   9 Au:    0.104091    0.030747
  10 Au:    0.065760    0.061601
  11 Au:    0.168802    0.014089
  12 Au:    0.103741    0.030619
  13 Au:    0.063133    0.061309
  14 Au:   -0.052321    0.035039
  15 Au:    0.065328    0.061361
  16 Cr:   -1.284586    2.321914

  Mayer bond orders larger than 0.100000
B(  0-Au,  1-Au) :   0.1585 B(  0-Au,  2-Au) :   0.1480 B(  0-Au, 11-Au) :   0.1694
B(  0-Au, 12-Au) :   0.1675 B(  0-Au, 16-Cr) :   0.2986 B(  1-Au,  2-Au) :   0.1026
B(  1-Au,  3-Au) :   0.1110 B(  1-Au,  4-Au) :   0.1574 B(  1-Au,  9-Au) :   0.1912
B(  1-Au, 10-Au) :   0.1365 B(  1-Au, 16-Cr) :   0.3396 B(  2-Au,  3-Au) :   0.2025
B(  2-Au,  6-Au) :   0.1021 B(  2-Au,  7-Au) :   0.1471 B(  2-Au,  8-Au) :   0.1733
B(  2-Au, 16-Cr) :   0.1885 B(  3-Au,  4-Au) :   0.3085 B(  3-Au,  5-Au) :   0.3036
B(  3-Au,  6-Au) :   0.1112 B(  3-Au, 14-Au) :   0.3063 B(  3-Au, 16-Cr) :   0.4239
B(  4-Au,  5-Au) :   0.2032 B(  4-Au, 10-Au) :   0.2763 B(  4-Au, 13-Au) :   0.1761
B(  4-Au, 14-Au) :   0.2753 B(  4-Au, 16-Cr) :   0.4218 B(  5-Au, 14-Au) :   0.2017
B(  6-Au,  7-Au) :   0.1588 B(  6-Au, 12-Au) :   0.1909 B(  6-Au, 14-Au) :   0.1582
B(  6-Au, 15-Au) :   0.1366 B(  6-Au, 16-Cr) :   0.3419 B(  7-Au,  9-Au) :   0.1680
B(  7-Au, 11-Au) :   0.1699 B(  7-Au, 16-Cr) :   0.2987 B(  8-Au,  9-Au) :   0.1412
B(  8-Au, 10-Au) :   0.1211 B(  8-Au, 12-Au) :   0.1410 B(  8-Au, 13-Au) :   0.1054
B(  8-Au, 15-Au) :   0.1222 B(  8-Au, 16-Cr) :   0.2534 B(  9-Au, 11-Au) :   0.1638
B(  9-Au, 15-Au) :   0.1240 B(  9-Au, 16-Cr) :   0.3161 B( 10-Au, 12-Au) :   0.1238
B( 10-Au, 13-Au) :   0.1632 B( 10-Au, 16-Cr) :   0.4194 B( 11-Au, 12-Au) :   0.1637
B( 11-Au, 16-Cr) :   0.2090 B( 12-Au, 16-Cr) :   0.3170 B( 13-Au, 14-Au) :   0.1745
B( 13-Au, 15-Au) :   0.1653 B( 13-Au, 16-Cr) :   0.3610 B( 14-Au, 15-Au) :   0.2751
B( 14-Au, 16-Cr) :   0.4213 B( 15-Au, 16-Cr) :   0.4178

FINAL SINGLE POINT ENERGY     -3208.290530882463

DIPOLE MOMENT
-------------
                                X             Y             Z
Electronic contribution:    -19.65283      -7.32748     -23.37028
Nuclear contribution   :     20.01394       7.68931      23.07469
                        -----------------------------------------
Total Dipole Moment    :      0.36110       0.36183      -0.29559
                        -----------------------------------------
Magnitude (a.u.)       :      0.59050
Magnitude (Debye)      :      1.50093

Rotational constants in cm-1:     0.001045     0.000722     0.000691
Rotational constants in MHz :    31.328228    21.640554    20.721864

                             ****ORCA TERMINATED NORMALLY****
TOTAL RUN TIME: 0 days 2 hours 4 minutes 32 seconds 747 msec
