                         Program Version 5.0.3 -  RELEASE  -
|  1> !CASSCF def2-TZVP def2-TZVP/C
|  2> !MOREAD RIJCOSX
|  3> %maxcore 6000
|  4> %moinp "pbe.qro"
|  5> %pal nprocs 2 end
|  6>
|  7> %casscf
|  8>  mult 5,3
|  9>  bweight 1,1
| 10>  nroots 5,45
| 11>  nel 6
| 12>  norb 5
| 13> end
| 14>
| 15>
| 16> *xyzfile 0 5 pbe.xyz
| 17>
| 18>
| 19>                          ****END OF INPUT****

CARTESIAN COORDINATES (ANGSTROEM)
---------------------------------
  Au     6.904115    6.841830    5.574656
  Au     8.015508    9.204837    6.333648
  Au     6.339254    5.066966    7.528272
  Au     4.333735    7.037986    6.831920
  Au     6.578505   10.416511    8.274293
  Au     6.059363    4.016923   10.029707
  Au     7.753335    6.229923    9.890045
  Au     8.703854    8.579643    9.108486
  Au     4.375844    8.971553    8.949604
  Au     4.778155    6.389001    9.623852
  Fe     6.540150    7.728410    8.048255

 Total Charge           Charge          ....    0
 Multiplicity           Mult            ....    5
 Number of Electrons    NEL             ....  216
 Basis Dimension        Dim             ....  445

ORBITAL ENERGIES
----------------

  NO   OCC          E(Eh)            E(eV)
   0   2.0000    -261.388791     -7112.7506
   1   2.0000     -31.953263      -869.4925
   2   2.0000     -27.433264      -746.4971
   3   2.0000     -27.433030      -746.4907
   4   2.0000     -27.432837      -746.4854
   5   2.0000      -4.737119      -128.9036
   6   2.0000      -4.719192      -128.4158
   7   2.0000      -4.719150      -128.4146
   8   2.0000      -4.718305      -128.3916
   9   2.0000      -4.718199      -128.3887
  10   2.0000      -4.716869      -128.3525
  11   2.0000      -4.711103      -128.1956
  12   2.0000      -4.709446      -128.1505
  13   2.0000      -4.688524      -127.5812
  14   2.0000      -4.688192      -127.5722
  15   2.0000      -4.186944      -113.9325
  16   2.0000      -2.779457       -75.6329
  17   2.0000      -2.773554       -75.4723
  18   2.0000      -2.772621       -75.4468
  19   2.0000      -2.766495       -75.2801
  20   2.0000      -2.766402       -75.2776
  21   2.0000      -2.765799       -75.2612
  22   2.0000      -2.760584       -75.1193
  23   2.0000      -2.758813       -75.0711
  24   2.0000      -2.757131       -75.0254
  25   2.0000      -2.756834       -75.0173
  26   2.0000      -2.756101       -74.9973
  27   2.0000      -2.754954       -74.9661
  28   2.0000      -2.753645       -74.9305
  29   2.0000      -2.753172       -74.9176
  30   2.0000      -2.753094       -74.9155
  31   2.0000      -2.752863       -74.9092
  32   2.0000      -2.751999       -74.8857
  33   2.0000      -2.751738       -74.8786
  34   2.0000      -2.750627       -74.8484
  35   2.0000      -2.749905       -74.8287
  36   2.0000      -2.748759       -74.7975
  37   2.0000      -2.748287       -74.7847
  38   2.0000      -2.746600       -74.7388
  39   2.0000      -2.744774       -74.6891
  40   2.0000      -2.743965       -74.6671
  41   2.0000      -2.743306       -74.6492
  42   2.0000      -2.741681       -74.6049
  43   2.0000      -2.726781       -74.1995
  44   2.0000      -2.724535       -74.1384
  45   2.0000      -2.724468       -74.1365
  46   2.0000      -2.721056       -74.0437
  47   2.0000      -2.719983       -74.0145
  48   2.0000      -2.717564       -73.9487
  49   2.0000      -0.582672       -15.8553
  50   2.0000      -0.564194       -15.3525
  51   2.0000      -0.561201       -15.2711
  52   2.0000      -0.550842       -14.9892
  53   2.0000      -0.545152       -14.8344
  54   2.0000      -0.541576       -14.7370
  55   2.0000      -0.537929       -14.6378
  56   2.0000      -0.537847       -14.6356
  57   2.0000      -0.529247       -14.4015
  58   2.0000      -0.528252       -14.3745
  59   2.0000      -0.523930       -14.2569
  60   2.0000      -0.521055       -14.1786
  61   2.0000      -0.518952       -14.1214
  62   2.0000      -0.516005       -14.0412
  63   2.0000      -0.513582       -13.9753
  64   2.0000      -0.511729       -13.9249
  65   2.0000      -0.505928       -13.7670
  66   2.0000      -0.501472       -13.6457
  67   2.0000      -0.498670       -13.5695
  68   2.0000      -0.493771       -13.4362
  69   2.0000      -0.493511       -13.4291
  70   2.0000      -0.490884       -13.3576
  71   2.0000      -0.489290       -13.3142
  72   2.0000      -0.484012       -13.1706
  73   2.0000      -0.482416       -13.1272
  74   2.0000      -0.476508       -12.9665
  75   2.0000      -0.473321       -12.8797
  76   2.0000      -0.471862       -12.8400
  77   2.0000      -0.470892       -12.8136
  78   2.0000      -0.465933       -12.6787
  79   2.0000      -0.462289       -12.5795
  80   2.0000      -0.458334       -12.4719
  81   2.0000      -0.456649       -12.4260
  82   2.0000      -0.455346       -12.3906
  83   2.0000      -0.450833       -12.2678
  84   2.0000      -0.448468       -12.2034
  85   2.0000      -0.446534       -12.1508
  86   2.0000      -0.446366       -12.1462
  87   2.0000      -0.442592       -12.0435
  88   2.0000      -0.439865       -11.9693
  89   2.0000      -0.437609       -11.9079
  90   2.0000      -0.434362       -11.8196
  91   2.0000      -0.430590       -11.7169
  92   2.0000      -0.428488       -11.6597
  93   2.0000      -0.424486       -11.5509
  94   2.0000      -0.422720       -11.5028
  95   2.0000      -0.419836       -11.4243
  96   2.0000      -0.406547       -11.0627
  97   2.0000      -0.403605       -10.9827
  98   2.0000      -0.401208       -10.9174
  99   2.0000      -0.397613       -10.8196
 100   2.0000      -0.356624        -9.7042
 101   2.0000      -0.318929        -8.6785
 102   2.0000      -0.309825        -8.4308
 103   2.0000      -0.244941        -6.6652
 104   2.0000      -0.204609        -5.5677
 105   1.2000      -0.261842        -7.1251
 106   1.2000      -0.267746        -7.2857
 107   1.2000      -0.254309        -6.9201
 108   1.2000      -0.268145        -7.2966
 109   1.2000      -0.267236        -7.2719
 110   0.0000      -0.035228        -0.9586
 111   0.0000      -0.021898        -0.5959
 112   0.0000      -0.005292        -0.1440
 113   0.0000      -0.001743        -0.0474
 114   0.0000       0.020513         0.5582

MULLIKEN ATOMIC CHARGES AND SPIN DENSITIES
------------------------------------------
   0 Au:    0.394223    0.007377
   1 Au:   -0.006580    0.011337
   2 Au:   -0.221129    0.010625
   3 Au:    0.391635    0.007489
   4 Au:   -0.007557    0.011431
   5 Au:    0.402135    0.003687
   6 Au:    0.006211    0.007723
   7 Au:    0.328841    0.009284
   8 Au:    0.395905    0.007360
   9 Au:   -0.221122    0.010675
  10 Fe:   -1.462562    2.913012
Sum of atomic charges       :    0.0000000

LOEWDIN ATOMIC CHARGES AND SPIN DENSITIES
-----------------------------------------
   0 Au:    0.063916    0.011613
   1 Au:   -0.062347    0.013632
   2 Au:   -0.094477    0.012378
   3 Au:    0.151306    0.009879
   4 Au:   -0.062793    0.013731
   5 Au:    0.149766    0.004792
   6 Au:   -0.007373    0.010814
   7 Au:    0.059334    0.012527
   8 Au:    0.063903    0.011595
   9 Au:   -0.094033    0.012438
  10 Fe:   -0.167202    2.886601

  Mayer bond orders larger than 0.100000
B(  0-Au,  1-Au) :   0.3316 B(  0-Au,  2-Au) :   0.3388 B(  0-Au,  3-Au) :   0.1516
B(  0-Au, 10-Fe) :   0.3414 B(  1-Au,  4-Au) :   0.1141 B(  1-Au, 10-Fe) :   0.5107
B(  2-Au,  3-Au) :   0.1856 B(  2-Au,  5-Au) :   0.3580 B(  2-Au,  6-Au) :   0.1710
B(  2-Au,  9-Au) :   0.2066 B(  2-Au, 10-Fe) :   0.4566 B(  3-Au,  8-Au) :   0.1506
B(  3-Au,  9-Au) :   0.1852 B(  3-Au, 10-Fe) :   0.4299 B(  4-Au,  8-Au) :   0.3319
B(  4-Au, 10-Fe) :   0.5127 B(  5-Au,  6-Au) :   0.2454 B(  5-Au,  9-Au) :   0.3591
B(  6-Au,  7-Au) :   0.5013 B(  6-Au,  9-Au) :   0.1699 B(  6-Au, 10-Fe) :   0.4677
B(  7-Au, 10-Fe) :   0.4735 B(  8-Au,  9-Au) :   0.3381 B(  8-Au, 10-Fe) :   0.3417
B(  9-Au, 10-Fe) :   0.4578

FINAL SINGLE POINT ENERGY     -2610.457901703581

DIPOLE MOMENT
-------------
                                X             Y             Z
Electronic contribution:     -6.41698     -17.92128       6.39386
Nuclear contribution   :      5.90833      17.15469      -6.29507
                        -----------------------------------------
Total Dipole Moment    :     -0.50866      -0.76659       0.09879
                        -----------------------------------------
Magnitude (a.u.)       :      0.92529
Magnitude (Debye)      :      2.35189

Rotational constants in cm-1:     0.002183     0.001445     0.001421
Rotational constants in MHz :    65.458421    43.323577    42.600082

                             ****ORCA TERMINATED NORMALLY****
TOTAL RUN TIME: 0 days 0 hours 39 minutes 24 seconds 823 msec
