                         Program Version 5.0.3 -  RELEASE  -
|  1> %pal nprocs 1 end
|  2>
|  3> !PBE def2-TZVP OPT UNO
|  4> !SLOWCONV KDIIS
|  5>
|  6> %geom maxiter 300 end
|  7>
|  8> *xyzfile 0 3 3.xyz                           ****END OF INPUT****
 Total Charge           Charge          ....    0
 Multiplicity           Mult            ....    3
 Number of Electrons    NEL             ....  252
FINAL SINGLE POINT ENERGY     -2674.140903663208
FINAL SINGLE POINT ENERGY     -2674.143240139847
FINAL SINGLE POINT ENERGY     -2674.144787408283
FINAL SINGLE POINT ENERGY     -2674.146391580002
FINAL SINGLE POINT ENERGY     -2674.146851811959
FINAL SINGLE POINT ENERGY     -2674.147374168440
FINAL SINGLE POINT ENERGY     -2674.147821733056
FINAL SINGLE POINT ENERGY     -2674.148596192624
FINAL SINGLE POINT ENERGY     -2674.149366176412
FINAL SINGLE POINT ENERGY     -2674.150064047593
FINAL SINGLE POINT ENERGY     -2674.158049820987
FINAL SINGLE POINT ENERGY     -2674.158199412941
FINAL SINGLE POINT ENERGY     -2674.158238782316
FINAL SINGLE POINT ENERGY     -2674.157816859393
FINAL SINGLE POINT ENERGY     -2674.158280265465
FINAL SINGLE POINT ENERGY     -2674.158287887945
FINAL SINGLE POINT ENERGY     -2674.158292614264
FINAL SINGLE POINT ENERGY     -2674.158298576701
FINAL SINGLE POINT ENERGY     -2674.158301611090
                    ***********************HURRAY********************

CARTESIAN COORDINATES (ANGSTROEM)
---------------------------------
  Au     6.306002    9.597163    7.790382
  Au    10.150131    7.480303    6.837522
  Au     8.038368    5.591456    6.531521
  Au     9.136330    9.822454    7.597557
  Au     5.878180    7.093630    6.973569
  Au     7.694604   11.157672    9.625667
  Au     9.334677    9.008829   10.436538
  Au     6.100856    6.231500    9.944000
  Au    10.371657    6.676603    9.675774
  Au     8.256341    4.817886    9.259542
  Au    10.476260    4.776562    7.588093
  Au     6.496317    8.808820   10.512517
  Cr     8.061433    7.534013    8.557181

 Multiplicity           Mult            ....    3
 Number of Electrons    NEL             ....  252
 Basis Dimension        Dim             ....  525

ORBITAL ENERGIES
----------------
                 SPIN UP ORBITALS
  NO   OCC          E(Eh)            E(eV)
   0   1.0000    -214.506986     -5837.0319
   1   1.0000     -24.309267      -661.4888
   2   1.0000     -20.673225      -562.5470
   3   1.0000     -20.672786      -562.5351
   4   1.0000     -20.672183      -562.5187
   5   1.0000      -4.023172      -109.4761
   6   1.0000      -4.023120      -109.4747
   7   1.0000      -4.022898      -109.4686
   8   1.0000      -4.022849      -109.4673
   9   1.0000      -4.020284      -109.3975
  10   1.0000      -4.020274      -109.3972
  11   1.0000      -4.020105      -109.3926
  12   1.0000      -4.020098      -109.3924
  13   1.0000      -4.018669      -109.3535
  14   1.0000      -4.018643      -109.3528
  15   1.0000      -4.017688      -109.3268
  16   1.0000      -4.017643      -109.3256
  17   1.0000      -2.807360       -76.3921
  18   1.0000      -2.242423       -61.0194
  19   1.0000      -2.242199       -61.0133
  20   1.0000      -2.238975       -60.9256
  21   1.0000      -2.238677       -60.9175
  22   1.0000      -2.238651       -60.9168
  23   1.0000      -2.238391       -60.9097
  24   1.0000      -2.238299       -60.9072
  25   1.0000      -2.237867       -60.8954
  26   1.0000      -2.237729       -60.8917
  27   1.0000      -2.237255       -60.8788
  28   1.0000      -2.236550       -60.8596
  29   1.0000      -2.235908       -60.8421
  30   1.0000      -2.234996       -60.8173
  31   1.0000      -2.234708       -60.8095
  32   1.0000      -2.233542       -60.7778
  33   1.0000      -2.233298       -60.7711
  34   1.0000      -2.233057       -60.7646
  35   1.0000      -2.232686       -60.7545
  36   1.0000      -2.232273       -60.7432
  37   1.0000      -2.231883       -60.7326
  38   1.0000      -2.231502       -60.7223
  39   1.0000      -2.231092       -60.7111
  40   1.0000      -2.231065       -60.7104
  41   1.0000      -2.231013       -60.7089
  42   1.0000      -2.230562       -60.6967
  43   1.0000      -2.230509       -60.6952
  44   1.0000      -2.230461       -60.6939
  45   1.0000      -2.230294       -60.6894
  46   1.0000      -2.229915       -60.6791
  47   1.0000      -2.229485       -60.6674
  48   1.0000      -2.229380       -60.6645
  49   1.0000      -2.229258       -60.6612
  50   1.0000      -2.227905       -60.6244
  51   1.0000      -2.227836       -60.6225
  52   1.0000      -2.225577       -60.5610
  53   1.0000      -2.224907       -60.5428
  54   1.0000      -1.797302       -48.9071
  55   1.0000      -1.796091       -48.8741
  56   1.0000      -1.795790       -48.8659
  57   1.0000      -0.411938       -11.2094
  58   1.0000      -0.382512       -10.4087
  59   1.0000      -0.368606       -10.0303
  60   1.0000      -0.363142        -9.8816
  61   1.0000      -0.361423        -9.8348
  62   1.0000      -0.356424        -9.6988
  63   1.0000      -0.354479        -9.6459
  64   1.0000      -0.350839        -9.5468
  65   1.0000      -0.347309        -9.4508
  66   1.0000      -0.343297        -9.3416
  67   1.0000      -0.340744        -9.2721
  68   1.0000      -0.338156        -9.2017
  69   1.0000      -0.335790        -9.1373
  70   1.0000      -0.333737        -9.0814
  71   1.0000      -0.333003        -9.0615
  72   1.0000      -0.330464        -8.9924
  73   1.0000      -0.328551        -8.9403
  74   1.0000      -0.327976        -8.9247
  75   1.0000      -0.326535        -8.8855
  76   1.0000      -0.326335        -8.8800
  77   1.0000      -0.324257        -8.8235
  78   1.0000      -0.318826        -8.6757
  79   1.0000      -0.315646        -8.5892
  80   1.0000      -0.306224        -8.3328
  81   1.0000      -0.304834        -8.2949
  82   1.0000      -0.303301        -8.2532
  83   1.0000      -0.303251        -8.2519
  84   1.0000      -0.300304        -8.1717
  85   1.0000      -0.299676        -8.1546
  86   1.0000      -0.294375        -8.0103
  87   1.0000      -0.293119        -7.9762
  88   1.0000      -0.288666        -7.8550
  89   1.0000      -0.288008        -7.8371
  90   1.0000      -0.287332        -7.8187
  91   1.0000      -0.285928        -7.7805
  92   1.0000      -0.285505        -7.7690
  93   1.0000      -0.284208        -7.7337
  94   1.0000      -0.281273        -7.6538
  95   1.0000      -0.278121        -7.5681
  96   1.0000      -0.277800        -7.5593
  97   1.0000      -0.277490        -7.5509
  98   1.0000      -0.268104        -7.2955
  99   1.0000      -0.266133        -7.2418
 100   1.0000      -0.265880        -7.2350
 101   1.0000      -0.261295        -7.1102
 102   1.0000      -0.260923        -7.1001
 103   1.0000      -0.258665        -7.0386
 104   1.0000      -0.257947        -7.0191
 105   1.0000      -0.256740        -6.9862
 106   1.0000      -0.255704        -6.9581
 107   1.0000      -0.254877        -6.9356
 108   1.0000      -0.254538        -6.9263
 109   1.0000      -0.253396        -6.8953
 110   1.0000      -0.250952        -6.8287
 111   1.0000      -0.248156        -6.7527
 112   1.0000      -0.246090        -6.6964
 113   1.0000      -0.245069        -6.6687
 114   1.0000      -0.242229        -6.5914
 115   1.0000      -0.241610        -6.5745
 116   1.0000      -0.238516        -6.4903
 117   1.0000      -0.236595        -6.4381
 118   1.0000      -0.232549        -6.3280
 119   1.0000      -0.228286        -6.2120
 120   1.0000      -0.226518        -6.1639
 121   1.0000      -0.225923        -6.1477
 122   1.0000      -0.219782        -5.9806
 123   1.0000      -0.211546        -5.7565
 124   1.0000      -0.210106        -5.7173
 125   1.0000      -0.206974        -5.6320
 126   1.0000      -0.199002        -5.4151
 127   0.0000      -0.176995        -4.8163
 128   0.0000      -0.169546        -4.6136
 129   0.0000      -0.166718        -4.5366
 130   0.0000      -0.137634        -3.7452
 131   0.0000      -0.130598        -3.5537

                 SPIN DOWN ORBITALS
  NO   OCC          E(Eh)            E(eV)
   0   1.0000    -214.506566     -5837.0204
   1   1.0000     -24.265250      -660.2910
   2   1.0000     -20.640376      -561.6532
   3   1.0000     -20.639120      -561.6190
   4   1.0000     -20.637787      -561.5827
   5   1.0000      -4.023275      -109.4789
   6   1.0000      -4.023224      -109.4775
   7   1.0000      -4.023002      -109.4715
   8   1.0000      -4.022952      -109.4701
   9   1.0000      -4.020259      -109.3968
  10   1.0000      -4.020252      -109.3966
  11   1.0000      -4.020089      -109.3922
  12   1.0000      -4.020078      -109.3919
  13   1.0000      -4.019099      -109.3652
  14   1.0000      -4.019070      -109.3645
  15   1.0000      -4.017587      -109.3241
  16   1.0000      -4.017542      -109.3229
  17   1.0000      -2.688989       -73.1711
  18   1.0000      -2.242429       -61.0196
  19   1.0000      -2.242217       -61.0138
  20   1.0000      -2.238978       -60.9257
  21   1.0000      -2.238786       -60.9205
  22   1.0000      -2.238438       -60.9110
  23   1.0000      -2.238403       -60.9100
  24   1.0000      -2.237974       -60.8984
  25   1.0000      -2.237938       -60.8974
  26   1.0000      -2.237646       -60.8894
  27   1.0000      -2.237097       -60.8745
  28   1.0000      -2.236916       -60.8696
  29   1.0000      -2.236294       -60.8527
  30   1.0000      -2.234721       -60.8099
  31   1.0000      -2.234525       -60.8045
  32   1.0000      -2.233303       -60.7713
  33   1.0000      -2.232987       -60.7627
  34   1.0000      -2.232627       -60.7529
  35   1.0000      -2.232608       -60.7523
  36   1.0000      -2.232200       -60.7412
  37   1.0000      -2.232106       -60.7387
  38   1.0000      -2.231885       -60.7327
  39   1.0000      -2.231514       -60.7226
  40   1.0000      -2.231347       -60.7180
  41   1.0000      -2.231276       -60.7161
  42   1.0000      -2.230848       -60.7045
  43   1.0000      -2.230824       -60.7038
  44   1.0000      -2.230785       -60.7028
  45   1.0000      -2.230555       -60.6965
  46   1.0000      -2.230148       -60.6854
  47   1.0000      -2.229726       -60.6739
  48   1.0000      -2.229673       -60.6725
  49   1.0000      -2.229555       -60.6693
  50   1.0000      -2.228248       -60.6337
  51   1.0000      -2.228176       -60.6318
  52   1.0000      -2.225448       -60.5575
  53   1.0000      -2.224753       -60.5386
  54   1.0000      -1.682887       -45.7937
  55   1.0000      -1.679404       -45.6989
  56   1.0000      -1.677255       -45.6404
  57   1.0000      -0.407146       -11.0790
  58   1.0000      -0.382616       -10.4115
  59   1.0000      -0.364492        -9.9183
  60   1.0000      -0.364247        -9.9117
  61   1.0000      -0.360630        -9.8132
  62   1.0000      -0.355800        -9.6818
  63   1.0000      -0.351905        -9.5758
  64   1.0000      -0.349748        -9.5171
  65   1.0000      -0.347097        -9.4450
  66   1.0000      -0.342622        -9.3232
  67   1.0000      -0.341175        -9.2838
  68   1.0000      -0.334952        -9.1145
  69   1.0000      -0.334827        -9.1111
  70   1.0000      -0.334421        -9.1001
  71   1.0000      -0.332939        -9.0597
  72   1.0000      -0.331034        -9.0079
  73   1.0000      -0.329394        -8.9633
  74   1.0000      -0.328477        -8.9383
  75   1.0000      -0.327609        -8.9147
  76   1.0000      -0.319296        -8.6885
  77   1.0000      -0.318464        -8.6658
  78   1.0000      -0.316874        -8.6226
  79   1.0000      -0.316604        -8.6152
  80   1.0000      -0.307712        -8.3733
  81   1.0000      -0.305724        -8.3192
  82   1.0000      -0.304218        -8.2782
  83   1.0000      -0.301442        -8.2027
  84   1.0000      -0.300538        -8.1781
  85   1.0000      -0.297758        -8.1024
  86   1.0000      -0.295509        -8.0412
  87   1.0000      -0.293998        -8.0001
  88   1.0000      -0.289952        -7.8900
  89   1.0000      -0.289080        -7.8663
  90   1.0000      -0.286765        -7.8033
  91   1.0000      -0.286046        -7.7837
  92   1.0000      -0.285540        -7.7699
  93   1.0000      -0.283984        -7.7276
  94   1.0000      -0.282155        -7.6778
  95   1.0000      -0.278933        -7.5902
  96   1.0000      -0.278414        -7.5760
  97   1.0000      -0.276467        -7.5230
  98   1.0000      -0.268998        -7.3198
  99   1.0000      -0.267768        -7.2863
 100   1.0000      -0.266302        -7.2464
 101   1.0000      -0.262313        -7.1379
 102   1.0000      -0.261580        -7.1180
 103   1.0000      -0.259196        -7.0531
 104   1.0000      -0.258782        -7.0418
 105   1.0000      -0.258152        -7.0247
 106   1.0000      -0.256763        -6.9869
 107   1.0000      -0.255090        -6.9414
 108   1.0000      -0.254656        -6.9296
 109   1.0000      -0.254192        -6.9169
 110   1.0000      -0.251774        -6.8511
 111   1.0000      -0.249746        -6.7959
 112   1.0000      -0.247059        -6.7228
 113   1.0000      -0.246169        -6.6986
 114   1.0000      -0.243856        -6.6357
 115   1.0000      -0.243498        -6.6259
 116   1.0000      -0.239310        -6.5120
 117   1.0000      -0.237514        -6.4631
 118   1.0000      -0.233003        -6.3403
 119   1.0000      -0.230988        -6.2855
 120   1.0000      -0.226917        -6.1747
 121   1.0000      -0.221771        -6.0347
 122   1.0000      -0.199439        -5.4270
 123   1.0000      -0.198592        -5.4040
 124   1.0000      -0.192238        -5.2311
 125   0.0000      -0.145602        -3.9620
 126   0.0000      -0.133227        -3.6253
 127   0.0000      -0.120846        -3.2884
 128   0.0000      -0.120710        -3.2847
 129   0.0000      -0.119207        -3.2438

MULLIKEN ATOMIC CHARGES AND SPIN POPULATIONS
--------------------------------------------
   0 Au:    0.290577   -0.115217
   1 Au:    0.273693   -0.100211
   2 Au:    0.289892   -0.114264
   3 Au:    0.270114   -0.099885
   4 Au:    0.388288   -0.056750
   5 Au:    0.366824   -0.030354
   6 Au:    0.273770   -0.100271
   7 Au:    0.389930   -0.056355
   8 Au:    0.270968   -0.100060
   9 Au:    0.290216   -0.114645
  10 Au:    0.367363   -0.030020
  11 Au:    0.290060   -0.115208
  12 Cr:   -3.761695    3.033242
Sum of atomic charges         :   -0.0000000

LOEWDIN ATOMIC CHARGES AND SPIN POPULATIONS
-------------------------------------------
   0 Au:    0.067371   -0.093897
   1 Au:    0.102313   -0.081177
   2 Au:    0.067606   -0.092938
   3 Au:    0.101388   -0.081073
   4 Au:    0.146982   -0.086489
   5 Au:    0.096617   -0.072442
   6 Au:    0.101859   -0.081247
   7 Au:    0.146942   -0.086334
   8 Au:    0.101389   -0.081305
   9 Au:    0.067852   -0.093262
  10 Au:    0.096384   -0.072183
  11 Au:    0.067536   -0.093602
  12 Cr:   -1.164240    3.015949

  Mayer bond orders larger than 0.100000
B(  0-Au,  3-Au) :   0.1712 B(  0-Au,  4-Au) :   0.3180 B(  0-Au,  5-Au) :   0.2596
B(  0-Au, 11-Au) :   0.1640 B(  0-Au, 12-Cr) :   0.5071 B(  1-Au,  2-Au) :   0.1692
B(  1-Au,  3-Au) :   0.3810 B(  1-Au,  8-Au) :   0.1136 B(  1-Au, 10-Au) :   0.2137
B(  1-Au, 12-Cr) :   0.6768 B(  2-Au,  4-Au) :   0.3202 B(  2-Au,  9-Au) :   0.1616
B(  2-Au, 10-Au) :   0.2599 B(  2-Au, 12-Cr) :   0.5113 B(  3-Au,  5-Au) :   0.2152
B(  3-Au,  6-Au) :   0.1128 B(  3-Au, 12-Cr) :   0.6772 B(  4-Au, 12-Cr) :   0.6775
B(  5-Au,  6-Au) :   0.2142 B(  5-Au, 11-Au) :   0.2586 B(  5-Au, 12-Cr) :   0.3320
B(  6-Au,  8-Au) :   0.3802 B(  6-Au, 11-Au) :   0.1701 B(  6-Au, 12-Cr) :   0.6764
B(  7-Au,  9-Au) :   0.3190 B(  7-Au, 11-Au) :   0.3178 B(  7-Au, 12-Cr) :   0.6774
B(  8-Au,  9-Au) :   0.1717 B(  8-Au, 10-Au) :   0.2151 B(  8-Au, 12-Cr) :   0.6771
B(  9-Au, 10-Au) :   0.2595 B(  9-Au, 12-Cr) :   0.5083 B( 10-Au, 12-Cr) :   0.3316
B( 11-Au, 12-Cr) :   0.5104

FINAL SINGLE POINT ENERGY     -2674.158303532604

DIPOLE MOMENT
-------------
                                X             Y             Z
Electronic contribution:      4.51915       1.96886       0.25965
Nuclear contribution   :     -4.39517      -1.91518      -0.25305
                        -----------------------------------------
Total Dipole Moment    :      0.12398       0.05368       0.00659
                        -----------------------------------------
Magnitude (a.u.)       :      0.13527
Magnitude (Debye)      :      0.34382

Rotational constants in cm-1:     0.001699     0.001131     0.001034
Rotational constants in MHz :    50.926379    33.916632    31.006987

                             ****ORCA TERMINATED NORMALLY****
TOTAL RUN TIME: 0 days 4 hours 2 minutes 22 seconds 271 msec
