                         Program Version 5.0.3 -  RELEASE  -
|  1> !RI-B2PLYP def2-TZVP def2-TZVP/C
|  2> !RIJCOSX VERYSLOWCONV
|  3>
|  4> %scf
|  5>   AutoTRAHIter 200
|  6>   maxiter 400
|  7> end
|  8>
|  9>
| 10> %pal nprocs 6 end
| 11>
| 12> *xyzfile 0 6 pbe.xyz
| 13>
| 14> $new_job
| 15>
| 16> !RI-B2PLYP def2-TZVP def2-TZVP/C
| 17> !RIJCOSX VERYSLOWCONV
| 18>
| 19> %scf
| 20>   AutoTRAHIter 200
| 21>   maxiter 400
| 22> end
| 23>
| 24>
| 25> %pal nprocs 6 end
| 26>
| 27> *xyzfile 0 4 pbe.xyz
| 28>
| 29>
| 30>
| 31>
| 32>
| 33>                          ****END OF INPUT****
 Total Charge           Charge          ....    0
 Multiplicity           Mult            ....    6
 Number of Electrons    NEL             ....  215
MP2 TOTAL ENERGY:    -2506.671014444 Eh
FINAL SINGLE POINT ENERGY     -2506.671014444071

CARTESIAN COORDINATES (ANGSTROEM)
---------------------------------
  Au     5.889409    8.023460    9.318310
  Au     5.835269    8.282361    6.345343
  Au     4.510296   10.013361    8.086156
  Au     7.193365   10.406924    7.799612
  Au     7.792411    6.209643    9.841122
  Au     9.131703    5.325674    7.640959
  Au     9.309367    4.476808    5.151521
  Au    10.313044    7.407385    9.026774
  Au     9.785036    9.886023    8.116108
  Au     7.489921    6.424161    5.537437
  Mn     8.053897    7.870895    7.721502

 Multiplicity           Mult            ....    4
 Number of Electrons    NEL             ....  215
 Basis Dimension        Dim             ....  445

ORBITAL ENERGIES
----------------
                 SPIN UP ORBITALS
  NO   OCC          E(Eh)            E(eV)
   0   1.0000    -237.619398     -6465.9525
   1   1.0000     -28.124378      -765.3032
   2   1.0000     -24.042659      -654.2340
   3   1.0000     -24.041751      -654.2093
   4   1.0000     -24.041326      -654.1977
   5   1.0000      -4.400164      -119.7346
   6   1.0000      -4.399184      -119.7079
   7   1.0000      -4.398354      -119.6853
   8   1.0000      -4.396592      -119.6374
   9   1.0000      -4.395750      -119.6144
  10   1.0000      -4.393920      -119.5647
  11   1.0000      -4.391683      -119.5038
  12   1.0000      -4.389820      -119.4531
  13   1.0000      -4.389071      -119.4327
  14   1.0000      -4.374669      -119.0408
  15   1.0000      -3.602080       -98.0176
  16   1.0000      -2.523353       -68.6639
  17   1.0000      -2.521835       -68.6226
  18   1.0000      -2.520196       -68.5780
  19   1.0000      -2.519073       -68.5475
  20   1.0000      -2.518479       -68.5313
  21   1.0000      -2.517280       -68.4987
  22   1.0000      -2.516833       -68.4865
  23   1.0000      -2.516404       -68.4748
  24   1.0000      -2.516348       -68.4733
  25   1.0000      -2.514969       -68.4358
  26   1.0000      -2.514010       -68.4097
  27   1.0000      -2.513450       -68.3944
  28   1.0000      -2.512577       -68.3707
  29   1.0000      -2.512439       -68.3669
  30   1.0000      -2.511188       -68.3329
  31   1.0000      -2.510332       -68.3096
  32   1.0000      -2.509439       -68.2853
  33   1.0000      -2.509146       -68.2773
  34   1.0000      -2.508649       -68.2638
  35   1.0000      -2.507273       -68.2264
  36   1.0000      -2.507028       -68.2197
  37   1.0000      -2.506679       -68.2102
  38   1.0000      -2.506064       -68.1935
  39   1.0000      -2.506023       -68.1923
  40   1.0000      -2.504301       -68.1455
  41   1.0000      -2.501603       -68.0721
  42   1.0000      -2.500602       -68.0448
  43   1.0000      -2.495052       -67.8938
  44   1.0000      -2.491268       -67.7908
  45   1.0000      -2.487080       -67.6769
  46   1.0000      -2.404243       -65.4228
  47   1.0000      -2.402770       -65.3827
  48   1.0000      -2.402276       -65.3693
  49   1.0000      -0.514902       -14.0112
  50   1.0000      -0.509761       -13.8713
  51   1.0000      -0.506446       -13.7811
  52   1.0000      -0.505594       -13.7579
  53   1.0000      -0.498969       -13.5776
  54   1.0000      -0.474935       -12.9236
  55   1.0000      -0.472458       -12.8562
  56   1.0000      -0.459803       -12.5119
  57   1.0000      -0.455846       -12.4042
  58   1.0000      -0.451525       -12.2866
  59   1.0000      -0.444197       -12.0872
  60   1.0000      -0.441685       -12.0189
  61   1.0000      -0.436116       -11.8673
  62   1.0000      -0.434621       -11.8266
  63   1.0000      -0.433726       -11.8023
  64   1.0000      -0.429334       -11.6828
  65   1.0000      -0.426150       -11.5961
  66   1.0000      -0.423710       -11.5297
  67   1.0000      -0.420001       -11.4288
  68   1.0000      -0.416865       -11.3435
  69   1.0000      -0.410522       -11.1709
  70   1.0000      -0.402434       -10.9508
  71   1.0000      -0.401490       -10.9251
  72   1.0000      -0.398468       -10.8429
  73   1.0000      -0.394300       -10.7294
  74   1.0000      -0.392055       -10.6684
  75   1.0000      -0.390761       -10.6331
  76   1.0000      -0.388933       -10.5834
  77   1.0000      -0.387218       -10.5367
  78   1.0000      -0.384932       -10.4745
  79   1.0000      -0.383544       -10.4368
  80   1.0000      -0.379096       -10.3157
  81   1.0000      -0.376409       -10.2426
  82   1.0000      -0.372602       -10.1390
  83   1.0000      -0.372180       -10.1275
  84   1.0000      -0.371647       -10.1130
  85   1.0000      -0.369436       -10.0529
  86   1.0000      -0.367525       -10.0009
  87   1.0000      -0.366802        -9.9812
  88   1.0000      -0.364033        -9.9058
  89   1.0000      -0.363173        -9.8825
  90   1.0000      -0.360666        -9.8142
  91   1.0000      -0.359093        -9.7714
  92   1.0000      -0.358493        -9.7551
  93   1.0000      -0.357693        -9.7333
  94   1.0000      -0.353655        -9.6234
  95   1.0000      -0.352875        -9.6022
  96   1.0000      -0.351291        -9.5591
  97   1.0000      -0.346238        -9.4216
  98   1.0000      -0.345831        -9.4105
  99   1.0000      -0.340831        -9.2745
 100   1.0000      -0.337269        -9.1775
 101   1.0000      -0.335314        -9.1244
 102   1.0000      -0.328539        -8.9400
 103   1.0000      -0.322489        -8.7754
 104   1.0000      -0.317601        -8.6424
 105   1.0000      -0.311772        -8.4837
 106   1.0000      -0.291710        -7.9378
 107   1.0000      -0.261882        -7.1262
 108   1.0000      -0.231628        -6.3029
 109   0.0000      -0.125057        -3.4030
 110   0.0000      -0.096063        -2.6140
 111   0.0000      -0.067340        -1.8324
 112   0.0000      -0.061000        -1.6599
 113   0.0000      -0.054177        -1.4742

                 SPIN DOWN ORBITALS
  NO   OCC          E(Eh)            E(eV)
   0   1.0000    -237.617261     -6465.8944
   1   1.0000     -28.023395      -762.5553
   2   1.0000     -23.949480      -651.6985
   3   1.0000     -23.949297      -651.6935
   4   1.0000     -23.948830      -651.6808
   5   1.0000      -4.401180      -119.7622
   6   1.0000      -4.399378      -119.7131
   7   1.0000      -4.398743      -119.6959
   8   1.0000      -4.396568      -119.6367
   9   1.0000      -4.395665      -119.6121
  10   1.0000      -4.394073      -119.5688
  11   1.0000      -4.393424      -119.5511
  12   1.0000      -4.389284      -119.4385
  13   1.0000      -4.388310      -119.4120
  14   1.0000      -4.375211      -119.0555
  15   1.0000      -3.318010       -90.2876
  16   1.0000      -2.523683       -68.6729
  17   1.0000      -2.522004       -68.6272
  18   1.0000      -2.519079       -68.5476
  19   1.0000      -2.518675       -68.5366
  20   1.0000      -2.518015       -68.5187
  21   1.0000      -2.516834       -68.4865
  22   1.0000      -2.516495       -68.4773
  23   1.0000      -2.515224       -68.4427
  24   1.0000      -2.514766       -68.4303
  25   1.0000      -2.514452       -68.4217
  26   1.0000      -2.513126       -68.3856
  27   1.0000      -2.512986       -68.3818
  28   1.0000      -2.512434       -68.3668
  29   1.0000      -2.511664       -68.3459
  30   1.0000      -2.511214       -68.3336
  31   1.0000      -2.510800       -68.3223
  32   1.0000      -2.508887       -68.2703
  33   1.0000      -2.508718       -68.2657
  34   1.0000      -2.508208       -68.2518
  35   1.0000      -2.507756       -68.2395
  36   1.0000      -2.507112       -68.2220
  37   1.0000      -2.506558       -68.2069
  38   1.0000      -2.505794       -68.1861
  39   1.0000      -2.505286       -68.1723
  40   1.0000      -2.504643       -68.1548
  41   1.0000      -2.500628       -68.0455
  42   1.0000      -2.499399       -68.0121
  43   1.0000      -2.495550       -67.9074
  44   1.0000      -2.491784       -67.8049
  45   1.0000      -2.487281       -67.6824
  46   1.0000      -2.079819       -56.5947
  47   1.0000      -2.077707       -56.5373
  48   1.0000      -2.076625       -56.5078
  49   1.0000      -0.485824       -13.2199
  50   1.0000      -0.475421       -12.9369
  51   1.0000      -0.467929       -12.7330
  52   1.0000      -0.461693       -12.5633
  53   1.0000      -0.460984       -12.5440
  54   1.0000      -0.454260       -12.3611
  55   1.0000      -0.446804       -12.1582
  56   1.0000      -0.443694       -12.0735
  57   1.0000      -0.442234       -12.0338
  58   1.0000      -0.436425       -11.8757
  59   1.0000      -0.434101       -11.8125
  60   1.0000      -0.430003       -11.7010
  61   1.0000      -0.427157       -11.6235
  62   1.0000      -0.424570       -11.5531
  63   1.0000      -0.422128       -11.4867
  64   1.0000      -0.417217       -11.3531
  65   1.0000      -0.415442       -11.3048
  66   1.0000      -0.413219       -11.2442
  67   1.0000      -0.410630       -11.1738
  68   1.0000      -0.407180       -11.0799
  69   1.0000      -0.404241       -11.0000
  70   1.0000      -0.397634       -10.8202
  71   1.0000      -0.396037       -10.7767
  72   1.0000      -0.391115       -10.6428
  73   1.0000      -0.389661       -10.6032
  74   1.0000      -0.388334       -10.5671
  75   1.0000      -0.383526       -10.4363
  76   1.0000      -0.382415       -10.4060
  77   1.0000      -0.380771       -10.3613
  78   1.0000      -0.376193       -10.2367
  79   1.0000      -0.373988       -10.1767
  80   1.0000      -0.372005       -10.1228
  81   1.0000      -0.370553       -10.0833
  82   1.0000      -0.369582       -10.0568
  83   1.0000      -0.368312       -10.0223
  84   1.0000      -0.366071        -9.9613
  85   1.0000      -0.364143        -9.9088
  86   1.0000      -0.361959        -9.8494
  87   1.0000      -0.360480        -9.8092
  88   1.0000      -0.359567        -9.7843
  89   1.0000      -0.358071        -9.7436
  90   1.0000      -0.354898        -9.6573
  91   1.0000      -0.352299        -9.5866
  92   1.0000      -0.349431        -9.5085
  93   1.0000      -0.347224        -9.4485
  94   1.0000      -0.343115        -9.3366
  95   1.0000      -0.340348        -9.2613
  96   1.0000      -0.337215        -9.1761
  97   1.0000      -0.331991        -9.0339
  98   1.0000      -0.329581        -8.9684
  99   1.0000      -0.328450        -8.9376
 100   1.0000      -0.314121        -8.5477
 101   1.0000      -0.305434        -8.3113
 102   1.0000      -0.288188        -7.8420
 103   1.0000      -0.241383        -6.5684
 104   1.0000      -0.229642        -6.2489
 105   1.0000      -0.198857        -5.4112
 106   0.0000      -0.076388        -2.0786
 107   0.0000      -0.071492        -1.9454
 108   0.0000      -0.063399        -1.7252
 109   0.0000      -0.035942        -0.9780
 110   0.0000      -0.027433        -0.7465

MULLIKEN ATOMIC CHARGES AND SPIN POPULATIONS
--------------------------------------------
   0 Au:   -0.068162   -0.387037
   1 Au:    0.114691   -0.099939
   2 Au:    0.336155   -0.175581
   3 Au:   -0.023963   -0.279040
   4 Au:    0.245475   -0.072411
   5 Au:   -0.151346   -0.128028
   6 Au:    0.291173   -0.076297
   7 Au:    0.214321   -0.388237
   8 Au:    0.179054   -0.097587
   9 Au:   -0.120248   -0.001010
  10 Mn:   -1.017150    4.705166
Sum of atomic charges         :   -0.0000000

LOEWDIN ATOMIC CHARGES AND SPIN POPULATIONS
-------------------------------------------
   0 Au:   -0.032762   -0.228358
   1 Au:   -0.028143   -0.091209
   2 Au:    0.108956   -0.168958
   3 Au:   -0.057951   -0.180307
   4 Au:    0.093251   -0.213423
   5 Au:   -0.110708   -0.105446
   6 Au:    0.091148   -0.054959
   7 Au:    0.031685   -0.281496
   8 Au:    0.064959   -0.191062
   9 Au:   -0.044703   -0.009198
  10 Mn:   -0.115732    4.524417

  Mayer bond orders larger than 0.100000
B(  0-Au,  1-Au) :   0.1169 B(  0-Au,  2-Au) :   0.3908 B(  0-Au,  3-Au) :   0.1016
B(  0-Au,  4-Au) :   0.3137 B(  0-Au, 10-Mn) :   0.4016 B(  1-Au,  2-Au) :   0.2488
B(  1-Au,  3-Au) :   0.1098 B(  1-Au,  9-Au) :   0.4992 B(  1-Au, 10-Mn) :   0.5251
B(  2-Au,  3-Au) :   0.3225 B(  3-Au,  8-Au) :   0.3525 B(  3-Au, 10-Mn) :   0.4888
B(  4-Au,  5-Au) :   0.3080 B(  4-Au, 10-Mn) :   0.4479 B(  5-Au,  6-Au) :   0.5682
B(  5-Au,  7-Au) :   0.1676 B(  5-Au,  9-Au) :   0.2693 B(  5-Au, 10-Mn) :   0.3396
B(  6-Au,  9-Au) :   0.4287 B(  7-Au,  8-Au) :   0.3125 B(  7-Au, 10-Mn) :   0.5013
B(  8-Au, 10-Mn) :   0.5125 B(  9-Au, 10-Mn) :   0.5492

MP2 TOTAL ENERGY:    -2506.659720749 Eh
FINAL SINGLE POINT ENERGY     -2506.659720748788

DIPOLE MOMENT
-------------
                                X             Y             Z
Electronic contribution:    -12.03669      -8.09677      -0.99842
Nuclear contribution   :     11.91264       8.16045       1.27370
                        -----------------------------------------
Total Dipole Moment    :     -0.12405       0.06368       0.27528
                        -----------------------------------------
Magnitude (a.u.)       :      0.30858
Magnitude (Debye)      :      0.78436

Rotational constants in cm-1:     0.002112     0.001264     0.001095
Rotational constants in MHz :    63.302329    37.879992    32.815708

                             ****ORCA TERMINATED NORMALLY****
TOTAL RUN TIME: 0 days 0 hours 23 minutes 8 seconds 763 msec
