                         Program Version 5.0.3 -  RELEASE  -
|  1> !PBE def2-TZVP VERYSLOWCONV
|  2> !KDIIS
|  3>
|  4> %scf
|  5>   AutoTRAHIter 200
|  6>   maxiter 400
|  7> end
|  8>
|  9>
| 10> %pal nprocs 6 end
| 11>
| 12> *xyzfile 0 6 pbe.xyz
| 13>
| 14> $new_job
| 15>
| 16> !PBE def2-TZVP VERYSLOWCONV
| 17> !KDIIS
| 18>
| 19> %scf
| 20>   AutoTRAHIter 200
| 21>   maxiter 400
| 22> end
| 23>
| 24>
| 25> %pal nprocs 6 end
| 26>
| 27> *xyzfile 0 4 pbe.xyz
| 28>
| 29>
| 30>
| 31>
| 32>
| 33>                          ****END OF INPUT****
 Total Charge           Charge          ....    0
 Multiplicity           Mult            ....    6
 Number of Electrons    NEL             ....  215
FINAL SINGLE POINT ENERGY     -2509.034134931636

CARTESIAN COORDINATES (ANGSTROEM)
---------------------------------
  Au     5.889409    8.023460    9.318310
  Au     5.835269    8.282361    6.345343
  Au     4.510296   10.013361    8.086156
  Au     7.193365   10.406924    7.799612
  Au     7.792411    6.209643    9.841122
  Au     9.131703    5.325674    7.640959
  Au     9.309367    4.476808    5.151521
  Au    10.313044    7.407385    9.026774
  Au     9.785036    9.886023    8.116108
  Au     7.489921    6.424161    5.537437
  Mn     8.053897    7.870895    7.721502

 Multiplicity           Mult            ....    4
 Number of Electrons    NEL             ....  215
 Basis Dimension        Dim             ....  445

ORBITAL ENERGIES
----------------
                 SPIN UP ORBITALS
  NO   OCC          E(Eh)            E(eV)
   0   1.0000    -234.201283     -6372.9409
   1   1.0000     -26.898293      -731.9398
   2   1.0000     -23.048199      -627.1734
   3   1.0000     -23.046703      -627.1327
   4   1.0000     -23.045560      -627.1016
   5   1.0000      -4.028026      -109.6082
   6   1.0000      -4.027264      -109.5874
   7   1.0000      -4.025512      -109.5398
   8   1.0000      -4.023628      -109.4885
   9   1.0000      -4.022317      -109.4528
  10   1.0000      -4.021776      -109.4381
  11   1.0000      -4.020611      -109.4064
  12   1.0000      -4.020235      -109.3962
  13   1.0000      -4.016412      -109.2921
  14   1.0000      -4.005226      -108.9877
  15   1.0000      -3.105694       -84.5102
  16   1.0000      -2.247913       -61.1688
  17   1.0000      -2.246771       -61.1378
  18   1.0000      -2.243099       -61.0378
  19   1.0000      -2.242091       -61.0104
  20   1.0000      -2.241342       -60.9900
  21   1.0000      -2.240855       -60.9768
  22   1.0000      -2.240772       -60.9745
  23   1.0000      -2.240021       -60.9541
  24   1.0000      -2.238749       -60.9195
  25   1.0000      -2.238312       -60.9076
  26   1.0000      -2.238220       -60.9051
  27   1.0000      -2.237205       -60.8774
  28   1.0000      -2.236045       -60.8459
  29   1.0000      -2.235137       -60.8212
  30   1.0000      -2.234967       -60.8165
  31   1.0000      -2.234132       -60.7938
  32   1.0000      -2.232948       -60.7616
  33   1.0000      -2.232881       -60.7598
  34   1.0000      -2.232440       -60.7478
  35   1.0000      -2.231438       -60.7205
  36   1.0000      -2.231275       -60.7161
  37   1.0000      -2.230633       -60.6986
  38   1.0000      -2.230005       -60.6815
  39   1.0000      -2.228619       -60.6438
  40   1.0000      -2.228141       -60.6308
  41   1.0000      -2.225045       -60.5465
  42   1.0000      -2.224016       -60.5186
  43   1.0000      -2.223031       -60.4917
  44   1.0000      -2.218791       -60.3764
  45   1.0000      -2.211285       -60.1721
  46   1.0000      -2.011438       -54.7340
  47   1.0000      -2.007868       -54.6369
  48   1.0000      -2.005045       -54.5600
  49   1.0000      -0.407205       -11.0806
  50   1.0000      -0.383567       -10.4374
  51   1.0000      -0.373702       -10.1689
  52   1.0000      -0.370196       -10.0735
  53   1.0000      -0.361202        -9.8288
  54   1.0000      -0.358202        -9.7472
  55   1.0000      -0.350384        -9.5344
  56   1.0000      -0.348683        -9.4882
  57   1.0000      -0.340098        -9.2545
  58   1.0000      -0.337000        -9.1702
  59   1.0000      -0.333871        -9.0851
  60   1.0000      -0.331770        -9.0279
  61   1.0000      -0.329676        -8.9709
  62   1.0000      -0.325738        -8.8638
  63   1.0000      -0.323683        -8.8079
  64   1.0000      -0.322038        -8.7631
  65   1.0000      -0.319256        -8.6874
  66   1.0000      -0.317798        -8.6477
  67   1.0000      -0.314403        -8.5553
  68   1.0000      -0.310566        -8.4509
  69   1.0000      -0.305456        -8.3119
  70   1.0000      -0.300320        -8.1721
  71   1.0000      -0.297788        -8.1032
  72   1.0000      -0.295391        -8.0380
  73   1.0000      -0.293268        -7.9802
  74   1.0000      -0.290716        -7.9108
  75   1.0000      -0.288757        -7.8575
  76   1.0000      -0.285555        -7.7703
  77   1.0000      -0.282718        -7.6932
  78   1.0000      -0.279058        -7.5936
  79   1.0000      -0.278118        -7.5680
  80   1.0000      -0.274337        -7.4651
  81   1.0000      -0.273835        -7.4514
  82   1.0000      -0.273734        -7.4487
  83   1.0000      -0.271721        -7.3939
  84   1.0000      -0.270283        -7.3548
  85   1.0000      -0.267892        -7.2897
  86   1.0000      -0.266629        -7.2553
  87   1.0000      -0.265808        -7.2330
  88   1.0000      -0.262452        -7.1417
  89   1.0000      -0.261890        -7.1264
  90   1.0000      -0.259699        -7.0668
  91   1.0000      -0.259498        -7.0613
  92   1.0000      -0.256710        -6.9854
  93   1.0000      -0.256485        -6.9793
  94   1.0000      -0.254264        -6.9189
  95   1.0000      -0.251499        -6.8436
  96   1.0000      -0.251018        -6.8306
  97   1.0000      -0.247199        -6.7266
  98   1.0000      -0.246618        -6.7108
  99   1.0000      -0.245122        -6.6701
 100   1.0000      -0.243421        -6.6238
 101   1.0000      -0.242686        -6.6038
 102   1.0000      -0.239193        -6.5088
 103   1.0000      -0.236260        -6.4290
 104   1.0000      -0.235489        -6.4080
 105   1.0000      -0.233321        -6.3490
 106   1.0000      -0.229500        -6.2450
 107   1.0000      -0.224705        -6.1145
 108   1.0000      -0.208723        -5.6796
 109   0.0000      -0.187380        -5.0989
 110   0.0000      -0.164534        -4.4772
 111   0.0000      -0.134302        -3.6545
 112   0.0000      -0.127957        -3.4819
 113   0.0000      -0.123453        -3.3593

                 SPIN DOWN ORBITALS
  NO   OCC          E(Eh)            E(eV)
   0   1.0000    -234.200544     -6372.9208
   1   1.0000     -26.833376      -730.1733
   2   1.0000     -22.998459      -625.8199
   3   1.0000     -22.997478      -625.7932
   4   1.0000     -22.996587      -625.7689
   5   1.0000      -4.027950      -109.6061
   6   1.0000      -4.027131      -109.5838
   7   1.0000      -4.025912      -109.5506
   8   1.0000      -4.023510      -109.4853
   9   1.0000      -4.021601      -109.4333
  10   1.0000      -4.021316      -109.4256
  11   1.0000      -4.021136      -109.4207
  12   1.0000      -4.019367      -109.3725
  13   1.0000      -4.016350      -109.2904
  14   1.0000      -4.005532      -108.9961
  15   1.0000      -2.946374       -80.1749
  16   1.0000      -2.248059       -61.1728
  17   1.0000      -2.246495       -61.1302
  18   1.0000      -2.243235       -61.0415
  19   1.0000      -2.241774       -61.0018
  20   1.0000      -2.241539       -60.9954
  21   1.0000      -2.240464       -60.9661
  22   1.0000      -2.240333       -60.9626
  23   1.0000      -2.239220       -60.9323
  24   1.0000      -2.238781       -60.9203
  25   1.0000      -2.238427       -60.9107
  26   1.0000      -2.237295       -60.8799
  27   1.0000      -2.236554       -60.8597
  28   1.0000      -2.235394       -60.8282
  29   1.0000      -2.235200       -60.8229
  30   1.0000      -2.235008       -60.8176
  31   1.0000      -2.232835       -60.7585
  32   1.0000      -2.232700       -60.7549
  33   1.0000      -2.232647       -60.7534
  34   1.0000      -2.232399       -60.7467
  35   1.0000      -2.232201       -60.7413
  36   1.0000      -2.231281       -60.7162
  37   1.0000      -2.231180       -60.7135
  38   1.0000      -2.230515       -60.6954
  39   1.0000      -2.228304       -60.6352
  40   1.0000      -2.227907       -60.6244
  41   1.0000      -2.224378       -60.5284
  42   1.0000      -2.224096       -60.5207
  43   1.0000      -2.222579       -60.4794
  44   1.0000      -2.219178       -60.3869
  45   1.0000      -2.211495       -60.1778
  46   1.0000      -1.854958       -50.4760
  47   1.0000      -1.850982       -50.3678
  48   1.0000      -1.849205       -50.3194
  49   1.0000      -0.403309       -10.9746
  50   1.0000      -0.383990       -10.4489
  51   1.0000      -0.371580       -10.1112
  52   1.0000      -0.365705        -9.9513
  53   1.0000      -0.361238        -9.8298
  54   1.0000      -0.354177        -9.6377
  55   1.0000      -0.347093        -9.4449
  56   1.0000      -0.343493        -9.3469
  57   1.0000      -0.338986        -9.2243
  58   1.0000      -0.333092        -9.0639
  59   1.0000      -0.331822        -9.0293
  60   1.0000      -0.328014        -8.9257
  61   1.0000      -0.324902        -8.8410
  62   1.0000      -0.321196        -8.7402
  63   1.0000      -0.319912        -8.7052
  64   1.0000      -0.315851        -8.5947
  65   1.0000      -0.313663        -8.5352
  66   1.0000      -0.312619        -8.5068
  67   1.0000      -0.310757        -8.4561
  68   1.0000      -0.308077        -8.3832
  69   1.0000      -0.305303        -8.3077
  70   1.0000      -0.300602        -8.1798
  71   1.0000      -0.297269        -8.0891
  72   1.0000      -0.295062        -8.0290
  73   1.0000      -0.291517        -7.9326
  74   1.0000      -0.290387        -7.9018
  75   1.0000      -0.285987        -7.7821
  76   1.0000      -0.284948        -7.7538
  77   1.0000      -0.283685        -7.7195
  78   1.0000      -0.279088        -7.5944
  79   1.0000      -0.275414        -7.4944
  80   1.0000      -0.274236        -7.4623
  81   1.0000      -0.273633        -7.4459
  82   1.0000      -0.272346        -7.4109
  83   1.0000      -0.271815        -7.3965
  84   1.0000      -0.269862        -7.3433
  85   1.0000      -0.268169        -7.2972
  86   1.0000      -0.266576        -7.2539
  87   1.0000      -0.264118        -7.1870
  88   1.0000      -0.262457        -7.1418
  89   1.0000      -0.262312        -7.1379
  90   1.0000      -0.260206        -7.0806
  91   1.0000      -0.259448        -7.0599
  92   1.0000      -0.256906        -6.9908
  93   1.0000      -0.253929        -6.9097
  94   1.0000      -0.252762        -6.8780
  95   1.0000      -0.250263        -6.8100
  96   1.0000      -0.248279        -6.7560
  97   1.0000      -0.247202        -6.7267
  98   1.0000      -0.244507        -6.6534
  99   1.0000      -0.240309        -6.5391
 100   1.0000      -0.239311        -6.5120
 101   1.0000      -0.235760        -6.4153
 102   1.0000      -0.232480        -6.3261
 103   1.0000      -0.217482        -5.9180
 104   1.0000      -0.204413        -5.5624
 105   1.0000      -0.183563        -4.9950
 106   0.0000      -0.144455        -3.9308
 107   0.0000      -0.142002        -3.8641
 108   0.0000      -0.140257        -3.8166
 109   0.0000      -0.129915        -3.5352
 110   0.0000      -0.124791        -3.3957

MULLIKEN ATOMIC CHARGES AND SPIN POPULATIONS
--------------------------------------------
   0 Au:   -0.024769   -0.241853
   1 Au:    0.120431   -0.081532
   2 Au:    0.362023   -0.084280
   3 Au:    0.035719   -0.182536
   4 Au:    0.250647   -0.074218
   5 Au:   -0.037584   -0.106716
   6 Au:    0.290723   -0.059705
   7 Au:    0.208944   -0.260647
   8 Au:    0.206857   -0.085638
   9 Au:   -0.057834    0.039504
  10 Mn:   -1.355158    4.137619
Sum of atomic charges         :   -0.0000000

LOEWDIN ATOMIC CHARGES AND SPIN POPULATIONS
-------------------------------------------
   0 Au:    0.001650   -0.132172
   1 Au:    0.012274   -0.065619
   2 Au:    0.082952   -0.119262
   3 Au:   -0.018743   -0.108631
   4 Au:    0.103801   -0.152832
   5 Au:   -0.071943   -0.074372
   6 Au:    0.076163   -0.053251
   7 Au:    0.054646   -0.197327
   8 Au:    0.092650   -0.137633
   9 Au:    0.003265    0.023185
  10 Mn:   -0.336716    4.017914

  Mayer bond orders larger than 0.100000
B(  0-Au,  1-Au) :   0.1500 B(  0-Au,  2-Au) :   0.4086 B(  0-Au,  4-Au) :   0.3717
B(  0-Au, 10-Mn) :   0.5630 B(  1-Au,  2-Au) :   0.2910 B(  1-Au,  3-Au) :   0.1473
B(  1-Au,  9-Au) :   0.5148 B(  1-Au, 10-Mn) :   0.5735 B(  2-Au,  3-Au) :   0.3586
B(  3-Au,  8-Au) :   0.3949 B(  3-Au, 10-Mn) :   0.5861 B(  4-Au,  5-Au) :   0.3128
B(  4-Au,  7-Au) :   0.1318 B(  4-Au, 10-Mn) :   0.5009 B(  5-Au,  6-Au) :   0.5640
B(  5-Au,  7-Au) :   0.2269 B(  5-Au,  9-Au) :   0.2410 B(  5-Au, 10-Mn) :   0.3961
B(  6-Au,  9-Au) :   0.4501 B(  7-Au,  8-Au) :   0.3238 B(  7-Au, 10-Mn) :   0.6082
B(  8-Au, 10-Mn) :   0.5618 B(  9-Au, 10-Mn) :   0.6061

FINAL SINGLE POINT ENERGY     -2509.028740689806

DIPOLE MOMENT
-------------
                                X             Y             Z
Electronic contribution:    -11.96969      -8.11250      -1.08368
Nuclear contribution   :     11.91264       8.16045       1.27370
                        -----------------------------------------
Total Dipole Moment    :     -0.05704       0.04795       0.19002
                        -----------------------------------------
Magnitude (a.u.)       :      0.20411
Magnitude (Debye)      :      0.51881

Rotational constants in cm-1:     0.002112     0.001264     0.001095
Rotational constants in MHz :    63.302329    37.879992    32.815708

                             ****ORCA TERMINATED NORMALLY****
TOTAL RUN TIME: 0 days 0 hours 2 minutes 47 seconds 390 msec
