                         Program Version 5.0.3 -  RELEASE  -
|  1> !R2SCAN def2-TZVP VERYSLOWCONV
|  2> !KDIIS
|  3> %scf
|  4>   AutoTRAHIter 200
|  5>   maxiter 400
|  6> end
|  7>
|  8> %pal nprocs 6 end
|  9>
| 10> *xyzfile 0 6 pbe.xyz
| 11>
| 12> $new_job
| 13>
| 14> !R2SCAN def2-TZVP VERYSLOWCONV
| 15> !KDIIS
| 16> %scf
| 17>   AutoTRAHIter 200
| 18>   maxiter 400
| 19> end
| 20>
| 21>
| 22> %pal nprocs 6 end
| 23>
| 24> *xyzfile 0 4 pbe.xyz
| 25>
| 26>
| 27>
| 28>
| 29>
| 30>                          ****END OF INPUT****
 Total Charge           Charge          ....    0
 Multiplicity           Mult            ....    6
 Number of Electrons    NEL             ....  215
FINAL SINGLE POINT ENERGY     -2509.440189782982

CARTESIAN COORDINATES (ANGSTROEM)
---------------------------------
  Au     5.889409    8.023460    9.318310
  Au     5.835269    8.282361    6.345343
  Au     4.510296   10.013361    8.086156
  Au     7.193365   10.406924    7.799612
  Au     7.792411    6.209643    9.841122
  Au     9.131703    5.325674    7.640959
  Au     9.309367    4.476808    5.151521
  Au    10.313044    7.407385    9.026774
  Au     9.785036    9.886023    8.116108
  Au     7.489921    6.424161    5.537437
  Mn     8.053897    7.870895    7.721502

 Multiplicity           Mult            ....    4
 Number of Electrons    NEL             ....  215
 Basis Dimension        Dim             ....  445

ORBITAL ENERGIES
----------------
                 SPIN UP ORBITALS
  NO   OCC          E(Eh)            E(eV)
   0   1.0000    -235.042083     -6395.8202
   1   1.0000     -27.223187      -740.7806
   2   1.0000     -23.271202      -633.2416
   3   1.0000     -23.269714      -633.2011
   4   1.0000     -23.268902      -633.1790
   5   1.0000      -4.119070      -112.0856
   6   1.0000      -4.117655      -112.0471
   7   1.0000      -4.117460      -112.0418
   8   1.0000      -4.115014      -111.9752
   9   1.0000      -4.113243      -111.9270
  10   1.0000      -4.112584      -111.9091
  11   1.0000      -4.111188      -111.8711
  12   1.0000      -4.111013      -111.8664
  13   1.0000      -4.108155      -111.7886
  14   1.0000      -4.096037      -111.4588
  15   1.0000      -3.243866       -88.2701
  16   1.0000      -2.311645       -62.9031
  17   1.0000      -2.309737       -62.8511
  18   1.0000      -2.307495       -62.7901
  19   1.0000      -2.305907       -62.7469
  20   1.0000      -2.305177       -62.7271
  21   1.0000      -2.305107       -62.7252
  22   1.0000      -2.304360       -62.7048
  23   1.0000      -2.303881       -62.6918
  24   1.0000      -2.302652       -62.6583
  25   1.0000      -2.302453       -62.6529
  26   1.0000      -2.301497       -62.6269
  27   1.0000      -2.300694       -62.6051
  28   1.0000      -2.299697       -62.5779
  29   1.0000      -2.299130       -62.5625
  30   1.0000      -2.298572       -62.5473
  31   1.0000      -2.297981       -62.5312
  32   1.0000      -2.297169       -62.5092
  33   1.0000      -2.297067       -62.5064
  34   1.0000      -2.296073       -62.4793
  35   1.0000      -2.295856       -62.4734
  36   1.0000      -2.294922       -62.4480
  37   1.0000      -2.294436       -62.4348
  38   1.0000      -2.293980       -62.4224
  39   1.0000      -2.292732       -62.3884
  40   1.0000      -2.292058       -62.3701
  41   1.0000      -2.288550       -62.2746
  42   1.0000      -2.287753       -62.2529
  43   1.0000      -2.287209       -62.2381
  44   1.0000      -2.282079       -62.0985
  45   1.0000      -2.275158       -61.9102
  46   1.0000      -2.103086       -57.2279
  47   1.0000      -2.099857       -57.1400
  48   1.0000      -2.097715       -57.0817
  49   1.0000      -0.413823       -11.2607
  50   1.0000      -0.390913       -10.6373
  51   1.0000      -0.382078       -10.3969
  52   1.0000      -0.380158       -10.3446
  53   1.0000      -0.371185       -10.1005
  54   1.0000      -0.369401       -10.0519
  55   1.0000      -0.360967        -9.8224
  56   1.0000      -0.360008        -9.7963
  57   1.0000      -0.351197        -9.5565
  58   1.0000      -0.348568        -9.4850
  59   1.0000      -0.343194        -9.3388
  60   1.0000      -0.342490        -9.3196
  61   1.0000      -0.341627        -9.2962
  62   1.0000      -0.336426        -9.1546
  63   1.0000      -0.334730        -9.1085
  64   1.0000      -0.332097        -9.0368
  65   1.0000      -0.329179        -8.9574
  66   1.0000      -0.327851        -8.9213
  67   1.0000      -0.324291        -8.8244
  68   1.0000      -0.319951        -8.7063
  69   1.0000      -0.314950        -8.5702
  70   1.0000      -0.309776        -8.4294
  71   1.0000      -0.307491        -8.3673
  72   1.0000      -0.304184        -8.2773
  73   1.0000      -0.302410        -8.2290
  74   1.0000      -0.299966        -8.1625
  75   1.0000      -0.297414        -8.0930
  76   1.0000      -0.294383        -8.0106
  77   1.0000      -0.291563        -7.9338
  78   1.0000      -0.288888        -7.8610
  79   1.0000      -0.287103        -7.8125
  80   1.0000      -0.284219        -7.7340
  81   1.0000      -0.282860        -7.6970
  82   1.0000      -0.282403        -7.6846
  83   1.0000      -0.280808        -7.6412
  84   1.0000      -0.279473        -7.6049
  85   1.0000      -0.276535        -7.5249
  86   1.0000      -0.275764        -7.5039
  87   1.0000      -0.275232        -7.4894
  88   1.0000      -0.271487        -7.3875
  89   1.0000      -0.270007        -7.3473
  90   1.0000      -0.268452        -7.3049
  91   1.0000      -0.268249        -7.2994
  92   1.0000      -0.268031        -7.2935
  93   1.0000      -0.265469        -7.2238
  94   1.0000      -0.263489        -7.1699
  95   1.0000      -0.262752        -7.1499
  96   1.0000      -0.260714        -7.0944
  97   1.0000      -0.257258        -7.0004
  98   1.0000      -0.256738        -6.9862
  99   1.0000      -0.254647        -6.9293
 100   1.0000      -0.253296        -6.8925
 101   1.0000      -0.251210        -6.8358
 102   1.0000      -0.248128        -6.7519
 103   1.0000      -0.245710        -6.6861
 104   1.0000      -0.244279        -6.6472
 105   1.0000      -0.241703        -6.5771
 106   1.0000      -0.236165        -6.4264
 107   1.0000      -0.229829        -6.2540
 108   1.0000      -0.211260        -5.7487
 109   0.0000      -0.185888        -5.0583
 110   0.0000      -0.161064        -4.3828
 111   0.0000      -0.128633        -3.5003
 112   0.0000      -0.122037        -3.3208
 113   0.0000      -0.118043        -3.2121

                 SPIN DOWN ORBITALS
  NO   OCC          E(Eh)            E(eV)
   0   1.0000    -235.041030     -6395.7916
   1   1.0000     -27.135748      -738.4012
   2   1.0000     -23.203426      -631.3973
   3   1.0000     -23.202932      -631.3839
   4   1.0000     -23.202190      -631.3637
   5   1.0000      -4.119256      -112.0906
   6   1.0000      -4.118434      -112.0683
   7   1.0000      -4.117378      -112.0396
   8   1.0000      -4.115180      -111.9797
   9   1.0000      -4.112816      -111.9154
  10   1.0000      -4.112508      -111.9070
  11   1.0000      -4.112266      -111.9004
  12   1.0000      -4.109657      -111.8294
  13   1.0000      -4.108388      -111.7949
  14   1.0000      -4.096502      -111.4715
  15   1.0000      -3.035020       -82.5871
  16   1.0000      -2.312098       -62.9154
  17   1.0000      -2.309112       -62.8341
  18   1.0000      -2.307889       -62.8008
  19   1.0000      -2.306522       -62.7637
  20   1.0000      -2.305128       -62.7257
  21   1.0000      -2.304671       -62.7133
  22   1.0000      -2.303943       -62.6935
  23   1.0000      -2.303114       -62.6709
  24   1.0000      -2.302814       -62.6627
  25   1.0000      -2.302540       -62.6553
  26   1.0000      -2.300463       -62.5988
  27   1.0000      -2.299629       -62.5761
  28   1.0000      -2.299408       -62.5701
  29   1.0000      -2.298940       -62.5573
  30   1.0000      -2.298602       -62.5482
  31   1.0000      -2.298089       -62.5342
  32   1.0000      -2.296958       -62.5034
  33   1.0000      -2.296318       -62.4860
  34   1.0000      -2.295885       -62.4742
  35   1.0000      -2.295829       -62.4727
  36   1.0000      -2.295440       -62.4621
  37   1.0000      -2.295184       -62.4551
  38   1.0000      -2.294670       -62.4411
  39   1.0000      -2.292389       -62.3791
  40   1.0000      -2.291804       -62.3632
  41   1.0000      -2.287733       -62.2524
  42   1.0000      -2.287463       -62.2450
  43   1.0000      -2.287379       -62.2427
  44   1.0000      -2.282606       -62.1129
  45   1.0000      -2.275433       -61.9177
  46   1.0000      -1.895142       -51.5694
  47   1.0000      -1.892173       -51.4886
  48   1.0000      -1.890567       -51.4449
  49   1.0000      -0.410771       -11.1776
  50   1.0000      -0.391621       -10.6566
  51   1.0000      -0.379419       -10.3245
  52   1.0000      -0.375576       -10.2199
  53   1.0000      -0.370907       -10.0929
  54   1.0000      -0.363431        -9.8895
  55   1.0000      -0.356444        -9.6993
  56   1.0000      -0.352601        -9.5948
  57   1.0000      -0.348979        -9.4962
  58   1.0000      -0.343066        -9.3353
  59   1.0000      -0.341791        -9.3006
  60   1.0000      -0.337554        -9.1853
  61   1.0000      -0.334585        -9.1045
  62   1.0000      -0.331207        -9.0126
  63   1.0000      -0.329633        -8.9698
  64   1.0000      -0.325083        -8.8460
  65   1.0000      -0.323205        -8.7949
  66   1.0000      -0.322170        -8.7667
  67   1.0000      -0.319561        -8.6957
  68   1.0000      -0.317075        -8.6280
  69   1.0000      -0.314557        -8.5595
  70   1.0000      -0.310228        -8.4417
  71   1.0000      -0.305868        -8.3231
  72   1.0000      -0.304491        -8.2856
  73   1.0000      -0.300578        -8.1792
  74   1.0000      -0.299316        -8.1448
  75   1.0000      -0.294710        -8.0195
  76   1.0000      -0.293506        -7.9867
  77   1.0000      -0.292355        -7.9554
  78   1.0000      -0.288712        -7.8563
  79   1.0000      -0.284261        -7.7351
  80   1.0000      -0.283135        -7.7045
  81   1.0000      -0.282485        -7.6868
  82   1.0000      -0.280885        -7.6433
  83   1.0000      -0.280380        -7.6295
  84   1.0000      -0.278697        -7.5837
  85   1.0000      -0.277108        -7.5405
  86   1.0000      -0.275356        -7.4928
  87   1.0000      -0.272736        -7.4215
  88   1.0000      -0.271001        -7.3743
  89   1.0000      -0.270680        -7.3656
  90   1.0000      -0.268757        -7.3133
  91   1.0000      -0.267318        -7.2741
  92   1.0000      -0.265301        -7.2192
  93   1.0000      -0.262167        -7.1339
  94   1.0000      -0.260574        -7.0906
  95   1.0000      -0.257916        -7.0182
  96   1.0000      -0.256057        -6.9677
  97   1.0000      -0.254230        -6.9180
  98   1.0000      -0.251721        -6.8497
  99   1.0000      -0.248215        -6.7543
 100   1.0000      -0.246699        -6.7130
 101   1.0000      -0.242344        -6.5945
 102   1.0000      -0.238592        -6.4924
 103   1.0000      -0.220055        -5.9880
 104   1.0000      -0.207187        -5.6378
 105   1.0000      -0.184241        -5.0134
 106   0.0000      -0.137709        -3.7473
 107   0.0000      -0.134266        -3.6536
 108   0.0000      -0.130977        -3.5641
 109   0.0000      -0.112375        -3.0579
 110   0.0000      -0.107365        -2.9215

MULLIKEN ATOMIC CHARGES AND SPIN POPULATIONS
--------------------------------------------
   0 Au:   -0.034901   -0.284908
   1 Au:    0.121404   -0.085755
   2 Au:    0.324766   -0.115542
   3 Au:    0.019650   -0.212915
   4 Au:    0.239948   -0.086816
   5 Au:   -0.055617   -0.113630
   6 Au:    0.269387   -0.075570
   7 Au:    0.200034   -0.312245
   8 Au:    0.200978   -0.098899
   9 Au:   -0.063710    0.035909
  10 Mn:   -1.221938    4.350372
Sum of atomic charges         :   -0.0000000

LOEWDIN ATOMIC CHARGES AND SPIN POPULATIONS
-------------------------------------------
   0 Au:   -0.006603   -0.161942
   1 Au:    0.003730   -0.072513
   2 Au:    0.080722   -0.138562
   3 Au:   -0.027242   -0.131738
   4 Au:    0.099366   -0.177541
   5 Au:   -0.077837   -0.088295
   6 Au:    0.072682   -0.061237
   7 Au:    0.048167   -0.228532
   8 Au:    0.086076   -0.160620
   9 Au:   -0.006787    0.015837
  10 Mn:   -0.272274    4.205140

  Mayer bond orders larger than 0.100000
B(  0-Au,  1-Au) :   0.1183 B(  0-Au,  2-Au) :   0.4078 B(  0-Au,  4-Au) :   0.3608
B(  0-Au, 10-Mn) :   0.5085 B(  1-Au,  2-Au) :   0.2744 B(  1-Au,  3-Au) :   0.1159
B(  1-Au,  9-Au) :   0.5287 B(  1-Au, 10-Mn) :   0.5589 B(  2-Au,  3-Au) :   0.3509
B(  3-Au,  8-Au) :   0.3859 B(  3-Au, 10-Mn) :   0.5549 B(  4-Au,  5-Au) :   0.3093
B(  4-Au,  7-Au) :   0.1101 B(  4-Au, 10-Mn) :   0.4813 B(  5-Au,  6-Au) :   0.5640
B(  5-Au,  7-Au) :   0.2003 B(  5-Au,  9-Au) :   0.2170 B(  5-Au, 10-Mn) :   0.3720
B(  6-Au,  9-Au) :   0.4370 B(  7-Au,  8-Au) :   0.3209 B(  7-Au, 10-Mn) :   0.5718
B(  8-Au, 10-Mn) :   0.5423 B(  9-Au, 10-Mn) :   0.5935

FINAL SINGLE POINT ENERGY     -2509.432950378749

DIPOLE MOMENT
-------------
                                X             Y             Z
Electronic contribution:    -11.95448      -8.11271      -1.05786
Nuclear contribution   :     11.91264       8.16045       1.27370
                        -----------------------------------------
Total Dipole Moment    :     -0.04183       0.04774       0.21584
                        -----------------------------------------
Magnitude (a.u.)       :      0.22498
Magnitude (Debye)      :      0.57186

Rotational constants in cm-1:     0.002112     0.001264     0.001095
Rotational constants in MHz :    63.302329    37.879992    32.815708

                             ****ORCA TERMINATED NORMALLY****
TOTAL RUN TIME: 0 days 0 hours 4 minutes 36 seconds 577 msec
