                         Program Version 5.0.3 -  RELEASE  -
|  1> !RI-B2PLYP def2-TZVP def2-TZVP/C
|  2> !RIJCOSX VERYSLOWCONV
|  3>
|  4> %scf
|  5>   AutoTRAHIter 200
|  6>   maxiter 400
|  7> end
|  8>
|  9>
| 10> %pal nprocs 6 end
| 11>
| 12> *xyzfile 0 5 pbe.xyz
| 13>
| 14> $new_job
| 15>
| 16> !RI-B2PLYP def2-TZVP def2-TZVP/C
| 17> !RIJCOSX VERYSLOWCONV
| 18>
| 19> %scf
| 20>   AutoTRAHIter 200
| 21>   maxiter 400
| 22> end
| 23>
| 24>
| 25> %pal nprocs 6 end
| 26>
| 27> *xyzfile 0 3 pbe.xyz
| 28>
| 29>
| 30>
| 31>
| 32>
| 33>                          ****END OF INPUT****
 Total Charge           Charge          ....    0
 Multiplicity           Mult            ....    5
 Number of Electrons    NEL             ....  254
MP2 TOTAL ENERGY:    -2890.538536880 Eh
FINAL SINGLE POINT ENERGY     -2890.538536880177

CARTESIAN COORDINATES (ANGSTROEM)
---------------------------------
  Au     6.150954    8.555086    3.699781
  Au     8.308475    6.823990    4.181247
  Au     7.679844    5.064980    6.214995
  Au     4.959129    5.614793    6.643313
  Au     4.658505   10.598754    4.690319
  Au     4.186232    8.086282    5.720622
  Au     8.360832    9.459042    5.146245
  Au     6.908534   11.518748    6.161064
  Au     5.160505    7.812519    8.384781
  Au     7.766653    6.748886    8.461985
  Au     7.455332    9.412028    7.856110
  Au     4.703644   10.369304    7.501397
  Fe     6.738845    7.522184    6.140912

 Multiplicity           Mult            ....    3
 Number of Electrons    NEL             ....  254
 Basis Dimension        Dim             ....  525

ORBITAL ENERGIES
----------------
                 SPIN UP ORBITALS
  NO   OCC          E(Eh)            E(eV)
   0   1.0000    -258.331451     -7029.5562
   1   1.0000     -30.892148      -840.6181
   2   1.0000     -26.609792      -724.0893
   3   1.0000     -26.582650      -723.3507
   4   1.0000     -26.578389      -723.2347
   5   1.0000      -4.409350      -119.9845
   6   1.0000      -4.403889      -119.8359
   7   1.0000      -4.403672      -119.8300
   8   1.0000      -4.403034      -119.8126
   9   1.0000      -4.402872      -119.8082
  10   1.0000      -4.402700      -119.8036
  11   1.0000      -4.394431      -119.5786
  12   1.0000      -4.388617      -119.4203
  13   1.0000      -4.387933      -119.4017
  14   1.0000      -4.387692      -119.3952
  15   1.0000      -4.384311      -119.3032
  16   1.0000      -4.384190      -119.2999
  17   1.0000      -3.905009      -106.2607
  18   1.0000      -2.654770       -72.2400
  19   1.0000      -2.597405       -70.6790
  20   1.0000      -2.588785       -70.4444
  21   1.0000      -2.532005       -68.8993
  22   1.0000      -2.526429       -68.7476
  23   1.0000      -2.525050       -68.7101
  24   1.0000      -2.524372       -68.6916
  25   1.0000      -2.523993       -68.6813
  26   1.0000      -2.523495       -68.6678
  27   1.0000      -2.522495       -68.6406
  28   1.0000      -2.522422       -68.6386
  29   1.0000      -2.521753       -68.6204
  30   1.0000      -2.521515       -68.6139
  31   1.0000      -2.521374       -68.6101
  32   1.0000      -2.519775       -68.5666
  33   1.0000      -2.519581       -68.5613
  34   1.0000      -2.519377       -68.5557
  35   1.0000      -2.518620       -68.5351
  36   1.0000      -2.517462       -68.5036
  37   1.0000      -2.517038       -68.4921
  38   1.0000      -2.515508       -68.4505
  39   1.0000      -2.513624       -68.3992
  40   1.0000      -2.512638       -68.3724
  41   1.0000      -2.512374       -68.3652
  42   1.0000      -2.509239       -68.2799
  43   1.0000      -2.508507       -68.2599
  44   1.0000      -2.507744       -68.2392
  45   1.0000      -2.505657       -68.1824
  46   1.0000      -2.505390       -68.1751
  47   1.0000      -2.502666       -68.1010
  48   1.0000      -2.502490       -68.0962
  49   1.0000      -2.501978       -68.0823
  50   1.0000      -2.501659       -68.0736
  51   1.0000      -2.501117       -68.0588
  52   1.0000      -2.501023       -68.0563
  53   1.0000      -2.500859       -68.0518
  54   1.0000      -2.500716       -68.0479
  55   1.0000      -2.500478       -68.0415
  56   1.0000      -2.497740       -67.9670
  57   1.0000      -0.559005       -15.2113
  58   1.0000      -0.553021       -15.0485
  59   1.0000      -0.547997       -14.9117
  60   1.0000      -0.526947       -14.3390
  61   1.0000      -0.500437       -13.6176
  62   1.0000      -0.496935       -13.5223
  63   1.0000      -0.465130       -12.6568
  64   1.0000      -0.463379       -12.6092
  65   1.0000      -0.457600       -12.4519
  66   1.0000      -0.456541       -12.4231
  67   1.0000      -0.455493       -12.3946
  68   1.0000      -0.450759       -12.2658
  69   1.0000      -0.449638       -12.2353
  70   1.0000      -0.449011       -12.2182
  71   1.0000      -0.446618       -12.1531
  72   1.0000      -0.443025       -12.0553
  73   1.0000      -0.441544       -12.0150
  74   1.0000      -0.440917       -11.9980
  75   1.0000      -0.440153       -11.9772
  76   1.0000      -0.434759       -11.8304
  77   1.0000      -0.433375       -11.7927
  78   1.0000      -0.431720       -11.7477
  79   1.0000      -0.426683       -11.6106
  80   1.0000      -0.422347       -11.4927
  81   1.0000      -0.421591       -11.4721
  82   1.0000      -0.420356       -11.4385
  83   1.0000      -0.416539       -11.3346
  84   1.0000      -0.412140       -11.2149
  85   1.0000      -0.409378       -11.1397
  86   1.0000      -0.406771       -11.0688
  87   1.0000      -0.403902       -10.9907
  88   1.0000      -0.402567       -10.9544
  89   1.0000      -0.402041       -10.9401
  90   1.0000      -0.397031       -10.8038
  91   1.0000      -0.394261       -10.7284
  92   1.0000      -0.393467       -10.7068
  93   1.0000      -0.388419       -10.5694
  94   1.0000      -0.387021       -10.5314
  95   1.0000      -0.383258       -10.4290
  96   1.0000      -0.379441       -10.3251
  97   1.0000      -0.374799       -10.1988
  98   1.0000      -0.373185       -10.1549
  99   1.0000      -0.372791       -10.1442
 100   1.0000      -0.371092       -10.0979
 101   1.0000      -0.368453       -10.0261
 102   1.0000      -0.368324       -10.0226
 103   1.0000      -0.367400        -9.9974
 104   1.0000      -0.366715        -9.9788
 105   1.0000      -0.362525        -9.8648
 106   1.0000      -0.362027        -9.8513
 107   1.0000      -0.360794        -9.8177
 108   1.0000      -0.358601        -9.7580
 109   1.0000      -0.355757        -9.6806
 110   1.0000      -0.351622        -9.5681
 111   1.0000      -0.351109        -9.5542
 112   1.0000      -0.350869        -9.5476
 113   1.0000      -0.346082        -9.4174
 114   1.0000      -0.345372        -9.3981
 115   1.0000      -0.342291        -9.3142
 116   1.0000      -0.341360        -9.2889
 117   1.0000      -0.337647        -9.1878
 118   1.0000      -0.336403        -9.1540
 119   1.0000      -0.332496        -9.0477
 120   1.0000      -0.330625        -8.9968
 121   1.0000      -0.325706        -8.8629
 122   1.0000      -0.318311        -8.6617
 123   1.0000      -0.317710        -8.6453
 124   1.0000      -0.297831        -8.1044
 125   1.0000      -0.280812        -7.6413
 126   1.0000      -0.226926        -6.1750
 127   1.0000      -0.214637        -5.8406
 128   0.0000      -0.133794        -3.6407
 129   0.0000      -0.091516        -2.4903
 130   0.0000      -0.090126        -2.4525
 131   0.0000      -0.063286        -1.7221
 132   0.0000      -0.057165        -1.5555

                 SPIN DOWN ORBITALS
  NO   OCC          E(Eh)            E(eV)
   0   1.0000    -258.329511     -7029.5034
   1   1.0000     -30.799970      -838.1098
   2   1.0000     -26.511422      -721.4125
   3   1.0000     -26.504005      -721.2106
   4   1.0000     -26.502846      -721.1791
   5   1.0000      -4.408992      -119.9748
   6   1.0000      -4.404941      -119.8645
   7   1.0000      -4.404735      -119.8589
   8   1.0000      -4.402888      -119.8087
   9   1.0000      -4.402839      -119.8073
  10   1.0000      -4.402730      -119.8044
  11   1.0000      -4.396008      -119.6215
  12   1.0000      -4.388939      -119.4291
  13   1.0000      -4.388072      -119.4055
  14   1.0000      -4.387821      -119.3987
  15   1.0000      -4.385579      -119.3377
  16   1.0000      -4.385454      -119.3343
  17   1.0000      -3.662122       -99.6514
  18   1.0000      -2.530044       -68.8460
  19   1.0000      -2.525469       -68.7215
  20   1.0000      -2.524021       -68.6821
  21   1.0000      -2.523932       -68.6797
  22   1.0000      -2.523637       -68.6717
  23   1.0000      -2.522586       -68.6431
  24   1.0000      -2.522443       -68.6392
  25   1.0000      -2.522367       -68.6371
  26   1.0000      -2.521971       -68.6263
  27   1.0000      -2.521090       -68.6024
  28   1.0000      -2.520920       -68.5977
  29   1.0000      -2.520740       -68.5928
  30   1.0000      -2.519731       -68.5654
  31   1.0000      -2.519100       -68.5482
  32   1.0000      -2.519048       -68.5468
  33   1.0000      -2.517924       -68.5162
  34   1.0000      -2.517167       -68.4956
  35   1.0000      -2.515612       -68.4533
  36   1.0000      -2.514733       -68.4294
  37   1.0000      -2.513085       -68.3845
  38   1.0000      -2.512988       -68.3819
  39   1.0000      -2.508660       -68.2641
  40   1.0000      -2.507576       -68.2346
  41   1.0000      -2.507304       -68.2272
  42   1.0000      -2.506535       -68.2063
  43   1.0000      -2.505484       -68.1777
  44   1.0000      -2.503716       -68.1296
  45   1.0000      -2.503431       -68.1218
  46   1.0000      -2.503368       -68.1201
  47   1.0000      -2.503173       -68.1148
  48   1.0000      -2.502705       -68.1021
  49   1.0000      -2.501907       -68.0803
  50   1.0000      -2.501697       -68.0746
  51   1.0000      -2.501635       -68.0729
  52   1.0000      -2.501492       -68.0690
  53   1.0000      -2.498288       -67.9819
  54   1.0000      -2.340854       -63.6979
  55   1.0000      -2.339180       -63.6523
  56   1.0000      -2.328638       -63.3655
  57   1.0000      -0.502254       -13.6670
  58   1.0000      -0.473565       -12.8864
  59   1.0000      -0.470314       -12.7979
  60   1.0000      -0.467989       -12.7346
  61   1.0000      -0.467534       -12.7222
  62   1.0000      -0.460635       -12.5345
  63   1.0000      -0.456464       -12.4210
  64   1.0000      -0.455061       -12.3828
  65   1.0000      -0.451842       -12.2952
  66   1.0000      -0.449377       -12.2282
  67   1.0000      -0.449162       -12.2223
  68   1.0000      -0.446110       -12.1393
  69   1.0000      -0.445725       -12.1288
  70   1.0000      -0.445400       -12.1199
  71   1.0000      -0.441974       -12.0267
  72   1.0000      -0.438922       -11.9437
  73   1.0000      -0.435306       -11.8453
  74   1.0000      -0.435045       -11.8382
  75   1.0000      -0.432827       -11.7778
  76   1.0000      -0.426666       -11.6102
  77   1.0000      -0.426409       -11.6032
  78   1.0000      -0.424473       -11.5505
  79   1.0000      -0.421275       -11.4635
  80   1.0000      -0.415472       -11.3056
  81   1.0000      -0.415149       -11.2968
  82   1.0000      -0.411515       -11.1979
  83   1.0000      -0.407192       -11.0803
  84   1.0000      -0.406720       -11.0674
  85   1.0000      -0.401611       -10.9284
  86   1.0000      -0.400742       -10.9047
  87   1.0000      -0.398447       -10.8423
  88   1.0000      -0.394192       -10.7265
  89   1.0000      -0.392078       -10.6690
  90   1.0000      -0.389476       -10.5982
  91   1.0000      -0.386612       -10.5202
  92   1.0000      -0.378289       -10.2938
  93   1.0000      -0.377635       -10.2760
  94   1.0000      -0.376336       -10.2406
  95   1.0000      -0.373273       -10.1573
  96   1.0000      -0.372928       -10.1479
  97   1.0000      -0.372073       -10.1246
  98   1.0000      -0.370379       -10.0785
  99   1.0000      -0.369012       -10.0413
 100   1.0000      -0.367622       -10.0035
 101   1.0000      -0.365791        -9.9537
 102   1.0000      -0.365384        -9.9426
 103   1.0000      -0.360700        -9.8151
 104   1.0000      -0.359653        -9.7867
 105   1.0000      -0.354598        -9.6491
 106   1.0000      -0.354317        -9.6415
 107   1.0000      -0.352893        -9.6027
 108   1.0000      -0.351522        -9.5654
 109   1.0000      -0.347768        -9.4632
 110   1.0000      -0.346388        -9.4257
 111   1.0000      -0.344794        -9.3823
 112   1.0000      -0.342112        -9.3093
 113   1.0000      -0.337879        -9.1942
 114   1.0000      -0.336664        -9.1611
 115   1.0000      -0.334804        -9.1105
 116   1.0000      -0.329390        -8.9632
 117   1.0000      -0.327442        -8.9102
 118   1.0000      -0.325381        -8.8541
 119   1.0000      -0.319271        -8.6878
 120   1.0000      -0.313798        -8.5389
 121   1.0000      -0.292186        -7.9508
 122   1.0000      -0.234094        -6.3700
 123   1.0000      -0.229624        -6.2484
 124   1.0000      -0.225510        -6.1364
 125   1.0000      -0.185130        -5.0377
 126   0.0000      -0.097760        -2.6602
 127   0.0000      -0.073641        -2.0039
 128   0.0000      -0.066192        -1.8012
 129   0.0000      -0.060925        -1.6578
 130   0.0000      -0.057732        -1.5710

MULLIKEN ATOMIC CHARGES AND SPIN POPULATIONS
--------------------------------------------
   0 Au:    0.135015   -0.096703
   1 Au:    0.307858   -0.257246
   2 Au:    0.158374   -0.004499
   3 Au:    0.273350   -0.045461
   4 Au:    0.114642   -0.057917
   5 Au:   -0.088264   -0.131607
   6 Au:    0.125889   -0.092708
   7 Au:    0.122342   -0.054311
   8 Au:    0.104557   -0.222325
   9 Au:    0.276849   -0.049442
  10 Au:   -0.091216   -0.130378
  11 Au:    0.107378   -0.380336
  12 Fe:   -1.546775    3.522933
Sum of atomic charges         :    0.0000000

LOEWDIN ATOMIC CHARGES AND SPIN POPULATIONS
-------------------------------------------
   0 Au:    0.026595   -0.111940
   1 Au:    0.116424   -0.168049
   2 Au:    0.027886   -0.077792
   3 Au:    0.053264   -0.072511
   4 Au:   -0.001223   -0.126877
   5 Au:   -0.017649   -0.115286
   6 Au:    0.023681   -0.108994
   7 Au:    0.000580   -0.124666
   8 Au:   -0.011562   -0.196152
   9 Au:    0.054843   -0.073734
  10 Au:   -0.018099   -0.115322
  11 Au:    0.023230   -0.228467
  12 Fe:   -0.277969    3.519788

  Mayer bond orders larger than 0.100000
B(  0-Au,  1-Au) :   0.2172 B(  0-Au,  4-Au) :   0.3578 B(  0-Au,  5-Au) :   0.1932
B(  0-Au,  6-Au) :   0.1932 B(  0-Au, 12-Fe) :   0.4196 B(  1-Au,  2-Au) :   0.1946
B(  1-Au,  6-Au) :   0.2179 B(  1-Au, 12-Fe) :   0.4647 B(  2-Au,  3-Au) :   0.1807
B(  2-Au,  9-Au) :   0.1819 B(  2-Au, 12-Fe) :   0.5175 B(  3-Au,  5-Au) :   0.2811
B(  3-Au,  8-Au) :   0.1862 B(  3-Au, 12-Fe) :   0.4486 B(  4-Au,  5-Au) :   0.3197
B(  4-Au,  7-Au) :   0.2409 B(  4-Au, 11-Au) :   0.2550 B(  5-Au,  8-Au) :   0.1394
B(  5-Au, 11-Au) :   0.1420 B(  5-Au, 12-Fe) :   0.5219 B(  6-Au,  7-Au) :   0.3610
B(  6-Au, 10-Au) :   0.1974 B(  6-Au, 12-Fe) :   0.4241 B(  7-Au, 10-Au) :   0.3200
B(  7-Au, 11-Au) :   0.2503 B(  8-Au,  9-Au) :   0.1829 B(  8-Au, 10-Au) :   0.1426
B(  8-Au, 11-Au) :   0.3031 B(  8-Au, 12-Fe) :   0.4398 B(  9-Au, 10-Au) :   0.2823
B(  9-Au, 12-Fe) :   0.4481 B( 10-Au, 11-Au) :   0.1438 B( 10-Au, 12-Fe) :   0.5173
B( 11-Au, 12-Fe) :   0.1012

MP2 TOTAL ENERGY:    -2890.507812713 Eh
FINAL SINGLE POINT ENERGY     -2890.507812712958

DIPOLE MOMENT
-------------
                                X             Y             Z
Electronic contribution:    -14.28611      30.88672       2.89525
Nuclear contribution   :     14.48390     -31.07082      -3.07883
                        -----------------------------------------
Total Dipole Moment    :      0.19779      -0.18410      -0.18358
                        -----------------------------------------
Magnitude (a.u.)       :      0.32667
Magnitude (Debye)      :      0.83032

Rotational constants in cm-1:     0.001622     0.001213     0.001098
Rotational constants in MHz :    48.629548    36.379718    32.918020

                             ****ORCA TERMINATED NORMALLY****
TOTAL RUN TIME: 0 days 1 hours 0 minutes 6 seconds 514 msec
