                         Program Version 5.0.3 -  RELEASE  -
|  1> !PBE def2-TZVP VERYSLOWCONV
|  2>
|  3> %scf
|  4>   AutoTRAHIter 200
|  5>   maxiter 400
|  6> end
|  7>
|  8>
|  9> %pal nprocs 6 end
| 10>
| 11> *xyzfile 0 5 pbe.xyz
| 12>
| 13> $new_job
| 14>
| 15> !PBE def2-TZVP VERYSLOWCONV
| 16>
| 17> %scf
| 18>   AutoTRAHIter 200
| 19>   maxiter 400
| 20> end
| 21>
| 22>
| 23> %pal nprocs 6 end
| 24>
| 25> *xyzfile 0 3 pbe.xyz
| 26>
| 27>
| 28>
| 29>
| 30>
| 31>                          ****END OF INPUT****
 Total Charge           Charge          ....    0
 Multiplicity           Mult            ....    5
 Number of Electrons    NEL             ....  254
FINAL SINGLE POINT ENERGY     -2893.392494060556

CARTESIAN COORDINATES (ANGSTROEM)
---------------------------------
  Au     6.150954    8.555086    3.699781
  Au     8.308475    6.823990    4.181247
  Au     7.679844    5.064980    6.214995
  Au     4.959129    5.614793    6.643313
  Au     4.658505   10.598754    4.690319
  Au     4.186232    8.086282    5.720622
  Au     8.360832    9.459042    5.146245
  Au     6.908534   11.518748    6.161064
  Au     5.160505    7.812519    8.384781
  Au     7.766653    6.748886    8.461985
  Au     7.455332    9.412028    7.856110
  Au     4.703644   10.369304    7.501397
  Fe     6.738845    7.522184    6.140912

 Multiplicity           Mult            ....    3
 Number of Electrons    NEL             ....  254
 Basis Dimension        Dim             ....  525

ORBITAL ENERGIES
----------------
                 SPIN UP ORBITALS
  NO   OCC          E(Eh)            E(eV)
   0   1.0000    -254.744318     -6931.9453
   1   1.0000     -29.581049      -804.9413
   2   1.0000     -25.521605      -694.4782
   3   1.0000     -25.514821      -694.2936
   4   1.0000     -25.513726      -694.2638
   5   1.0000      -4.033084      -109.7458
   6   1.0000      -4.033050      -109.7449
   7   1.0000      -4.031182      -109.6940
   8   1.0000      -4.026891      -109.5773
   9   1.0000      -4.026744      -109.5733
  10   1.0000      -4.025446      -109.5380
  11   1.0000      -4.021071      -109.4189
  12   1.0000      -4.018552      -109.3504
  13   1.0000      -4.018405      -109.3464
  14   1.0000      -4.016791      -109.3024
  15   1.0000      -4.016207      -109.2865
  16   1.0000      -4.015974      -109.2802
  17   1.0000      -3.357993       -91.3756
  18   1.0000      -2.249214       -61.2042
  19   1.0000      -2.249158       -61.2027
  20   1.0000      -2.245927       -61.1148
  21   1.0000      -2.245726       -61.1093
  22   1.0000      -2.245691       -61.1084
  23   1.0000      -2.245347       -61.0990
  24   1.0000      -2.245013       -61.0899
  25   1.0000      -2.244116       -61.0655
  26   1.0000      -2.243099       -61.0378
  27   1.0000      -2.242834       -61.0306
  28   1.0000      -2.241700       -60.9998
  29   1.0000      -2.241681       -60.9992
  30   1.0000      -2.240726       -60.9732
  31   1.0000      -2.240324       -60.9623
  32   1.0000      -2.238739       -60.9192
  33   1.0000      -2.236897       -60.8691
  34   1.0000      -2.236666       -60.8628
  35   1.0000      -2.234700       -60.8093
  36   1.0000      -2.234247       -60.7969
  37   1.0000      -2.234114       -60.7933
  38   1.0000      -2.233398       -60.7738
  39   1.0000      -2.233188       -60.7681
  40   1.0000      -2.233117       -60.7662
  41   1.0000      -2.232551       -60.7508
  42   1.0000      -2.232152       -60.7399
  43   1.0000      -2.231899       -60.7331
  44   1.0000      -2.231756       -60.7292
  45   1.0000      -2.231591       -60.7247
  46   1.0000      -2.230281       -60.6890
  47   1.0000      -2.229706       -60.6734
  48   1.0000      -2.229022       -60.6548
  49   1.0000      -2.228161       -60.6314
  50   1.0000      -2.227025       -60.6004
  51   1.0000      -2.225646       -60.5629
  52   1.0000      -2.225013       -60.5457
  53   1.0000      -2.224819       -60.5404
  54   1.0000      -2.182241       -59.3818
  55   1.0000      -2.168177       -58.9991
  56   1.0000      -2.165393       -58.9233
  57   1.0000      -0.420144       -11.4327
  58   1.0000      -0.378119       -10.2891
  59   1.0000      -0.377505       -10.2724
  60   1.0000      -0.376203       -10.2370
  61   1.0000      -0.364844        -9.9279
  62   1.0000      -0.362909        -9.8753
  63   1.0000      -0.361243        -9.8299
  64   1.0000      -0.354032        -9.6337
  65   1.0000      -0.352806        -9.6004
  66   1.0000      -0.347139        -9.4461
  67   1.0000      -0.345812        -9.4100
  68   1.0000      -0.344001        -9.3607
  69   1.0000      -0.343005        -9.3336
  70   1.0000      -0.341750        -9.2995
  71   1.0000      -0.340932        -9.2772
  72   1.0000      -0.335943        -9.1415
  73   1.0000      -0.334527        -9.1029
  74   1.0000      -0.330417        -8.9911
  75   1.0000      -0.328994        -8.9524
  76   1.0000      -0.328634        -8.9426
  77   1.0000      -0.327663        -8.9162
  78   1.0000      -0.320592        -8.7237
  79   1.0000      -0.318921        -8.6783
  80   1.0000      -0.318532        -8.6677
  81   1.0000      -0.317197        -8.6314
  82   1.0000      -0.312276        -8.4975
  83   1.0000      -0.309925        -8.4335
  84   1.0000      -0.304490        -8.2856
  85   1.0000      -0.303539        -8.2597
  86   1.0000      -0.302007        -8.2180
  87   1.0000      -0.301241        -8.1972
  88   1.0000      -0.296311        -8.0630
  89   1.0000      -0.295679        -8.0458
  90   1.0000      -0.289831        -7.8867
  91   1.0000      -0.288433        -7.8487
  92   1.0000      -0.284658        -7.7460
  93   1.0000      -0.282119        -7.6769
  94   1.0000      -0.278761        -7.5855
  95   1.0000      -0.277740        -7.5577
  96   1.0000      -0.275830        -7.5057
  97   1.0000      -0.273957        -7.4547
  98   1.0000      -0.272948        -7.4273
  99   1.0000      -0.271303        -7.3825
 100   1.0000      -0.269743        -7.3401
 101   1.0000      -0.268477        -7.3056
 102   1.0000      -0.266190        -7.2434
 103   1.0000      -0.264064        -7.1855
 104   1.0000      -0.262644        -7.1469
 105   1.0000      -0.261199        -7.1076
 106   1.0000      -0.259244        -7.0544
 107   1.0000      -0.258566        -7.0359
 108   1.0000      -0.257241        -6.9999
 109   1.0000      -0.254444        -6.9238
 110   1.0000      -0.252426        -6.8689
 111   1.0000      -0.252099        -6.8600
 112   1.0000      -0.250072        -6.8048
 113   1.0000      -0.249272        -6.7830
 114   1.0000      -0.247445        -6.7333
 115   1.0000      -0.247089        -6.7236
 116   1.0000      -0.245667        -6.6849
 117   1.0000      -0.245041        -6.6679
 118   1.0000      -0.240981        -6.5574
 119   1.0000      -0.240464        -6.5434
 120   1.0000      -0.237908        -6.4738
 121   1.0000      -0.237462        -6.4617
 122   1.0000      -0.236257        -6.4289
 123   1.0000      -0.233026        -6.3410
 124   1.0000      -0.232173        -6.3178
 125   1.0000      -0.226611        -6.1664
 126   1.0000      -0.205096        -5.5809
 127   1.0000      -0.194797        -5.3007
 128   0.0000      -0.193614        -5.2685
 129   0.0000      -0.159381        -4.3370
 130   0.0000      -0.152063        -4.1378
 131   0.0000      -0.129165        -3.5148
 132   0.0000      -0.121374        -3.3028

                 SPIN DOWN ORBITALS
  NO   OCC          E(Eh)            E(eV)
   0   1.0000    -254.743668     -6931.9276
   1   1.0000     -29.525671      -803.4344
   2   1.0000     -25.477045      -693.2656
   3   1.0000     -25.474655      -693.2006
   4   1.0000     -25.472997      -693.1555
   5   1.0000      -4.033419      -109.7549
   6   1.0000      -4.033374      -109.7537
   7   1.0000      -4.031380      -109.6994
   8   1.0000      -4.026570      -109.5685
   9   1.0000      -4.026433      -109.5648
  10   1.0000      -4.025101      -109.5286
  11   1.0000      -4.021822      -109.4393
  12   1.0000      -4.019451      -109.3748
  13   1.0000      -4.019300      -109.3707
  14   1.0000      -4.016875      -109.3047
  15   1.0000      -4.016193      -109.2862
  16   1.0000      -4.015957      -109.2797
  17   1.0000      -3.232536       -87.9618
  18   1.0000      -2.249260       -61.2055
  19   1.0000      -2.249197       -61.2038
  20   1.0000      -2.246565       -61.1321
  21   1.0000      -2.245937       -61.1150
  22   1.0000      -2.245894       -61.1139
  23   1.0000      -2.245234       -61.0959
  24   1.0000      -2.244709       -61.0816
  25   1.0000      -2.244534       -61.0769
  26   1.0000      -2.243551       -61.0501
  27   1.0000      -2.242401       -61.0188
  28   1.0000      -2.242065       -61.0097
  29   1.0000      -2.240933       -60.9789
  30   1.0000      -2.240112       -60.9566
  31   1.0000      -2.239641       -60.9437
  32   1.0000      -2.238313       -60.9076
  33   1.0000      -2.237778       -60.8930
  34   1.0000      -2.236936       -60.8701
  35   1.0000      -2.235122       -60.8208
  36   1.0000      -2.234775       -60.8113
  37   1.0000      -2.234297       -60.7983
  38   1.0000      -2.234175       -60.7950
  39   1.0000      -2.234005       -60.7904
  40   1.0000      -2.233396       -60.7738
  41   1.0000      -2.232901       -60.7603
  42   1.0000      -2.232718       -60.7553
  43   1.0000      -2.232281       -60.7434
  44   1.0000      -2.231727       -60.7284
  45   1.0000      -2.231470       -60.7214
  46   1.0000      -2.230785       -60.7027
  47   1.0000      -2.229695       -60.6731
  48   1.0000      -2.229554       -60.6693
  49   1.0000      -2.228063       -60.6287
  50   1.0000      -2.227581       -60.6156
  51   1.0000      -2.225788       -60.5668
  52   1.0000      -2.225587       -60.5613
  53   1.0000      -2.225389       -60.5559
  54   1.0000      -2.051519       -55.8247
  55   1.0000      -2.050136       -55.7870
  56   1.0000      -2.045641       -55.6647
  57   1.0000      -0.416910       -11.3447
  58   1.0000      -0.377847       -10.2817
  59   1.0000      -0.376003       -10.2315
  60   1.0000      -0.375856       -10.2276
  61   1.0000      -0.363402        -9.8887
  62   1.0000      -0.359762        -9.7896
  63   1.0000      -0.358044        -9.7429
  64   1.0000      -0.352625        -9.5954
  65   1.0000      -0.350714        -9.5434
  66   1.0000      -0.348191        -9.4748
  67   1.0000      -0.345272        -9.3953
  68   1.0000      -0.343792        -9.3550
  69   1.0000      -0.340322        -9.2606
  70   1.0000      -0.337745        -9.1905
  71   1.0000      -0.336935        -9.1685
  72   1.0000      -0.336089        -9.1454
  73   1.0000      -0.332722        -9.0538
  74   1.0000      -0.330050        -8.9811
  75   1.0000      -0.328059        -8.9269
  76   1.0000      -0.326534        -8.8854
  77   1.0000      -0.326032        -8.8718
  78   1.0000      -0.320505        -8.7214
  79   1.0000      -0.320211        -8.7134
  80   1.0000      -0.316467        -8.6115
  81   1.0000      -0.311808        -8.4847
  82   1.0000      -0.308761        -8.4018
  83   1.0000      -0.307176        -8.3587
  84   1.0000      -0.305646        -8.3170
  85   1.0000      -0.301605        -8.2071
  86   1.0000      -0.301072        -8.1926
  87   1.0000      -0.299308        -8.1446
  88   1.0000      -0.295343        -8.0367
  89   1.0000      -0.295145        -8.0313
  90   1.0000      -0.288834        -7.8596
  91   1.0000      -0.285714        -7.7747
  92   1.0000      -0.282774        -7.6947
  93   1.0000      -0.281141        -7.6502
  94   1.0000      -0.276952        -7.5362
  95   1.0000      -0.275861        -7.5066
  96   1.0000      -0.274837        -7.4787
  97   1.0000      -0.273614        -7.4454
  98   1.0000      -0.272202        -7.4070
  99   1.0000      -0.270766        -7.3679
 100   1.0000      -0.270452        -7.3594
 101   1.0000      -0.268577        -7.3084
 102   1.0000      -0.267586        -7.2814
 103   1.0000      -0.263296        -7.1647
 104   1.0000      -0.263034        -7.1575
 105   1.0000      -0.261008        -7.1024
 106   1.0000      -0.259188        -7.0529
 107   1.0000      -0.257829        -7.0159
 108   1.0000      -0.257242        -6.9999
 109   1.0000      -0.255022        -6.9395
 110   1.0000      -0.252490        -6.8706
 111   1.0000      -0.251973        -6.8565
 112   1.0000      -0.250823        -6.8252
 113   1.0000      -0.248859        -6.7718
 114   1.0000      -0.247720        -6.7408
 115   1.0000      -0.247414        -6.7325
 116   1.0000      -0.245522        -6.6810
 117   1.0000      -0.240873        -6.5545
 118   1.0000      -0.240712        -6.5501
 119   1.0000      -0.234276        -6.3750
 120   1.0000      -0.233036        -6.3412
 121   1.0000      -0.212310        -5.7773
 122   1.0000      -0.205579        -5.5941
 123   1.0000      -0.205386        -5.5888
 124   1.0000      -0.180825        -4.9205
 125   1.0000      -0.175520        -4.7761
 126   0.0000      -0.155346        -4.2272
 127   0.0000      -0.154960        -4.2167
 128   0.0000      -0.151382        -4.1193
 129   0.0000      -0.142413        -3.8753
 130   0.0000      -0.139850        -3.8055

MULLIKEN ATOMIC CHARGES AND SPIN POPULATIONS
--------------------------------------------
   0 Au:    0.115126   -0.076038
   1 Au:    0.341633   -0.162757
   2 Au:    0.249748   -0.019672
   3 Au:    0.295917   -0.009873
   4 Au:    0.143569   -0.003915
   5 Au:    0.006985   -0.066995
   6 Au:    0.107150   -0.070898
   7 Au:    0.150865    0.001251
   8 Au:    0.151120   -0.091151
   9 Au:    0.299715   -0.018926
  10 Au:    0.002800   -0.067823
  11 Au:    0.083807   -0.294846
  12 Fe:   -1.948434    2.881643
Sum of atomic charges         :   -0.0000000

LOEWDIN ATOMIC CHARGES AND SPIN POPULATIONS
-------------------------------------------
   0 Au:    0.051876   -0.068982
   1 Au:    0.124766   -0.131474
   2 Au:    0.056161   -0.076560
   3 Au:    0.086542   -0.036794
   4 Au:    0.018099   -0.058511
   5 Au:    0.017570   -0.069277
   6 Au:    0.049209   -0.065602
   7 Au:    0.018910   -0.054638
   8 Au:    0.027871   -0.098689
   9 Au:    0.088254   -0.041578
  10 Au:    0.017088   -0.070552
  11 Au:    0.012190   -0.173655
  12 Fe:   -0.568535    2.946313

  Mayer bond orders larger than 0.100000
B(  0-Au,  1-Au) :   0.2383 B(  0-Au,  4-Au) :   0.3748 B(  0-Au,  5-Au) :   0.1892
B(  0-Au,  6-Au) :   0.1577 B(  0-Au, 12-Fe) :   0.5405 B(  1-Au,  2-Au) :   0.2221
B(  1-Au,  6-Au) :   0.2388 B(  1-Au, 12-Fe) :   0.4909 B(  2-Au,  3-Au) :   0.2296
B(  2-Au,  9-Au) :   0.2318 B(  2-Au, 12-Fe) :   0.5734 B(  3-Au,  5-Au) :   0.3115
B(  3-Au,  8-Au) :   0.1926 B(  3-Au, 12-Fe) :   0.5272 B(  4-Au,  5-Au) :   0.3452
B(  4-Au,  7-Au) :   0.2527 B(  4-Au, 11-Au) :   0.2768 B(  4-Au, 12-Fe) :   0.1359
B(  5-Au,  8-Au) :   0.1829 B(  5-Au, 11-Au) :   0.2066 B(  5-Au, 12-Fe) :   0.5632
B(  6-Au,  7-Au) :   0.3811 B(  6-Au, 10-Au) :   0.1910 B(  6-Au, 12-Fe) :   0.5414
B(  7-Au, 10-Au) :   0.3453 B(  7-Au, 11-Au) :   0.2682 B(  7-Au, 12-Fe) :   0.1334
B(  8-Au,  9-Au) :   0.1888 B(  8-Au, 10-Au) :   0.1858 B(  8-Au, 11-Au) :   0.3538
B(  8-Au, 12-Fe) :   0.5044 B(  9-Au, 10-Au) :   0.3112 B(  9-Au, 12-Fe) :   0.5276
B( 10-Au, 11-Au) :   0.2086 B( 10-Au, 12-Fe) :   0.5604 B( 11-Au, 12-Fe) :   0.1532

FINAL SINGLE POINT ENERGY     -2893.374324683550

DIPOLE MOMENT
-------------
                                X             Y             Z
Electronic contribution:    -14.48097      31.19555       2.99567
Nuclear contribution   :     14.48390     -31.07082      -3.07883
                        -----------------------------------------
Total Dipole Moment    :      0.00293       0.12474      -0.08316
                        -----------------------------------------
Magnitude (a.u.)       :      0.14994
Magnitude (Debye)      :      0.38113

Rotational constants in cm-1:     0.001622     0.001213     0.001098
Rotational constants in MHz :    48.629548    36.379718    32.918020

                             ****ORCA TERMINATED NORMALLY****
TOTAL RUN TIME: 0 days 0 hours 22 minutes 10 seconds 751 msec
