                         Program Version 5.0.3 -  RELEASE  -
|  1> !R2SCAN def2-TZVP VERYSLOWCONV
|  2> !KDIIS
|  3> %scf
|  4>   AutoTRAHIter 200
|  5>   maxiter 400
|  6> end
|  7>
|  8> %pal nprocs 6 end
|  9>
| 10> *xyzfile 0 5 pbe.xyz
| 11>
| 12> $new_job
| 13>
| 14> !R2SCAN def2-TZVP VERYSLOWCONV
| 15> !KDIIS
| 16> %scf
| 17>   AutoTRAHIter 200
| 18>   maxiter 400
| 19> end
| 20>
| 21>
| 22> %pal nprocs 6 end
| 23>
| 24> *xyzfile 0 3 pbe.xyz
| 25>
| 26>
| 27>
| 28>
| 29>
| 30>                          ****END OF INPUT****
 Total Charge           Charge          ....    0
 Multiplicity           Mult            ....    5
 Number of Electrons    NEL             ....  254
FINAL SINGLE POINT ENERGY     -2893.840323122109

CARTESIAN COORDINATES (ANGSTROEM)
---------------------------------
  Au     6.150954    8.555086    3.699781
  Au     8.308475    6.823990    4.181247
  Au     7.679844    5.064980    6.214995
  Au     4.959129    5.614793    6.643313
  Au     4.658505   10.598754    4.690319
  Au     4.186232    8.086282    5.720622
  Au     8.360832    9.459042    5.146245
  Au     6.908534   11.518748    6.161064
  Au     5.160505    7.812519    8.384781
  Au     7.766653    6.748886    8.461985
  Au     7.455332    9.412028    7.856110
  Au     4.703644   10.369304    7.501397
  Fe     6.738845    7.522184    6.140912

 Multiplicity           Mult            ....    3
 Number of Electrons    NEL             ....  254
 Basis Dimension        Dim             ....  525

ORBITAL ENERGIES
----------------
                 SPIN UP ORBITALS
  NO   OCC          E(Eh)            E(eV)
   0   1.0000    -255.624187     -6955.8878
   1   1.0000     -29.921636      -814.2091
   2   1.0000     -25.757694      -700.9025
   3   1.0000     -25.749796      -700.6876
   4   1.0000     -25.749095      -700.6685
   5   1.0000      -4.124115      -112.2229
   6   1.0000      -4.124036      -112.2207
   7   1.0000      -4.121306      -112.1464
   8   1.0000      -4.118621      -112.0734
   9   1.0000      -4.118469      -112.0692
  10   1.0000      -4.117058      -112.0308
  11   1.0000      -4.111510      -111.8799
  12   1.0000      -4.109058      -111.8132
  13   1.0000      -4.108929      -111.8096
  14   1.0000      -4.106875      -111.7538
  15   1.0000      -4.106431      -111.7417
  16   1.0000      -4.106239      -111.7364
  17   1.0000      -3.500744       -95.2601
  18   1.0000      -2.312908       -62.9374
  19   1.0000      -2.312819       -62.9350
  20   1.0000      -2.309872       -62.8548
  21   1.0000      -2.309761       -62.8518
  22   1.0000      -2.309614       -62.8478
  23   1.0000      -2.309116       -62.8342
  24   1.0000      -2.308432       -62.8156
  25   1.0000      -2.307868       -62.8003
  26   1.0000      -2.307300       -62.7848
  27   1.0000      -2.306692       -62.7683
  28   1.0000      -2.306138       -62.7532
  29   1.0000      -2.305145       -62.7262
  30   1.0000      -2.305045       -62.7235
  31   1.0000      -2.304598       -62.7113
  32   1.0000      -2.303010       -62.6681
  33   1.0000      -2.301508       -62.6272
  34   1.0000      -2.300085       -62.5885
  35   1.0000      -2.299255       -62.5659
  36   1.0000      -2.299048       -62.5603
  37   1.0000      -2.297614       -62.5213
  38   1.0000      -2.296925       -62.5025
  39   1.0000      -2.296363       -62.4872
  40   1.0000      -2.296194       -62.4826
  41   1.0000      -2.295711       -62.4695
  42   1.0000      -2.295213       -62.4559
  43   1.0000      -2.294948       -62.4487
  44   1.0000      -2.294791       -62.4444
  45   1.0000      -2.294680       -62.4414
  46   1.0000      -2.293048       -62.3970
  47   1.0000      -2.292557       -62.3837
  48   1.0000      -2.292450       -62.3807
  49   1.0000      -2.290845       -62.3371
  50   1.0000      -2.290313       -62.3226
  51   1.0000      -2.288515       -62.2737
  52   1.0000      -2.288103       -62.2624
  53   1.0000      -2.287927       -62.2577
  54   1.0000      -2.277575       -61.9760
  55   1.0000      -2.261015       -61.5253
  56   1.0000      -2.258970       -61.4697
  57   1.0000      -0.425619       -11.5817
  58   1.0000      -0.385977       -10.5030
  59   1.0000      -0.384775       -10.4703
  60   1.0000      -0.384368       -10.4592
  61   1.0000      -0.375282       -10.2119
  62   1.0000      -0.372623       -10.1396
  63   1.0000      -0.371334       -10.1045
  64   1.0000      -0.363665        -9.8958
  65   1.0000      -0.361819        -9.8456
  66   1.0000      -0.357008        -9.7147
  67   1.0000      -0.355328        -9.6690
  68   1.0000      -0.354146        -9.6368
  69   1.0000      -0.353715        -9.6251
  70   1.0000      -0.351269        -9.5585
  71   1.0000      -0.350783        -9.5453
  72   1.0000      -0.345578        -9.4037
  73   1.0000      -0.344546        -9.3756
  74   1.0000      -0.340741        -9.2720
  75   1.0000      -0.338284        -9.2052
  76   1.0000      -0.338227        -9.2036
  77   1.0000      -0.336818        -9.1653
  78   1.0000      -0.331771        -9.0279
  79   1.0000      -0.327807        -8.9201
  80   1.0000      -0.327479        -8.9111
  81   1.0000      -0.325516        -8.8577
  82   1.0000      -0.321518        -8.7490
  83   1.0000      -0.320443        -8.7197
  84   1.0000      -0.313768        -8.5381
  85   1.0000      -0.313378        -8.5274
  86   1.0000      -0.310975        -8.4621
  87   1.0000      -0.309941        -8.4339
  88   1.0000      -0.306070        -8.3286
  89   1.0000      -0.304747        -8.2926
  90   1.0000      -0.299368        -8.1462
  91   1.0000      -0.297741        -8.1020
  92   1.0000      -0.293353        -7.9826
  93   1.0000      -0.291166        -7.9230
  94   1.0000      -0.288939        -7.8624
  95   1.0000      -0.286093        -7.7850
  96   1.0000      -0.284504        -7.7418
  97   1.0000      -0.283577        -7.7165
  98   1.0000      -0.281582        -7.6622
  99   1.0000      -0.280025        -7.6199
 100   1.0000      -0.278180        -7.5697
 101   1.0000      -0.277012        -7.5379
 102   1.0000      -0.274368        -7.4659
 103   1.0000      -0.273076        -7.4308
 104   1.0000      -0.270663        -7.3651
 105   1.0000      -0.269596        -7.3361
 106   1.0000      -0.268179        -7.2975
 107   1.0000      -0.267044        -7.2666
 108   1.0000      -0.265339        -7.2202
 109   1.0000      -0.263783        -7.1779
 110   1.0000      -0.261761        -7.1229
 111   1.0000      -0.260666        -7.0931
 112   1.0000      -0.258441        -7.0325
 113   1.0000      -0.258218        -7.0265
 114   1.0000      -0.256064        -6.9679
 115   1.0000      -0.255813        -6.9610
 116   1.0000      -0.252806        -6.8792
 117   1.0000      -0.252724        -6.8770
 118   1.0000      -0.251149        -6.8341
 119   1.0000      -0.249398        -6.7865
 120   1.0000      -0.248164        -6.7529
 121   1.0000      -0.247994        -6.7483
 122   1.0000      -0.244173        -6.6443
 123   1.0000      -0.241487        -6.5712
 124   1.0000      -0.238957        -6.5023
 125   1.0000      -0.234340        -6.3767
 126   1.0000      -0.206431        -5.6173
 127   1.0000      -0.196854        -5.3567
 128   0.0000      -0.192079        -5.2267
 129   0.0000      -0.155881        -4.2417
 130   0.0000      -0.149267        -4.0618
 131   0.0000      -0.124192        -3.3794
 132   0.0000      -0.115469        -3.1421

                 SPIN DOWN ORBITALS
  NO   OCC          E(Eh)            E(eV)
   0   1.0000    -255.623226     -6955.8616
   1   1.0000     -29.845806      -812.1457
   2   1.0000     -25.696253      -699.2306
   3   1.0000     -25.693939      -699.1676
   4   1.0000     -25.692879      -699.1388
   5   1.0000      -4.124733      -112.2397
   6   1.0000      -4.124646      -112.2373
   7   1.0000      -4.121646      -112.1557
   8   1.0000      -4.118413      -112.0677
   9   1.0000      -4.118264      -112.0637
  10   1.0000      -4.116953      -112.0280
  11   1.0000      -4.112622      -111.9101
  12   1.0000      -4.110100      -111.8415
  13   1.0000      -4.109965      -111.8378
  14   1.0000      -4.107146      -111.7611
  15   1.0000      -4.106554      -111.7450
  16   1.0000      -4.106353      -111.7395
  17   1.0000      -3.333253       -90.7024
  18   1.0000      -2.313111       -62.9430
  19   1.0000      -2.313012       -62.9403
  20   1.0000      -2.310129       -62.8618
  21   1.0000      -2.310057       -62.8598
  22   1.0000      -2.309763       -62.8518
  23   1.0000      -2.309160       -62.8354
  24   1.0000      -2.308826       -62.8264
  25   1.0000      -2.308564       -62.8192
  26   1.0000      -2.307143       -62.7806
  27   1.0000      -2.306858       -62.7728
  28   1.0000      -2.305445       -62.7344
  29   1.0000      -2.305364       -62.7321
  30   1.0000      -2.304587       -62.7110
  31   1.0000      -2.304082       -62.6973
  32   1.0000      -2.302528       -62.6550
  33   1.0000      -2.301657       -62.6313
  34   1.0000      -2.301084       -62.6157
  35   1.0000      -2.299459       -62.5714
  36   1.0000      -2.298996       -62.5589
  37   1.0000      -2.298555       -62.5469
  38   1.0000      -2.298022       -62.5324
  39   1.0000      -2.297371       -62.5146
  40   1.0000      -2.296846       -62.5004
  41   1.0000      -2.296326       -62.4862
  42   1.0000      -2.296214       -62.4832
  43   1.0000      -2.295215       -62.4560
  44   1.0000      -2.294812       -62.4450
  45   1.0000      -2.294598       -62.4392
  46   1.0000      -2.293670       -62.4139
  47   1.0000      -2.293284       -62.4034
  48   1.0000      -2.292578       -62.3842
  49   1.0000      -2.291006       -62.3414
  50   1.0000      -2.290887       -62.3382
  51   1.0000      -2.288830       -62.2822
  52   1.0000      -2.288692       -62.2785
  53   1.0000      -2.288520       -62.2738
  54   1.0000      -2.105052       -57.2814
  55   1.0000      -2.100472       -57.1568
  56   1.0000      -2.097959       -57.0884
  57   1.0000      -0.423293       -11.5184
  58   1.0000      -0.385513       -10.4903
  59   1.0000      -0.383438       -10.4339
  60   1.0000      -0.383173       -10.4267
  61   1.0000      -0.372612       -10.1393
  62   1.0000      -0.368820       -10.0361
  63   1.0000      -0.366755        -9.9799
  64   1.0000      -0.361805        -9.8452
  65   1.0000      -0.359163        -9.7733
  66   1.0000      -0.357752        -9.7349
  67   1.0000      -0.354616        -9.6496
  68   1.0000      -0.352574        -9.5940
  69   1.0000      -0.349162        -9.5012
  70   1.0000      -0.347914        -9.4672
  71   1.0000      -0.346753        -9.4356
  72   1.0000      -0.345233        -9.3943
  73   1.0000      -0.342517        -9.3204
  74   1.0000      -0.339508        -9.2385
  75   1.0000      -0.337328        -9.1791
  76   1.0000      -0.335502        -9.1295
  77   1.0000      -0.335027        -9.1166
  78   1.0000      -0.329700        -8.9716
  79   1.0000      -0.329385        -8.9630
  80   1.0000      -0.325127        -8.8472
  81   1.0000      -0.321430        -8.7465
  82   1.0000      -0.317578        -8.6417
  83   1.0000      -0.316068        -8.6007
  84   1.0000      -0.315016        -8.5720
  85   1.0000      -0.310682        -8.4541
  86   1.0000      -0.309784        -8.4297
  87   1.0000      -0.308051        -8.3825
  88   1.0000      -0.303937        -8.2705
  89   1.0000      -0.303888        -8.2692
  90   1.0000      -0.297400        -8.0927
  91   1.0000      -0.294972        -8.0266
  92   1.0000      -0.290862        -7.9148
  93   1.0000      -0.289902        -7.8886
  94   1.0000      -0.284977        -7.7546
  95   1.0000      -0.284230        -7.7343
  96   1.0000      -0.283370        -7.7109
  97   1.0000      -0.282163        -7.6780
  98   1.0000      -0.281085        -7.6487
  99   1.0000      -0.279433        -7.6038
 100   1.0000      -0.278399        -7.5756
 101   1.0000      -0.277346        -7.5470
 102   1.0000      -0.276283        -7.5180
 103   1.0000      -0.271384        -7.3847
 104   1.0000      -0.271184        -7.3793
 105   1.0000      -0.268534        -7.3072
 106   1.0000      -0.267520        -7.2796
 107   1.0000      -0.266109        -7.2412
 108   1.0000      -0.264711        -7.2032
 109   1.0000      -0.262846        -7.1524
 110   1.0000      -0.260702        -7.0941
 111   1.0000      -0.259137        -7.0515
 112   1.0000      -0.258935        -7.0460
 113   1.0000      -0.256181        -6.9710
 114   1.0000      -0.255286        -6.9467
 115   1.0000      -0.254465        -6.9244
 116   1.0000      -0.253295        -6.8925
 117   1.0000      -0.247781        -6.7425
 118   1.0000      -0.247372        -6.7313
 119   1.0000      -0.240512        -6.5447
 120   1.0000      -0.239524        -6.5178
 121   1.0000      -0.213987        -5.8229
 122   1.0000      -0.207603        -5.6492
 123   1.0000      -0.206989        -5.6325
 124   1.0000      -0.179994        -4.8979
 125   1.0000      -0.177844        -4.8394
 126   0.0000      -0.151393        -4.1196
 127   0.0000      -0.148615        -4.0440
 128   0.0000      -0.140969        -3.8360
 129   0.0000      -0.130041        -3.5386
 130   0.0000      -0.129958        -3.5363

MULLIKEN ATOMIC CHARGES AND SPIN POPULATIONS
--------------------------------------------
   0 Au:    0.112068   -0.083894
   1 Au:    0.319180   -0.200156
   2 Au:    0.209420   -0.027352
   3 Au:    0.263255   -0.022940
   4 Au:    0.118374   -0.004426
   5 Au:    0.010268   -0.070456
   6 Au:    0.103669   -0.080044
   7 Au:    0.125317    0.000106
   8 Au:    0.147918   -0.109321
   9 Au:    0.266493   -0.031117
  10 Au:    0.006663   -0.070903
  11 Au:    0.080131   -0.342570
  12 Fe:   -1.762757    3.043072
Sum of atomic charges         :    0.0000000

LOEWDIN ATOMIC CHARGES AND SPIN POPULATIONS
-------------------------------------------
   0 Au:    0.048046   -0.077798
   1 Au:    0.120308   -0.150014
   2 Au:    0.045492   -0.088682
   3 Au:    0.076869   -0.047814
   4 Au:    0.013644   -0.065198
   5 Au:    0.014224   -0.079270
   6 Au:    0.045388   -0.075002
   7 Au:    0.014596   -0.062119
   8 Au:    0.022194   -0.114929
   9 Au:    0.078498   -0.051772
  10 Au:    0.013746   -0.080293
  11 Au:    0.012296   -0.196596
  12 Fe:   -0.505301    3.089485

  Mayer bond orders larger than 0.100000
B(  0-Au,  1-Au) :   0.2330 B(  0-Au,  4-Au) :   0.3752 B(  0-Au,  5-Au) :   0.1792
B(  0-Au,  6-Au) :   0.1471 B(  0-Au, 12-Fe) :   0.5207 B(  1-Au,  2-Au) :   0.2091
B(  1-Au,  6-Au) :   0.2336 B(  1-Au, 12-Fe) :   0.4717 B(  2-Au,  3-Au) :   0.2175
B(  2-Au,  9-Au) :   0.2196 B(  2-Au, 12-Fe) :   0.5467 B(  3-Au,  5-Au) :   0.3106
B(  3-Au,  8-Au) :   0.1825 B(  3-Au, 12-Fe) :   0.5122 B(  4-Au,  5-Au) :   0.3314
B(  4-Au,  7-Au) :   0.2297 B(  4-Au, 11-Au) :   0.2601 B(  4-Au, 12-Fe) :   0.1210
B(  5-Au,  8-Au) :   0.1659 B(  5-Au, 11-Au) :   0.1762 B(  5-Au, 12-Fe) :   0.5582
B(  6-Au,  7-Au) :   0.3811 B(  6-Au, 10-Au) :   0.1806 B(  6-Au, 12-Fe) :   0.5216
B(  7-Au, 10-Au) :   0.3313 B(  7-Au, 11-Au) :   0.2527 B(  7-Au, 12-Fe) :   0.1186
B(  8-Au,  9-Au) :   0.1790 B(  8-Au, 10-Au) :   0.1688 B(  8-Au, 11-Au) :   0.3465
B(  8-Au, 12-Fe) :   0.4714 B(  9-Au, 10-Au) :   0.3103 B(  9-Au, 12-Fe) :   0.5128
B( 10-Au, 11-Au) :   0.1786 B( 10-Au, 12-Fe) :   0.5555 B( 11-Au, 12-Fe) :   0.1281

FINAL SINGLE POINT ENERGY     -2893.819354345650

DIPOLE MOMENT
-------------
                                X             Y             Z
Electronic contribution:    -14.46662      31.19857       2.97290
Nuclear contribution   :     14.48390     -31.07082      -3.07883
                        -----------------------------------------
Total Dipole Moment    :      0.01728       0.12776      -0.10593
                        -----------------------------------------
Magnitude (a.u.)       :      0.16686
Magnitude (Debye)      :      0.42412

Rotational constants in cm-1:     0.001622     0.001213     0.001098
Rotational constants in MHz :    48.629548    36.379718    32.918020

                             ****ORCA TERMINATED NORMALLY****
TOTAL RUN TIME: 0 days 0 hours 10 minutes 33 seconds 734 msec
