                         Program Version 5.0.3 -  RELEASE  -
|  1> !RI-B2PLYP def2-TZVP def2-TZVP/C
|  2> !RIJCOSX VERYSLOWCONV
|  3>
|  4> %scf
|  5>   AutoTRAHIter 200
|  6>   maxiter 400
|  7> end
|  8>
|  9>
| 10> %pal nprocs 6 end
| 11>
| 12> *xyzfile 0 6 pbe.xyz
| 13>
| 14> $new_job
| 15>
| 16> !RI-B2PLYP def2-TZVP def2-TZVP/C
| 17> !RIJCOSX VERYSLOWCONV
| 18>
| 19> %scf
| 20>   AutoTRAHIter 200
| 21>   maxiter 400
| 22> end
| 23>
| 24>
| 25> %pal nprocs 6 end
| 26>
| 27> *xyzfile 0 4 pbe.xyz
| 28>
| 29>
| 30>
| 31>
| 32>
| 33>                          ****END OF INPUT****
 Total Charge           Charge          ....    0
 Multiplicity           Mult            ....    6
 Number of Electrons    NEL             ....  215
MP2 TOTAL ENERGY:    -2506.685568196 Eh
FINAL SINGLE POINT ENERGY     -2506.685568196337

CARTESIAN COORDINATES (ANGSTROEM)
---------------------------------
  Au     8.281853    7.693476   11.644014
  Au     7.823278    5.385492   10.426492
  Au     9.416817    7.451548    9.089886
  Au     7.348300    3.450184    8.763401
  Au     6.493577    7.822642    9.484179
  Au     6.205781    8.248715    6.919426
  Au     7.035865    3.928219    6.032678
  Au     9.121892    7.874378    6.524669
  Au     7.199918    6.294156    4.974315
  Au     7.468873    8.887958    4.496057
  Mn     7.532459    5.983388    7.726340

 Multiplicity           Mult            ....    4
 Number of Electrons    NEL             ....  215
 Basis Dimension        Dim             ....  445

ORBITAL ENERGIES
----------------
                 SPIN UP ORBITALS
  NO   OCC          E(Eh)            E(eV)
   0   1.0000    -237.629233     -6466.2202
   1   1.0000     -28.133483      -765.5510
   2   1.0000     -24.051891      -654.4852
   3   1.0000     -24.050959      -654.4599
   4   1.0000     -24.050184      -654.4388
   5   1.0000      -4.402333      -119.7936
   6   1.0000      -4.401358      -119.7670
   7   1.0000      -4.400883      -119.7541
   8   1.0000      -4.400678      -119.7485
   9   1.0000      -4.392066      -119.5142
  10   1.0000      -4.391966      -119.5115
  11   1.0000      -4.391559      -119.5004
  12   1.0000      -4.391449      -119.4974
  13   1.0000      -4.389264      -119.4380
  14   1.0000      -4.389141      -119.4346
  15   1.0000      -3.610778       -98.2543
  16   1.0000      -2.526720       -68.7556
  17   1.0000      -2.526196       -68.7413
  18   1.0000      -2.524001       -68.6815
  19   1.0000      -2.520711       -68.5920
  20   1.0000      -2.519251       -68.5523
  21   1.0000      -2.518937       -68.5437
  22   1.0000      -2.517472       -68.5039
  23   1.0000      -2.516485       -68.4770
  24   1.0000      -2.516382       -68.4742
  25   1.0000      -2.515711       -68.4560
  26   1.0000      -2.515579       -68.4524
  27   1.0000      -2.514749       -68.4298
  28   1.0000      -2.514011       -68.4097
  29   1.0000      -2.513714       -68.4016
  30   1.0000      -2.510595       -68.3168
  31   1.0000      -2.510398       -68.3114
  32   1.0000      -2.509784       -68.2947
  33   1.0000      -2.509718       -68.2929
  34   1.0000      -2.509270       -68.2807
  35   1.0000      -2.508187       -68.2512
  36   1.0000      -2.507335       -68.2281
  37   1.0000      -2.506226       -68.1979
  38   1.0000      -2.505200       -68.1699
  39   1.0000      -2.504936       -68.1628
  40   1.0000      -2.504162       -68.1417
  41   1.0000      -2.504026       -68.1380
  42   1.0000      -2.503850       -68.1332
  43   1.0000      -2.503593       -68.1262
  44   1.0000      -2.503552       -68.1251
  45   1.0000      -2.502900       -68.1074
  46   1.0000      -2.412968       -65.6602
  47   1.0000      -2.411350       -65.6162
  48   1.0000      -2.410806       -65.6014
  49   1.0000      -0.514717       -14.0062
  50   1.0000      -0.513750       -13.9798
  51   1.0000      -0.509730       -13.8704
  52   1.0000      -0.506785       -13.7903
  53   1.0000      -0.501089       -13.6353
  54   1.0000      -0.480066       -13.0633
  55   1.0000      -0.470084       -12.7916
  56   1.0000      -0.465553       -12.6683
  57   1.0000      -0.464392       -12.6368
  58   1.0000      -0.457887       -12.4597
  59   1.0000      -0.448977       -12.2173
  60   1.0000      -0.445347       -12.1185
  61   1.0000      -0.437419       -11.9028
  62   1.0000      -0.435275       -11.8444
  63   1.0000      -0.434430       -11.8214
  64   1.0000      -0.433446       -11.7947
  65   1.0000      -0.429986       -11.7005
  66   1.0000      -0.426123       -11.5954
  67   1.0000      -0.421078       -11.4581
  68   1.0000      -0.416424       -11.3315
  69   1.0000      -0.413957       -11.2644
  70   1.0000      -0.408871       -11.1259
  71   1.0000      -0.407356       -11.0847
  72   1.0000      -0.406497       -11.0613
  73   1.0000      -0.404332       -11.0024
  74   1.0000      -0.395236       -10.7549
  75   1.0000      -0.391365       -10.6496
  76   1.0000      -0.387689       -10.5496
  77   1.0000      -0.386538       -10.5182
  78   1.0000      -0.386484       -10.5168
  79   1.0000      -0.384206       -10.4548
  80   1.0000      -0.383505       -10.4357
  81   1.0000      -0.382871       -10.4184
  82   1.0000      -0.379636       -10.3304
  83   1.0000      -0.375526       -10.2186
  84   1.0000      -0.374933       -10.2024
  85   1.0000      -0.374482       -10.1902
  86   1.0000      -0.372128       -10.1261
  87   1.0000      -0.371183       -10.1004
  88   1.0000      -0.366309        -9.9678
  89   1.0000      -0.363846        -9.9007
  90   1.0000      -0.362505        -9.8643
  91   1.0000      -0.358965        -9.7679
  92   1.0000      -0.358760        -9.7624
  93   1.0000      -0.357088        -9.7169
  94   1.0000      -0.356583        -9.7031
  95   1.0000      -0.356561        -9.7025
  96   1.0000      -0.351314        -9.5597
  97   1.0000      -0.349040        -9.4979
  98   1.0000      -0.347147        -9.4464
  99   1.0000      -0.343705        -9.3527
 100   1.0000      -0.342392        -9.3170
 101   1.0000      -0.336326        -9.1519
 102   1.0000      -0.331381        -9.0173
 103   1.0000      -0.321838        -8.7577
 104   1.0000      -0.316623        -8.6158
 105   1.0000      -0.313934        -8.5426
 106   1.0000      -0.295330        -8.0363
 107   1.0000      -0.238091        -6.4788
 108   1.0000      -0.234943        -6.3931
 109   0.0000      -0.148122        -4.0306
 110   0.0000      -0.090091        -2.4515
 111   0.0000      -0.075321        -2.0496
 112   0.0000      -0.060785        -1.6540
 113   0.0000      -0.041314        -1.1242

                 SPIN DOWN ORBITALS
  NO   OCC          E(Eh)            E(eV)
   0   1.0000    -237.627138     -6466.1632
   1   1.0000     -28.031905      -762.7869
   2   1.0000     -23.958198      -651.9357
   3   1.0000     -23.957607      -651.9196
   4   1.0000     -23.957421      -651.9146
   5   1.0000      -4.404211      -119.8447
   6   1.0000      -4.403453      -119.8240
   7   1.0000      -4.401194      -119.7626
   8   1.0000      -4.401024      -119.7579
   9   1.0000      -4.391680      -119.5037
  10   1.0000      -4.391575      -119.5008
  11   1.0000      -4.391169      -119.4898
  12   1.0000      -4.391059      -119.4868
  13   1.0000      -4.390520      -119.4721
  14   1.0000      -4.390354      -119.4676
  15   1.0000      -3.324941       -90.4763
  16   1.0000      -2.528053       -68.7918
  17   1.0000      -2.527290       -68.7710
  18   1.0000      -2.525004       -68.7089
  19   1.0000      -2.522021       -68.6277
  20   1.0000      -2.519391       -68.5561
  21   1.0000      -2.518199       -68.5237
  22   1.0000      -2.517475       -68.5040
  23   1.0000      -2.517153       -68.4952
  24   1.0000      -2.515684       -68.4553
  25   1.0000      -2.515561       -68.4519
  26   1.0000      -2.514904       -68.4340
  27   1.0000      -2.514234       -68.4158
  28   1.0000      -2.513290       -68.3901
  29   1.0000      -2.512992       -68.3820
  30   1.0000      -2.510790       -68.3221
  31   1.0000      -2.510081       -68.3028
  32   1.0000      -2.509130       -68.2769
  33   1.0000      -2.508898       -68.2706
  34   1.0000      -2.508672       -68.2644
  35   1.0000      -2.508418       -68.2575
  36   1.0000      -2.507227       -68.2251
  37   1.0000      -2.506924       -68.2169
  38   1.0000      -2.505617       -68.1813
  39   1.0000      -2.505248       -68.1713
  40   1.0000      -2.504322       -68.1461
  41   1.0000      -2.504181       -68.1422
  42   1.0000      -2.504122       -68.1406
  43   1.0000      -2.503720       -68.1297
  44   1.0000      -2.503530       -68.1245
  45   1.0000      -2.502697       -68.1018
  46   1.0000      -2.085746       -56.7560
  47   1.0000      -2.084646       -56.7261
  48   1.0000      -2.082910       -56.6789
  49   1.0000      -0.489671       -13.3246
  50   1.0000      -0.478437       -13.0189
  51   1.0000      -0.472280       -12.8514
  52   1.0000      -0.469638       -12.7795
  53   1.0000      -0.464291       -12.6340
  54   1.0000      -0.458779       -12.4840
  55   1.0000      -0.453177       -12.3316
  56   1.0000      -0.449453       -12.2302
  57   1.0000      -0.438361       -11.9284
  58   1.0000      -0.437997       -11.9185
  59   1.0000      -0.437356       -11.9011
  60   1.0000      -0.435321       -11.8457
  61   1.0000      -0.431372       -11.7382
  62   1.0000      -0.423503       -11.5241
  63   1.0000      -0.422521       -11.4974
  64   1.0000      -0.420071       -11.4307
  65   1.0000      -0.417997       -11.3743
  66   1.0000      -0.416917       -11.3449
  67   1.0000      -0.407616       -11.0918
  68   1.0000      -0.406153       -11.0520
  69   1.0000      -0.404327       -11.0023
  70   1.0000      -0.403536       -10.9808
  71   1.0000      -0.401676       -10.9302
  72   1.0000      -0.392379       -10.6772
  73   1.0000      -0.390265       -10.6196
  74   1.0000      -0.389671       -10.6035
  75   1.0000      -0.388307       -10.5664
  76   1.0000      -0.386561       -10.5189
  77   1.0000      -0.384297       -10.4572
  78   1.0000      -0.383497       -10.4355
  79   1.0000      -0.379518       -10.3272
  80   1.0000      -0.376465       -10.2441
  81   1.0000      -0.376040       -10.2326
  82   1.0000      -0.371806       -10.1174
  83   1.0000      -0.369446       -10.0531
  84   1.0000      -0.365762        -9.9529
  85   1.0000      -0.363326        -9.8866
  86   1.0000      -0.363041        -9.8788
  87   1.0000      -0.360527        -9.8104
  88   1.0000      -0.360009        -9.7963
  89   1.0000      -0.359155        -9.7731
  90   1.0000      -0.358110        -9.7447
  91   1.0000      -0.352596        -9.5946
  92   1.0000      -0.350783        -9.5453
  93   1.0000      -0.349951        -9.5227
  94   1.0000      -0.348229        -9.4758
  95   1.0000      -0.347385        -9.4528
  96   1.0000      -0.343161        -9.3379
  97   1.0000      -0.333120        -9.0647
  98   1.0000      -0.328868        -8.9490
  99   1.0000      -0.322556        -8.7772
 100   1.0000      -0.317540        -8.6407
 101   1.0000      -0.316972        -8.6253
 102   1.0000      -0.264664        -7.2019
 103   1.0000      -0.245003        -6.6669
 104   1.0000      -0.244581        -6.6554
 105   1.0000      -0.188873        -5.1395
 106   0.0000      -0.082289        -2.2392
 107   0.0000      -0.073424        -1.9980
 108   0.0000      -0.047581        -1.2947
 109   0.0000      -0.045881        -1.2485
 110   0.0000      -0.031954        -0.8695

MULLIKEN ATOMIC CHARGES AND SPIN POPULATIONS
--------------------------------------------
   0 Au:    0.324776   -0.242619
   1 Au:   -0.159433   -0.188246
   2 Au:    0.031014   -0.026901
   3 Au:    0.219275   -0.398960
   4 Au:    0.031570   -0.025255
   5 Au:    0.028350   -0.028880
   6 Au:    0.211358   -0.391575
   7 Au:    0.028727   -0.027755
   8 Au:   -0.144717   -0.195650
   9 Au:    0.319620   -0.230635
  10 Mn:   -0.890539    4.756476
Sum of atomic charges         :   -0.0000000

LOEWDIN ATOMIC CHARGES AND SPIN POPULATIONS
-------------------------------------------
   0 Au:    0.100719   -0.162876
   1 Au:   -0.070141   -0.161647
   2 Au:   -0.050483   -0.040173
   3 Au:    0.062335   -0.394130
   4 Au:   -0.050207   -0.039380
   5 Au:   -0.051281   -0.040127
   6 Au:    0.061617   -0.387785
   7 Au:   -0.051332   -0.039738
   8 Au:   -0.066547   -0.164924
   9 Au:    0.100796   -0.156892
  10 Mn:    0.014521    4.587672

  Mayer bond orders larger than 0.100000
B(  0-Au,  1-Au) :   0.4317 B(  0-Au,  2-Au) :   0.2434 B(  0-Au,  4-Au) :   0.2422
B(  1-Au,  2-Au) :   0.1404 B(  1-Au,  3-Au) :   0.3144 B(  1-Au,  4-Au) :   0.1400
B(  1-Au, 10-Mn) :   0.4431 B(  2-Au,  4-Au) :   0.1322 B(  2-Au,  7-Au) :   0.6120
B(  2-Au, 10-Mn) :   0.4432 B(  3-Au,  6-Au) :   0.3536 B(  3-Au, 10-Mn) :   0.4213
B(  4-Au,  5-Au) :   0.6124 B(  4-Au, 10-Mn) :   0.4434 B(  5-Au,  7-Au) :   0.1332
B(  5-Au,  8-Au) :   0.1426 B(  5-Au,  9-Au) :   0.2456 B(  5-Au, 10-Mn) :   0.4458
B(  6-Au,  8-Au) :   0.3040 B(  6-Au, 10-Mn) :   0.4394 B(  7-Au,  8-Au) :   0.1423
B(  7-Au,  9-Au) :   0.2448 B(  7-Au, 10-Mn) :   0.4457 B(  8-Au,  9-Au) :   0.4330
B(  8-Au, 10-Mn) :   0.4378

MP2 TOTAL ENERGY:    -2506.641081818 Eh
FINAL SINGLE POINT ENERGY     -2506.641081817885

DIPOLE MOMENT
-------------
                                X             Y             Z
Electronic contribution:      3.84590      25.86142       3.91609
Nuclear contribution   :     -3.88097     -26.08742      -3.95397
                        -----------------------------------------
Total Dipole Moment    :     -0.03508      -0.22599      -0.03788
                        -----------------------------------------
Magnitude (a.u.)       :      0.23182
Magnitude (Debye)      :      0.58923

Rotational constants in cm-1:     0.002128     0.001389     0.001016
Rotational constants in MHz :    63.790126    41.641656    30.472454

                             ****ORCA TERMINATED NORMALLY****
TOTAL RUN TIME: 0 days 0 hours 18 minutes 22 seconds 528 msec
