                         Program Version 5.0.3 -  RELEASE  -
|  1> !PBE def2-TZVP VERYSLOWCONV
|  2> !KDIIS
|  3>
|  4> %scf
|  5>   AutoTRAHIter 200
|  6>   maxiter 400
|  7> end
|  8>
|  9>
| 10> %pal nprocs 6 end
| 11>
| 12> *xyzfile 0 6 pbe.xyz
| 13>
| 14> $new_job
| 15>
| 16> !PBE def2-TZVP VERYSLOWCONV
| 17> !KDIIS
| 18>
| 19> %scf
| 20>   AutoTRAHIter 200
| 21>   maxiter 400
| 22> end
| 23>
| 24>
| 25> %pal nprocs 6 end
| 26>
| 27> *xyzfile 0 4 pbe.xyz
| 28>
| 29>
| 30>
| 31>
| 32>
| 33>                          ****END OF INPUT****
 Total Charge           Charge          ....    0
 Multiplicity           Mult            ....    6
 Number of Electrons    NEL             ....  215
FINAL SINGLE POINT ENERGY     -2509.043567372032

CARTESIAN COORDINATES (ANGSTROEM)
---------------------------------
  Au     8.281853    7.693476   11.644014
  Au     7.823278    5.385492   10.426492
  Au     9.416817    7.451548    9.089886
  Au     7.348300    3.450184    8.763401
  Au     6.493577    7.822642    9.484179
  Au     6.205781    8.248715    6.919426
  Au     7.035865    3.928219    6.032678
  Au     9.121892    7.874378    6.524669
  Au     7.199918    6.294156    4.974315
  Au     7.468873    8.887958    4.496057
  Mn     7.532459    5.983388    7.726340

 Multiplicity           Mult            ....    4
 Number of Electrons    NEL             ....  215
 Basis Dimension        Dim             ....  445

ORBITAL ENERGIES
----------------
                 SPIN UP ORBITALS
  NO   OCC          E(Eh)            E(eV)
   0   1.0000    -234.213393     -6373.2704
   1   1.0000     -26.909556      -732.2462
   2   1.0000     -23.059916      -627.4922
   3   1.0000     -23.058031      -627.4409
   4   1.0000     -23.056324      -627.3945
   5   1.0000      -4.027424      -109.5918
   6   1.0000      -4.027250      -109.5870
   7   1.0000      -4.025056      -109.5274
   8   1.0000      -4.024698      -109.5176
   9   1.0000      -4.024548      -109.5135
  10   1.0000      -4.024232      -109.5049
  11   1.0000      -4.024187      -109.5037
  12   1.0000      -4.024019      -109.4991
  13   1.0000      -4.018546      -109.3502
  14   1.0000      -4.018357      -109.3451
  15   1.0000      -3.116155       -84.7949
  16   1.0000      -2.247824       -61.1664
  17   1.0000      -2.247638       -61.1613
  18   1.0000      -2.245283       -61.0972
  19   1.0000      -2.245028       -61.0903
  20   1.0000      -2.242545       -61.0228
  21   1.0000      -2.241235       -60.9871
  22   1.0000      -2.240820       -60.9758
  23   1.0000      -2.240200       -60.9589
  24   1.0000      -2.239650       -60.9440
  25   1.0000      -2.239330       -60.9353
  26   1.0000      -2.239316       -60.9349
  27   1.0000      -2.238533       -60.9136
  28   1.0000      -2.238365       -60.9090
  29   1.0000      -2.238016       -60.8995
  30   1.0000      -2.237442       -60.8839
  31   1.0000      -2.237356       -60.8816
  32   1.0000      -2.234776       -60.8114
  33   1.0000      -2.234702       -60.8093
  34   1.0000      -2.234623       -60.8072
  35   1.0000      -2.234427       -60.8019
  36   1.0000      -2.231518       -60.7227
  37   1.0000      -2.231010       -60.7089
  38   1.0000      -2.230706       -60.7006
  39   1.0000      -2.230542       -60.6961
  40   1.0000      -2.230064       -60.6831
  41   1.0000      -2.229795       -60.6758
  42   1.0000      -2.229363       -60.6641
  43   1.0000      -2.229199       -60.6596
  44   1.0000      -2.228692       -60.6458
  45   1.0000      -2.228517       -60.6410
  46   1.0000      -2.023367       -55.0586
  47   1.0000      -2.016859       -54.8815
  48   1.0000      -2.014677       -54.8222
  49   1.0000      -0.410119       -11.1599
  50   1.0000      -0.387194       -10.5361
  51   1.0000      -0.376781       -10.2527
  52   1.0000      -0.369615       -10.0577
  53   1.0000      -0.367295        -9.9946
  54   1.0000      -0.367247        -9.9933
  55   1.0000      -0.358654        -9.7595
  56   1.0000      -0.346313        -9.4237
  57   1.0000      -0.340234        -9.2582
  58   1.0000      -0.337237        -9.1767
  59   1.0000      -0.336098        -9.1457
  60   1.0000      -0.332424        -9.0457
  61   1.0000      -0.329961        -8.9787
  62   1.0000      -0.329935        -8.9780
  63   1.0000      -0.329053        -8.9540
  64   1.0000      -0.325254        -8.8506
  65   1.0000      -0.320594        -8.7238
  66   1.0000      -0.316980        -8.6255
  67   1.0000      -0.311000        -8.4627
  68   1.0000      -0.310019        -8.4361
  69   1.0000      -0.308864        -8.4046
  70   1.0000      -0.305902        -8.3240
  71   1.0000      -0.304284        -8.2800
  72   1.0000      -0.301779        -8.2118
  73   1.0000      -0.298829        -8.1316
  74   1.0000      -0.288261        -7.8440
  75   1.0000      -0.287823        -7.8321
  76   1.0000      -0.287597        -7.8259
  77   1.0000      -0.284318        -7.7367
  78   1.0000      -0.283635        -7.7181
  79   1.0000      -0.280806        -7.6411
  80   1.0000      -0.280717        -7.6387
  81   1.0000      -0.278183        -7.5697
  82   1.0000      -0.276217        -7.5162
  83   1.0000      -0.272776        -7.4226
  84   1.0000      -0.272013        -7.4019
  85   1.0000      -0.270800        -7.3688
  86   1.0000      -0.270227        -7.3533
  87   1.0000      -0.269272        -7.3273
  88   1.0000      -0.267741        -7.2856
  89   1.0000      -0.267619        -7.2823
  90   1.0000      -0.265617        -7.2278
  91   1.0000      -0.262573        -7.1450
  92   1.0000      -0.262445        -7.1415
  93   1.0000      -0.261470        -7.1150
  94   1.0000      -0.257062        -6.9950
  95   1.0000      -0.256260        -6.9732
  96   1.0000      -0.254750        -6.9321
  97   1.0000      -0.252124        -6.8606
  98   1.0000      -0.251502        -6.8437
  99   1.0000      -0.248992        -6.7754
 100   1.0000      -0.246975        -6.7205
 101   1.0000      -0.245185        -6.6718
 102   1.0000      -0.243608        -6.6289
 103   1.0000      -0.241815        -6.5801
 104   1.0000      -0.241343        -6.5673
 105   1.0000      -0.234385        -6.3779
 106   1.0000      -0.232420        -6.3245
 107   1.0000      -0.212815        -5.7910
 108   1.0000      -0.209465        -5.6998
 109   0.0000      -0.206670        -5.6238
 110   0.0000      -0.160347        -4.3633
 111   0.0000      -0.142827        -3.8865
 112   0.0000      -0.128276        -3.4906
 113   0.0000      -0.109153        -2.9702

                 SPIN DOWN ORBITALS
  NO   OCC          E(Eh)            E(eV)
   0   1.0000    -234.212675     -6373.2509
   1   1.0000     -26.844482      -730.4755
   2   1.0000     -23.009943      -626.1324
   3   1.0000     -23.008653      -626.0973
   4   1.0000     -23.007404      -626.0633
   5   1.0000      -4.027318      -109.5889
   6   1.0000      -4.027175      -109.5850
   7   1.0000      -4.025627      -109.5429
   8   1.0000      -4.024789      -109.5201
   9   1.0000      -4.024535      -109.5132
  10   1.0000      -4.024373      -109.5088
  11   1.0000      -4.024052      -109.5000
  12   1.0000      -4.024003      -109.4987
  13   1.0000      -4.019090      -109.3650
  14   1.0000      -4.018882      -109.3593
  15   1.0000      -2.956266       -80.4441
  16   1.0000      -2.248463       -61.1838
  17   1.0000      -2.248229       -61.1774
  18   1.0000      -2.245243       -61.0962
  19   1.0000      -2.244934       -61.0878
  20   1.0000      -2.243073       -61.0371
  21   1.0000      -2.241629       -60.9978
  22   1.0000      -2.240937       -60.9790
  23   1.0000      -2.240109       -60.9565
  24   1.0000      -2.239848       -60.9494
  25   1.0000      -2.239419       -60.9377
  26   1.0000      -2.239074       -60.9283
  27   1.0000      -2.238789       -60.9206
  28   1.0000      -2.238129       -60.9026
  29   1.0000      -2.237967       -60.8982
  30   1.0000      -2.237543       -60.8866
  31   1.0000      -2.237255       -60.8788
  32   1.0000      -2.235454       -60.8298
  33   1.0000      -2.235095       -60.8200
  34   1.0000      -2.234445       -60.8023
  35   1.0000      -2.234392       -60.8009
  36   1.0000      -2.231525       -60.7229
  37   1.0000      -2.230880       -60.7053
  38   1.0000      -2.230669       -60.6996
  39   1.0000      -2.230450       -60.6936
  40   1.0000      -2.230057       -60.6829
  41   1.0000      -2.229855       -60.6774
  42   1.0000      -2.229627       -60.6712
  43   1.0000      -2.229491       -60.6675
  44   1.0000      -2.229275       -60.6617
  45   1.0000      -2.229088       -60.6566
  46   1.0000      -1.864009       -50.7223
  47   1.0000      -1.863355       -50.7045
  48   1.0000      -1.856516       -50.5184
  49   1.0000      -0.407508       -11.0888
  50   1.0000      -0.389268       -10.5925
  51   1.0000      -0.372955       -10.1486
  52   1.0000      -0.368536       -10.0284
  53   1.0000      -0.365635        -9.9494
  54   1.0000      -0.363173        -9.8824
  55   1.0000      -0.355276        -9.6676
  56   1.0000      -0.345712        -9.4073
  57   1.0000      -0.336755        -9.1636
  58   1.0000      -0.335112        -9.1189
  59   1.0000      -0.334611        -9.1052
  60   1.0000      -0.333594        -9.0775
  61   1.0000      -0.329937        -8.9780
  62   1.0000      -0.324334        -8.8256
  63   1.0000      -0.319564        -8.6958
  64   1.0000      -0.317758        -8.6466
  65   1.0000      -0.315607        -8.5881
  66   1.0000      -0.311986        -8.4896
  67   1.0000      -0.308512        -8.3950
  68   1.0000      -0.308420        -8.3925
  69   1.0000      -0.307010        -8.3542
  70   1.0000      -0.305731        -8.3194
  71   1.0000      -0.303569        -8.2605
  72   1.0000      -0.297371        -8.0919
  73   1.0000      -0.296223        -8.0606
  74   1.0000      -0.289911        -7.8889
  75   1.0000      -0.287376        -7.8199
  76   1.0000      -0.286061        -7.7841
  77   1.0000      -0.285079        -7.7574
  78   1.0000      -0.284861        -7.7515
  79   1.0000      -0.282373        -7.6838
  80   1.0000      -0.278572        -7.5803
  81   1.0000      -0.275389        -7.4937
  82   1.0000      -0.274065        -7.4577
  83   1.0000      -0.274038        -7.4570
  84   1.0000      -0.272090        -7.4039
  85   1.0000      -0.270875        -7.3709
  86   1.0000      -0.270336        -7.3562
  87   1.0000      -0.268724        -7.3124
  88   1.0000      -0.267560        -7.2807
  89   1.0000      -0.265343        -7.2203
  90   1.0000      -0.262537        -7.1440
  91   1.0000      -0.261772        -7.1232
  92   1.0000      -0.261580        -7.1180
  93   1.0000      -0.255571        -6.9545
  94   1.0000      -0.254332        -6.9207
  95   1.0000      -0.253320        -6.8932
  96   1.0000      -0.251478        -6.8431
  97   1.0000      -0.247326        -6.7301
  98   1.0000      -0.245346        -6.6762
  99   1.0000      -0.242514        -6.5991
 100   1.0000      -0.238205        -6.4819
 101   1.0000      -0.235500        -6.4083
 102   1.0000      -0.224673        -6.1137
 103   1.0000      -0.221432        -6.0255
 104   1.0000      -0.215693        -5.8693
 105   1.0000      -0.177243        -4.8230
 106   0.0000      -0.157252        -4.2791
 107   0.0000      -0.144883        -3.9425
 108   0.0000      -0.139079        -3.7845
 109   0.0000      -0.137335        -3.7371
 110   0.0000      -0.132115        -3.5950

MULLIKEN ATOMIC CHARGES AND SPIN POPULATIONS
--------------------------------------------
   0 Au:    0.346302   -0.156687
   1 Au:   -0.080037   -0.120874
   2 Au:    0.058182   -0.009589
   3 Au:    0.220966   -0.290170
   4 Au:    0.058074   -0.004641
   5 Au:    0.057817   -0.012092
   6 Au:    0.219596   -0.278586
   7 Au:    0.057283   -0.007401
   8 Au:   -0.070855   -0.127449
   9 Au:    0.341601   -0.153969
  10 Mn:   -1.208929    4.161459
Sum of atomic charges         :   -0.0000000

LOEWDIN ATOMIC CHARGES AND SPIN POPULATIONS
-------------------------------------------
   0 Au:    0.074740   -0.126306
   1 Au:   -0.050304   -0.092749
   2 Au:   -0.004199   -0.020202
   3 Au:    0.084059   -0.274960
   4 Au:   -0.004147   -0.017751
   5 Au:   -0.004473   -0.021301
   6 Au:    0.085136   -0.265441
   7 Au:   -0.004921   -0.019173
   8 Au:   -0.047775   -0.097056
   9 Au:    0.074307   -0.125008
  10 Mn:   -0.202425    4.059949

  Mayer bond orders larger than 0.100000
B(  0-Au,  1-Au) :   0.4578 B(  0-Au,  2-Au) :   0.2803 B(  0-Au,  4-Au) :   0.2790
B(  0-Au,  9-Au) :   0.1096 B(  1-Au,  2-Au) :   0.1644 B(  1-Au,  3-Au) :   0.4263
B(  1-Au,  4-Au) :   0.1636 B(  1-Au, 10-Mn) :   0.5150 B(  2-Au,  4-Au) :   0.1652
B(  2-Au,  7-Au) :   0.6084 B(  2-Au, 10-Mn) :   0.5113 B(  3-Au,  6-Au) :   0.3000
B(  3-Au, 10-Mn) :   0.5185 B(  4-Au,  5-Au) :   0.6087 B(  4-Au, 10-Mn) :   0.5120
B(  5-Au,  7-Au) :   0.1668 B(  5-Au,  8-Au) :   0.1668 B(  5-Au,  9-Au) :   0.2817
B(  5-Au, 10-Mn) :   0.5135 B(  6-Au,  8-Au) :   0.4117 B(  6-Au, 10-Mn) :   0.5359
B(  7-Au,  8-Au) :   0.1660 B(  7-Au,  9-Au) :   0.2810 B(  7-Au, 10-Mn) :   0.5131
B(  8-Au,  9-Au) :   0.4563 B(  8-Au, 10-Mn) :   0.5115

FINAL SINGLE POINT ENERGY     -2509.012269735452

DIPOLE MOMENT
-------------
                                X             Y             Z
Electronic contribution:      3.84947      25.88548       3.92193
Nuclear contribution   :     -3.88097     -26.08742      -3.95397
                        -----------------------------------------
Total Dipole Moment    :     -0.03150      -0.20194      -0.03204
                        -----------------------------------------
Magnitude (a.u.)       :      0.20688
Magnitude (Debye)      :      0.52584

Rotational constants in cm-1:     0.002128     0.001389     0.001016
Rotational constants in MHz :    63.790126    41.641656    30.472454

                             ****ORCA TERMINATED NORMALLY****
TOTAL RUN TIME: 0 days 0 hours 2 minutes 28 seconds 374 msec
