                         Program Version 5.0.3 -  RELEASE  -
|  1> !R2SCAN def2-TZVP VERYSLOWCONV
|  2> !KDIIS
|  3> %scf
|  4>   AutoTRAHIter 200
|  5>   maxiter 400
|  6> end
|  7>
|  8> %pal nprocs 6 end
|  9>
| 10> *xyzfile 0 6 pbe.xyz
| 11>
| 12> $new_job
| 13>
| 14> !R2SCAN def2-TZVP VERYSLOWCONV
| 15> !KDIIS
| 16> %scf
| 17>   AutoTRAHIter 200
| 18>   maxiter 400
| 19> end
| 20>
| 21>
| 22> %pal nprocs 6 end
| 23>
| 24> *xyzfile 0 4 pbe.xyz
| 25>
| 26>
| 27>
| 28>
| 29>
| 30>                          ****END OF INPUT****
 Total Charge           Charge          ....    0
 Multiplicity           Mult            ....    6
 Number of Electrons    NEL             ....  215
FINAL SINGLE POINT ENERGY     -2509.453232285918

CARTESIAN COORDINATES (ANGSTROEM)
---------------------------------
  Au     8.281853    7.693476   11.644014
  Au     7.823278    5.385492   10.426492
  Au     9.416817    7.451548    9.089886
  Au     7.348300    3.450184    8.763401
  Au     6.493577    7.822642    9.484179
  Au     6.205781    8.248715    6.919426
  Au     7.035865    3.928219    6.032678
  Au     9.121892    7.874378    6.524669
  Au     7.199918    6.294156    4.974315
  Au     7.468873    8.887958    4.496057
  Mn     7.532459    5.983388    7.726340

 Multiplicity           Mult            ....    4
 Number of Electrons    NEL             ....  215
 Basis Dimension        Dim             ....  445

ORBITAL ENERGIES
----------------
                 SPIN UP ORBITALS
  NO   OCC          E(Eh)            E(eV)
   0   1.0000    -235.054785     -6396.1659
   1   1.0000     -27.235476      -741.1150
   2   1.0000     -23.283841      -633.5855
   3   1.0000     -23.281826      -633.5307
   4   1.0000     -23.280730      -633.5009
   5   1.0000      -4.118833      -112.0791
   6   1.0000      -4.118783      -112.0778
   7   1.0000      -4.118140      -112.0603
   8   1.0000      -4.117079      -112.0314
   9   1.0000      -4.114873      -111.9714
  10   1.0000      -4.114625      -111.9647
  11   1.0000      -4.114261      -111.9547
  12   1.0000      -4.114165      -111.9521
  13   1.0000      -4.109012      -111.8119
  14   1.0000      -4.108888      -111.8085
  15   1.0000      -3.255821       -88.5954
  16   1.0000      -2.312446       -62.9249
  17   1.0000      -2.312100       -62.9154
  18   1.0000      -2.308506       -62.8176
  19   1.0000      -2.308215       -62.8097
  20   1.0000      -2.307894       -62.8010
  21   1.0000      -2.306350       -62.7590
  22   1.0000      -2.305103       -62.7250
  23   1.0000      -2.304814       -62.7172
  24   1.0000      -2.304265       -62.7022
  25   1.0000      -2.302982       -62.6673
  26   1.0000      -2.302141       -62.6444
  27   1.0000      -2.301837       -62.6362
  28   1.0000      -2.301434       -62.6252
  29   1.0000      -2.301100       -62.6161
  30   1.0000      -2.300515       -62.6002
  31   1.0000      -2.300164       -62.5906
  32   1.0000      -2.298966       -62.5580
  33   1.0000      -2.298683       -62.5503
  34   1.0000      -2.297856       -62.5278
  35   1.0000      -2.297403       -62.5155
  36   1.0000      -2.297347       -62.5140
  37   1.0000      -2.296379       -62.4876
  38   1.0000      -2.294761       -62.4436
  39   1.0000      -2.293948       -62.4215
  40   1.0000      -2.293702       -62.4148
  41   1.0000      -2.292993       -62.3955
  42   1.0000      -2.292612       -62.3851
  43   1.0000      -2.292502       -62.3821
  44   1.0000      -2.291943       -62.3669
  45   1.0000      -2.291831       -62.3639
  46   1.0000      -2.116237       -57.5857
  47   1.0000      -2.110296       -57.4241
  48   1.0000      -2.109116       -57.3920
  49   1.0000      -0.416027       -11.3207
  50   1.0000      -0.392764       -10.6876
  51   1.0000      -0.386424       -10.5151
  52   1.0000      -0.379525       -10.3274
  53   1.0000      -0.378989       -10.3128
  54   1.0000      -0.376260       -10.2385
  55   1.0000      -0.369387       -10.0515
  56   1.0000      -0.357812        -9.7366
  57   1.0000      -0.353294        -9.6136
  58   1.0000      -0.346412        -9.4264
  59   1.0000      -0.346217        -9.4210
  60   1.0000      -0.345263        -9.3951
  61   1.0000      -0.340666        -9.2700
  62   1.0000      -0.340290        -9.2598
  63   1.0000      -0.339691        -9.2435
  64   1.0000      -0.336590        -9.1591
  65   1.0000      -0.332738        -9.0543
  66   1.0000      -0.326551        -8.8859
  67   1.0000      -0.321449        -8.7471
  68   1.0000      -0.320479        -8.7207
  69   1.0000      -0.318432        -8.6650
  70   1.0000      -0.314611        -8.5610
  71   1.0000      -0.314359        -8.5542
  72   1.0000      -0.312575        -8.5056
  73   1.0000      -0.307177        -8.3587
  74   1.0000      -0.299230        -8.1425
  75   1.0000      -0.296937        -8.0801
  76   1.0000      -0.296628        -8.0717
  77   1.0000      -0.293009        -7.9732
  78   1.0000      -0.292816        -7.9679
  79   1.0000      -0.292205        -7.9513
  80   1.0000      -0.288828        -7.8594
  81   1.0000      -0.287776        -7.8308
  82   1.0000      -0.285507        -7.7690
  83   1.0000      -0.283826        -7.7233
  84   1.0000      -0.282674        -7.6920
  85   1.0000      -0.280705        -7.6384
  86   1.0000      -0.280675        -7.6375
  87   1.0000      -0.278745        -7.5850
  88   1.0000      -0.277952        -7.5634
  89   1.0000      -0.276063        -7.5121
  90   1.0000      -0.274044        -7.4571
  91   1.0000      -0.273212        -7.4345
  92   1.0000      -0.272107        -7.4044
  93   1.0000      -0.271070        -7.3762
  94   1.0000      -0.267973        -7.2919
  95   1.0000      -0.266965        -7.2645
  96   1.0000      -0.265599        -7.2273
  97   1.0000      -0.261031        -7.1030
  98   1.0000      -0.259181        -7.0527
  99   1.0000      -0.258322        -7.0293
 100   1.0000      -0.256783        -6.9874
 101   1.0000      -0.253935        -6.9099
 102   1.0000      -0.253450        -6.8967
 103   1.0000      -0.248632        -6.7656
 104   1.0000      -0.247844        -6.7442
 105   1.0000      -0.240592        -6.5468
 106   1.0000      -0.238626        -6.4933
 107   1.0000      -0.215426        -5.8620
 108   1.0000      -0.212808        -5.7908
 109   0.0000      -0.207617        -5.6496
 110   0.0000      -0.155107        -4.2207
 111   0.0000      -0.138695        -3.7741
 112   0.0000      -0.122006        -3.3199
 113   0.0000      -0.102486        -2.7888

                 SPIN DOWN ORBITALS
  NO   OCC          E(Eh)            E(eV)
   0   1.0000    -235.053763     -6396.1381
   1   1.0000     -27.147296      -738.7155
   2   1.0000     -23.215344      -631.7216
   3   1.0000     -23.214467      -631.6978
   4   1.0000     -23.213678      -631.6763
   5   1.0000      -4.119462      -112.0963
   6   1.0000      -4.119011      -112.0840
   7   1.0000      -4.118884      -112.0805
   8   1.0000      -4.118431      -112.0682
   9   1.0000      -4.114745      -111.9679
  10   1.0000      -4.114472      -111.9605
  11   1.0000      -4.114111      -111.9506
  12   1.0000      -4.113984      -111.9472
  13   1.0000      -4.109866      -111.8351
  14   1.0000      -4.109712      -111.8310
  15   1.0000      -3.045044       -82.8599
  16   1.0000      -2.313509       -62.9538
  17   1.0000      -2.313141       -62.9438
  18   1.0000      -2.309743       -62.8513
  19   1.0000      -2.308064       -62.8056
  20   1.0000      -2.307607       -62.7932
  21   1.0000      -2.307501       -62.7903
  22   1.0000      -2.305874       -62.7460
  23   1.0000      -2.304823       -62.7174
  24   1.0000      -2.304075       -62.6971
  25   1.0000      -2.303914       -62.6927
  26   1.0000      -2.301830       -62.6360
  27   1.0000      -2.301345       -62.6228
  28   1.0000      -2.301106       -62.6163
  29   1.0000      -2.300799       -62.6079
  30   1.0000      -2.300348       -62.5957
  31   1.0000      -2.300046       -62.5874
  32   1.0000      -2.298878       -62.5556
  33   1.0000      -2.298811       -62.5538
  34   1.0000      -2.298534       -62.5463
  35   1.0000      -2.298347       -62.5412
  36   1.0000      -2.297356       -62.5142
  37   1.0000      -2.296544       -62.4921
  38   1.0000      -2.294861       -62.4463
  39   1.0000      -2.293964       -62.4219
  40   1.0000      -2.293705       -62.4149
  41   1.0000      -2.293205       -62.4013
  42   1.0000      -2.292991       -62.3954
  43   1.0000      -2.292698       -62.3875
  44   1.0000      -2.292653       -62.3862
  45   1.0000      -2.292531       -62.3829
  46   1.0000      -1.904135       -51.8142
  47   1.0000      -1.903795       -51.8049
  48   1.0000      -1.898753       -51.6677
  49   1.0000      -0.414388       -11.2761
  50   1.0000      -0.396607       -10.7922
  51   1.0000      -0.383124       -10.4253
  52   1.0000      -0.378125       -10.2893
  53   1.0000      -0.373478       -10.1629
  54   1.0000      -0.372292       -10.1306
  55   1.0000      -0.364030        -9.9058
  56   1.0000      -0.357880        -9.7384
  57   1.0000      -0.346887        -9.4393
  58   1.0000      -0.345686        -9.4066
  59   1.0000      -0.344520        -9.3749
  60   1.0000      -0.343055        -9.3350
  61   1.0000      -0.339112        -9.2277
  62   1.0000      -0.332621        -9.0511
  63   1.0000      -0.329080        -8.9547
  64   1.0000      -0.328315        -8.9339
  65   1.0000      -0.325128        -8.8472
  66   1.0000      -0.322461        -8.7746
  67   1.0000      -0.317558        -8.6412
  68   1.0000      -0.317046        -8.6272
  69   1.0000      -0.315644        -8.5891
  70   1.0000      -0.314793        -8.5660
  71   1.0000      -0.313884        -8.5412
  72   1.0000      -0.306439        -8.3386
  73   1.0000      -0.305120        -8.3027
  74   1.0000      -0.298934        -8.1344
  75   1.0000      -0.297015        -8.0822
  76   1.0000      -0.294913        -8.0250
  77   1.0000      -0.294721        -8.0198
  78   1.0000      -0.294015        -8.0006
  79   1.0000      -0.289771        -7.8851
  80   1.0000      -0.288064        -7.8386
  81   1.0000      -0.285432        -7.7670
  82   1.0000      -0.284591        -7.7441
  83   1.0000      -0.283942        -7.7265
  84   1.0000      -0.281382        -7.6568
  85   1.0000      -0.279846        -7.6150
  86   1.0000      -0.277914        -7.5624
  87   1.0000      -0.277143        -7.5414
  88   1.0000      -0.275025        -7.4838
  89   1.0000      -0.273576        -7.4444
  90   1.0000      -0.270385        -7.3576
  91   1.0000      -0.270327        -7.3560
  92   1.0000      -0.270240        -7.3536
  93   1.0000      -0.264156        -7.1881
  94   1.0000      -0.263022        -7.1572
  95   1.0000      -0.261866        -7.1257
  96   1.0000      -0.258631        -7.0377
  97   1.0000      -0.254165        -6.9162
  98   1.0000      -0.252251        -6.8641
  99   1.0000      -0.249999        -6.8028
 100   1.0000      -0.246070        -6.6959
 101   1.0000      -0.241379        -6.5683
 102   1.0000      -0.229992        -6.2584
 103   1.0000      -0.223695        -6.0871
 104   1.0000      -0.218698        -5.9511
 105   1.0000      -0.177388        -4.8270
 106   0.0000      -0.150046        -4.0830
 107   0.0000      -0.135476        -3.6865
 108   0.0000      -0.120272        -3.2728
 109   0.0000      -0.120157        -3.2696
 110   0.0000      -0.114241        -3.1086

MULLIKEN ATOMIC CHARGES AND SPIN POPULATIONS
--------------------------------------------
   0 Au:    0.308409   -0.201402
   1 Au:   -0.102761   -0.137389
   2 Au:    0.056201   -0.013541
   3 Au:    0.226962   -0.344267
   4 Au:    0.054429   -0.003695
   5 Au:    0.055979   -0.016542
   6 Au:    0.224652   -0.331642
   7 Au:    0.053701   -0.006651
   8 Au:   -0.092826   -0.146515
   9 Au:    0.303548   -0.196114
  10 Mn:   -1.088295    4.397759
Sum of atomic charges         :   -0.0000000

LOEWDIN ATOMIC CHARGES AND SPIN POPULATIONS
-------------------------------------------
   0 Au:    0.070597   -0.148588
   1 Au:   -0.055884   -0.116522
   2 Au:   -0.013234   -0.027219
   3 Au:    0.080116   -0.323504
   4 Au:   -0.013639   -0.022970
   5 Au:   -0.013398   -0.028331
   6 Au:    0.080931   -0.313903
   7 Au:   -0.014363   -0.024197
   8 Au:   -0.052804   -0.121527
   9 Au:    0.070120   -0.145944
  10 Mn:   -0.138440    4.272705

  Mayer bond orders larger than 0.100000
B(  0-Au,  1-Au) :   0.4486 B(  0-Au,  2-Au) :   0.2645 B(  0-Au,  4-Au) :   0.2631
B(  0-Au,  9-Au) :   0.1045 B(  1-Au,  2-Au) :   0.1334 B(  1-Au,  3-Au) :   0.3912
B(  1-Au,  4-Au) :   0.1319 B(  1-Au, 10-Mn) :   0.5017 B(  2-Au,  4-Au) :   0.1347
B(  2-Au,  7-Au) :   0.6281 B(  2-Au, 10-Mn) :   0.4852 B(  3-Au,  6-Au) :   0.3107
B(  3-Au, 10-Mn) :   0.4786 B(  4-Au,  5-Au) :   0.6282 B(  4-Au, 10-Mn) :   0.4865
B(  5-Au,  7-Au) :   0.1359 B(  5-Au,  8-Au) :   0.1365 B(  5-Au,  9-Au) :   0.2659
B(  5-Au, 10-Mn) :   0.4872 B(  6-Au,  8-Au) :   0.3772 B(  6-Au, 10-Mn) :   0.4979
B(  7-Au,  8-Au) :   0.1349 B(  7-Au,  9-Au) :   0.2649 B(  7-Au, 10-Mn) :   0.4877
B(  8-Au,  9-Au) :   0.4480 B(  8-Au, 10-Mn) :   0.4973

FINAL SINGLE POINT ENERGY     -2509.416642042237

DIPOLE MOMENT
-------------
                                X             Y             Z
Electronic contribution:      3.84030      25.82804       3.91113
Nuclear contribution   :     -3.88097     -26.08742      -3.95397
                        -----------------------------------------
Total Dipole Moment    :     -0.04067      -0.25938      -0.04284
                        -----------------------------------------
Magnitude (a.u.)       :      0.26602
Magnitude (Debye)      :      0.67617

Rotational constants in cm-1:     0.002128     0.001389     0.001016
Rotational constants in MHz :    63.790126    41.641656    30.472454

                             ****ORCA TERMINATED NORMALLY****
TOTAL RUN TIME: 0 days 0 hours 3 minutes 56 seconds 381 msec
