                         Program Version 5.0.3 -  RELEASE  -
|  1> !CASSCF def2-TZVP def2-TZVP/C
|  2> !MOREAD RIJCOSX
|  3> %maxcore 6000
|  4> %moinp "pbe.qro"
|  5> %pal nprocs 6 end
|  6>
|  7> %casscf
|  8>  mult 6,4
|  9>  bweight 1,1
| 10>  nroots 1,24
| 11>  nel 5
| 12>  norb 5
| 13> end
| 14>
| 15>
| 16> *xyzfile 0 6 pbe.xyz
| 17>
| 18>
| 19>                          ****END OF INPUT****

CARTESIAN COORDINATES (ANGSTROEM)
---------------------------------
  Au     7.553850    8.069317   10.553548
  Au     5.994455    9.970893    9.090443
  Au     8.821568    9.924720    9.137025
  Au     6.281978    5.805841   11.444159
  Au     4.836749    7.463285    9.802049
  Au     9.097764    7.371364    8.102407
  Au     7.729776    5.470403    6.518810
  Au     4.451216    8.749633    5.077740
  Au     3.802784    8.787044    7.744193
  Au     6.479374    7.008604    4.527386
  Au     5.139796    6.485235    6.980795
  Au     7.551486   11.625891    7.362685
  Au     4.978902   11.035154    6.644026
  Au     7.096526    9.556746    5.502119
  Au     9.087445    7.598898    5.283834
  Au     9.668351    9.955571    6.530355
  Mn     6.932899    6.025766    8.905481

 Total Charge           Charge          ....    0
 Multiplicity           Mult            ....    6
 Number of Electrons    NEL             ....  329
 Basis Dimension        Dim             ....  685

ORBITAL ENERGIES
----------------

  NO   OCC          E(Eh)            E(eV)
   0   2.0000    -240.563674     -6546.0704
   1   2.0000     -29.143164      -793.0258
   2   2.0000     -24.847787      -676.1427
   3   2.0000     -24.847416      -676.1326
   4   2.0000     -24.847107      -676.1242
   5   2.0000      -4.731609      -128.7536
   6   2.0000      -4.725985      -128.6006
   7   2.0000      -4.725872      -128.5975
   8   2.0000      -4.720682      -128.4563
   9   2.0000      -4.717717      -128.3756
  10   2.0000      -4.711282      -128.2005
  11   2.0000      -4.711252      -128.1997
  12   2.0000      -4.708844      -128.1342
  13   2.0000      -4.708692      -128.1300
  14   2.0000      -4.708595      -128.1274
  15   2.0000      -4.708245      -128.1179
  16   2.0000      -4.706625      -128.0738
  17   2.0000      -4.706422      -128.0683
  18   2.0000      -4.705194      -128.0348
  19   2.0000      -4.704943      -128.0280
  20   2.0000      -4.699487      -127.8796
  21   2.0000      -3.847428      -104.6938
  22   2.0000      -2.772553       -75.4450
  23   2.0000      -2.766673       -75.2850
  24   2.0000      -2.766408       -75.2778
  25   2.0000      -2.763151       -75.1892
  26   2.0000      -2.761895       -75.1550
  27   2.0000      -2.761366       -75.1406
  28   2.0000      -2.761121       -75.1339
  29   2.0000      -2.759945       -75.1019
  30   2.0000      -2.759465       -75.0889
  31   2.0000      -2.758459       -75.0615
  32   2.0000      -2.758058       -75.0506
  33   2.0000      -2.757246       -75.0285
  34   2.0000      -2.755302       -74.9756
  35   2.0000      -2.755087       -74.9697
  36   2.0000      -2.752168       -74.8903
  37   2.0000      -2.750289       -74.8392
  38   2.0000      -2.749419       -74.8155
  39   2.0000      -2.749354       -74.8137
  40   2.0000      -2.748656       -74.7947
  41   2.0000      -2.748174       -74.7816
  42   2.0000      -2.747842       -74.7726
  43   2.0000      -2.747045       -74.7509
  44   2.0000      -2.745924       -74.7204
  45   2.0000      -2.745731       -74.7151
  46   2.0000      -2.745180       -74.7002
  47   2.0000      -2.745116       -74.6984
  48   2.0000      -2.744671       -74.6863
  49   2.0000      -2.744262       -74.6752
  50   2.0000      -2.743966       -74.6671
  51   2.0000      -2.743422       -74.6523
  52   2.0000      -2.742422       -74.6251
  53   2.0000      -2.742218       -74.6195
  54   2.0000      -2.741930       -74.6117
  55   2.0000      -2.741781       -74.6077
  56   2.0000      -2.741531       -74.6008
  57   2.0000      -2.741122       -74.5897
  58   2.0000      -2.740974       -74.5857
  59   2.0000      -2.740323       -74.5680
  60   2.0000      -2.739716       -74.5515
  61   2.0000      -2.739574       -74.5476
  62   2.0000      -2.739180       -74.5369
  63   2.0000      -2.739082       -74.5342
  64   2.0000      -2.738751       -74.5252
  65   2.0000      -2.738477       -74.5177
  66   2.0000      -2.737097       -74.4802
  67   2.0000      -2.735894       -74.4475
  68   2.0000      -2.735049       -74.4245
  69   2.0000      -2.732537       -74.3561
  70   2.0000      -2.514277       -68.4170
  71   2.0000      -2.513744       -68.4024
  72   2.0000      -2.512966       -68.3813
  73   2.0000      -0.576014       -15.6741
  74   2.0000      -0.559773       -15.2322
  75   2.0000      -0.559509       -15.2250
  76   2.0000      -0.556099       -15.1322
  77   2.0000      -0.555242       -15.1089
  78   2.0000      -0.549544       -14.9539
  79   2.0000      -0.547447       -14.8968
  80   2.0000      -0.544006       -14.8031
  81   2.0000      -0.541424       -14.7329
  82   2.0000      -0.540449       -14.7064
  83   2.0000      -0.540225       -14.7003
  84   2.0000      -0.540102       -14.6969
  85   2.0000      -0.538247       -14.6464
  86   2.0000      -0.537025       -14.6132
  87   2.0000      -0.532810       -14.4985
  88   2.0000      -0.532080       -14.4786
  89   2.0000      -0.531498       -14.4628
  90   2.0000      -0.529879       -14.4187
  91   2.0000      -0.527549       -14.3553
  92   2.0000      -0.526643       -14.3307
  93   2.0000      -0.526052       -14.3146
  94   2.0000      -0.524575       -14.2744
  95   2.0000      -0.524208       -14.2644
  96   2.0000      -0.522399       -14.2152
  97   2.0000      -0.520571       -14.1655
  98   2.0000      -0.516218       -14.0470
  99   2.0000      -0.515274       -14.0213
 100   2.0000      -0.509784       -13.8719
 101   2.0000      -0.509541       -13.8653
 102   2.0000      -0.505269       -13.7491
 103   2.0000      -0.503966       -13.7136
 104   2.0000      -0.498112       -13.5543
 105   2.0000      -0.497440       -13.5360
 106   2.0000      -0.495706       -13.4888
 107   2.0000      -0.495376       -13.4799
 108   2.0000      -0.492489       -13.4013
 109   2.0000      -0.489035       -13.3073
 110   2.0000      -0.485377       -13.2078
 111   2.0000      -0.484421       -13.1818
 112   2.0000      -0.480385       -13.0719
 113   2.0000      -0.477177       -12.9846
 114   2.0000      -0.475416       -12.9367
 115   2.0000      -0.470987       -12.8162
 116   2.0000      -0.470397       -12.8002
 117   2.0000      -0.468679       -12.7534
 118   2.0000      -0.467420       -12.7191
 119   2.0000      -0.467208       -12.7134
 120   2.0000      -0.465482       -12.6664
 121   2.0000      -0.461160       -12.5488
 122   2.0000      -0.460567       -12.5327
 123   2.0000      -0.460083       -12.5195
 124   2.0000      -0.459681       -12.5086
 125   2.0000      -0.454913       -12.3788
 126   2.0000      -0.453606       -12.3433
 127   2.0000      -0.449601       -12.2343
 128   2.0000      -0.447478       -12.1765
 129   2.0000      -0.446870       -12.1599
 130   2.0000      -0.442572       -12.0430
 131   2.0000      -0.442200       -12.0329
 132   2.0000      -0.440433       -11.9848
 133   2.0000      -0.438487       -11.9318
 134   2.0000      -0.436115       -11.8673
 135   2.0000      -0.431648       -11.7457
 136   2.0000      -0.430580       -11.7167
 137   2.0000      -0.429559       -11.6889
 138   2.0000      -0.429434       -11.6855
 139   2.0000      -0.426497       -11.6056
 140   2.0000      -0.426237       -11.5985
 141   2.0000      -0.423690       -11.5292
 142   2.0000      -0.422095       -11.4858
 143   2.0000      -0.419092       -11.4041
 144   2.0000      -0.418512       -11.3883
 145   2.0000      -0.413391       -11.2489
 146   2.0000      -0.411480       -11.1970
 147   2.0000      -0.410916       -11.1816
 148   2.0000      -0.409740       -11.1496
 149   2.0000      -0.407975       -11.1016
 150   2.0000      -0.400666       -10.9027
 151   2.0000      -0.396619       -10.7926
 152   2.0000      -0.395804       -10.7704
 153   2.0000      -0.389954       -10.6112
 154   2.0000      -0.383939       -10.4475
 155   2.0000      -0.364865        -9.9285
 156   2.0000      -0.364801        -9.9267
 157   2.0000      -0.280925        -7.6444
 158   2.0000      -0.255349        -6.9484
 159   2.0000      -0.247499        -6.7348
 160   2.0000      -0.227024        -6.1776
 161   2.0000      -0.216364        -5.8876
 162   1.0000      -0.166337        -4.5263
 163   1.0000      -0.169474        -4.6116
 164   1.0000      -0.161747        -4.4014
 165   1.0000      -0.167537        -4.5589
 166   1.0000      -0.166562        -4.5324
 167   0.0000      -0.048443        -1.3182
 168   0.0000      -0.009811        -0.2670
 169   0.0000      -0.007574        -0.2061
 170   0.0000      -0.002619        -0.0713
 171   0.0000       0.001665         0.0453

MULLIKEN ATOMIC CHARGES AND SPIN DENSITIES
------------------------------------------
   0 Au:   -0.073561    0.007567
   1 Au:   -0.437679    0.001370
   2 Au:    0.087457    0.002116
   3 Au:    0.406643    0.010493
   4 Au:   -0.076855    0.007612
   5 Au:   -0.160576    0.007921
   6 Au:    0.250956    0.011264
   7 Au:    0.262590    0.000976
   8 Au:    0.100478    0.002100
   9 Au:    0.082499    0.001235
  10 Au:   -0.171641    0.007954
  11 Au:    0.230582    0.000672
  12 Au:    0.223886    0.000673
  13 Au:   -0.860476    0.000574
  14 Au:    0.069228    0.001241
  15 Au:    0.269128    0.000942
  16 Mn:   -0.202658    3.935290
Sum of atomic charges       :    0.0000000

LOEWDIN ATOMIC CHARGES AND SPIN DENSITIES
-----------------------------------------
   0 Au:   -0.087832    0.012496
   1 Au:   -0.107421    0.001421
   2 Au:   -0.041235    0.001865
   3 Au:    0.176624    0.015580
   4 Au:   -0.087477    0.012599
   5 Au:   -0.086972    0.013757
   6 Au:   -0.023690    0.015980
   7 Au:    0.046297    0.001406
   8 Au:   -0.039067    0.001855
   9 Au:   -0.007898    0.001604
  10 Au:   -0.088919    0.013792
  11 Au:    0.049741    0.000881
  12 Au:    0.048557    0.000885
  13 Au:   -0.108603    0.000804
  14 Au:   -0.011335    0.001606
  15 Au:    0.049875    0.001377
  16 Mn:    0.319353    3.902090

  Mayer bond orders larger than 0.100000
B(  0-Au,  1-Au) :   0.2976 B(  0-Au,  2-Au) :   0.4047 B(  0-Au,  3-Au) :   0.2940
B(  0-Au,  4-Au) :   0.1723 B(  0-Au,  5-Au) :   0.1596 B(  0-Au, 16-Mn) :   0.3612
B(  1-Au,  2-Au) :   0.1927 B(  1-Au,  4-Au) :   0.3053 B(  1-Au,  8-Au) :   0.1915
B(  1-Au, 11-Au) :   0.2211 B(  1-Au, 12-Au) :   0.2217 B(  2-Au,  5-Au) :   0.2571
B(  2-Au, 11-Au) :   0.2042 B(  2-Au, 15-Au) :   0.2328 B(  3-Au,  4-Au) :   0.2945
B(  3-Au, 16-Mn) :   0.4637 B(  4-Au,  8-Au) :   0.4016 B(  4-Au, 10-Au) :   0.1520
B(  4-Au, 16-Mn) :   0.3627 B(  5-Au,  6-Au) :   0.1585 B(  5-Au, 14-Au) :   0.2450
B(  5-Au, 15-Au) :   0.1399 B(  5-Au, 16-Mn) :   0.4198 B(  6-Au,  9-Au) :   0.1828
B(  6-Au, 10-Au) :   0.1629 B(  6-Au, 14-Au) :   0.1839 B(  6-Au, 16-Mn) :   0.4690
B(  7-Au,  8-Au) :   0.2311 B(  7-Au,  9-Au) :   0.2741 B(  7-Au, 10-Au) :   0.1530
B(  7-Au, 12-Au) :   0.1983 B(  7-Au, 13-Au) :   0.3554 B(  8-Au, 10-Au) :   0.2597
B(  8-Au, 12-Au) :   0.2054 B(  9-Au, 10-Au) :   0.2375 B(  9-Au, 13-Au) :   0.4043
B(  9-Au, 14-Au) :   0.2750 B( 10-Au, 16-Mn) :   0.4216 B( 11-Au, 12-Au) :   0.2839
B( 11-Au, 13-Au) :   0.3573 B( 11-Au, 15-Au) :   0.1950 B( 12-Au, 13-Au) :   0.3556
B( 13-Au, 14-Au) :   0.4046 B( 13-Au, 15-Au) :   0.3550 B( 14-Au, 15-Au) :   0.2759

FINAL SINGLE POINT ENERGY     -3306.815850331513

DIPOLE MOMENT
-------------
                                X             Y             Z
Electronic contribution:     -5.44622      87.35680     -50.00604
Nuclear contribution   :      5.38419     -87.96850      50.73733
                        -----------------------------------------
Total Dipole Moment    :     -0.06203      -0.61171       0.73129
                        -----------------------------------------
Magnitude (a.u.)       :      0.95541
Magnitude (Debye)      :      2.42847

Rotational constants in cm-1:     0.000876     0.000748     0.000731
Rotational constants in MHz :    26.268852    22.437778    21.909043

                             ****ORCA TERMINATED NORMALLY****
TOTAL RUN TIME: 0 days 0 hours 46 minutes 28 seconds 156 msec
