                         Program Version 5.0.3 -  RELEASE  -
|  1> !RI-B2PLYP def2-TZVP def2-TZVP/C
|  2> !RIJCOSX VERYSLOWCONV
|  3>
|  4> %scf
|  5>   AutoTRAHIter 200
|  6>   maxiter 400
|  7> end
|  8>
|  9>
| 10> %pal nprocs 6 end
| 11>
| 12> *xyzfile 0 6 pbe.xyz
| 13>
| 14> $new_job
| 15>
| 16> !RI-B2PLYP def2-TZVP def2-TZVP/C
| 17> !RIJCOSX VERYSLOWCONV
| 18>
| 19> %scf
| 20>   AutoTRAHIter 200
| 21>   maxiter 400
| 22> end
| 23>
| 24>
| 25> %pal nprocs 6 end
| 26>
| 27> *xyzfile 0 4 pbe.xyz
| 28>
| 29>
| 30>
| 31>
| 32>
| 33>                          ****END OF INPUT****
 Total Charge           Charge          ....    0
 Multiplicity           Mult            ....    6
 Number of Electrons    NEL             ....  253
MP2 TOTAL ENERGY:    -2777.876279898 Eh
FINAL SINGLE POINT ENERGY     -2777.876279897815

CARTESIAN COORDINATES (ANGSTROEM)
---------------------------------
  Au     8.363377   12.459108    9.178007
  Au     6.120781   11.454071    7.904882
  Au    10.118677   10.383272    9.996894
  Au     8.879110   10.455719    7.348401
  Au     4.372470    9.733273    6.773519
  Au     7.337697   10.006254   10.019089
  Au     6.150958    7.608004    9.823914
  Au     4.778887    7.071315    7.286099
  Au     9.235765    7.886203    6.909479
  Au     9.030549    7.850191    9.763662
  Au     7.180608    5.985305    7.772348
  Au     9.764492    5.578540    8.395821
  Mn     6.767799    8.825712    7.500948

 Multiplicity           Mult            ....    4
 Number of Electrons    NEL             ....  253
 Basis Dimension        Dim             ....  525

ORBITAL ENERGIES
----------------
                 SPIN UP ORBITALS
  NO   OCC          E(Eh)            E(eV)
   0   1.0000    -237.624812     -6466.0999
   1   1.0000     -28.128870      -765.4255
   2   1.0000     -24.047192      -654.3574
   3   1.0000     -24.046157      -654.3292
   4   1.0000     -24.045863      -654.3212
   5   1.0000      -4.403602      -119.8281
   6   1.0000      -4.402593      -119.8006
   7   1.0000      -4.401527      -119.7716
   8   1.0000      -4.398791      -119.6972
   9   1.0000      -4.397927      -119.6737
  10   1.0000      -4.395308      -119.6024
  11   1.0000      -4.395043      -119.5952
  12   1.0000      -4.394579      -119.5826
  13   1.0000      -4.394497      -119.5803
  14   1.0000      -4.394103      -119.5696
  15   1.0000      -4.391046      -119.4864
  16   1.0000      -4.386282      -119.3568
  17   1.0000      -3.607460       -98.1640
  18   1.0000      -2.525571       -68.7243
  19   1.0000      -2.525199       -68.7142
  20   1.0000      -2.521731       -68.6198
  21   1.0000      -2.521656       -68.6177
  22   1.0000      -2.520951       -68.5986
  23   1.0000      -2.520748       -68.5930
  24   1.0000      -2.518968       -68.5446
  25   1.0000      -2.518468       -68.5310
  26   1.0000      -2.517952       -68.5170
  27   1.0000      -2.517735       -68.5110
  28   1.0000      -2.516725       -68.4836
  29   1.0000      -2.515848       -68.4597
  30   1.0000      -2.515550       -68.4516
  31   1.0000      -2.515415       -68.4479
  32   1.0000      -2.515213       -68.4424
  33   1.0000      -2.514523       -68.4237
  34   1.0000      -2.514226       -68.4156
  35   1.0000      -2.513669       -68.4004
  36   1.0000      -2.512929       -68.3803
  37   1.0000      -2.512539       -68.3697
  38   1.0000      -2.511974       -68.3543
  39   1.0000      -2.511806       -68.3497
  40   1.0000      -2.511554       -68.3429
  41   1.0000      -2.510979       -68.3272
  42   1.0000      -2.510411       -68.3118
  43   1.0000      -2.510084       -68.3028
  44   1.0000      -2.509638       -68.2907
  45   1.0000      -2.508081       -68.2483
  46   1.0000      -2.507870       -68.2426
  47   1.0000      -2.507469       -68.2317
  48   1.0000      -2.507215       -68.2248
  49   1.0000      -2.506659       -68.2097
  50   1.0000      -2.504988       -68.1642
  51   1.0000      -2.504874       -68.1611
  52   1.0000      -2.502209       -68.0886
  53   1.0000      -2.500167       -68.0330
  54   1.0000      -2.409450       -65.5645
  55   1.0000      -2.408596       -65.5412
  56   1.0000      -2.407865       -65.5213
  57   1.0000      -0.516674       -14.0594
  58   1.0000      -0.514412       -13.9979
  59   1.0000      -0.510619       -13.8946
  60   1.0000      -0.507081       -13.7984
  61   1.0000      -0.504479       -13.7276
  62   1.0000      -0.486304       -13.2330
  63   1.0000      -0.474911       -12.9230
  64   1.0000      -0.468924       -12.7601
  65   1.0000      -0.463295       -12.6069
  66   1.0000      -0.461624       -12.5614
  67   1.0000      -0.458970       -12.4892
  68   1.0000      -0.457993       -12.4626
  69   1.0000      -0.451092       -12.2748
  70   1.0000      -0.445102       -12.1119
  71   1.0000      -0.444324       -12.0907
  72   1.0000      -0.441374       -12.0104
  73   1.0000      -0.440774       -11.9941
  74   1.0000      -0.438915       -11.9435
  75   1.0000      -0.434562       -11.8250
  76   1.0000      -0.432627       -11.7724
  77   1.0000      -0.431071       -11.7300
  78   1.0000      -0.426927       -11.6173
  79   1.0000      -0.423606       -11.5269
  80   1.0000      -0.420833       -11.4515
  81   1.0000      -0.416686       -11.3386
  82   1.0000      -0.415977       -11.3193
  83   1.0000      -0.410100       -11.1594
  84   1.0000      -0.409059       -11.1311
  85   1.0000      -0.406459       -11.0603
  86   1.0000      -0.402797       -10.9607
  87   1.0000      -0.398564       -10.8455
  88   1.0000      -0.397791       -10.8244
  89   1.0000      -0.395087       -10.7509
  90   1.0000      -0.390100       -10.6152
  91   1.0000      -0.387888       -10.5550
  92   1.0000      -0.387173       -10.5355
  93   1.0000      -0.384415       -10.4605
  94   1.0000      -0.382053       -10.3962
  95   1.0000      -0.381332       -10.3766
  96   1.0000      -0.377967       -10.2850
  97   1.0000      -0.376273       -10.2389
  98   1.0000      -0.374152       -10.1812
  99   1.0000      -0.373759       -10.1705
 100   1.0000      -0.372377       -10.1329
 101   1.0000      -0.370052       -10.0696
 102   1.0000      -0.369865       -10.0645
 103   1.0000      -0.367923       -10.0117
 104   1.0000      -0.366827        -9.9819
 105   1.0000      -0.364278        -9.9125
 106   1.0000      -0.363774        -9.8988
 107   1.0000      -0.361667        -9.8415
 108   1.0000      -0.359510        -9.7828
 109   1.0000      -0.356357        -9.6970
 110   1.0000      -0.354756        -9.6534
 111   1.0000      -0.352305        -9.5867
 112   1.0000      -0.350851        -9.5471
 113   1.0000      -0.348832        -9.4922
 114   1.0000      -0.348270        -9.4769
 115   1.0000      -0.345838        -9.4107
 116   1.0000      -0.343931        -9.3588
 117   1.0000      -0.340832        -9.2745
 118   1.0000      -0.336871        -9.1667
 119   1.0000      -0.332979        -9.0608
 120   1.0000      -0.326501        -8.8845
 121   1.0000      -0.324199        -8.8219
 122   1.0000      -0.320050        -8.7090
 123   1.0000      -0.318366        -8.6632
 124   1.0000      -0.308244        -8.3877
 125   1.0000      -0.261782        -7.1234
 126   1.0000      -0.235659        -6.4126
 127   1.0000      -0.231074        -6.2878
 128   0.0000      -0.140095        -3.8122
 129   0.0000      -0.082924        -2.2565
 130   0.0000      -0.076603        -2.0845
 131   0.0000      -0.062682        -1.7057
 132   0.0000      -0.058804        -1.6001

                 SPIN DOWN ORBITALS
  NO   OCC          E(Eh)            E(eV)
   0   1.0000    -237.622733     -6466.0433
   1   1.0000     -28.027319      -762.6621
   2   1.0000     -23.953581      -651.8101
   3   1.0000     -23.953044      -651.7955
   4   1.0000     -23.952939      -651.7926
   5   1.0000      -4.405037      -119.8671
   6   1.0000      -4.402290      -119.7924
   7   1.0000      -4.401367      -119.7673
   8   1.0000      -4.398697      -119.6946
   9   1.0000      -4.398584      -119.6916
  10   1.0000      -4.396091      -119.6237
  11   1.0000      -4.395897      -119.6184
  12   1.0000      -4.395356      -119.6037
  13   1.0000      -4.395037      -119.5950
  14   1.0000      -4.394615      -119.5835
  15   1.0000      -4.392639      -119.5298
  16   1.0000      -4.387083      -119.3786
  17   1.0000      -3.321723       -90.3887
  18   1.0000      -2.525415       -68.7200
  19   1.0000      -2.524366       -68.6915
  20   1.0000      -2.522941       -68.6527
  21   1.0000      -2.520781       -68.5939
  22   1.0000      -2.520271       -68.5801
  23   1.0000      -2.519920       -68.5705
  24   1.0000      -2.519088       -68.5479
  25   1.0000      -2.518346       -68.5277
  26   1.0000      -2.517977       -68.5176
  27   1.0000      -2.517566       -68.5065
  28   1.0000      -2.517145       -68.4950
  29   1.0000      -2.516335       -68.4729
  30   1.0000      -2.515964       -68.4629
  31   1.0000      -2.515204       -68.4422
  32   1.0000      -2.514863       -68.4329
  33   1.0000      -2.514516       -68.4235
  34   1.0000      -2.514073       -68.4114
  35   1.0000      -2.513892       -68.4065
  36   1.0000      -2.513194       -68.3875
  37   1.0000      -2.512470       -68.3678
  38   1.0000      -2.512254       -68.3619
  39   1.0000      -2.512099       -68.3577
  40   1.0000      -2.511863       -68.3513
  41   1.0000      -2.511466       -68.3405
  42   1.0000      -2.511210       -68.3335
  43   1.0000      -2.511110       -68.3308
  44   1.0000      -2.510247       -68.3073
  45   1.0000      -2.509188       -68.2785
  46   1.0000      -2.508678       -68.2646
  47   1.0000      -2.507699       -68.2379
  48   1.0000      -2.507507       -68.2327
  49   1.0000      -2.506924       -68.2169
  50   1.0000      -2.506596       -68.2080
  51   1.0000      -2.505948       -68.1903
  52   1.0000      -2.503132       -68.1137
  53   1.0000      -2.501197       -68.0610
  54   1.0000      -2.082201       -56.6596
  55   1.0000      -2.081882       -56.6509
  56   1.0000      -2.080678       -56.6181
  57   1.0000      -0.492416       -13.3993
  58   1.0000      -0.477953       -13.0058
  59   1.0000      -0.471751       -12.8370
  60   1.0000      -0.471041       -12.8177
  61   1.0000      -0.468342       -12.7442
  62   1.0000      -0.464782       -12.6474
  63   1.0000      -0.463554       -12.6139
  64   1.0000      -0.458223       -12.4689
  65   1.0000      -0.452882       -12.3235
  66   1.0000      -0.451680       -12.2908
  67   1.0000      -0.450077       -12.2472
  68   1.0000      -0.444791       -12.1034
  69   1.0000      -0.443044       -12.0558
  70   1.0000      -0.441478       -12.0132
  71   1.0000      -0.435672       -11.8552
  72   1.0000      -0.433347       -11.7920
  73   1.0000      -0.431437       -11.7400
  74   1.0000      -0.427299       -11.6274
  75   1.0000      -0.424859       -11.5610
  76   1.0000      -0.422069       -11.4851
  77   1.0000      -0.420060       -11.4304
  78   1.0000      -0.418089       -11.3768
  79   1.0000      -0.416759       -11.3406
  80   1.0000      -0.414396       -11.2763
  81   1.0000      -0.414065       -11.2673
  82   1.0000      -0.407382       -11.0854
  83   1.0000      -0.405825       -11.0431
  84   1.0000      -0.401625       -10.9288
  85   1.0000      -0.396963       -10.8019
  86   1.0000      -0.393419       -10.7055
  87   1.0000      -0.391330       -10.6486
  88   1.0000      -0.388247       -10.5647
  89   1.0000      -0.385968       -10.5027
  90   1.0000      -0.384723       -10.4689
  91   1.0000      -0.382981       -10.4215
  92   1.0000      -0.380291       -10.3482
  93   1.0000      -0.378383       -10.2963
  94   1.0000      -0.376857       -10.2548
  95   1.0000      -0.373980       -10.1765
  96   1.0000      -0.373558       -10.1650
  97   1.0000      -0.372478       -10.1357
  98   1.0000      -0.370384       -10.0787
  99   1.0000      -0.368705       -10.0330
 100   1.0000      -0.367502       -10.0003
 101   1.0000      -0.366133        -9.9630
 102   1.0000      -0.364477        -9.9179
 103   1.0000      -0.361993        -9.8503
 104   1.0000      -0.359613        -9.7856
 105   1.0000      -0.356502        -9.7009
 106   1.0000      -0.355528        -9.6744
 107   1.0000      -0.354514        -9.6468
 108   1.0000      -0.352895        -9.6028
 109   1.0000      -0.350040        -9.5251
 110   1.0000      -0.349504        -9.5105
 111   1.0000      -0.347666        -9.4605
 112   1.0000      -0.345964        -9.4142
 113   1.0000      -0.340649        -9.2695
 114   1.0000      -0.336232        -9.1494
 115   1.0000      -0.331889        -9.0312
 116   1.0000      -0.330034        -8.9807
 117   1.0000      -0.323753        -8.8098
 118   1.0000      -0.321858        -8.7582
 119   1.0000      -0.318449        -8.6654
 120   1.0000      -0.280471        -7.6320
 121   1.0000      -0.246128        -6.6975
 122   1.0000      -0.240764        -6.5515
 123   1.0000      -0.232952        -6.3389
 124   1.0000      -0.168995        -4.5986
 125   0.0000      -0.095499        -2.5987
 126   0.0000      -0.081930        -2.2294
 127   0.0000      -0.065788        -1.7902
 128   0.0000      -0.061213        -1.6657
 129   0.0000      -0.043643        -1.1876

MULLIKEN ATOMIC CHARGES AND SPIN POPULATIONS
--------------------------------------------
   0 Au:    0.354817   -0.009357
   1 Au:    0.014197   -0.118014
   2 Au:    0.299582   -0.405391
   3 Au:   -0.138593   -0.120759
   4 Au:    0.191885   -0.222869
   5 Au:   -0.356894   -0.297299
   6 Au:    0.297828   -0.116808
   7 Au:    0.198813   -0.112039
   8 Au:    0.095910   -0.146657
   9 Au:   -0.382098   -0.166589
  10 Au:   -0.054928   -0.014734
  11 Au:    0.376505    0.001914
  12 Mn:   -0.897024    4.728602
Sum of atomic charges         :   -0.0000000

LOEWDIN ATOMIC CHARGES AND SPIN POPULATIONS
-------------------------------------------
   0 Au:    0.067094   -0.128065
   1 Au:   -0.043923   -0.125758
   2 Au:    0.106287   -0.281755
   3 Au:   -0.062534   -0.123240
   4 Au:    0.079503   -0.165477
   5 Au:   -0.125929   -0.204005
   6 Au:    0.072209   -0.090555
   7 Au:    0.060549   -0.124424
   8 Au:   -0.022862   -0.097110
   9 Au:   -0.117141   -0.159392
  10 Au:   -0.093430   -0.053346
  11 Au:    0.116841   -0.050894
  12 Mn:   -0.036664    4.604023

  Mayer bond orders larger than 0.100000
B(  0-Au,  1-Au) :   0.2871 B(  0-Au,  2-Au) :   0.1842 B(  0-Au,  3-Au) :   0.2465
B(  0-Au,  5-Au) :   0.3549 B(  1-Au,  3-Au) :   0.1532 B(  1-Au,  4-Au) :   0.4152
B(  1-Au,  5-Au) :   0.1315 B(  1-Au, 12-Mn) :   0.4153 B(  2-Au,  3-Au) :   0.1915
B(  2-Au,  5-Au) :   0.1947 B(  2-Au,  9-Au) :   0.3619 B(  3-Au,  5-Au) :   0.1325
B(  3-Au,  8-Au) :   0.3778 B(  3-Au,  9-Au) :   0.1185 B(  3-Au, 12-Mn) :   0.5112
B(  4-Au,  7-Au) :   0.1838 B(  4-Au, 12-Mn) :   0.4788 B(  5-Au,  6-Au) :   0.3406
B(  5-Au,  9-Au) :   0.2810 B(  5-Au, 12-Mn) :   0.3690 B(  6-Au,  7-Au) :   0.1186
B(  6-Au,  9-Au) :   0.2606 B(  6-Au, 10-Au) :   0.1745 B(  6-Au, 12-Mn) :   0.3672
B(  7-Au, 10-Au) :   0.4379 B(  7-Au, 12-Mn) :   0.4805 B(  8-Au,  9-Au) :   0.1557
B(  8-Au, 10-Au) :   0.1539 B(  8-Au, 11-Au) :   0.2411 B(  8-Au, 12-Mn) :   0.5460
B(  9-Au, 10-Au) :   0.1988 B(  9-Au, 11-Au) :   0.3309 B(  9-Au, 12-Mn) :   0.1792
B( 10-Au, 11-Au) :   0.4363 B( 10-Au, 12-Mn) :   0.2961

MP2 TOTAL ENERGY:    -2777.829926561 Eh
FINAL SINGLE POINT ENERGY     -2777.829926561226

DIPOLE MOMENT
-------------
                                X             Y             Z
Electronic contribution:     30.66436       1.62021      34.01027
Nuclear contribution   :    -30.68193      -1.70608     -33.83800
                        -----------------------------------------
Total Dipole Moment    :     -0.01757      -0.08587       0.17226
                        -----------------------------------------
Magnitude (a.u.)       :      0.19328
Magnitude (Debye)      :      0.49128

Rotational constants in cm-1:     0.001474     0.001283     0.000877
Rotational constants in MHz :    44.192498    38.467843    26.276889

                             ****ORCA TERMINATED NORMALLY****
TOTAL RUN TIME: 0 days 1 hours 2 minutes 14 seconds 364 msec
