                         Program Version 5.0.3 -  RELEASE  -
|  1> !PBE def2-TZVP VERYSLOWCONV
|  2> !KDIIS
|  3>
|  4> %scf
|  5>   AutoTRAHIter 200
|  6>   maxiter 400
|  7> end
|  8>
|  9>
| 10> %pal nprocs 6 end
| 11>
| 12> *xyzfile 0 6 pbe.xyz
| 13>
| 14> $new_job
| 15>
| 16> !PBE def2-TZVP VERYSLOWCONV
| 17> !KDIIS
| 18>
| 19> %scf
| 20>   AutoTRAHIter 200
| 21>   maxiter 400
| 22> end
| 23>
| 24>
| 25> %pal nprocs 6 end
| 26>
| 27> *xyzfile 0 4 pbe.xyz
| 28>
| 29>
| 30>
| 31>
| 32>
| 33>                          ****END OF INPUT****
 Total Charge           Charge          ....    0
 Multiplicity           Mult            ....    6
 Number of Electrons    NEL             ....  253
FINAL SINGLE POINT ENERGY     -2780.705100584658

CARTESIAN COORDINATES (ANGSTROEM)
---------------------------------
  Au     8.363377   12.459108    9.178007
  Au     6.120781   11.454071    7.904882
  Au    10.118677   10.383272    9.996894
  Au     8.879110   10.455719    7.348401
  Au     4.372470    9.733273    6.773519
  Au     7.337697   10.006254   10.019089
  Au     6.150958    7.608004    9.823914
  Au     4.778887    7.071315    7.286099
  Au     9.235765    7.886203    6.909479
  Au     9.030549    7.850191    9.763662
  Au     7.180608    5.985305    7.772348
  Au     9.764492    5.578540    8.395821
  Mn     6.767799    8.825712    7.500948

 Multiplicity           Mult            ....    4
 Number of Electrons    NEL             ....  253
 Basis Dimension        Dim             ....  525

ORBITAL ENERGIES
----------------
                 SPIN UP ORBITALS
  NO   OCC          E(Eh)            E(eV)
   0   1.0000    -234.197367     -6372.8343
   1   1.0000     -26.892058      -731.7701
   2   1.0000     -23.042629      -627.0218
   3   1.0000     -23.040648      -626.9679
   4   1.0000     -23.038485      -626.9090
   5   1.0000      -4.035710      -109.8172
   6   1.0000      -4.028819      -109.6297
   7   1.0000      -4.028745      -109.6277
   8   1.0000      -4.028028      -109.6082
   9   1.0000      -4.027821      -109.6026
  10   1.0000      -4.026269      -109.5603
  11   1.0000      -4.025601      -109.5422
  12   1.0000      -4.024121      -109.5019
  13   1.0000      -4.021093      -109.4195
  14   1.0000      -4.020496      -109.4032
  15   1.0000      -4.018764      -109.3561
  16   1.0000      -4.016675      -109.2993
  17   1.0000      -3.101573       -84.3981
  18   1.0000      -2.252455       -61.2924
  19   1.0000      -2.248955       -61.1972
  20   1.0000      -2.248825       -61.1936
  21   1.0000      -2.247592       -61.1601
  22   1.0000      -2.244712       -61.0817
  23   1.0000      -2.244186       -61.0674
  24   1.0000      -2.243240       -61.0417
  25   1.0000      -2.243012       -61.0355
  26   1.0000      -2.242676       -61.0263
  27   1.0000      -2.242451       -61.0202
  28   1.0000      -2.242077       -61.0100
  29   1.0000      -2.241333       -60.9898
  30   1.0000      -2.240727       -60.9733
  31   1.0000      -2.239745       -60.9466
  32   1.0000      -2.238902       -60.9236
  33   1.0000      -2.238128       -60.9025
  34   1.0000      -2.238046       -60.9003
  35   1.0000      -2.237605       -60.8883
  36   1.0000      -2.237423       -60.8834
  37   1.0000      -2.237321       -60.8806
  38   1.0000      -2.236426       -60.8562
  39   1.0000      -2.235919       -60.8425
  40   1.0000      -2.235518       -60.8315
  41   1.0000      -2.235359       -60.8272
  42   1.0000      -2.234805       -60.8121
  43   1.0000      -2.234615       -60.8070
  44   1.0000      -2.234117       -60.7934
  45   1.0000      -2.233832       -60.7856
  46   1.0000      -2.231607       -60.7251
  47   1.0000      -2.230950       -60.7072
  48   1.0000      -2.230900       -60.7059
  49   1.0000      -2.230509       -60.6952
  50   1.0000      -2.230116       -60.6845
  51   1.0000      -2.228138       -60.6307
  52   1.0000      -2.227349       -60.6092
  53   1.0000      -2.227149       -60.6038
  54   1.0000      -2.009292       -54.6756
  55   1.0000      -2.003597       -54.5206
  56   1.0000      -1.999790       -54.4171
  57   1.0000      -0.419358       -11.4113
  58   1.0000      -0.389899       -10.6097
  59   1.0000      -0.379386       -10.3236
  60   1.0000      -0.375558       -10.2195
  61   1.0000      -0.373511       -10.1637
  62   1.0000      -0.365968        -9.9585
  63   1.0000      -0.363912        -9.9026
  64   1.0000      -0.357475        -9.7274
  65   1.0000      -0.355613        -9.6767
  66   1.0000      -0.353240        -9.6122
  67   1.0000      -0.350368        -9.5340
  68   1.0000      -0.346785        -9.4365
  69   1.0000      -0.340821        -9.2742
  70   1.0000      -0.338238        -9.2039
  71   1.0000      -0.334873        -9.1124
  72   1.0000      -0.332955        -9.0602
  73   1.0000      -0.330248        -8.9865
  74   1.0000      -0.330065        -8.9815
  75   1.0000      -0.326458        -8.8834
  76   1.0000      -0.323375        -8.7995
  77   1.0000      -0.321417        -8.7462
  78   1.0000      -0.320498        -8.7212
  79   1.0000      -0.318758        -8.6739
  80   1.0000      -0.316361        -8.6086
  81   1.0000      -0.315006        -8.5717
  82   1.0000      -0.309386        -8.4188
  83   1.0000      -0.307013        -8.3542
  84   1.0000      -0.305219        -8.3054
  85   1.0000      -0.299750        -8.1566
  86   1.0000      -0.299298        -8.1443
  87   1.0000      -0.295381        -8.0377
  88   1.0000      -0.290112        -7.8943
  89   1.0000      -0.288835        -7.8596
  90   1.0000      -0.286756        -7.8030
  91   1.0000      -0.285358        -7.7650
  92   1.0000      -0.284529        -7.7424
  93   1.0000      -0.283668        -7.7190
  94   1.0000      -0.280808        -7.6412
  95   1.0000      -0.280178        -7.6240
  96   1.0000      -0.276612        -7.5270
  97   1.0000      -0.274699        -7.4749
  98   1.0000      -0.274163        -7.4604
  99   1.0000      -0.273263        -7.4359
 100   1.0000      -0.270603        -7.3635
 101   1.0000      -0.270143        -7.3510
 102   1.0000      -0.268932        -7.3180
 103   1.0000      -0.268394        -7.3034
 104   1.0000      -0.266583        -7.2541
 105   1.0000      -0.264015        -7.1842
 106   1.0000      -0.262018        -7.1299
 107   1.0000      -0.261613        -7.1188
 108   1.0000      -0.258150        -7.0246
 109   1.0000      -0.257696        -7.0123
 110   1.0000      -0.255703        -6.9580
 111   1.0000      -0.254618        -6.9285
 112   1.0000      -0.253290        -6.8924
 113   1.0000      -0.250951        -6.8287
 114   1.0000      -0.249746        -6.7959
 115   1.0000      -0.249395        -6.7864
 116   1.0000      -0.248071        -6.7504
 117   1.0000      -0.246183        -6.6990
 118   1.0000      -0.244367        -6.6496
 119   1.0000      -0.242233        -6.5915
 120   1.0000      -0.241346        -6.5674
 121   1.0000      -0.240907        -6.5554
 122   1.0000      -0.236874        -6.4457
 123   1.0000      -0.235156        -6.3989
 124   1.0000      -0.234000        -6.3675
 125   1.0000      -0.223044        -6.0693
 126   1.0000      -0.209100        -5.6899
 127   1.0000      -0.207124        -5.6361
 128   0.0000      -0.198625        -5.4048
 129   0.0000      -0.148764        -4.0481
 130   0.0000      -0.147050        -4.0014
 131   0.0000      -0.134541        -3.6611
 132   0.0000      -0.126472        -3.4415

                 SPIN DOWN ORBITALS
  NO   OCC          E(Eh)            E(eV)
   0   1.0000    -234.196662     -6372.8152
   1   1.0000     -26.826568      -729.9880
   2   1.0000     -22.992180      -625.6490
   3   1.0000     -22.990845      -625.6127
   4   1.0000     -22.989553      -625.5775
   5   1.0000      -4.035947      -109.8237
   6   1.0000      -4.029140      -109.6385
   7   1.0000      -4.028274      -109.6149
   8   1.0000      -4.027990      -109.6072
   9   1.0000      -4.027418      -109.5916
  10   1.0000      -4.026694      -109.5719
  11   1.0000      -4.026001      -109.5531
  12   1.0000      -4.024504      -109.5123
  13   1.0000      -4.021616      -109.4337
  14   1.0000      -4.020300      -109.3979
  15   1.0000      -4.019509      -109.3764
  16   1.0000      -4.017751      -109.3286
  17   1.0000      -2.940489       -80.0148
  18   1.0000      -2.252510       -61.2939
  19   1.0000      -2.249644       -61.2159
  20   1.0000      -2.248732       -61.1911
  21   1.0000      -2.247597       -61.1602
  22   1.0000      -2.244928       -61.0876
  23   1.0000      -2.243690       -61.0539
  24   1.0000      -2.243477       -61.0481
  25   1.0000      -2.243281       -61.0428
  26   1.0000      -2.242487       -61.0212
  27   1.0000      -2.242220       -61.0139
  28   1.0000      -2.242137       -61.0116
  29   1.0000      -2.241241       -60.9873
  30   1.0000      -2.240711       -60.9728
  31   1.0000      -2.239771       -60.9473
  32   1.0000      -2.239305       -60.9346
  33   1.0000      -2.238332       -60.9081
  34   1.0000      -2.237932       -60.8972
  35   1.0000      -2.237467       -60.8846
  36   1.0000      -2.237361       -60.8817
  37   1.0000      -2.236816       -60.8669
  38   1.0000      -2.236354       -60.8543
  39   1.0000      -2.236217       -60.8505
  40   1.0000      -2.236016       -60.8451
  41   1.0000      -2.235759       -60.8381
  42   1.0000      -2.235486       -60.8307
  43   1.0000      -2.235088       -60.8198
  44   1.0000      -2.234416       -60.8015
  45   1.0000      -2.234147       -60.7942
  46   1.0000      -2.232684       -60.7544
  47   1.0000      -2.231871       -60.7323
  48   1.0000      -2.231656       -60.7265
  49   1.0000      -2.231622       -60.7255
  50   1.0000      -2.231367       -60.7186
  51   1.0000      -2.228925       -60.6521
  52   1.0000      -2.228084       -60.6292
  53   1.0000      -2.226683       -60.5911
  54   1.0000      -1.847867       -50.2830
  55   1.0000      -1.846120       -50.2355
  56   1.0000      -1.844181       -50.1827
  57   1.0000      -0.416904       -11.3445
  58   1.0000      -0.389504       -10.5989
  59   1.0000      -0.377561       -10.2739
  60   1.0000      -0.375171       -10.2089
  61   1.0000      -0.370069       -10.0701
  62   1.0000      -0.366604        -9.9758
  63   1.0000      -0.363530        -9.8922
  64   1.0000      -0.355898        -9.6845
  65   1.0000      -0.353417        -9.6170
  66   1.0000      -0.349287        -9.5046
  67   1.0000      -0.348202        -9.4751
  68   1.0000      -0.342687        -9.3250
  69   1.0000      -0.341196        -9.2844
  70   1.0000      -0.338958        -9.2235
  71   1.0000      -0.332942        -9.0598
  72   1.0000      -0.330653        -8.9975
  73   1.0000      -0.330483        -8.9929
  74   1.0000      -0.327540        -8.9128
  75   1.0000      -0.323387        -8.7998
  76   1.0000      -0.320477        -8.7206
  77   1.0000      -0.318433        -8.6650
  78   1.0000      -0.317930        -8.6513
  79   1.0000      -0.317051        -8.6274
  80   1.0000      -0.314669        -8.5626
  81   1.0000      -0.312500        -8.5036
  82   1.0000      -0.309189        -8.4135
  83   1.0000      -0.305679        -8.3180
  84   1.0000      -0.301387        -8.2012
  85   1.0000      -0.299647        -8.1538
  86   1.0000      -0.295411        -8.0385
  87   1.0000      -0.294426        -8.0117
  88   1.0000      -0.290610        -7.9079
  89   1.0000      -0.289094        -7.8666
  90   1.0000      -0.286037        -7.7835
  91   1.0000      -0.285226        -7.7614
  92   1.0000      -0.283029        -7.7016
  93   1.0000      -0.282427        -7.6852
  94   1.0000      -0.281992        -7.6734
  95   1.0000      -0.280675        -7.6376
  96   1.0000      -0.274715        -7.4754
  97   1.0000      -0.274428        -7.4676
  98   1.0000      -0.273600        -7.4450
  99   1.0000      -0.272670        -7.4197
 100   1.0000      -0.271815        -7.3965
 101   1.0000      -0.270946        -7.3728
 102   1.0000      -0.269185        -7.3249
 103   1.0000      -0.268453        -7.3050
 104   1.0000      -0.265887        -7.2351
 105   1.0000      -0.263199        -7.1620
 106   1.0000      -0.261283        -7.1099
 107   1.0000      -0.260824        -7.0974
 108   1.0000      -0.259009        -7.0480
 109   1.0000      -0.257243        -6.9999
 110   1.0000      -0.256037        -6.9671
 111   1.0000      -0.254520        -6.9258
 112   1.0000      -0.254399        -6.9225
 113   1.0000      -0.251779        -6.8512
 114   1.0000      -0.249931        -6.8010
 115   1.0000      -0.248151        -6.7525
 116   1.0000      -0.245725        -6.6865
 117   1.0000      -0.242343        -6.5945
 118   1.0000      -0.238646        -6.4939
 119   1.0000      -0.237360        -6.4589
 120   1.0000      -0.231587        -6.3018
 121   1.0000      -0.219105        -5.9621
 122   1.0000      -0.215747        -5.8708
 123   1.0000      -0.207508        -5.6466
 124   1.0000      -0.162079        -4.4104
 125   0.0000      -0.159581        -4.3424
 126   0.0000      -0.148596        -4.0435
 127   0.0000      -0.138052        -3.7566
 128   0.0000      -0.131644        -3.5822
 129   0.0000      -0.124252        -3.3811

MULLIKEN ATOMIC CHARGES AND SPIN POPULATIONS
--------------------------------------------
   0 Au:    0.400096   -0.019665
   1 Au:    0.042149   -0.056191
   2 Au:    0.266888   -0.239360
   3 Au:   -0.100367   -0.149372
   4 Au:    0.217152   -0.110862
   5 Au:   -0.266010   -0.201876
   6 Au:    0.292756   -0.068663
   7 Au:    0.238494   -0.042113
   8 Au:    0.131404   -0.107566
   9 Au:   -0.399875   -0.134219
  10 Au:   -0.012144   -0.017938
  11 Au:    0.415610   -0.059436
  12 Mn:   -1.226152    4.207262
Sum of atomic charges         :    0.0000000

LOEWDIN ATOMIC CHARGES AND SPIN POPULATIONS
-------------------------------------------
   0 Au:    0.049963   -0.086528
   1 Au:    0.000880   -0.075903
   2 Au:    0.083721   -0.187034
   3 Au:   -0.021608   -0.113823
   4 Au:    0.101401   -0.082595
   5 Au:   -0.079435   -0.117710
   6 Au:    0.093234   -0.049078
   7 Au:    0.075941   -0.055594
   8 Au:    0.025974   -0.090295
   9 Au:   -0.099607   -0.131190
  10 Au:   -0.059150   -0.041326
  11 Au:    0.108797   -0.082664
  12 Mn:   -0.280109    4.113741

  Mayer bond orders larger than 0.100000
B(  0-Au,  1-Au) :   0.3365 B(  0-Au,  2-Au) :   0.2188 B(  0-Au,  3-Au) :   0.2867
B(  0-Au,  5-Au) :   0.3183 B(  1-Au,  3-Au) :   0.1536 B(  1-Au,  4-Au) :   0.3971
B(  1-Au,  5-Au) :   0.1969 B(  1-Au, 12-Mn) :   0.4437 B(  2-Au,  3-Au) :   0.2438
B(  2-Au,  5-Au) :   0.2570 B(  2-Au,  9-Au) :   0.4093 B(  3-Au,  5-Au) :   0.1378
B(  3-Au,  8-Au) :   0.3820 B(  3-Au,  9-Au) :   0.1475 B(  3-Au, 12-Mn) :   0.5653
B(  4-Au,  7-Au) :   0.2339 B(  4-Au, 12-Mn) :   0.5484 B(  5-Au,  6-Au) :   0.3810
B(  5-Au,  9-Au) :   0.3119 B(  5-Au, 12-Mn) :   0.4879 B(  6-Au,  7-Au) :   0.1408
B(  6-Au,  9-Au) :   0.2906 B(  6-Au, 10-Au) :   0.1914 B(  6-Au, 12-Mn) :   0.4393
B(  7-Au, 10-Au) :   0.4614 B(  7-Au, 12-Mn) :   0.5315 B(  8-Au,  9-Au) :   0.1970
B(  8-Au, 10-Au) :   0.1669 B(  8-Au, 11-Au) :   0.2502 B(  8-Au, 12-Mn) :   0.6153
B(  9-Au, 10-Au) :   0.1868 B(  9-Au, 11-Au) :   0.3764 B(  9-Au, 12-Mn) :   0.2217
B( 10-Au, 11-Au) :   0.4451 B( 10-Au, 12-Mn) :   0.3243

FINAL SINGLE POINT ENERGY     -2780.668615930148

DIPOLE MOMENT
-------------
                                X             Y             Z
Electronic contribution:     30.68760       1.58431      33.97154
Nuclear contribution   :    -30.68193      -1.70608     -33.83800
                        -----------------------------------------
Total Dipole Moment    :      0.00567      -0.12177       0.13354
                        -----------------------------------------
Magnitude (a.u.)       :      0.18081
Magnitude (Debye)      :      0.45957

Rotational constants in cm-1:     0.001474     0.001283     0.000877
Rotational constants in MHz :    44.192498    38.467843    26.276889

                             ****ORCA TERMINATED NORMALLY****
TOTAL RUN TIME: 0 days 0 hours 6 minutes 2 seconds 215 msec
