                         Program Version 5.0.3 -  RELEASE  -
|  1> !R2SCAN def2-TZVP VERYSLOWCONV
|  2> !KDIIS
|  3> %scf
|  4>   AutoTRAHIter 200
|  5>   maxiter 400
|  6> end
|  7>
|  8> %pal nprocs 6 end
|  9>
| 10> *xyzfile 0 6 pbe.xyz
| 11>
| 12> $new_job
| 13>
| 14> !R2SCAN def2-TZVP VERYSLOWCONV
| 15> !KDIIS
| 16> %scf
| 17>   AutoTRAHIter 200
| 18>   maxiter 400
| 19> end
| 20>
| 21>
| 22> %pal nprocs 6 end
| 23>
| 24> *xyzfile 0 4 pbe.xyz
| 25>
| 26>
| 27>
| 28>
| 29>
| 30>                          ****END OF INPUT****
 Total Charge           Charge          ....    0
 Multiplicity           Mult            ....    6
 Number of Electrons    NEL             ....  253
FINAL SINGLE POINT ENERGY     -2781.159478679081

CARTESIAN COORDINATES (ANGSTROEM)
---------------------------------
  Au     8.363377   12.459108    9.178007
  Au     6.120781   11.454071    7.904882
  Au    10.118677   10.383272    9.996894
  Au     8.879110   10.455719    7.348401
  Au     4.372470    9.733273    6.773519
  Au     7.337697   10.006254   10.019089
  Au     6.150958    7.608004    9.823914
  Au     4.778887    7.071315    7.286099
  Au     9.235765    7.886203    6.909479
  Au     9.030549    7.850191    9.763662
  Au     7.180608    5.985305    7.772348
  Au     9.764492    5.578540    8.395821
  Mn     6.767799    8.825712    7.500948

 Multiplicity           Mult            ....    4
 Number of Electrons    NEL             ....  253
 Basis Dimension        Dim             ....  525

ORBITAL ENERGIES
----------------
                 SPIN UP ORBITALS
  NO   OCC          E(Eh)            E(eV)
   0   1.0000    -235.041897     -6395.8152
   1   1.0000     -27.221293      -740.7290
   2   1.0000     -23.269138      -633.1854
   3   1.0000     -23.268242      -633.1610
   4   1.0000     -23.266459      -633.1125
   5   1.0000      -4.126239      -112.2807
   6   1.0000      -4.120952      -112.1368
   7   1.0000      -4.119782      -112.1050
   8   1.0000      -4.119701      -112.1028
   9   1.0000      -4.119399      -112.0945
  10   1.0000      -4.117115      -112.0324
  11   1.0000      -4.115139      -111.9786
  12   1.0000      -4.114883      -111.9717
  13   1.0000      -4.112291      -111.9011
  14   1.0000      -4.111744      -111.8862
  15   1.0000      -4.109407      -111.8226
  16   1.0000      -4.108077      -111.7865
  17   1.0000      -3.243971       -88.2729
  18   1.0000      -2.315929       -63.0196
  19   1.0000      -2.313150       -62.9440
  20   1.0000      -2.311873       -62.9093
  21   1.0000      -2.311322       -62.8943
  22   1.0000      -2.308845       -62.8269
  23   1.0000      -2.308375       -62.8141
  24   1.0000      -2.307974       -62.8032
  25   1.0000      -2.307128       -62.7801
  26   1.0000      -2.306369       -62.7595
  27   1.0000      -2.306085       -62.7518
  28   1.0000      -2.305841       -62.7451
  29   1.0000      -2.304598       -62.7113
  30   1.0000      -2.304372       -62.7051
  31   1.0000      -2.303719       -62.6874
  32   1.0000      -2.302886       -62.6647
  33   1.0000      -2.301829       -62.6359
  34   1.0000      -2.301720       -62.6330
  35   1.0000      -2.301624       -62.6304
  36   1.0000      -2.301401       -62.6243
  37   1.0000      -2.300916       -62.6111
  38   1.0000      -2.300704       -62.6053
  39   1.0000      -2.300075       -62.5882
  40   1.0000      -2.299168       -62.5635
  41   1.0000      -2.299039       -62.5600
  42   1.0000      -2.298307       -62.5401
  43   1.0000      -2.298026       -62.5325
  44   1.0000      -2.297949       -62.5304
  45   1.0000      -2.296951       -62.5032
  46   1.0000      -2.295853       -62.4733
  47   1.0000      -2.294678       -62.4413
  48   1.0000      -2.294469       -62.4357
  49   1.0000      -2.294154       -62.4271
  50   1.0000      -2.294012       -62.4232
  51   1.0000      -2.291776       -62.3624
  52   1.0000      -2.291636       -62.3586
  53   1.0000      -2.291463       -62.3539
  54   1.0000      -2.103352       -57.2351
  55   1.0000      -2.100932       -57.1693
  56   1.0000      -2.097216       -57.0682
  57   1.0000      -0.424633       -11.5548
  58   1.0000      -0.396655       -10.7935
  59   1.0000      -0.387229       -10.5370
  60   1.0000      -0.384425       -10.4607
  61   1.0000      -0.383472       -10.4348
  62   1.0000      -0.374954       -10.2030
  63   1.0000      -0.373722       -10.1695
  64   1.0000      -0.367984       -10.0134
  65   1.0000      -0.365405        -9.9432
  66   1.0000      -0.364197        -9.9103
  67   1.0000      -0.360624        -9.8131
  68   1.0000      -0.358231        -9.7480
  69   1.0000      -0.351607        -9.5677
  70   1.0000      -0.348087        -9.4719
  71   1.0000      -0.345454        -9.4003
  72   1.0000      -0.343281        -9.3411
  73   1.0000      -0.340274        -9.2593
  74   1.0000      -0.339797        -9.2464
  75   1.0000      -0.337604        -9.1867
  76   1.0000      -0.334150        -9.0927
  77   1.0000      -0.332267        -9.0415
  78   1.0000      -0.330438        -8.9917
  79   1.0000      -0.329809        -8.9745
  80   1.0000      -0.325262        -8.8508
  81   1.0000      -0.324895        -8.8408
  82   1.0000      -0.318847        -8.6763
  83   1.0000      -0.317515        -8.6400
  84   1.0000      -0.315191        -8.5768
  85   1.0000      -0.309866        -8.4319
  86   1.0000      -0.308670        -8.3993
  87   1.0000      -0.304344        -8.2816
  88   1.0000      -0.299734        -8.1562
  89   1.0000      -0.297503        -8.0955
  90   1.0000      -0.295989        -8.0543
  91   1.0000      -0.294733        -8.0201
  92   1.0000      -0.294391        -8.0108
  93   1.0000      -0.293286        -7.9807
  94   1.0000      -0.289425        -7.8757
  95   1.0000      -0.288459        -7.8494
  96   1.0000      -0.288086        -7.8392
  97   1.0000      -0.284089        -7.7305
  98   1.0000      -0.283335        -7.7099
  99   1.0000      -0.282279        -7.6812
 100   1.0000      -0.279361        -7.6018
 101   1.0000      -0.278560        -7.5800
 102   1.0000      -0.278226        -7.5709
 103   1.0000      -0.277266        -7.5448
 104   1.0000      -0.276250        -7.5171
 105   1.0000      -0.274477        -7.4689
 106   1.0000      -0.272793        -7.4231
 107   1.0000      -0.271551        -7.3893
 108   1.0000      -0.268203        -7.2982
 109   1.0000      -0.266977        -7.2648
 110   1.0000      -0.265759        -7.2317
 111   1.0000      -0.264216        -7.1897
 112   1.0000      -0.263432        -7.1683
 113   1.0000      -0.261857        -7.1255
 114   1.0000      -0.260015        -7.0754
 115   1.0000      -0.258606        -7.0370
 116   1.0000      -0.256846        -6.9891
 117   1.0000      -0.256489        -6.9794
 118   1.0000      -0.255720        -6.9585
 119   1.0000      -0.252269        -6.8646
 120   1.0000      -0.251306        -6.8384
 121   1.0000      -0.250958        -6.8289
 122   1.0000      -0.245353        -6.6764
 123   1.0000      -0.242375        -6.5954
 124   1.0000      -0.241121        -6.5612
 125   1.0000      -0.228029        -6.2050
 126   1.0000      -0.212742        -5.7890
 127   1.0000      -0.210041        -5.7155
 128   0.0000      -0.197780        -5.3819
 129   0.0000      -0.145583        -3.9615
 130   0.0000      -0.142524        -3.8783
 131   0.0000      -0.129746        -3.5306
 132   0.0000      -0.121168        -3.2971

                 SPIN DOWN ORBITALS
  NO   OCC          E(Eh)            E(eV)
   0   1.0000    -235.040892     -6395.7878
   1   1.0000     -27.132982      -738.3260
   2   1.0000     -23.200700      -631.3231
   3   1.0000     -23.200499      -631.3177
   4   1.0000     -23.199463      -631.2895
   5   1.0000      -4.126925      -112.2993
   6   1.0000      -4.120543      -112.1257
   7   1.0000      -4.120417      -112.1222
   8   1.0000      -4.119487      -112.0969
   9   1.0000      -4.119343      -112.0930
  10   1.0000      -4.116847      -112.0251
  11   1.0000      -4.116586      -112.0180
  12   1.0000      -4.115594      -111.9910
  13   1.0000      -4.113100      -111.9231
  14   1.0000      -4.111669      -111.8842
  15   1.0000      -4.110250      -111.8456
  16   1.0000      -4.109549      -111.8265
  17   1.0000      -3.032741       -82.5251
  18   1.0000      -2.316091       -63.0240
  19   1.0000      -2.313152       -62.9441
  20   1.0000      -2.313011       -62.9402
  21   1.0000      -2.311333       -62.8946
  22   1.0000      -2.308540       -62.8186
  23   1.0000      -2.308074       -62.8059
  24   1.0000      -2.307329       -62.7856
  25   1.0000      -2.306904       -62.7740
  26   1.0000      -2.306817       -62.7717
  27   1.0000      -2.306286       -62.7572
  28   1.0000      -2.305805       -62.7442
  29   1.0000      -2.305779       -62.7434
  30   1.0000      -2.304255       -62.7020
  31   1.0000      -2.303678       -62.6863
  32   1.0000      -2.302967       -62.6669
  33   1.0000      -2.302598       -62.6569
  34   1.0000      -2.301748       -62.6337
  35   1.0000      -2.301454       -62.6258
  36   1.0000      -2.301184       -62.6184
  37   1.0000      -2.301096       -62.6160
  38   1.0000      -2.300645       -62.6037
  39   1.0000      -2.300291       -62.5941
  40   1.0000      -2.300202       -62.5917
  41   1.0000      -2.299406       -62.5700
  42   1.0000      -2.299319       -62.5676
  43   1.0000      -2.298959       -62.5578
  44   1.0000      -2.298030       -62.5326
  45   1.0000      -2.297708       -62.5238
  46   1.0000      -2.297215       -62.5104
  47   1.0000      -2.296029       -62.4781
  48   1.0000      -2.295603       -62.4665
  49   1.0000      -2.295269       -62.4575
  50   1.0000      -2.294984       -62.4497
  51   1.0000      -2.292800       -62.3902
  52   1.0000      -2.292395       -62.3792
  53   1.0000      -2.290989       -62.3410
  54   1.0000      -1.891154       -51.4609
  55   1.0000      -1.890495       -51.4430
  56   1.0000      -1.889815       -51.4245
  57   1.0000      -0.422789       -11.5047
  58   1.0000      -0.396044       -10.7769
  59   1.0000      -0.385317       -10.4850
  60   1.0000      -0.383725       -10.4417
  61   1.0000      -0.379525       -10.3274
  62   1.0000      -0.375527       -10.2186
  63   1.0000      -0.372805       -10.1445
  64   1.0000      -0.365419        -9.9436
  65   1.0000      -0.362719        -9.8701
  66   1.0000      -0.358785        -9.7630
  67   1.0000      -0.357566        -9.7299
  68   1.0000      -0.352263        -9.5856
  69   1.0000      -0.351140        -9.5550
  70   1.0000      -0.348018        -9.4701
  71   1.0000      -0.342886        -9.3304
  72   1.0000      -0.340421        -9.2633
  73   1.0000      -0.339904        -9.2493
  74   1.0000      -0.337148        -9.1743
  75   1.0000      -0.333269        -9.0687
  76   1.0000      -0.329900        -8.9770
  77   1.0000      -0.327884        -8.9222
  78   1.0000      -0.327432        -8.9099
  79   1.0000      -0.326603        -8.8873
  80   1.0000      -0.324249        -8.8233
  81   1.0000      -0.322167        -8.7666
  82   1.0000      -0.318446        -8.6653
  83   1.0000      -0.314999        -8.5716
  84   1.0000      -0.310621        -8.4524
  85   1.0000      -0.308924        -8.4063
  86   1.0000      -0.303997        -8.2722
  87   1.0000      -0.303430        -8.2568
  88   1.0000      -0.299588        -8.1522
  89   1.0000      -0.298272        -8.1164
  90   1.0000      -0.295045        -8.0286
  91   1.0000      -0.294730        -8.0200
  92   1.0000      -0.291966        -7.9448
  93   1.0000      -0.291332        -7.9276
  94   1.0000      -0.290628        -7.9084
  95   1.0000      -0.289090        -7.8665
  96   1.0000      -0.283863        -7.7243
  97   1.0000      -0.283223        -7.7069
  98   1.0000      -0.282294        -7.6816
  99   1.0000      -0.281680        -7.6649
 100   1.0000      -0.280508        -7.6330
 101   1.0000      -0.279650        -7.6097
 102   1.0000      -0.277974        -7.5641
 103   1.0000      -0.277185        -7.5426
 104   1.0000      -0.274635        -7.4732
 105   1.0000      -0.271598        -7.3906
 106   1.0000      -0.269576        -7.3355
 107   1.0000      -0.269358        -7.3296
 108   1.0000      -0.267322        -7.2742
 109   1.0000      -0.265498        -7.2246
 110   1.0000      -0.264123        -7.1872
 111   1.0000      -0.262855        -7.1526
 112   1.0000      -0.262295        -7.1374
 113   1.0000      -0.259617        -7.0645
 114   1.0000      -0.257823        -7.0157
 115   1.0000      -0.255559        -6.9541
 116   1.0000      -0.253171        -6.8891
 117   1.0000      -0.249720        -6.7952
 118   1.0000      -0.245607        -6.6833
 119   1.0000      -0.244306        -6.6479
 120   1.0000      -0.236897        -6.4463
 121   1.0000      -0.222266        -6.0482
 122   1.0000      -0.218296        -5.9401
 123   1.0000      -0.210858        -5.7377
 124   1.0000      -0.160443        -4.3659
 125   0.0000      -0.156309        -4.2534
 126   0.0000      -0.144223        -3.9245
 127   0.0000      -0.129926        -3.5355
 128   0.0000      -0.124533        -3.3887
 129   0.0000      -0.110572        -3.0088

MULLIKEN ATOMIC CHARGES AND SPIN POPULATIONS
--------------------------------------------
   0 Au:    0.359245   -0.029139
   1 Au:    0.023894   -0.074197
   2 Au:    0.255242   -0.306607
   3 Au:   -0.088344   -0.141696
   4 Au:    0.203221   -0.127375
   5 Au:   -0.263845   -0.249481
   6 Au:    0.287869   -0.075833
   7 Au:    0.217225   -0.067053
   8 Au:    0.112402   -0.132724
   9 Au:   -0.378531   -0.140608
  10 Au:   -0.021773   -0.008813
  11 Au:    0.382662   -0.048178
  12 Mn:   -1.089268    4.401703
Sum of atomic charges         :   -0.0000000

LOEWDIN ATOMIC CHARGES AND SPIN POPULATIONS
-------------------------------------------
   0 Au:    0.048849   -0.104107
   1 Au:   -0.012186   -0.096456
   2 Au:    0.086499   -0.227232
   3 Au:   -0.027032   -0.121943
   4 Au:    0.091752   -0.102267
   5 Au:   -0.089989   -0.154265
   6 Au:    0.089856   -0.059537
   7 Au:    0.069347   -0.075507
   8 Au:    0.012337   -0.099890
   9 Au:   -0.102630   -0.143203
  10 Au:   -0.064661   -0.040502
  11 Au:    0.105558   -0.076222
  12 Mn:   -0.207701    4.301133

  Mayer bond orders larger than 0.100000
B(  0-Au,  1-Au) :   0.3328 B(  0-Au,  2-Au) :   0.2025 B(  0-Au,  3-Au) :   0.2633
B(  0-Au,  5-Au) :   0.3306 B(  1-Au,  3-Au) :   0.1427 B(  1-Au,  4-Au) :   0.4043
B(  1-Au,  5-Au) :   0.1568 B(  1-Au, 12-Mn) :   0.4407 B(  2-Au,  3-Au) :   0.2323
B(  2-Au,  5-Au) :   0.2230 B(  2-Au,  9-Au) :   0.4153 B(  3-Au,  8-Au) :   0.3815
B(  3-Au,  9-Au) :   0.1341 B(  3-Au, 12-Mn) :   0.5460 B(  4-Au,  7-Au) :   0.2170
B(  4-Au, 12-Mn) :   0.5340 B(  5-Au,  6-Au) :   0.3776 B(  5-Au,  9-Au) :   0.2852
B(  5-Au, 12-Mn) :   0.4442 B(  6-Au,  7-Au) :   0.1221 B(  6-Au,  9-Au) :   0.2821
B(  6-Au, 10-Au) :   0.1856 B(  6-Au, 12-Mn) :   0.4183 B(  7-Au, 10-Au) :   0.4555
B(  7-Au, 12-Mn) :   0.5203 B(  8-Au,  9-Au) :   0.1583 B(  8-Au, 10-Au) :   0.1325
B(  8-Au, 11-Au) :   0.2429 B(  8-Au, 12-Mn) :   0.6018 B(  9-Au, 10-Au) :   0.1703
B(  9-Au, 11-Au) :   0.3560 B(  9-Au, 12-Mn) :   0.1939 B( 10-Au, 11-Au) :   0.4501
B( 10-Au, 12-Mn) :   0.3087

FINAL SINGLE POINT ENERGY     -2781.118858151759

DIPOLE MOMENT
-------------
                                X             Y             Z
Electronic contribution:     30.70888       1.56640      33.97758
Nuclear contribution   :    -30.68193      -1.70608     -33.83800
                        -----------------------------------------
Total Dipole Moment    :      0.02695      -0.13968       0.13957
                        -----------------------------------------
Magnitude (a.u.)       :      0.19929
Magnitude (Debye)      :      0.50656

Rotational constants in cm-1:     0.001474     0.001283     0.000877
Rotational constants in MHz :    44.192498    38.467843    26.276889

                             ****ORCA TERMINATED NORMALLY****
TOTAL RUN TIME: 0 days 0 hours 12 minutes 33 seconds 648 msec
