                         Program Version 5.0.3 -  RELEASE  -
|  1> %pal nprocs 1 end
|  2>
|  3> !PBE def2-TZVP OPT UNO
|  4> !SLOWCONV KDIIS
|  5>
|  6> %geom maxiter 300 end
|  7>
|  8> *xyzfile 0 3 4.xyz                           ****END OF INPUT****
 Total Charge           Charge          ....    0
 Multiplicity           Mult            ....    3
 Number of Electrons    NEL             ....  290
FINAL SINGLE POINT ENERGY     -2945.826015765356
FINAL SINGLE POINT ENERGY     -2945.827844876238
FINAL SINGLE POINT ENERGY     -2945.828940843642
FINAL SINGLE POINT ENERGY     -2945.829832493322
FINAL SINGLE POINT ENERGY     -2945.830497798514
FINAL SINGLE POINT ENERGY     -2945.830972634438
FINAL SINGLE POINT ENERGY     -2945.831243969734
FINAL SINGLE POINT ENERGY     -2945.831406161843
FINAL SINGLE POINT ENERGY     -2945.831560947672
FINAL SINGLE POINT ENERGY     -2945.831778740359
FINAL SINGLE POINT ENERGY     -2945.842080581412
FINAL SINGLE POINT ENERGY     -2945.842152699751
FINAL SINGLE POINT ENERGY     -2945.842219768718
FINAL SINGLE POINT ENERGY     -2945.842251884163
FINAL SINGLE POINT ENERGY     -2945.842277600764
FINAL SINGLE POINT ENERGY     -2945.842293097885
FINAL SINGLE POINT ENERGY     -2945.842301428940
FINAL SINGLE POINT ENERGY     -2945.842308012711
FINAL SINGLE POINT ENERGY     -2945.842311002514
                    ***********************HURRAY********************

CARTESIAN COORDINATES (ANGSTROEM)
---------------------------------
  Au    10.207685   10.712425    6.334371
  Au    11.311120    8.949830    8.287298
  Au    10.419570    6.342160    8.037221
  Au     6.675060    9.044507    8.934298
  Au     9.093361   10.593292    8.980821
  Au     9.100220    7.898941    9.907937
  Au     6.284109    8.156869    6.251319
  Au     7.297785    6.381974    8.269682
  Au     8.692818    4.380881    7.055926
  Au     8.318443    6.532319    5.319181
  Au    10.996339    8.128556    5.549928
  Au     7.361821   10.751211    6.727971
  Au     8.495981    9.204768    4.623920
  Au    10.870588    5.409310    5.444637
  Cr     8.823067    8.459947    7.241115

 Multiplicity           Mult            ....    3
 Number of Electrons    NEL             ....  290
 Basis Dimension        Dim             ....  605

ORBITAL ENERGIES
----------------
                 SPIN UP ORBITALS
  NO   OCC          E(Eh)            E(eV)
   0   1.0000    -214.505020     -5836.9783
   1   1.0000     -24.306480      -661.4129
   2   1.0000     -20.672438      -562.5256
   3   1.0000     -20.670543      -562.4741
   4   1.0000     -20.667557      -562.3928
   5   1.0000      -4.032728      -109.7361
   6   1.0000      -4.032668      -109.7345
   7   1.0000      -4.026813      -109.5751
   8   1.0000      -4.026743      -109.5733
   9   1.0000      -4.026703      -109.5722
  10   1.0000      -4.026681      -109.5715
  11   1.0000      -4.026531      -109.5675
  12   1.0000      -4.026478      -109.5660
  13   1.0000      -4.024646      -109.5162
  14   1.0000      -4.024564      -109.5139
  15   1.0000      -4.024205      -109.5042
  16   1.0000      -4.024128      -109.5021
  17   1.0000      -4.016677      -109.2993
  18   1.0000      -4.016591      -109.2970
  19   1.0000      -2.805449       -76.3402
  20   1.0000      -2.249988       -61.2253
  21   1.0000      -2.249901       -61.2229
  22   1.0000      -2.244446       -61.0745
  23   1.0000      -2.244040       -61.0634
  24   1.0000      -2.243817       -61.0574
  25   1.0000      -2.243694       -61.0540
  26   1.0000      -2.243596       -61.0513
  27   1.0000      -2.243497       -61.0487
  28   1.0000      -2.242581       -61.0237
  29   1.0000      -2.242312       -61.0164
  30   1.0000      -2.241786       -61.0021
  31   1.0000      -2.241478       -60.9937
  32   1.0000      -2.240583       -60.9694
  33   1.0000      -2.240033       -60.9544
  34   1.0000      -2.239680       -60.9448
  35   1.0000      -2.239660       -60.9442
  36   1.0000      -2.239483       -60.9394
  37   1.0000      -2.239429       -60.9380
  38   1.0000      -2.239257       -60.9333
  39   1.0000      -2.239136       -60.9300
  40   1.0000      -2.238705       -60.9183
  41   1.0000      -2.238161       -60.9035
  42   1.0000      -2.238067       -60.9009
  43   1.0000      -2.238003       -60.8991
  44   1.0000      -2.237809       -60.8939
  45   1.0000      -2.237781       -60.8931
  46   1.0000      -2.236784       -60.8660
  47   1.0000      -2.236759       -60.8653
  48   1.0000      -2.236329       -60.8536
  49   1.0000      -2.235927       -60.8427
  50   1.0000      -2.235906       -60.8421
  51   1.0000      -2.235538       -60.8321
  52   1.0000      -2.235512       -60.8314
  53   1.0000      -2.234907       -60.8149
  54   1.0000      -2.234786       -60.8116
  55   1.0000      -2.234630       -60.8074
  56   1.0000      -2.230652       -60.6991
  57   1.0000      -2.230555       -60.6965
  58   1.0000      -2.230527       -60.6957
  59   1.0000      -2.228631       -60.6441
  60   1.0000      -2.227858       -60.6231
  61   1.0000      -2.227732       -60.6197
  62   1.0000      -1.797644       -48.9164
  63   1.0000      -1.795275       -48.8519
  64   1.0000      -1.791774       -48.7567
  65   1.0000      -0.435079       -11.8391
  66   1.0000      -0.389768       -10.6061
  67   1.0000      -0.384835       -10.4719
  68   1.0000      -0.383614       -10.4387
  69   1.0000      -0.374827       -10.1996
  70   1.0000      -0.370722       -10.0878
  71   1.0000      -0.368585       -10.0297
  72   1.0000      -0.367444        -9.9987
  73   1.0000      -0.366147        -9.9634
  74   1.0000      -0.359250        -9.7757
  75   1.0000      -0.356134        -9.6909
  76   1.0000      -0.351354        -9.5608
  77   1.0000      -0.348207        -9.4752
  78   1.0000      -0.345918        -9.4129
  79   1.0000      -0.344833        -9.3834
  80   1.0000      -0.344237        -9.3672
  81   1.0000      -0.344132        -9.3643
  82   1.0000      -0.341056        -9.2806
  83   1.0000      -0.339049        -9.2260
  84   1.0000      -0.337327        -9.1791
  85   1.0000      -0.335437        -9.1277
  86   1.0000      -0.335139        -9.1196
  87   1.0000      -0.333845        -9.0844
  88   1.0000      -0.332015        -9.0346
  89   1.0000      -0.329999        -8.9797
  90   1.0000      -0.324118        -8.8197
  91   1.0000      -0.317423        -8.6375
  92   1.0000      -0.317188        -8.6311
  93   1.0000      -0.315545        -8.5864
  94   1.0000      -0.311021        -8.4633
  95   1.0000      -0.310419        -8.4469
  96   1.0000      -0.309748        -8.4287
  97   1.0000      -0.307518        -8.3680
  98   1.0000      -0.301989        -8.2175
  99   1.0000      -0.298087        -8.1114
 100   1.0000      -0.292441        -7.9577
 101   1.0000      -0.290384        -7.9017
 102   1.0000      -0.289612        -7.8808
 103   1.0000      -0.288939        -7.8624
 104   1.0000      -0.286923        -7.8076
 105   1.0000      -0.286542        -7.7972
 106   1.0000      -0.282014        -7.6740
 107   1.0000      -0.279027        -7.5927
 108   1.0000      -0.276574        -7.5260
 109   1.0000      -0.276433        -7.5221
 110   1.0000      -0.275969        -7.5095
 111   1.0000      -0.275772        -7.5041
 112   1.0000      -0.273870        -7.4524
 113   1.0000      -0.273238        -7.4352
 114   1.0000      -0.272112        -7.4045
 115   1.0000      -0.267947        -7.2912
 116   1.0000      -0.267822        -7.2878
 117   1.0000      -0.267460        -7.2780
 118   1.0000      -0.265732        -7.2309
 119   1.0000      -0.265533        -7.2255
 120   1.0000      -0.262300        -7.1375
 121   1.0000      -0.260794        -7.0966
 122   1.0000      -0.260611        -7.0916
 123   1.0000      -0.259904        -7.0724
 124   1.0000      -0.258874        -7.0443
 125   1.0000      -0.258727        -7.0403
 126   1.0000      -0.253832        -6.9071
 127   1.0000      -0.252446        -6.8694
 128   1.0000      -0.252157        -6.8616
 129   1.0000      -0.249760        -6.7963
 130   1.0000      -0.249055        -6.7771
 131   1.0000      -0.248597        -6.7647
 132   1.0000      -0.245761        -6.6875
 133   1.0000      -0.245525        -6.6811
 134   1.0000      -0.243752        -6.6328
 135   1.0000      -0.242576        -6.6008
 136   1.0000      -0.240465        -6.5434
 137   1.0000      -0.235229        -6.4009
 138   1.0000      -0.231760        -6.3065
 139   1.0000      -0.223460        -6.0807
 140   1.0000      -0.218585        -5.9480
 141   1.0000      -0.216552        -5.8927
 142   1.0000      -0.213426        -5.8076
 143   1.0000      -0.211514        -5.7556
 144   1.0000      -0.196106        -5.3363
 145   1.0000      -0.191642        -5.2148
 146   0.0000      -0.175056        -4.7635
 147   0.0000      -0.173345        -4.7170
 148   0.0000      -0.172153        -4.6845
 149   0.0000      -0.139595        -3.7986
 150   0.0000      -0.129776        -3.5314

                 SPIN DOWN ORBITALS
  NO   OCC          E(Eh)            E(eV)
   0   1.0000    -214.504626     -5836.9676
   1   1.0000     -24.262781      -660.2238
   2   1.0000     -20.641444      -561.6823
   3   1.0000     -20.637741      -561.5815
   4   1.0000     -20.631194      -561.4033
   5   1.0000      -4.032493      -109.7297
   6   1.0000      -4.032436      -109.7282
   7   1.0000      -4.026731      -109.5729
   8   1.0000      -4.026663      -109.5711
   9   1.0000      -4.026623      -109.5700
  10   1.0000      -4.026602      -109.5694
  11   1.0000      -4.026276      -109.5605
  12   1.0000      -4.026230      -109.5593
  13   1.0000      -4.024508      -109.5124
  14   1.0000      -4.024427      -109.5102
  15   1.0000      -4.024327      -109.5075
  16   1.0000      -4.024298      -109.5067
  17   1.0000      -4.017085      -109.3104
  18   1.0000      -4.017000      -109.3081
  19   1.0000      -2.688111       -73.1472
  20   1.0000      -2.249565       -61.2138
  21   1.0000      -2.249471       -61.2112
  22   1.0000      -2.243899       -61.0596
  23   1.0000      -2.243794       -61.0567
  24   1.0000      -2.243702       -61.0542
  25   1.0000      -2.243494       -61.0486
  26   1.0000      -2.243303       -61.0434
  27   1.0000      -2.243256       -61.0421
  28   1.0000      -2.242146       -61.0119
  29   1.0000      -2.241913       -61.0055
  30   1.0000      -2.241436       -60.9926
  31   1.0000      -2.241095       -60.9833
  32   1.0000      -2.240290       -60.9614
  33   1.0000      -2.240040       -60.9546
  34   1.0000      -2.239613       -60.9430
  35   1.0000      -2.239600       -60.9426
  36   1.0000      -2.239531       -60.9407
  37   1.0000      -2.239158       -60.9306
  38   1.0000      -2.238906       -60.9237
  39   1.0000      -2.238816       -60.9213
  40   1.0000      -2.238541       -60.9138
  41   1.0000      -2.238119       -60.9023
  42   1.0000      -2.237918       -60.8968
  43   1.0000      -2.237855       -60.8951
  44   1.0000      -2.237735       -60.8919
  45   1.0000      -2.237519       -60.8860
  46   1.0000      -2.236790       -60.8662
  47   1.0000      -2.236641       -60.8621
  48   1.0000      -2.236539       -60.8593
  49   1.0000      -2.236206       -60.8503
  50   1.0000      -2.236028       -60.8454
  51   1.0000      -2.235679       -60.8359
  52   1.0000      -2.235558       -60.8326
  53   1.0000      -2.235126       -60.8209
  54   1.0000      -2.234980       -60.8169
  55   1.0000      -2.234953       -60.8162
  56   1.0000      -2.231092       -60.7111
  57   1.0000      -2.230920       -60.7064
  58   1.0000      -2.230710       -60.7007
  59   1.0000      -2.228865       -60.6505
  60   1.0000      -2.228584       -60.6428
  61   1.0000      -2.228463       -60.6396
  62   1.0000      -1.689845       -45.9830
  63   1.0000      -1.681560       -45.7576
  64   1.0000      -1.666685       -45.3528
  65   1.0000      -0.429560       -11.6889
  66   1.0000      -0.388997       -10.5851
  67   1.0000      -0.385075       -10.4784
  68   1.0000      -0.383287       -10.4298
  69   1.0000      -0.371274       -10.1029
  70   1.0000      -0.367455        -9.9990
  71   1.0000      -0.365283        -9.9398
  72   1.0000      -0.362961        -9.8767
  73   1.0000      -0.362159        -9.8549
  74   1.0000      -0.357161        -9.7189
  75   1.0000      -0.355548        -9.6750
  76   1.0000      -0.351300        -9.5594
  77   1.0000      -0.348636        -9.4869
  78   1.0000      -0.346652        -9.4329
  79   1.0000      -0.345832        -9.4106
  80   1.0000      -0.345592        -9.4040
  81   1.0000      -0.344820        -9.3830
  82   1.0000      -0.341488        -9.2923
  83   1.0000      -0.339439        -9.2366
  84   1.0000      -0.337897        -9.1947
  85   1.0000      -0.336144        -9.1469
  86   1.0000      -0.335698        -9.1348
  87   1.0000      -0.334572        -9.1042
  88   1.0000      -0.331960        -9.0331
  89   1.0000      -0.331252        -9.0138
  90   1.0000      -0.324243        -8.8231
  91   1.0000      -0.317958        -8.6521
  92   1.0000      -0.317163        -8.6304
  93   1.0000      -0.316730        -8.6187
  94   1.0000      -0.311341        -8.4720
  95   1.0000      -0.310764        -8.4563
  96   1.0000      -0.307865        -8.3774
  97   1.0000      -0.306873        -8.3504
  98   1.0000      -0.301516        -8.2047
  99   1.0000      -0.299058        -8.1378
 100   1.0000      -0.293325        -7.9818
 101   1.0000      -0.287682        -7.8282
 102   1.0000      -0.287332        -7.8187
 103   1.0000      -0.286585        -7.7984
 104   1.0000      -0.284801        -7.7498
 105   1.0000      -0.283986        -7.7277
 106   1.0000      -0.281040        -7.6475
 107   1.0000      -0.279346        -7.6014
 108   1.0000      -0.277158        -7.5418
 109   1.0000      -0.277013        -7.5379
 110   1.0000      -0.276888        -7.5345
 111   1.0000      -0.275822        -7.5055
 112   1.0000      -0.275031        -7.4840
 113   1.0000      -0.274127        -7.4594
 114   1.0000      -0.272877        -7.4254
 115   1.0000      -0.268705        -7.3118
 116   1.0000      -0.268352        -7.3022
 117   1.0000      -0.268257        -7.2997
 118   1.0000      -0.266206        -7.2438
 119   1.0000      -0.266048        -7.2395
 120   1.0000      -0.262851        -7.1525
 121   1.0000      -0.261658        -7.1201
 122   1.0000      -0.261553        -7.1172
 123   1.0000      -0.261217        -7.1081
 124   1.0000      -0.259992        -7.0747
 125   1.0000      -0.259881        -7.0717
 126   1.0000      -0.254666        -6.9298
 127   1.0000      -0.252792        -6.8788
 128   1.0000      -0.252725        -6.8770
 129   1.0000      -0.251070        -6.8320
 130   1.0000      -0.250204        -6.8084
 131   1.0000      -0.249689        -6.7944
 132   1.0000      -0.246864        -6.7175
 133   1.0000      -0.246566        -6.7094
 134   1.0000      -0.245714        -6.6862
 135   1.0000      -0.242736        -6.6052
 136   1.0000      -0.241367        -6.5679
 137   1.0000      -0.235720        -6.4143
 138   1.0000      -0.231862        -6.3093
 139   1.0000      -0.218031        -5.9329
 140   1.0000      -0.210705        -5.7336
 141   1.0000      -0.201590        -5.4855
 142   1.0000      -0.198370        -5.3979
 143   1.0000      -0.196017        -5.3339
 144   0.0000      -0.145914        -3.9705
 145   0.0000      -0.136558        -3.7159
 146   0.0000      -0.124625        -3.3912
 147   0.0000      -0.124544        -3.3890
 148   0.0000      -0.117218        -3.1897

MULLIKEN ATOMIC CHARGES AND SPIN POPULATIONS
--------------------------------------------
   0 Au:    0.608846   -0.000309
   1 Au:    0.615490   -0.053107
   2 Au:    0.166511   -0.071006
   3 Au:    0.609963   -0.000036
   4 Au:    0.573944   -0.047824
   5 Au:    0.615064   -0.052496
   6 Au:    0.614919   -0.053098
   7 Au:    0.387520   -0.026131
   8 Au:    0.315492    0.065312
   9 Au:    0.165082   -0.070657
  10 Au:    0.386585   -0.025337
  11 Au:    0.573938   -0.048189
  12 Au:    0.616854   -0.052642
  13 Au:    0.316741    0.065482
  14 Cr:   -6.566948    2.370038
Sum of atomic charges         :   -0.0000000

LOEWDIN ATOMIC CHARGES AND SPIN POPULATIONS
-------------------------------------------
   0 Au:    0.127664   -0.064417
   1 Au:    0.148569   -0.107297
   2 Au:    0.036633   -0.055624
   3 Au:    0.127590   -0.064294
   4 Au:    0.120130   -0.079438
   5 Au:    0.148575   -0.107081
   6 Au:    0.148649   -0.107228
   7 Au:    0.078598   -0.056080
   8 Au:    0.102904    0.011985
   9 Au:    0.036270   -0.055403
  10 Au:    0.078500   -0.055446
  11 Au:    0.120168   -0.079674
  12 Au:    0.148809   -0.107252
  13 Au:    0.103406    0.012227
  14 Cr:   -1.526466    2.915021

  Mayer bond orders larger than 0.100000
B(  0-Au,  1-Au) :   0.1753 B(  0-Au,  4-Au) :   0.1802 B(  0-Au, 10-Au) :   0.2298
B(  0-Au, 11-Au) :   0.1806 B(  0-Au, 12-Au) :   0.1761 B(  0-Au, 14-Cr) :   0.4642
B(  1-Au,  2-Au) :   0.2186 B(  1-Au,  4-Au) :   0.1761 B(  1-Au,  5-Au) :   0.1249
B(  1-Au, 10-Au) :   0.1764 B(  1-Au, 14-Cr) :   0.5820 B(  2-Au,  5-Au) :   0.2177
B(  2-Au,  8-Au) :   0.2631 B(  2-Au, 10-Au) :   0.1020 B(  2-Au, 11-Au) :   0.1042
B(  2-Au, 13-Au) :   0.2640 B(  2-Au, 14-Cr) :   0.5403 B(  3-Au,  4-Au) :   0.1809
B(  3-Au,  5-Au) :   0.1754 B(  3-Au,  6-Au) :   0.1754 B(  3-Au,  7-Au) :   0.2283
B(  3-Au, 11-Au) :   0.1803 B(  3-Au, 14-Cr) :   0.4630 B(  4-Au,  5-Au) :   0.1749
B(  4-Au,  9-Au) :   0.1043 B(  4-Au, 11-Au) :   0.2001 B(  4-Au, 14-Cr) :   0.4724
B(  5-Au,  7-Au) :   0.1784 B(  5-Au, 14-Cr) :   0.5846 B(  6-Au,  7-Au) :   0.1771
B(  6-Au,  9-Au) :   0.2194 B(  6-Au, 11-Au) :   0.1749 B(  6-Au, 12-Au) :   0.1236
B(  6-Au, 14-Cr) :   0.5826 B(  7-Au,  8-Au) :   0.2692 B(  7-Au,  9-Au) :   0.1002
B(  7-Au, 14-Cr) :   0.5692 B(  8-Au,  9-Au) :   0.2641 B(  8-Au, 13-Au) :   0.1479
B(  8-Au, 14-Cr) :   0.4518 B(  9-Au, 10-Au) :   0.1003 B(  9-Au, 12-Au) :   0.2181
B(  9-Au, 13-Au) :   0.2636 B(  9-Au, 14-Cr) :   0.5402 B( 10-Au, 12-Au) :   0.1760
B( 10-Au, 13-Au) :   0.2706 B( 10-Au, 14-Cr) :   0.5691 B( 11-Au, 12-Au) :   0.1758
B( 11-Au, 14-Cr) :   0.4726 B( 12-Au, 14-Cr) :   0.5844 B( 13-Au, 14-Cr) :   0.4503

FINAL SINGLE POINT ENERGY     -2945.842312497687

DIPOLE MOMENT
-------------
                                X             Y             Z
Electronic contribution:      4.03651     -14.99330      -4.15974
Nuclear contribution   :     -4.02897      14.96998       4.15257
                        -----------------------------------------
Total Dipole Moment    :      0.00754      -0.02331      -0.00718
                        -----------------------------------------
Magnitude (a.u.)       :      0.02553
Magnitude (Debye)      :      0.06490

Rotational constants in cm-1:     0.001272     0.000991     0.000941
Rotational constants in MHz :    38.148388    29.703862    28.219507

                             ****ORCA TERMINATED NORMALLY****
TOTAL RUN TIME: 0 days 9 hours 22 minutes 9 seconds 181 msec
