                         Program Version 5.0.3 -  RELEASE  -
|  1> %pal nprocs 1 end
|  2>
|  3> !PBE def2-TZVP OPT UNO
|  4> !SLOWCONV KDIIS
|  5>
|  6> %geom maxiter 300 end
|  7>
|  8> *xyzfile 0 6 3.xyz                           ****END OF INPUT****
 Total Charge           Charge          ....    0
 Multiplicity           Mult            ....    6
 Number of Electrons    NEL             ....  215
FINAL SINGLE POINT ENERGY     -2509.027441994537
FINAL SINGLE POINT ENERGY     -2509.029814658183
FINAL SINGLE POINT ENERGY     -2509.031933841311
FINAL SINGLE POINT ENERGY     -2509.033731591443
FINAL SINGLE POINT ENERGY     -2509.035015242233
FINAL SINGLE POINT ENERGY     -2509.036255808152
FINAL SINGLE POINT ENERGY     -2509.037827595662
FINAL SINGLE POINT ENERGY     -2509.039257606736
FINAL SINGLE POINT ENERGY     -2509.040315418234
FINAL SINGLE POINT ENERGY     -2509.041304312819
FINAL SINGLE POINT ENERGY     -2509.043530380597
FINAL SINGLE POINT ENERGY     -2509.043546634755
FINAL SINGLE POINT ENERGY     -2509.043563817253
FINAL SINGLE POINT ENERGY     -2509.043579262669
FINAL SINGLE POINT ENERGY     -2509.043591852796
FINAL SINGLE POINT ENERGY     -2509.043601312882
FINAL SINGLE POINT ENERGY     -2509.043607627669
FINAL SINGLE POINT ENERGY     -2509.043611891901
FINAL SINGLE POINT ENERGY     -2509.043614414071
                    ***********************HURRAY********************

CARTESIAN COORDINATES (ANGSTROEM)
---------------------------------
  Au     7.405617    5.697053    5.831257
  Au     7.625696    8.325093    6.799858
  Au     8.050550    5.137461   10.495800
  Au     8.077472    4.011553    8.115388
  Au     6.972625    3.066703    5.741064
  Au     5.305213    4.498749    7.448909
  Au     8.148002    7.659396    4.254384
  Au     4.638091    5.742551    9.670412
  Au     6.349767    7.169350   11.325109
  Au     7.109911    8.904426    9.319408
  Mn     6.891586    6.441369    8.561504

 Multiplicity           Mult            ....    6
 Number of Electrons    NEL             ....  215
 Basis Dimension        Dim             ....  445

ORBITAL ENERGIES
----------------
                 SPIN UP ORBITALS
  NO   OCC          E(Eh)            E(eV)
   0   1.0000    -234.199786     -6372.9002
   1   1.0000     -26.898269      -731.9391
   2   1.0000     -23.047255      -627.1477
   3   1.0000     -23.046522      -627.1278
   4   1.0000     -23.045231      -627.0926
   5   1.0000      -4.038203      -109.8851
   6   1.0000      -4.028542      -109.6222
   7   1.0000      -4.028468      -109.6202
   8   1.0000      -4.027337      -109.5894
   9   1.0000      -4.025101      -109.5286
  10   1.0000      -4.016685      -109.2996
  11   1.0000      -4.016464      -109.2935
  12   1.0000      -4.015901      -109.2782
  13   1.0000      -4.015259      -109.2608
  14   1.0000      -4.008252      -109.0701
  15   1.0000      -3.109976       -84.6268
  16   1.0000      -2.258676       -61.4617
  17   1.0000      -2.251139       -61.2566
  18   1.0000      -2.246960       -61.1429
  19   1.0000      -2.246717       -61.1363
  20   1.0000      -2.246219       -61.1227
  21   1.0000      -2.243977       -61.0617
  22   1.0000      -2.243875       -61.0590
  23   1.0000      -2.242651       -61.0256
  24   1.0000      -2.242494       -61.0214
  25   1.0000      -2.242163       -61.0124
  26   1.0000      -2.235749       -60.8378
  27   1.0000      -2.235715       -60.8369
  28   1.0000      -2.234634       -60.8075
  29   1.0000      -2.234609       -60.8068
  30   1.0000      -2.234162       -60.7946
  31   1.0000      -2.233910       -60.7878
  32   1.0000      -2.233890       -60.7872
  33   1.0000      -2.232012       -60.7361
  34   1.0000      -2.231415       -60.7199
  35   1.0000      -2.230834       -60.7041
  36   1.0000      -2.230822       -60.7037
  37   1.0000      -2.228172       -60.6316
  38   1.0000      -2.228021       -60.6275
  39   1.0000      -2.226748       -60.5929
  40   1.0000      -2.226217       -60.5785
  41   1.0000      -2.222667       -60.4818
  42   1.0000      -2.222447       -60.4759
  43   1.0000      -2.221491       -60.4498
  44   1.0000      -2.221079       -60.4386
  45   1.0000      -2.214503       -60.2597
  46   1.0000      -2.014133       -54.8074
  47   1.0000      -2.012378       -54.7596
  48   1.0000      -2.010690       -54.7137
  49   1.0000      -0.416292       -11.3279
  50   1.0000      -0.385233       -10.4827
  51   1.0000      -0.378313       -10.2944
  52   1.0000      -0.365809        -9.9542
  53   1.0000      -0.365325        -9.9410
  54   1.0000      -0.361138        -9.8271
  55   1.0000      -0.350317        -9.5326
  56   1.0000      -0.345352        -9.3975
  57   1.0000      -0.343155        -9.3377
  58   1.0000      -0.337674        -9.1886
  59   1.0000      -0.335035        -9.1168
  60   1.0000      -0.331790        -9.0285
  61   1.0000      -0.331511        -9.0209
  62   1.0000      -0.328406        -8.9364
  63   1.0000      -0.324226        -8.8226
  64   1.0000      -0.321183        -8.7398
  65   1.0000      -0.316222        -8.6048
  66   1.0000      -0.315826        -8.5941
  67   1.0000      -0.313795        -8.5388
  68   1.0000      -0.309818        -8.4306
  69   1.0000      -0.308664        -8.3992
  70   1.0000      -0.304758        -8.2929
  71   1.0000      -0.300425        -8.1750
  72   1.0000      -0.299662        -8.1542
  73   1.0000      -0.292904        -7.9703
  74   1.0000      -0.290582        -7.9071
  75   1.0000      -0.288627        -7.8539
  76   1.0000      -0.286792        -7.8040
  77   1.0000      -0.286655        -7.8003
  78   1.0000      -0.284573        -7.7436
  79   1.0000      -0.278693        -7.5836
  80   1.0000      -0.278516        -7.5788
  81   1.0000      -0.276849        -7.5334
  82   1.0000      -0.274800        -7.4777
  83   1.0000      -0.274207        -7.4616
  84   1.0000      -0.272606        -7.4180
  85   1.0000      -0.270553        -7.3621
  86   1.0000      -0.268356        -7.3023
  87   1.0000      -0.266560        -7.2535
  88   1.0000      -0.266007        -7.2384
  89   1.0000      -0.265458        -7.2235
  90   1.0000      -0.262673        -7.1477
  91   1.0000      -0.261103        -7.1050
  92   1.0000      -0.256461        -6.9786
  93   1.0000      -0.255471        -6.9517
  94   1.0000      -0.254235        -6.9181
  95   1.0000      -0.253134        -6.8881
  96   1.0000      -0.251137        -6.8338
  97   1.0000      -0.248393        -6.7591
  98   1.0000      -0.248092        -6.7509
  99   1.0000      -0.246747        -6.7143
 100   1.0000      -0.245839        -6.6896
 101   1.0000      -0.245530        -6.6812
 102   1.0000      -0.245326        -6.6757
 103   1.0000      -0.241643        -6.5754
 104   1.0000      -0.235673        -6.4130
 105   1.0000      -0.234364        -6.3774
 106   1.0000      -0.230641        -6.2761
 107   1.0000      -0.215279        -5.8580
 108   1.0000      -0.214128        -5.8267
 109   1.0000      -0.200028        -5.4431
 110   0.0000      -0.157453        -4.2845
 111   0.0000      -0.147673        -4.0184
 112   0.0000      -0.134569        -3.6618
 113   0.0000      -0.114074        -3.1041
 114   0.0000      -0.100304        -2.7294

                 SPIN DOWN ORBITALS
  NO   OCC          E(Eh)            E(eV)
   0   1.0000    -234.198979     -6372.8782
   1   1.0000     -26.829930      -730.0795
   2   1.0000     -22.994857      -625.7219
   3   1.0000     -22.994632      -625.7158
   4   1.0000     -22.993748      -625.6917
   5   1.0000      -4.037067      -109.8542
   6   1.0000      -4.027299      -109.5884
   7   1.0000      -4.027223      -109.5863
   8   1.0000      -4.025697      -109.5448
   9   1.0000      -4.024809      -109.5206
  10   1.0000      -4.014858      -109.2498
  11   1.0000      -4.014645      -109.2441
  12   1.0000      -4.014407      -109.2376
  13   1.0000      -4.014098      -109.2292
  14   1.0000      -4.008027      -109.0640
  15   1.0000      -2.941891       -80.0529
  16   1.0000      -2.257428       -61.4278
  17   1.0000      -2.249453       -61.2107
  18   1.0000      -2.245733       -61.1095
  19   1.0000      -2.244807       -61.0843
  20   1.0000      -2.244751       -61.0828
  21   1.0000      -2.242977       -61.0345
  22   1.0000      -2.242288       -61.0158
  23   1.0000      -2.241613       -60.9974
  24   1.0000      -2.240874       -60.9773
  25   1.0000      -2.240325       -60.9623
  26   1.0000      -2.235350       -60.8270
  27   1.0000      -2.234939       -60.8158
  28   1.0000      -2.234223       -60.7963
  29   1.0000      -2.233609       -60.7796
  30   1.0000      -2.231833       -60.7313
  31   1.0000      -2.231607       -60.7251
  32   1.0000      -2.231575       -60.7242
  33   1.0000      -2.230261       -60.6885
  34   1.0000      -2.229649       -60.6718
  35   1.0000      -2.229518       -60.6683
  36   1.0000      -2.229168       -60.6587
  37   1.0000      -2.227829       -60.6223
  38   1.0000      -2.226593       -60.5887
  39   1.0000      -2.225723       -60.5650
  40   1.0000      -2.225149       -60.5494
  41   1.0000      -2.221167       -60.4410
  42   1.0000      -2.220946       -60.4350
  43   1.0000      -2.220870       -60.4330
  44   1.0000      -2.219895       -60.4064
  45   1.0000      -2.214271       -60.2534
  46   1.0000      -1.848591       -50.3027
  47   1.0000      -1.846985       -50.2590
  48   1.0000      -1.846451       -50.2445
  49   1.0000      -0.413209       -11.2440
  50   1.0000      -0.376997       -10.2586
  51   1.0000      -0.374394       -10.1878
  52   1.0000      -0.362394        -9.8612
  53   1.0000      -0.358626        -9.7587
  54   1.0000      -0.355325        -9.6689
  55   1.0000      -0.344494        -9.3742
  56   1.0000      -0.339301        -9.2328
  57   1.0000      -0.337684        -9.1888
  58   1.0000      -0.332976        -9.0607
  59   1.0000      -0.328324        -8.9342
  60   1.0000      -0.327635        -8.9154
  61   1.0000      -0.323256        -8.7962
  62   1.0000      -0.319854        -8.7037
  63   1.0000      -0.318063        -8.6549
  64   1.0000      -0.314427        -8.5560
  65   1.0000      -0.310323        -8.4443
  66   1.0000      -0.308035        -8.3821
  67   1.0000      -0.306213        -8.3325
  68   1.0000      -0.304539        -8.2869
  69   1.0000      -0.304421        -8.2837
  70   1.0000      -0.302241        -8.2244
  71   1.0000      -0.297194        -8.0871
  72   1.0000      -0.292639        -7.9631
  73   1.0000      -0.289385        -7.8746
  74   1.0000      -0.287821        -7.8320
  75   1.0000      -0.285116        -7.7584
  76   1.0000      -0.283238        -7.7073
  77   1.0000      -0.282360        -7.6834
  78   1.0000      -0.277569        -7.5530
  79   1.0000      -0.275910        -7.5079
  80   1.0000      -0.274500        -7.4695
  81   1.0000      -0.273766        -7.4496
  82   1.0000      -0.273177        -7.4335
  83   1.0000      -0.273160        -7.4331
  84   1.0000      -0.270349        -7.3566
  85   1.0000      -0.266714        -7.2577
  86   1.0000      -0.265850        -7.2342
  87   1.0000      -0.264879        -7.2077
  88   1.0000      -0.264569        -7.1993
  89   1.0000      -0.261112        -7.1052
  90   1.0000      -0.260813        -7.0971
  91   1.0000      -0.258685        -7.0392
  92   1.0000      -0.255213        -6.9447
  93   1.0000      -0.253212        -6.8902
  94   1.0000      -0.250257        -6.8098
  95   1.0000      -0.249025        -6.7763
  96   1.0000      -0.246149        -6.6981
  97   1.0000      -0.245522        -6.6810
  98   1.0000      -0.245422        -6.6783
  99   1.0000      -0.243650        -6.6300
 100   1.0000      -0.239622        -6.5205
 101   1.0000      -0.233068        -6.3421
 102   1.0000      -0.221739        -6.0338
 103   1.0000      -0.221381        -6.0241
 104   1.0000      -0.203513        -5.5379
 105   0.0000      -0.160156        -4.3581
 106   0.0000      -0.158138        -4.3031
 107   0.0000      -0.148449        -4.0395
 108   0.0000      -0.130291        -3.5454
 109   0.0000      -0.127243        -3.4625

MULLIKEN ATOMIC CHARGES AND SPIN POPULATIONS
--------------------------------------------
   0 Au:   -0.424186    0.010588
   1 Au:   -0.090160    0.032985
   2 Au:    0.168083    0.087605
   3 Au:    0.065236    0.031671
   4 Au:    0.442571    0.088974
   5 Au:    0.064372    0.031362
   6 Au:    0.359359    0.071037
   7 Au:    0.167013    0.088362
   8 Au:    0.207923    0.040055
   9 Au:    0.185212    0.074537
  10 Mn:   -1.145423    4.442824
Sum of atomic charges         :   -0.0000000

LOEWDIN ATOMIC CHARGES AND SPIN POPULATIONS
-------------------------------------------
   0 Au:   -0.143817    0.066423
   1 Au:   -0.009799    0.064172
   2 Au:    0.063940    0.081209
   3 Au:    0.003230    0.053027
   4 Au:    0.122918    0.060240
   5 Au:    0.002463    0.052935
   6 Au:    0.104813    0.053380
   7 Au:    0.062705    0.081734
   8 Au:   -0.014976    0.048662
   9 Au:    0.059932    0.067470
  10 Mn:   -0.251409    4.370748

  Mayer bond orders larger than 0.100000
B(  0-Au,  1-Au) :   0.3328 B(  0-Au,  3-Au) :   0.1938 B(  0-Au,  4-Au) :   0.5212
B(  0-Au,  5-Au) :   0.1980 B(  0-Au,  6-Au) :   0.6868 B(  0-Au, 10-Mn) :   0.2379
B(  1-Au,  6-Au) :   0.3716 B(  1-Au,  9-Au) :   0.4913 B(  1-Au, 10-Mn) :   0.5748
B(  2-Au,  3-Au) :   0.5390 B(  2-Au,  8-Au) :   0.2670 B(  2-Au, 10-Mn) :   0.5881
B(  3-Au,  4-Au) :   0.2672 B(  3-Au,  5-Au) :   0.1615 B(  3-Au, 10-Mn) :   0.5357
B(  4-Au,  5-Au) :   0.2671 B(  5-Au,  7-Au) :   0.5418 B(  5-Au, 10-Mn) :   0.5328
B(  7-Au,  8-Au) :   0.2680 B(  7-Au, 10-Mn) :   0.5860 B(  8-Au,  9-Au) :   0.2743
B(  8-Au, 10-Mn) :   0.3443 B(  9-Au, 10-Mn) :   0.5846

FINAL SINGLE POINT ENERGY     -2509.043616330517

DIPOLE MOMENT
-------------
                                X             Y             Z
Electronic contribution:      2.82847     -15.52666     -24.35613
Nuclear contribution   :     -2.77823      15.21648      23.95259
                        -----------------------------------------
Total Dipole Moment    :      0.05023      -0.31019      -0.40354
                        -----------------------------------------
Magnitude (a.u.)       :      0.51145
Magnitude (Debye)      :      1.30001

Rotational constants in cm-1:     0.001937     0.001414     0.001023
Rotational constants in MHz :    58.079822    42.397457    30.678600

                             ****ORCA TERMINATED NORMALLY****
TOTAL RUN TIME: 0 days 2 hours 53 minutes 55 seconds 235 msec
