                         Program Version 5.0.3 -  RELEASE  -
|  1> !SC-NEVPT2 def2-TZVP def2-TZVP/C
|  2> !MOREAD RIJCOSX def2/J
|  3> %maxcore 4000
|  4> %moinp "casscf.gbw"
|  5> %pal nprocs 6 end
|  6>
|  7> %casscf
|  8>  mult 5,3
|  9>  bweight 1,1
| 10>  nroots 5,45
| 11>  nel 6
| 12>  norb 5
| 13>  ptsettings
| 14>   d4tpre 1e-14 # default = 1e-10
| 15>   d3tpre 1e-14
| 16>  end
| 17>  rel
| 18>    dosoc true
| 19>    gtensor true
| 20>  end
| 21> end
| 22>
| 23>
| 24> *xyzfile 0 5 pbe.xyz
| 25>
| 26>
| 27>                          ****END OF INPUT****

CARTESIAN COORDINATES (ANGSTROEM)
---------------------------------
  Au     8.264599    9.367137    7.574941
  Au     6.726181    9.563667    2.701539
  Au     7.885634    7.438359    3.980912
  Au     7.067436   10.227403    5.387282
  Au     4.310427    8.986876    6.560550
  Au     4.514166   10.531455    4.310859
  Au     5.064247    7.781743    4.100229
  Au     8.148163    5.613481    5.960077
  Au     6.431637    4.521173    7.941059
  Au     5.263444    5.582960    5.677193
  Au     5.013579    6.966267    8.214927
  Au     7.863900    6.862186    8.525623
  Fe     6.659324    7.778560    6.307192

 Total Charge           Charge          ....    0
 Multiplicity           Mult            ....    5
 Number of Electrons    NEL             ....  254
 Basis Dimension        Dim             ....  525

ORBITAL ENERGIES
----------------

  NO   OCC          E(Eh)            E(eV)
   0   2.0000    -261.392056     -7112.8395
   1   2.0000     -31.956984      -869.5937
   2   2.0000     -27.436971      -746.5979
   3   2.0000     -27.436893      -746.5958
   4   2.0000     -27.436159      -746.5758
   5   2.0000      -4.738825      -128.9500
   6   2.0000      -4.724361      -128.5564
   7   2.0000      -4.724260      -128.5536
   8   2.0000      -4.723942      -128.5450
   9   2.0000      -4.717363      -128.3660
  10   2.0000      -4.717278      -128.3637
  11   2.0000      -4.709260      -128.1455
  12   2.0000      -4.707796      -128.1056
  13   2.0000      -4.702727      -127.9677
  14   2.0000      -4.701097      -127.9233
  15   2.0000      -4.700893      -127.9178
  16   2.0000      -4.697460      -127.8244
  17   2.0000      -4.190683      -114.0343
  18   2.0000      -2.778793       -75.6148
  19   2.0000      -2.776154       -75.5430
  20   2.0000      -2.774884       -75.5084
  21   2.0000      -2.770811       -75.3976
  22   2.0000      -2.769755       -75.3689
  23   2.0000      -2.769184       -75.3533
  24   2.0000      -2.763471       -75.1979
  25   2.0000      -2.762286       -75.1656
  26   2.0000      -2.761820       -75.1530
  27   2.0000      -2.761257       -75.1376
  28   2.0000      -2.761198       -75.1360
  29   2.0000      -2.760109       -75.1064
  30   2.0000      -2.757833       -75.0444
  31   2.0000      -2.757085       -75.0241
  32   2.0000      -2.756913       -75.0194
  33   2.0000      -2.754504       -74.9539
  34   2.0000      -2.754273       -74.9476
  35   2.0000      -2.752230       -74.8920
  36   2.0000      -2.752153       -74.8899
  37   2.0000      -2.749887       -74.8282
  38   2.0000      -2.749784       -74.8254
  39   2.0000      -2.749114       -74.8072
  40   2.0000      -2.748545       -74.7917
  41   2.0000      -2.745111       -74.6983
  42   2.0000      -2.742465       -74.6263
  43   2.0000      -2.741244       -74.5931
  44   2.0000      -2.740022       -74.5598
  45   2.0000      -2.739488       -74.5452
  46   2.0000      -2.738314       -74.5133
  47   2.0000      -2.738159       -74.5091
  48   2.0000      -2.737250       -74.4844
  49   2.0000      -2.736418       -74.4617
  50   2.0000      -2.736122       -74.4537
  51   2.0000      -2.734292       -74.4039
  52   2.0000      -2.734227       -74.4021
  53   2.0000      -2.733018       -74.3692
  54   2.0000      -2.732452       -74.3538
  55   2.0000      -2.732231       -74.3478
  56   2.0000      -2.731963       -74.3405
  57   2.0000      -0.582630       -15.8542
  58   2.0000      -0.566136       -15.4053
  59   2.0000      -0.558762       -15.2047
  60   2.0000      -0.558563       -15.1993
  61   2.0000      -0.554885       -15.0992
  62   2.0000      -0.553016       -15.0483
  63   2.0000      -0.545296       -14.8382
  64   2.0000      -0.543205       -14.7814
  65   2.0000      -0.540531       -14.7086
  66   2.0000      -0.537352       -14.6221
  67   2.0000      -0.534942       -14.5565
  68   2.0000      -0.531959       -14.4753
  69   2.0000      -0.530512       -14.4360
  70   2.0000      -0.529641       -14.4123
  71   2.0000      -0.523175       -14.2363
  72   2.0000      -0.521113       -14.1802
  73   2.0000      -0.518153       -14.0997
  74   2.0000      -0.515291       -14.0218
  75   2.0000      -0.511089       -13.9074
  76   2.0000      -0.509775       -13.8717
  77   2.0000      -0.509506       -13.8644
  78   2.0000      -0.507688       -13.8149
  79   2.0000      -0.501306       -13.6412
  80   2.0000      -0.500640       -13.6231
  81   2.0000      -0.496777       -13.5180
  82   2.0000      -0.489310       -13.3148
  83   2.0000      -0.487844       -13.2749
  84   2.0000      -0.481223       -13.0947
  85   2.0000      -0.479857       -13.0576
  86   2.0000      -0.479658       -13.0521
  87   2.0000      -0.476824       -12.9750
  88   2.0000      -0.475944       -12.9511
  89   2.0000      -0.473501       -12.8846
  90   2.0000      -0.472917       -12.8687
  91   2.0000      -0.467945       -12.7334
  92   2.0000      -0.462247       -12.5784
  93   2.0000      -0.462084       -12.5740
  94   2.0000      -0.459303       -12.4983
  95   2.0000      -0.456511       -12.4223
  96   2.0000      -0.455961       -12.4073
  97   2.0000      -0.450670       -12.2634
  98   2.0000      -0.449000       -12.2179
  99   2.0000      -0.448317       -12.1993
 100   2.0000      -0.445361       -12.1189
 101   2.0000      -0.443676       -12.0730
 102   2.0000      -0.443321       -12.0634
 103   2.0000      -0.441757       -12.0208
 104   2.0000      -0.440520       -11.9872
 105   2.0000      -0.440314       -11.9815
 106   2.0000      -0.438787       -11.9400
 107   2.0000      -0.435646       -11.8545
 108   2.0000      -0.433729       -11.8024
 109   2.0000      -0.432428       -11.7670
 110   2.0000      -0.427362       -11.6291
 111   2.0000      -0.421589       -11.4720
 112   2.0000      -0.417415       -11.3584
 113   2.0000      -0.411010       -11.1841
 114   2.0000      -0.409157       -11.1337
 115   2.0000      -0.407198       -11.0804
 116   2.0000      -0.400461       -10.8971
 117   2.0000      -0.396536       -10.7903
 118   2.0000      -0.386059       -10.5052
 119   2.0000      -0.316893        -8.6231
 120   2.0000      -0.315112        -8.5746
 121   2.0000      -0.257200        -6.9988
 122   2.0000      -0.225689        -6.1413
 123   2.0000      -0.219113        -5.9624
 124   1.2000      -0.270574        -7.3627
 125   1.2000      -0.267967        -7.2918
 126   1.2000      -0.267450        -7.2777
 127   1.2000      -0.259140        -7.0515
 128   1.2000      -0.272455        -7.4139
 129   0.0000      -0.053464        -1.4548
 130   0.0000      -0.014482        -0.3941
 131   0.0000      -0.010450        -0.2844
 132   0.0000      -0.000150        -0.0041
 133   0.0000       0.014989         0.4079

MULLIKEN ATOMIC CHARGES AND SPIN DENSITIES
------------------------------------------
   0 Au:    0.369935    0.008057
   1 Au:    0.331865    0.003629
   2 Au:    0.041097    0.008372
   3 Au:   -0.210712    0.012096
   4 Au:    0.043230    0.008329
   5 Au:    0.330784    0.003633
   6 Au:    0.038755    0.006914
   7 Au:    0.151129    0.008269
   8 Au:    0.308537    0.003600
   9 Au:    0.068523    0.008112
  10 Au:    0.149752    0.008330
  11 Au:    0.076421    0.009250
  12 Fe:   -1.699315    2.911411
Sum of atomic charges       :    0.0000000

LOEWDIN ATOMIC CHARGES AND SPIN DENSITIES
-----------------------------------------
   0 Au:    0.100666    0.011952
   1 Au:    0.055000    0.004173
   2 Au:    0.047439    0.011700
   3 Au:   -0.148988    0.014109
   4 Au:    0.047823    0.011669
   5 Au:    0.054014    0.004175
   6 Au:   -0.035426    0.009144
   7 Au:    0.016873    0.010786
   8 Au:    0.019338    0.004389
   9 Au:    0.015169    0.010464
  10 Au:    0.016852    0.010852
  11 Au:   -0.022829    0.010779
  12 Fe:   -0.165931    2.885809

  Mayer bond orders larger than 0.100000
B(  0-Au,  3-Au) :   0.5026 B(  0-Au, 11-Au) :   0.1532 B(  0-Au, 12-Fe) :   0.4311
B(  1-Au,  2-Au) :   0.4062 B(  1-Au,  3-Au) :   0.2175 B(  1-Au,  6-Au) :   0.2574
B(  2-Au,  6-Au) :   0.2711 B(  2-Au,  7-Au) :   0.2583 B(  2-Au, 12-Fe) :   0.4132
B(  3-Au,  5-Au) :   0.2153 B(  3-Au,  6-Au) :   0.1710 B(  3-Au, 12-Fe) :   0.5081
B(  4-Au,  5-Au) :   0.4073 B(  4-Au,  6-Au) :   0.2737 B(  4-Au, 10-Au) :   0.2576
B(  4-Au, 12-Fe) :   0.4122 B(  5-Au,  6-Au) :   0.2578 B(  6-Au,  9-Au) :   0.1738
B(  6-Au, 12-Fe) :   0.3306 B(  7-Au,  8-Au) :   0.1807 B(  7-Au,  9-Au) :   0.1685
B(  7-Au, 10-Au) :   0.1130 B(  7-Au, 11-Au) :   0.1987 B(  7-Au, 12-Fe) :   0.4037
B(  8-Au,  9-Au) :   0.3767 B(  8-Au, 10-Au) :   0.1813 B(  8-Au, 11-Au) :   0.1555
B(  8-Au, 12-Fe) :   0.1151 B(  9-Au, 10-Au) :   0.1677 B(  9-Au, 11-Au) :   0.1570
B(  9-Au, 12-Fe) :   0.4446 B( 10-Au, 11-Au) :   0.1973 B( 10-Au, 12-Fe) :   0.4061
B( 11-Au, 12-Fe) :   0.4542

FINAL SINGLE POINT ENERGY     -2886.126863262957

DIPOLE MOMENT
-------------
                                X             Y             Z
Electronic contribution:    -10.82408       0.13245     -15.19894
Nuclear contribution   :     10.64998      -0.31708      15.06613
                        -----------------------------------------
Total Dipole Moment    :     -0.17410      -0.18463      -0.13281
                        -----------------------------------------
Magnitude (a.u.)       :      0.28642
Magnitude (Debye)      :      0.72802

Rotational constants in cm-1:     0.001839     0.001031     0.001025
Rotational constants in MHz :    55.131531    30.894425    30.726366

                             ****ORCA TERMINATED NORMALLY****
TOTAL RUN TIME: 0 days 2 hours 26 minutes 10 seconds 772 msec
