                         Program Version 5.0.3 -  RELEASE  -
|  1> %pal nprocs 1 end
|  2>
|  3> !PBE def2-TZVP OPT UNO
|  4> !SLOWCONV
|  5>
|  6> *xyz 0 3
|  7>   Au  7.61552362704256      8.14708439645614      3.14483977895864
|  8>   Au  9.19017582013472      6.49539152826249      4.87076899785010
|  9>   Au  6.97181691031176     10.23160860409356      5.05174993518585
| 10>   Au  9.63427048158252      9.28623788235268      4.60065499320558
| 11>   Au  6.26394382951816      6.86552654612344      5.17402918193172
| 12>   Au  4.94882906170597      8.72521779335720      3.66858414625938
| 13>   Au  10.14669477484046      6.48502741683706      7.53041763266857
| 14>   Au  9.03459500139627     10.71719015229910      6.89085371047279
| 15>   Au  3.48686457019942      7.44810839423500      5.68140129783189
| 16>   Au  7.67956017719231      5.39664822680816      7.04742863957515
| 17>   Au  4.96449547034936      5.78447200378069      7.35824783216507
| 18>   Au  4.47158164831450     10.07628275381273      6.13556622860296
| 19>   Au  9.10727924465134      8.84798067043422      9.00502136721920
| 20>   Au  6.79228149399529      7.30947051617995      8.89882677164072
| 21>   Au  6.59388019013555      9.92438036372059      7.91563926730896
| 22>   Au  4.26663689719979      8.34261991435909      8.26693391677498
| 23>   Fe  8.31298021142976      8.12010702688752      6.66221642234809
| 24> *
| 25>
| 26>                          ****END OF INPUT****
 Total Charge           Charge          ....    0
 Multiplicity           Mult            ....    3
 Number of Electrons    NEL             ....  330
FINAL SINGLE POINT ENERGY     -3436.727749734656
FINAL SINGLE POINT ENERGY     -3436.728606877510
FINAL SINGLE POINT ENERGY     -3436.729228820671
FINAL SINGLE POINT ENERGY     -3436.729724823035
FINAL SINGLE POINT ENERGY     -3436.730040698637
FINAL SINGLE POINT ENERGY     -3436.730361583877
FINAL SINGLE POINT ENERGY     -3436.730574970242
FINAL SINGLE POINT ENERGY     -3436.730771435770
FINAL SINGLE POINT ENERGY     -3436.730953575040
FINAL SINGLE POINT ENERGY     -3436.731097486019
FINAL SINGLE POINT ENERGY     -3436.731580570891
FINAL SINGLE POINT ENERGY     -3436.731639578675
FINAL SINGLE POINT ENERGY     -3436.731672120237
FINAL SINGLE POINT ENERGY     -3436.731693833703
FINAL SINGLE POINT ENERGY     -3436.731708812141
FINAL SINGLE POINT ENERGY     -3436.731719799755
FINAL SINGLE POINT ENERGY     -3436.731724778681
FINAL SINGLE POINT ENERGY     -3436.731728796623
FINAL SINGLE POINT ENERGY     -3436.731731377333
                    ***********************HURRAY********************

CARTESIAN COORDINATES (ANGSTROEM)
---------------------------------
  Au     7.629246    8.156665    3.195944
  Au     9.159349    6.423738    4.831442
  Au     7.021156   10.222952    5.080395
  Au     9.759425    9.171638    4.716711
  Au     6.221659    6.700746    5.090766
  Au     4.974642    8.769634    3.735393
  Au    10.108965    6.742973    7.490343
  Au     9.065539   10.712363    6.891002
  Au     3.524261    7.468752    5.714216
  Au     7.718012    5.349303    7.009638
  Au     4.976195    5.768939    7.369751
  Au     4.462199   10.122111    6.155105
  Au     9.065355    8.861068    8.987936
  Au     6.819642    7.285543    8.843889
  Au     6.570078    9.955152    7.945891
  Au     4.285360    8.346616    8.294241
  Fe     8.120326    8.145161    6.550515

 Multiplicity           Mult            ....    3
 Number of Electrons    NEL             ....  330
 Basis Dimension        Dim             ....  685

ORBITAL ENERGIES
----------------
                 SPIN UP ORBITALS
  NO   OCC          E(Eh)            E(eV)
   0   1.0000    -254.739885     -6931.8247
   1   1.0000     -29.572191      -804.7002
   2   1.0000     -25.513178      -694.2489
   3   1.0000     -25.509525      -694.1495
   4   1.0000     -25.502143      -693.9486
   5   1.0000      -4.036525      -109.8394
   6   1.0000      -4.036028      -109.8259
   7   1.0000      -4.035887      -109.8221
   8   1.0000      -4.035448      -109.8101
   9   1.0000      -4.033638      -109.7609
  10   1.0000      -4.031199      -109.6945
  11   1.0000      -4.029940      -109.6602
  12   1.0000      -4.028263      -109.6146
  13   1.0000      -4.028006      -109.6076
  14   1.0000      -4.027739      -109.6004
  15   1.0000      -4.026947      -109.5788
  16   1.0000      -4.026169      -109.5576
  17   1.0000      -4.022815      -109.4664
  18   1.0000      -4.017123      -109.3115
  19   1.0000      -4.015672      -109.2720
  20   1.0000      -4.015532      -109.2682
  21   1.0000      -3.349239       -91.1374
  22   1.0000      -2.252807       -61.3020
  23   1.0000      -2.252298       -61.2881
  24   1.0000      -2.251655       -61.2706
  25   1.0000      -2.251298       -61.2609
  26   1.0000      -2.250311       -61.2341
  27   1.0000      -2.249786       -61.2198
  28   1.0000      -2.249347       -61.2078
  29   1.0000      -2.248650       -61.1889
  30   1.0000      -2.248251       -61.1780
  31   1.0000      -2.247549       -61.1589
  32   1.0000      -2.247022       -61.1446
  33   1.0000      -2.246546       -61.1316
  34   1.0000      -2.246277       -61.1243
  35   1.0000      -2.245809       -61.1116
  36   1.0000      -2.245397       -61.1004
  37   1.0000      -2.244869       -61.0860
  38   1.0000      -2.244236       -61.0688
  39   1.0000      -2.243632       -61.0523
  40   1.0000      -2.243520       -61.0493
  41   1.0000      -2.242662       -61.0259
  42   1.0000      -2.242579       -61.0237
  43   1.0000      -2.242298       -61.0160
  44   1.0000      -2.241993       -61.0077
  45   1.0000      -2.241881       -61.0047
  46   1.0000      -2.240950       -60.9793
  47   1.0000      -2.240739       -60.9736
  48   1.0000      -2.240589       -60.9695
  49   1.0000      -2.240219       -60.9595
  50   1.0000      -2.239814       -60.9484
  51   1.0000      -2.239439       -60.9382
  52   1.0000      -2.239153       -60.9304
  53   1.0000      -2.238987       -60.9259
  54   1.0000      -2.238738       -60.9192
  55   1.0000      -2.238652       -60.9168
  56   1.0000      -2.237973       -60.8984
  57   1.0000      -2.237314       -60.8804
  58   1.0000      -2.236702       -60.8637
  59   1.0000      -2.235381       -60.8278
  60   1.0000      -2.232840       -60.7587
  61   1.0000      -2.232075       -60.7379
  62   1.0000      -2.231658       -60.7265
  63   1.0000      -2.231001       -60.7086
  64   1.0000      -2.229917       -60.6791
  65   1.0000      -2.229719       -60.6737
  66   1.0000      -2.228313       -60.6355
  67   1.0000      -2.226759       -60.5932
  68   1.0000      -2.225180       -60.5502
  69   1.0000      -2.224622       -60.5351
  70   1.0000      -2.173452       -59.1426
  71   1.0000      -2.166442       -58.9519
  72   1.0000      -2.150923       -58.5296
  73   1.0000      -0.433876       -11.8064
  74   1.0000      -0.396564       -10.7911
  75   1.0000      -0.390563       -10.6278
  76   1.0000      -0.388418       -10.5694
  77   1.0000      -0.378850       -10.3090
  78   1.0000      -0.374798       -10.1988
  79   1.0000      -0.371615       -10.1122
  80   1.0000      -0.368603       -10.0302
  81   1.0000      -0.366324        -9.9682
  82   1.0000      -0.363873        -9.9015
  83   1.0000      -0.360850        -9.8192
  84   1.0000      -0.359491        -9.7822
  85   1.0000      -0.358850        -9.7648
  86   1.0000      -0.356230        -9.6935
  87   1.0000      -0.353525        -9.6199
  88   1.0000      -0.351220        -9.5572
  89   1.0000      -0.349736        -9.5168
  90   1.0000      -0.348108        -9.4725
  91   1.0000      -0.345604        -9.4044
  92   1.0000      -0.344687        -9.3794
  93   1.0000      -0.342690        -9.3251
  94   1.0000      -0.341236        -9.2855
  95   1.0000      -0.340173        -9.2566
  96   1.0000      -0.338680        -9.2159
  97   1.0000      -0.337372        -9.1804
  98   1.0000      -0.336254        -9.1499
  99   1.0000      -0.332744        -9.0544
 100   1.0000      -0.328699        -8.9444
 101   1.0000      -0.326424        -8.8824
 102   1.0000      -0.325725        -8.8634
 103   1.0000      -0.323775        -8.8104
 104   1.0000      -0.322905        -8.7867
 105   1.0000      -0.318640        -8.6706
 106   1.0000      -0.315832        -8.5942
 107   1.0000      -0.313588        -8.5332
 108   1.0000      -0.311619        -8.4796
 109   1.0000      -0.309705        -8.4275
 110   1.0000      -0.309369        -8.4183
 111   1.0000      -0.306794        -8.3483
 112   1.0000      -0.304702        -8.2914
 113   1.0000      -0.304147        -8.2763
 114   1.0000      -0.301511        -8.2045
 115   1.0000      -0.299295        -8.1442
 116   1.0000      -0.296312        -8.0631
 117   1.0000      -0.295068        -8.0292
 118   1.0000      -0.294323        -8.0089
 119   1.0000      -0.292873        -7.9695
 120   1.0000      -0.290205        -7.8969
 121   1.0000      -0.287362        -7.8195
 122   1.0000      -0.284870        -7.7517
 123   1.0000      -0.282032        -7.6745
 124   1.0000      -0.280214        -7.6250
 125   1.0000      -0.278471        -7.5776
 126   1.0000      -0.276732        -7.5303
 127   1.0000      -0.275732        -7.5030
 128   1.0000      -0.274985        -7.4827
 129   1.0000      -0.273819        -7.4510
 130   1.0000      -0.272342        -7.4108
 131   1.0000      -0.272086        -7.4038
 132   1.0000      -0.270095        -7.3496
 133   1.0000      -0.268425        -7.3042
 134   1.0000      -0.266120        -7.2415
 135   1.0000      -0.264395        -7.1945
 136   1.0000      -0.262637        -7.1467
 137   1.0000      -0.261805        -7.1241
 138   1.0000      -0.259349        -7.0572
 139   1.0000      -0.259094        -7.0503
 140   1.0000      -0.258446        -7.0327
 141   1.0000      -0.257903        -7.0179
 142   1.0000      -0.257213        -6.9991
 143   1.0000      -0.256455        -6.9785
 144   1.0000      -0.254755        -6.9322
 145   1.0000      -0.252573        -6.8729
 146   1.0000      -0.251129        -6.8336
 147   1.0000      -0.251029        -6.8309
 148   1.0000      -0.250312        -6.8113
 149   1.0000      -0.248537        -6.7630
 150   1.0000      -0.248093        -6.7510
 151   1.0000      -0.247348        -6.7307
 152   1.0000      -0.246479        -6.7070
 153   1.0000      -0.245049        -6.6681
 154   1.0000      -0.243662        -6.6304
 155   1.0000      -0.241488        -6.5712
 156   1.0000      -0.239966        -6.5298
 157   1.0000      -0.238469        -6.4891
 158   1.0000      -0.236698        -6.4409
 159   1.0000      -0.233674        -6.3586
 160   1.0000      -0.230315        -6.2672
 161   1.0000      -0.228133        -6.2078
 162   1.0000      -0.217967        -5.9312
 163   1.0000      -0.212089        -5.7712
 164   1.0000      -0.209003        -5.6872
 165   1.0000      -0.204135        -5.5548
 166   0.0000      -0.191760        -5.2181
 167   0.0000      -0.151538        -4.1236
 168   0.0000      -0.149217        -4.0604
 169   0.0000      -0.142051        -3.8654
 170   0.0000      -0.134687        -3.6650

                 SPIN DOWN ORBITALS
  NO   OCC          E(Eh)            E(eV)
   0   1.0000    -254.739281     -6931.8082
   1   1.0000     -29.519182      -803.2578
   2   1.0000     -25.471260      -693.1082
   3   1.0000     -25.469176      -693.0515
   4   1.0000     -25.464373      -692.9208
   5   1.0000      -4.036432      -109.8369
   6   1.0000      -4.036010      -109.8254
   7   1.0000      -4.035970      -109.8243
   8   1.0000      -4.035727      -109.8177
   9   1.0000      -4.033839      -109.7664
  10   1.0000      -4.031307      -109.6974
  11   1.0000      -4.029752      -109.6551
  12   1.0000      -4.029113      -109.6377
  13   1.0000      -4.027994      -109.6073
  14   1.0000      -4.027685      -109.5989
  15   1.0000      -4.027460      -109.5928
  16   1.0000      -4.026801      -109.5748
  17   1.0000      -4.022356      -109.4539
  18   1.0000      -4.017451      -109.3204
  19   1.0000      -4.015953      -109.2796
  20   1.0000      -4.015655      -109.2715
  21   1.0000      -3.228311       -87.8468
  22   1.0000      -2.253419       -61.3186
  23   1.0000      -2.252324       -61.2889
  24   1.0000      -2.251733       -61.2728
  25   1.0000      -2.251014       -61.2532
  26   1.0000      -2.250492       -61.2390
  27   1.0000      -2.249693       -61.2173
  28   1.0000      -2.249550       -61.2134
  29   1.0000      -2.248708       -61.1905
  30   1.0000      -2.248260       -61.1783
  31   1.0000      -2.247232       -61.1503
  32   1.0000      -2.246916       -61.1417
  33   1.0000      -2.246587       -61.1328
  34   1.0000      -2.246218       -61.1227
  35   1.0000      -2.245934       -61.1150
  36   1.0000      -2.245206       -61.0952
  37   1.0000      -2.245154       -61.0938
  38   1.0000      -2.244480       -61.0754
  39   1.0000      -2.243987       -61.0620
  40   1.0000      -2.243449       -61.0473
  41   1.0000      -2.242815       -61.0301
  42   1.0000      -2.242433       -61.0197
  43   1.0000      -2.242122       -61.0113
  44   1.0000      -2.242026       -61.0086
  45   1.0000      -2.241916       -61.0056
  46   1.0000      -2.241798       -61.0024
  47   1.0000      -2.241252       -60.9876
  48   1.0000      -2.241049       -60.9820
  49   1.0000      -2.240349       -60.9630
  50   1.0000      -2.240188       -60.9586
  51   1.0000      -2.239931       -60.9516
  52   1.0000      -2.239733       -60.9462
  53   1.0000      -2.239512       -60.9402
  54   1.0000      -2.238594       -60.9152
  55   1.0000      -2.238516       -60.9131
  56   1.0000      -2.238062       -60.9008
  57   1.0000      -2.237716       -60.8913
  58   1.0000      -2.237346       -60.8813
  59   1.0000      -2.235047       -60.8187
  60   1.0000      -2.233239       -60.7695
  61   1.0000      -2.232030       -60.7366
  62   1.0000      -2.231844       -60.7316
  63   1.0000      -2.231213       -60.7144
  64   1.0000      -2.230346       -60.6908
  65   1.0000      -2.230003       -60.6815
  66   1.0000      -2.228408       -60.6381
  67   1.0000      -2.226939       -60.5981
  68   1.0000      -2.225342       -60.5546
  69   1.0000      -2.224784       -60.5394
  70   1.0000      -2.049056       -55.7577
  71   1.0000      -2.046934       -55.6999
  72   1.0000      -2.039261       -55.4911
  73   1.0000      -0.431192       -11.7333
  74   1.0000      -0.397053       -10.8044
  75   1.0000      -0.390780       -10.6337
  76   1.0000      -0.387895       -10.5552
  77   1.0000      -0.374404       -10.1880
  78   1.0000      -0.372936       -10.1481
  79   1.0000      -0.371705       -10.1146
  80   1.0000      -0.368427       -10.0254
  81   1.0000      -0.365810        -9.9542
  82   1.0000      -0.363555        -9.8928
  83   1.0000      -0.360464        -9.8087
  84   1.0000      -0.359945        -9.7946
  85   1.0000      -0.359088        -9.7713
  86   1.0000      -0.354961        -9.6590
  87   1.0000      -0.351077        -9.5533
  88   1.0000      -0.350109        -9.5269
  89   1.0000      -0.349393        -9.5075
  90   1.0000      -0.347367        -9.4523
  91   1.0000      -0.345068        -9.3898
  92   1.0000      -0.344101        -9.3635
  93   1.0000      -0.341987        -9.3059
  94   1.0000      -0.340594        -9.2680
  95   1.0000      -0.340125        -9.2553
  96   1.0000      -0.338640        -9.2149
  97   1.0000      -0.337147        -9.1742
  98   1.0000      -0.335548        -9.1307
  99   1.0000      -0.332211        -9.0399
 100   1.0000      -0.329330        -8.9615
 101   1.0000      -0.326746        -8.8912
 102   1.0000      -0.325891        -8.8679
 103   1.0000      -0.324360        -8.8263
 104   1.0000      -0.322393        -8.7728
 105   1.0000      -0.319511        -8.6943
 106   1.0000      -0.314693        -8.5632
 107   1.0000      -0.312350        -8.4995
 108   1.0000      -0.310619        -8.4524
 109   1.0000      -0.308678        -8.3996
 110   1.0000      -0.306199        -8.3321
 111   1.0000      -0.305517        -8.3135
 112   1.0000      -0.303430        -8.2567
 113   1.0000      -0.302208        -8.2235
 114   1.0000      -0.300965        -8.1897
 115   1.0000      -0.296707        -8.0738
 116   1.0000      -0.295557        -8.0425
 117   1.0000      -0.292978        -7.9723
 118   1.0000      -0.292142        -7.9496
 119   1.0000      -0.290778        -7.9125
 120   1.0000      -0.289023        -7.8647
 121   1.0000      -0.286639        -7.7999
 122   1.0000      -0.284731        -7.7479
 123   1.0000      -0.281550        -7.6614
 124   1.0000      -0.279099        -7.5947
 125   1.0000      -0.278077        -7.5669
 126   1.0000      -0.276487        -7.5236
 127   1.0000      -0.275199        -7.4885
 128   1.0000      -0.274767        -7.4768
 129   1.0000      -0.273574        -7.4443
 130   1.0000      -0.272339        -7.4107
 131   1.0000      -0.272096        -7.4041
 132   1.0000      -0.270521        -7.3613
 133   1.0000      -0.268047        -7.2939
 134   1.0000      -0.266538        -7.2529
 135   1.0000      -0.264441        -7.1958
 136   1.0000      -0.262941        -7.1550
 137   1.0000      -0.262001        -7.1294
 138   1.0000      -0.259783        -7.0691
 139   1.0000      -0.258864        -7.0441
 140   1.0000      -0.258506        -7.0343
 141   1.0000      -0.258260        -7.0276
 142   1.0000      -0.257447        -7.0055
 143   1.0000      -0.257223        -6.9994
 144   1.0000      -0.254356        -6.9214
 145   1.0000      -0.252207        -6.8629
 146   1.0000      -0.250938        -6.8284
 147   1.0000      -0.250803        -6.8247
 148   1.0000      -0.248792        -6.7700
 149   1.0000      -0.248391        -6.7591
 150   1.0000      -0.247607        -6.7377
 151   1.0000      -0.245488        -6.6801
 152   1.0000      -0.243436        -6.6242
 153   1.0000      -0.242272        -6.5926
 154   1.0000      -0.240099        -6.5334
 155   1.0000      -0.237614        -6.4658
 156   1.0000      -0.234274        -6.3749
 157   1.0000      -0.225994        -6.1496
 158   1.0000      -0.217773        -5.9259
 159   1.0000      -0.215230        -5.8567
 160   1.0000      -0.211487        -5.7549
 161   1.0000      -0.204687        -5.5698
 162   1.0000      -0.174834        -4.7575
 163   1.0000      -0.171597        -4.6694
 164   0.0000      -0.156261        -4.2521
 165   0.0000      -0.152334        -4.1452
 166   0.0000      -0.151610        -4.1255
 167   0.0000      -0.145216        -3.9515
 168   0.0000      -0.139303        -3.7906

MULLIKEN ATOMIC CHARGES AND SPIN POPULATIONS
--------------------------------------------
   0 Au:    0.252849   -0.078443
   1 Au:    0.400524   -0.056356
   2 Au:   -0.312906   -0.067515
   3 Au:    0.357243   -0.034967
   4 Au:   -0.889457   -0.098976
   5 Au:    0.262142   -0.058637
   6 Au:    0.360299   -0.041015
   7 Au:    0.402051   -0.006798
   8 Au:    0.225144   -0.063557
   9 Au:    0.235920   -0.024773
  10 Au:    0.292454   -0.066992
  11 Au:    0.205239   -0.050867
  12 Au:    0.392612   -0.000650
  13 Au:   -0.068212   -0.081162
  14 Au:   -0.148444   -0.073211
  15 Au:    0.190092   -0.048596
  16 Fe:   -2.157551    2.852515
Sum of atomic charges         :   -0.0000000

LOEWDIN ATOMIC CHARGES AND SPIN POPULATIONS
-------------------------------------------
   0 Au:    0.049663   -0.096373
   1 Au:    0.074336   -0.046260
   2 Au:   -0.023286   -0.047357
   3 Au:    0.091883   -0.037946
   4 Au:   -0.071451   -0.062205
   5 Au:    0.038977   -0.080286
   6 Au:    0.114095   -0.037763
   7 Au:    0.108407   -0.035747
   8 Au:   -0.006407   -0.063432
   9 Au:    0.062868   -0.055566
  10 Au:    0.035172   -0.083028
  11 Au:   -0.002055   -0.045508
  12 Au:    0.099513   -0.045392
  13 Au:    0.004386   -0.064349
  14 Au:   -0.007080   -0.036775
  15 Au:   -0.004653   -0.050391
  16 Fe:   -0.564368    2.888380

  Mayer bond orders larger than 0.100000
B(  0-Au,  1-Au) :   0.1969 B(  0-Au,  2-Au) :   0.2018 B(  0-Au,  3-Au) :   0.2270
B(  0-Au,  4-Au) :   0.3637 B(  0-Au,  5-Au) :   0.3027 B(  0-Au, 16-Fe) :   0.1479
B(  1-Au,  3-Au) :   0.1637 B(  1-Au,  4-Au) :   0.2023 B(  1-Au,  6-Au) :   0.1425
B(  1-Au,  9-Au) :   0.1633 B(  1-Au, 16-Fe) :   0.4649 B(  2-Au,  3-Au) :   0.1746
B(  2-Au,  4-Au) :   0.1226 B(  2-Au,  5-Au) :   0.2573 B(  2-Au,  7-Au) :   0.2775
B(  2-Au, 11-Au) :   0.3382 B(  2-Au, 14-Au) :   0.2096 B(  2-Au, 16-Fe) :   0.4364
B(  3-Au,  7-Au) :   0.2063 B(  3-Au, 16-Fe) :   0.5015 B(  4-Au,  5-Au) :   0.4100
B(  4-Au,  8-Au) :   0.3639 B(  4-Au,  9-Au) :   0.3326 B(  4-Au, 10-Au) :   0.4177
B(  4-Au, 16-Fe) :   0.4125 B(  5-Au,  8-Au) :   0.3052 B(  5-Au, 11-Au) :   0.2097
B(  6-Au,  9-Au) :   0.1920 B(  6-Au, 12-Au) :   0.2064 B(  6-Au, 16-Fe) :   0.5991
B(  7-Au, 12-Au) :   0.1664 B(  7-Au, 14-Au) :   0.2419 B(  7-Au, 16-Fe) :   0.3830
B(  8-Au, 10-Au) :   0.2854 B(  8-Au, 11-Au) :   0.2118 B(  8-Au, 15-Au) :   0.2478
B(  9-Au, 10-Au) :   0.2689 B(  9-Au, 13-Au) :   0.1547 B(  9-Au, 16-Fe) :   0.3505
B( 10-Au, 13-Au) :   0.2453 B( 10-Au, 15-Au) :   0.2254 B( 11-Au, 14-Au) :   0.3107
B( 11-Au, 15-Au) :   0.2275 B( 11-Au, 16-Fe) :   0.1008 B( 12-Au, 13-Au) :   0.2939
B( 12-Au, 14-Au) :   0.1841 B( 12-Au, 16-Fe) :   0.4066 B( 13-Au, 14-Au) :   0.2168
B( 13-Au, 15-Au) :   0.3156 B( 13-Au, 16-Fe) :   0.4083 B( 14-Au, 15-Au) :   0.2976
B( 14-Au, 16-Fe) :   0.4149

FINAL SINGLE POINT ENERGY     -3436.731733470911

DIPOLE MOMENT
-------------
                                X             Y             Z
Electronic contribution:    -43.63842      -0.66059      -8.32287
Nuclear contribution   :     44.40747       0.63241       8.26612
                        -----------------------------------------
Total Dipole Moment    :      0.76905      -0.02817      -0.05675
                        -----------------------------------------
Magnitude (a.u.)       :      0.77166
Magnitude (Debye)      :      1.96140

Rotational constants in cm-1:     0.000955     0.000798     0.000739
Rotational constants in MHz :    28.623018    23.914208    22.149178

                             ****ORCA TERMINATED NORMALLY****
TOTAL RUN TIME: 0 days 7 hours 8 minutes 31 seconds 246 msec
