                         Program Version 5.0.3 -  RELEASE  -
|  1> !CASSCF def2-TZVP def2-TZVP/C
|  2> !MOREAD RIJCOSX
|  3> %maxcore 6000
|  4> %moinp "pbe.qro"
|  5> %pal nprocs 16 end
|  6>
|  7> %casscf
|  8>  mult 6,4
|  9>  bweight 1,1
| 10>  nroots 1,24
| 11>  nel 5
| 12>  norb 5
| 13> end
| 14>
| 15>
| 16> *xyzfile 0 6 pbe.xyz
| 17>
| 18>
| 19>                          ****END OF INPUT****

CARTESIAN COORDINATES (ANGSTROEM)
---------------------------------
  Au     7.006202    5.381086    7.248390
  Au     4.645554    6.801607    7.084974
  Au     6.026167    7.316273    9.420751
  Au     6.281735    6.387141    4.794885
  Au     6.484743    8.887791    6.081730
  Au     4.716496    9.409068    8.220544
  Au     9.733695    5.603970    7.107576
  Au     8.766473    7.480575    5.097846
  Au    10.913205    8.111596    6.778954
  Au     8.984397   10.094054    6.141909
  Au     8.259390    5.783542    9.625493
  Au     8.225429    8.573902   10.472234
  Au     9.996786    9.905275    8.782721
  Au     7.270551   10.373440    8.377773
  Mn     8.375766    7.854361    7.843372

 Total Charge           Charge          ....    0
 Multiplicity           Mult            ....    6
 Number of Electrons    NEL             ....  291
 Basis Dimension        Dim             ....  605

ORBITAL ENERGIES
----------------

  NO   OCC          E(Eh)            E(eV)
   0   2.0000    -240.558832     -6545.9386
   1   2.0000     -29.133081      -792.7514
   2   2.0000     -24.838655      -675.8942
   3   2.0000     -24.837796      -675.8708
   4   2.0000     -24.837614      -675.8658
   5   2.0000      -4.733153      -128.7956
   6   2.0000      -4.719311      -128.4190
   7   2.0000      -4.717764      -128.3769
   8   2.0000      -4.717610      -128.3727
   9   2.0000      -4.717242      -128.3627
  10   2.0000      -4.716585      -128.3448
  11   2.0000      -4.711253      -128.1997
  12   2.0000      -4.710896      -128.1900
  13   2.0000      -4.710838      -128.1884
  14   2.0000      -4.710487      -128.1789
  15   2.0000      -4.709716      -128.1579
  16   2.0000      -4.708903      -128.1358
  17   2.0000      -4.708529      -128.1256
  18   2.0000      -4.708425      -128.1228
  19   2.0000      -3.838968      -104.4636
  20   2.0000      -2.771626       -75.4198
  21   2.0000      -2.769813       -75.3704
  22   2.0000      -2.768031       -75.3220
  23   2.0000      -2.761086       -75.1330
  24   2.0000      -2.758055       -75.0505
  25   2.0000      -2.756740       -75.0147
  26   2.0000      -2.756581       -75.0104
  27   2.0000      -2.755599       -74.9837
  28   2.0000      -2.754644       -74.9577
  29   2.0000      -2.754380       -74.9505
  30   2.0000      -2.754169       -74.9448
  31   2.0000      -2.752816       -74.9079
  32   2.0000      -2.752619       -74.9026
  33   2.0000      -2.752267       -74.8930
  34   2.0000      -2.751666       -74.8766
  35   2.0000      -2.751551       -74.8735
  36   2.0000      -2.751050       -74.8599
  37   2.0000      -2.750392       -74.8420
  38   2.0000      -2.749731       -74.8240
  39   2.0000      -2.748593       -74.7930
  40   2.0000      -2.748065       -74.7787
  41   2.0000      -2.748038       -74.7779
  42   2.0000      -2.747486       -74.7629
  43   2.0000      -2.746739       -74.7426
  44   2.0000      -2.746611       -74.7391
  45   2.0000      -2.745782       -74.7165
  46   2.0000      -2.745759       -74.7159
  47   2.0000      -2.745403       -74.7062
  48   2.0000      -2.745241       -74.7018
  49   2.0000      -2.745128       -74.6987
  50   2.0000      -2.744944       -74.6937
  51   2.0000      -2.744659       -74.6860
  52   2.0000      -2.744419       -74.6794
  53   2.0000      -2.743458       -74.6533
  54   2.0000      -2.743368       -74.6509
  55   2.0000      -2.742995       -74.6407
  56   2.0000      -2.742119       -74.6169
  57   2.0000      -2.742080       -74.6158
  58   2.0000      -2.741171       -74.5910
  59   2.0000      -2.741029       -74.5872
  60   2.0000      -2.740352       -74.5688
  61   2.0000      -2.740198       -74.5646
  62   2.0000      -2.507891       -68.2432
  63   2.0000      -2.507159       -68.2233
  64   2.0000      -2.507060       -68.2206
  65   2.0000      -0.581292       -15.8178
  66   2.0000      -0.559269       -15.2185
  67   2.0000      -0.556739       -15.1496
  68   2.0000      -0.554176       -15.0799
  69   2.0000      -0.552919       -15.0457
  70   2.0000      -0.551710       -15.0128
  71   2.0000      -0.551502       -15.0071
  72   2.0000      -0.549807       -14.9610
  73   2.0000      -0.548557       -14.9270
  74   2.0000      -0.545809       -14.8522
  75   2.0000      -0.544465       -14.8156
  76   2.0000      -0.542425       -14.7601
  77   2.0000      -0.541111       -14.7244
  78   2.0000      -0.537561       -14.6278
  79   2.0000      -0.535936       -14.5836
  80   2.0000      -0.535728       -14.5779
  81   2.0000      -0.534476       -14.5438
  82   2.0000      -0.528773       -14.3886
  83   2.0000      -0.527624       -14.3574
  84   2.0000      -0.524466       -14.2714
  85   2.0000      -0.523208       -14.2372
  86   2.0000      -0.514840       -14.0095
  87   2.0000      -0.511857       -13.9283
  88   2.0000      -0.510637       -13.8952
  89   2.0000      -0.508926       -13.8486
  90   2.0000      -0.506134       -13.7726
  91   2.0000      -0.503615       -13.7041
  92   2.0000      -0.500982       -13.6324
  93   2.0000      -0.498977       -13.5779
  94   2.0000      -0.494633       -13.4597
  95   2.0000      -0.493176       -13.4200
  96   2.0000      -0.490680       -13.3521
  97   2.0000      -0.485376       -13.2078
  98   2.0000      -0.481616       -13.1054
  99   2.0000      -0.476887       -12.9768
 100   2.0000      -0.474850       -12.9213
 101   2.0000      -0.473677       -12.8894
 102   2.0000      -0.473647       -12.8886
 103   2.0000      -0.468624       -12.7519
 104   2.0000      -0.467323       -12.7165
 105   2.0000      -0.462802       -12.5935
 106   2.0000      -0.462196       -12.5770
 107   2.0000      -0.459041       -12.4912
 108   2.0000      -0.457097       -12.4382
 109   2.0000      -0.456749       -12.4288
 110   2.0000      -0.455282       -12.3888
 111   2.0000      -0.453509       -12.3406
 112   2.0000      -0.452277       -12.3071
 113   2.0000      -0.449500       -12.2315
 114   2.0000      -0.447681       -12.1820
 115   2.0000      -0.445513       -12.1230
 116   2.0000      -0.444439       -12.0938
 117   2.0000      -0.443925       -12.0798
 118   2.0000      -0.441762       -12.0209
 119   2.0000      -0.440823       -11.9954
 120   2.0000      -0.439983       -11.9725
 121   2.0000      -0.436829       -11.8867
 122   2.0000      -0.435374       -11.8471
 123   2.0000      -0.434383       -11.8202
 124   2.0000      -0.432264       -11.7625
 125   2.0000      -0.427431       -11.6310
 126   2.0000      -0.425689       -11.5836
 127   2.0000      -0.425313       -11.5734
 128   2.0000      -0.421795       -11.4776
 129   2.0000      -0.421633       -11.4732
 130   2.0000      -0.420295       -11.4368
 131   2.0000      -0.408897       -11.1267
 132   2.0000      -0.408233       -11.1086
 133   2.0000      -0.405695       -11.0395
 134   2.0000      -0.405453       -11.0329
 135   2.0000      -0.384794       -10.4708
 136   2.0000      -0.372467       -10.1353
 137   2.0000      -0.361913        -9.8481
 138   2.0000      -0.350463        -9.5366
 139   2.0000      -0.260102        -7.0777
 140   2.0000      -0.242355        -6.5948
 141   2.0000      -0.228574        -6.2198
 142   2.0000      -0.222347        -6.0504
 143   1.0000      -0.157049        -4.2735
 144   1.0000      -0.148694        -4.0462
 145   1.0000      -0.163093        -4.4380
 146   1.0000      -0.156880        -4.2689
 147   1.0000      -0.151851        -4.1321
 148   0.0000      -0.043196        -1.1754
 149   0.0000      -0.024914        -0.6780
 150   0.0000      -0.011941        -0.3249
 151   0.0000      -0.003761        -0.1023
 152   0.0000       0.017256         0.4695

MULLIKEN ATOMIC CHARGES AND SPIN DENSITIES
------------------------------------------
   0 Au:   -0.179114    0.008699
   1 Au:    0.169190    0.004366
   2 Au:   -0.184666    0.008772
   3 Au:    0.327134    0.004654
   4 Au:   -0.340591    0.007444
   5 Au:    0.333727    0.004626
   6 Au:    0.258281    0.010683
   7 Au:    0.071592    0.008927
   8 Au:    0.314902    0.008404
   9 Au:    0.251399    0.007288
  10 Au:    0.454342    0.008785
  11 Au:    0.260752    0.010660
  12 Au:    0.312739    0.008166
  13 Au:    0.063515    0.008924
  14 Mn:   -2.113202    3.889602
Sum of atomic charges       :    0.0000000

LOEWDIN ATOMIC CHARGES AND SPIN DENSITIES
-----------------------------------------
   0 Au:   -0.099061    0.012046
   1 Au:    0.030733    0.005113
   2 Au:   -0.099081    0.012144
   3 Au:    0.123285    0.005091
   4 Au:   -0.060561    0.011449
   5 Au:    0.126281    0.005070
   6 Au:    0.057326    0.013848
   7 Au:   -0.041962    0.012030
   8 Au:    0.055290    0.011898
   9 Au:    0.008444    0.009494
  10 Au:    0.098320    0.013045
  11 Au:    0.057901    0.013827
  12 Au:    0.053409    0.011616
  13 Au:   -0.043145    0.012003
  14 Mn:   -0.267179    3.851325

  Mayer bond orders larger than 0.100000
B(  0-Au,  1-Au) :   0.3015 B(  0-Au,  2-Au) :   0.1195 B(  0-Au,  3-Au) :   0.2353
B(  0-Au,  4-Au) :   0.1159 B(  0-Au,  6-Au) :   0.2400 B(  0-Au,  7-Au) :   0.1114
B(  0-Au, 10-Au) :   0.2772 B(  0-Au, 14-Mn) :   0.4214 B(  1-Au,  2-Au) :   0.3012
B(  1-Au,  3-Au) :   0.1763 B(  1-Au,  4-Au) :   0.1660 B(  1-Au,  5-Au) :   0.1753
B(  2-Au,  4-Au) :   0.1198 B(  2-Au,  5-Au) :   0.2403 B(  2-Au, 10-Au) :   0.2807
B(  2-Au, 11-Au) :   0.2374 B(  2-Au, 13-Au) :   0.1135 B(  2-Au, 14-Mn) :   0.4247
B(  3-Au,  4-Au) :   0.2618 B(  3-Au,  7-Au) :   0.2974 B(  4-Au,  5-Au) :   0.2577
B(  4-Au,  7-Au) :   0.2694 B(  4-Au,  9-Au) :   0.2737 B(  4-Au, 13-Au) :   0.2732
B(  4-Au, 14-Mn) :   0.3201 B(  5-Au, 13-Au) :   0.2986 B(  6-Au,  7-Au) :   0.1097
B(  6-Au,  8-Au) :   0.1592 B(  6-Au, 14-Mn) :   0.4657 B(  7-Au,  8-Au) :   0.2245
B(  7-Au,  9-Au) :   0.1323 B(  7-Au, 14-Mn) :   0.4026 B(  8-Au,  9-Au) :   0.1415
B(  8-Au, 12-Au) :   0.1292 B(  8-Au, 14-Mn) :   0.3712 B(  9-Au, 12-Au) :   0.1428
B(  9-Au, 13-Au) :   0.1325 B(  9-Au, 14-Mn) :   0.4107 B( 10-Au, 14-Mn) :   0.3136
B( 11-Au, 12-Au) :   0.1615 B( 11-Au, 13-Au) :   0.1076 B( 11-Au, 14-Mn) :   0.4644
B( 12-Au, 13-Au) :   0.2291 B( 12-Au, 14-Mn) :   0.3689 B( 13-Au, 14-Mn) :   0.4024

FINAL SINGLE POINT ENERGY     -3037.171164024661

DIPOLE MOMENT
-------------
                                X             Y             Z
Electronic contribution:    -26.09152       0.44577     -12.02863
Nuclear contribution   :     25.94152      -0.38655      11.91869
                        -----------------------------------------
Total Dipole Moment    :     -0.15000       0.05921      -0.10993
                        -----------------------------------------
Magnitude (a.u.)       :      0.19517
Magnitude (Debye)      :      0.49609

Rotational constants in cm-1:     0.001136     0.001034     0.000930
Rotational constants in MHz :    34.062748    30.998246    27.876844

                             ****ORCA TERMINATED NORMALLY****
TOTAL RUN TIME: 0 days 0 hours 6 minutes 22 seconds 38 msec
