                         Program Version 5.0.3 -  RELEASE  -
|  1> %pal nprocs 1 end
|  2>
|  3> !PBE def2-TZVP OPT UNO
|  4> !SLOWCONV KDIIS
|  5>
|  6> %geom maxiter 300 end
|  7>
|  8> *xyzfile 0 3 5.xyz                           ****END OF INPUT****
 Total Charge           Charge          ....    0
 Multiplicity           Mult            ....    3
 Number of Electrons    NEL             ....  252
FINAL SINGLE POINT ENERGY     -2674.153676719145
FINAL SINGLE POINT ENERGY     -2674.155103041869
FINAL SINGLE POINT ENERGY     -2674.155979446311
FINAL SINGLE POINT ENERGY     -2674.156757070387
FINAL SINGLE POINT ENERGY     -2674.156978072286
FINAL SINGLE POINT ENERGY     -2674.157064901056
FINAL SINGLE POINT ENERGY     -2674.157171294871
FINAL SINGLE POINT ENERGY     -2674.157237939442
FINAL SINGLE POINT ENERGY     -2674.157266834353
FINAL SINGLE POINT ENERGY     -2674.157298536002
FINAL SINGLE POINT ENERGY     -2674.157332251699
FINAL SINGLE POINT ENERGY     -2674.157341611504
FINAL SINGLE POINT ENERGY     -2674.157353136673
FINAL SINGLE POINT ENERGY     -2674.157370248361
FINAL SINGLE POINT ENERGY     -2674.157381269089
FINAL SINGLE POINT ENERGY     -2674.157388870898
FINAL SINGLE POINT ENERGY     -2674.157394199362
FINAL SINGLE POINT ENERGY     -2674.157398899244
FINAL SINGLE POINT ENERGY     -2674.157401120862
                    ***********************HURRAY********************

CARTESIAN COORDINATES (ANGSTROEM)
---------------------------------
  Au    11.594697    4.361410    7.022919
  Au    10.929901    6.894328    6.204083
  Au     6.302455    9.070601    6.071740
  Au     8.877277    4.640179    6.289869
  Au     9.128194    8.839842    5.784637
  Au     7.175556    6.521196    5.476674
  Au     9.790009    8.303548    9.699897
  Au     7.879377    9.542341    8.296935
  Au     6.148543    7.234332    8.245947
  Au    10.552237    5.831805    9.140493
  Au     7.539477    5.065795    9.000771
  Au     9.594300    3.272525    8.661176
  Cr     8.685334    6.993076    7.597584

 Multiplicity           Mult            ....    3
 Number of Electrons    NEL             ....  252
 Basis Dimension        Dim             ....  525

ORBITAL ENERGIES
----------------
                 SPIN UP ORBITALS
  NO   OCC          E(Eh)            E(eV)
   0   1.0000    -214.510881     -5837.1378
   1   1.0000     -24.315073      -661.6468
   2   1.0000     -20.679464      -562.7168
   3   1.0000     -20.679113      -562.7073
   4   1.0000     -20.677743      -562.6700
   5   1.0000      -4.027479      -109.5933
   6   1.0000      -4.027193      -109.5855
   7   1.0000      -4.023395      -109.4821
   8   1.0000      -4.023211      -109.4771
   9   1.0000      -4.022779      -109.4654
  10   1.0000      -4.022566      -109.4596
  11   1.0000      -4.021014      -109.4173
  12   1.0000      -4.020107      -109.3927
  13   1.0000      -4.019641      -109.3800
  14   1.0000      -4.018643      -109.3528
  15   1.0000      -4.016311      -109.2894
  16   1.0000      -4.011212      -109.1506
  17   1.0000      -2.809363       -76.4467
  18   1.0000      -2.246011       -61.1171
  19   1.0000      -2.245666       -61.1077
  20   1.0000      -2.243246       -61.0418
  21   1.0000      -2.243105       -61.0380
  22   1.0000      -2.240475       -60.9664
  23   1.0000      -2.240074       -60.9555
  24   1.0000      -2.239934       -60.9517
  25   1.0000      -2.239839       -60.9491
  26   1.0000      -2.238336       -60.9082
  27   1.0000      -2.238237       -60.9055
  28   1.0000      -2.237937       -60.8974
  29   1.0000      -2.236736       -60.8647
  30   1.0000      -2.236551       -60.8596
  31   1.0000      -2.235682       -60.8360
  32   1.0000      -2.235659       -60.8354
  33   1.0000      -2.235416       -60.8288
  34   1.0000      -2.235145       -60.8214
  35   1.0000      -2.234772       -60.8112
  36   1.0000      -2.233184       -60.7680
  37   1.0000      -2.233003       -60.7631
  38   1.0000      -2.232655       -60.7536
  39   1.0000      -2.232192       -60.7410
  40   1.0000      -2.231162       -60.7130
  41   1.0000      -2.230624       -60.6984
  42   1.0000      -2.230100       -60.6841
  43   1.0000      -2.229779       -60.6754
  44   1.0000      -2.229392       -60.6648
  45   1.0000      -2.228741       -60.6471
  46   1.0000      -2.228375       -60.6372
  47   1.0000      -2.228263       -60.6341
  48   1.0000      -2.228073       -60.6289
  49   1.0000      -2.227834       -60.6225
  50   1.0000      -2.227020       -60.6003
  51   1.0000      -2.226839       -60.5954
  52   1.0000      -2.226088       -60.5749
  53   1.0000      -2.216726       -60.3202
  54   1.0000      -1.799204       -48.9588
  55   1.0000      -1.799167       -48.9578
  56   1.0000      -1.796692       -48.8905
  57   1.0000      -0.412846       -11.2341
  58   1.0000      -0.383953       -10.4479
  59   1.0000      -0.369572       -10.0566
  60   1.0000      -0.365147        -9.9362
  61   1.0000      -0.364911        -9.9297
  62   1.0000      -0.361486        -9.8365
  63   1.0000      -0.358441        -9.7537
  64   1.0000      -0.350332        -9.5330
  65   1.0000      -0.349840        -9.5196
  66   1.0000      -0.344930        -9.3860
  67   1.0000      -0.341762        -9.2998
  68   1.0000      -0.338230        -9.2037
  69   1.0000      -0.335672        -9.1341
  70   1.0000      -0.334303        -9.0968
  71   1.0000      -0.332369        -9.0442
  72   1.0000      -0.329782        -8.9738
  73   1.0000      -0.329627        -8.9696
  74   1.0000      -0.327256        -8.9051
  75   1.0000      -0.326588        -8.8869
  76   1.0000      -0.321982        -8.7616
  77   1.0000      -0.321733        -8.7548
  78   1.0000      -0.317673        -8.6443
  79   1.0000      -0.315095        -8.5742
  80   1.0000      -0.310709        -8.4548
  81   1.0000      -0.309528        -8.4227
  82   1.0000      -0.306847        -8.3497
  83   1.0000      -0.302956        -8.2438
  84   1.0000      -0.299853        -8.1594
  85   1.0000      -0.296663        -8.0726
  86   1.0000      -0.295468        -8.0401
  87   1.0000      -0.288519        -7.8510
  88   1.0000      -0.288085        -7.8392
  89   1.0000      -0.285687        -7.7739
  90   1.0000      -0.285320        -7.7639
  91   1.0000      -0.282611        -7.6902
  92   1.0000      -0.280751        -7.6396
  93   1.0000      -0.278044        -7.5660
  94   1.0000      -0.276301        -7.5185
  95   1.0000      -0.275904        -7.5077
  96   1.0000      -0.274544        -7.4707
  97   1.0000      -0.271052        -7.3757
  98   1.0000      -0.270120        -7.3503
  99   1.0000      -0.268917        -7.3176
 100   1.0000      -0.267925        -7.2906
 101   1.0000      -0.265328        -7.2199
 102   1.0000      -0.264270        -7.1912
 103   1.0000      -0.262087        -7.1318
 104   1.0000      -0.260708        -7.0942
 105   1.0000      -0.260306        -7.0833
 106   1.0000      -0.257418        -7.0047
 107   1.0000      -0.255582        -6.9547
 108   1.0000      -0.254413        -6.9229
 109   1.0000      -0.252942        -6.8829
 110   1.0000      -0.252300        -6.8654
 111   1.0000      -0.250075        -6.8049
 112   1.0000      -0.247374        -6.7314
 113   1.0000      -0.245023        -6.6674
 114   1.0000      -0.243905        -6.6370
 115   1.0000      -0.241743        -6.5782
 116   1.0000      -0.240558        -6.5459
 117   1.0000      -0.238206        -6.4819
 118   1.0000      -0.237647        -6.4667
 119   1.0000      -0.234287        -6.3753
 120   1.0000      -0.232653        -6.3308
 121   1.0000      -0.225544        -6.1374
 122   1.0000      -0.216994        -5.9047
 123   1.0000      -0.213752        -5.8165
 124   1.0000      -0.208088        -5.6624
 125   1.0000      -0.206957        -5.6316
 126   1.0000      -0.202347        -5.5061
 127   0.0000      -0.178730        -4.8635
 128   0.0000      -0.171526        -4.6675
 129   0.0000      -0.163142        -4.4393
 130   0.0000      -0.134962        -3.6725
 131   0.0000      -0.128265        -3.4903

                 SPIN DOWN ORBITALS
  NO   OCC          E(Eh)            E(eV)
   0   1.0000    -214.510470     -5837.1266
   1   1.0000     -24.273549      -660.5168
   2   1.0000     -20.648490      -561.8740
   3   1.0000     -20.647123      -561.8368
   4   1.0000     -20.645493      -561.7924
   5   1.0000      -4.027266      -109.5875
   6   1.0000      -4.027104      -109.5831
   7   1.0000      -4.023384      -109.4819
   8   1.0000      -4.023193      -109.4766
   9   1.0000      -4.022563      -109.4595
  10   1.0000      -4.022343      -109.4535
  11   1.0000      -4.020861      -109.4132
  12   1.0000      -4.020565      -109.4051
  13   1.0000      -4.020112      -109.3928
  14   1.0000      -4.018310      -109.3438
  15   1.0000      -4.016424      -109.2924
  16   1.0000      -4.010860      -109.1410
  17   1.0000      -2.698020       -73.4169
  18   1.0000      -2.245664       -61.1076
  19   1.0000      -2.245568       -61.1050
  20   1.0000      -2.242951       -61.0338
  21   1.0000      -2.242801       -61.0297
  22   1.0000      -2.240047       -60.9548
  23   1.0000      -2.239573       -60.9419
  24   1.0000      -2.239405       -60.9373
  25   1.0000      -2.238868       -60.9227
  26   1.0000      -2.238203       -60.9046
  27   1.0000      -2.237933       -60.8973
  28   1.0000      -2.237778       -60.8930
  29   1.0000      -2.237051       -60.8733
  30   1.0000      -2.236887       -60.8688
  31   1.0000      -2.236028       -60.8454
  32   1.0000      -2.235757       -60.8380
  33   1.0000      -2.235568       -60.8329
  34   1.0000      -2.235235       -60.8238
  35   1.0000      -2.235103       -60.8203
  36   1.0000      -2.233479       -60.7760
  37   1.0000      -2.232986       -60.7626
  38   1.0000      -2.232716       -60.7553
  39   1.0000      -2.232435       -60.7476
  40   1.0000      -2.231714       -60.7280
  41   1.0000      -2.231199       -60.7140
  42   1.0000      -2.230130       -60.6849
  43   1.0000      -2.229830       -60.6768
  44   1.0000      -2.229489       -60.6675
  45   1.0000      -2.228875       -60.6508
  46   1.0000      -2.228279       -60.6346
  47   1.0000      -2.227887       -60.6239
  48   1.0000      -2.227770       -60.6207
  49   1.0000      -2.227640       -60.6172
  50   1.0000      -2.226951       -60.5984
  51   1.0000      -2.226738       -60.5926
  52   1.0000      -2.225970       -60.5717
  53   1.0000      -2.216237       -60.3069
  54   1.0000      -1.691994       -46.0415
  55   1.0000      -1.689160       -45.9644
  56   1.0000      -1.685243       -45.8578
  57   1.0000      -0.408439       -11.1142
  58   1.0000      -0.383325       -10.4308
  59   1.0000      -0.366803        -9.9812
  60   1.0000      -0.365133        -9.9358
  61   1.0000      -0.363879        -9.9016
  62   1.0000      -0.360175        -9.8009
  63   1.0000      -0.355970        -9.6864
  64   1.0000      -0.348086        -9.4719
  65   1.0000      -0.347539        -9.4570
  66   1.0000      -0.341356        -9.2888
  67   1.0000      -0.338952        -9.2233
  68   1.0000      -0.337575        -9.1859
  69   1.0000      -0.334573        -9.1042
  70   1.0000      -0.334302        -9.0968
  71   1.0000      -0.332914        -9.0591
  72   1.0000      -0.328225        -8.9314
  73   1.0000      -0.327721        -8.9177
  74   1.0000      -0.325632        -8.8609
  75   1.0000      -0.324434        -8.8283
  76   1.0000      -0.320927        -8.7329
  77   1.0000      -0.319451        -8.6927
  78   1.0000      -0.316914        -8.6237
  79   1.0000      -0.314211        -8.5501
  80   1.0000      -0.310742        -8.4557
  81   1.0000      -0.310555        -8.4506
  82   1.0000      -0.306828        -8.3492
  83   1.0000      -0.303134        -8.2487
  84   1.0000      -0.299332        -8.1452
  85   1.0000      -0.296493        -8.0680
  86   1.0000      -0.294639        -8.0175
  87   1.0000      -0.288699        -7.8559
  88   1.0000      -0.287804        -7.8315
  89   1.0000      -0.286391        -7.7931
  90   1.0000      -0.285158        -7.7595
  91   1.0000      -0.282424        -7.6851
  92   1.0000      -0.280572        -7.6348
  93   1.0000      -0.277058        -7.5391
  94   1.0000      -0.276476        -7.5233
  95   1.0000      -0.275854        -7.5064
  96   1.0000      -0.274627        -7.4730
  97   1.0000      -0.272025        -7.4022
  98   1.0000      -0.270248        -7.3538
  99   1.0000      -0.269667        -7.3380
 100   1.0000      -0.268794        -7.3143
 101   1.0000      -0.266496        -7.2517
 102   1.0000      -0.264986        -7.2106
 103   1.0000      -0.262762        -7.1501
 104   1.0000      -0.261260        -7.1092
 105   1.0000      -0.260817        -7.0972
 106   1.0000      -0.258280        -7.0282
 107   1.0000      -0.256062        -6.9678
 108   1.0000      -0.255017        -6.9394
 109   1.0000      -0.253797        -6.9062
 110   1.0000      -0.252744        -6.8775
 111   1.0000      -0.250623        -6.8198
 112   1.0000      -0.247870        -6.7449
 113   1.0000      -0.244941        -6.6652
 114   1.0000      -0.244371        -6.6497
 115   1.0000      -0.242071        -6.5871
 116   1.0000      -0.241473        -6.5708
 117   1.0000      -0.239300        -6.5117
 118   1.0000      -0.239069        -6.5054
 119   1.0000      -0.236052        -6.4233
 120   1.0000      -0.233525        -6.3545
 121   1.0000      -0.222169        -6.0455
 122   1.0000      -0.201304        -5.4778
 123   1.0000      -0.200920        -5.4673
 124   1.0000      -0.194115        -5.2821
 125   0.0000      -0.142033        -3.8649
 126   0.0000      -0.138596        -3.7714
 127   0.0000      -0.130670        -3.5557
 128   0.0000      -0.126066        -3.4304
 129   0.0000      -0.122736        -3.3398

MULLIKEN ATOMIC CHARGES AND SPIN POPULATIONS
--------------------------------------------
   0 Au:    0.326912   -0.091113
   1 Au:    0.247357   -0.051155
   2 Au:    0.451188   -0.031184
   3 Au:    0.258331   -0.108489
   4 Au:    0.242829   -0.076602
   5 Au:    0.379640   -0.072698
   6 Au:    0.166301   -0.033653
   7 Au:    0.352762   -0.109298
   8 Au:    0.234038   -0.077825
   9 Au:    0.124038   -0.090631
  10 Au:    0.236484   -0.049445
  11 Au:    0.335627   -0.090159
  12 Cr:   -3.355506    2.882250
Sum of atomic charges         :   -0.0000000

LOEWDIN ATOMIC CHARGES AND SPIN POPULATIONS
-------------------------------------------
   0 Au:    0.084960   -0.092163
   1 Au:    0.127641   -0.061325
   2 Au:    0.089569   -0.055484
   3 Au:    0.050047   -0.075227
   4 Au:    0.114142   -0.071709
   5 Au:    0.115414   -0.067587
   6 Au:    0.169675   -0.067545
   7 Au:    0.060048   -0.078262
   8 Au:    0.114252   -0.071630
   9 Au:    0.019062   -0.058884
  10 Au:    0.127794   -0.060669
  11 Au:    0.086582   -0.091269
  12 Cr:   -1.159185    2.851755

  Mayer bond orders larger than 0.100000
B(  0-Au,  1-Au) :   0.2633 B(  0-Au,  3-Au) :   0.2341 B(  0-Au,  9-Au) :   0.2602
B(  0-Au, 11-Au) :   0.1955 B(  0-Au, 12-Cr) :   0.3477 B(  1-Au,  4-Au) :   0.4908
B(  1-Au, 12-Cr) :   0.7702 B(  2-Au,  4-Au) :   0.1916 B(  2-Au,  5-Au) :   0.2888
B(  2-Au,  7-Au) :   0.2372 B(  2-Au,  8-Au) :   0.1901 B(  2-Au, 12-Cr) :   0.2782
B(  3-Au,  5-Au) :   0.3613 B(  3-Au, 11-Au) :   0.2310 B(  3-Au, 12-Cr) :   0.6258
B(  4-Au,  7-Au) :   0.1275 B(  4-Au, 12-Cr) :   0.6650 B(  5-Au, 12-Cr) :   0.9144
B(  6-Au,  7-Au) :   0.3856 B(  6-Au,  9-Au) :   0.5027 B(  6-Au, 12-Cr) :   0.7181
B(  7-Au,  8-Au) :   0.1339 B(  7-Au, 12-Cr) :   0.4797 B(  8-Au, 10-Au) :   0.4968
B(  8-Au, 12-Cr) :   0.6580 B(  9-Au, 11-Au) :   0.2675 B(  9-Au, 12-Cr) :   0.5151
B( 10-Au, 11-Au) :   0.2597 B( 10-Au, 12-Cr) :   0.7665 B( 11-Au, 12-Cr) :   0.3411

FINAL SINGLE POINT ENERGY     -2674.157401868641

DIPOLE MOMENT
-------------
                                X             Y             Z
Electronic contribution:      3.75804     -12.88981      -3.86773
Nuclear contribution   :     -3.76767      12.69239       3.73214
                        -----------------------------------------
Total Dipole Moment    :     -0.00963      -0.19742      -0.13559
                        -----------------------------------------
Magnitude (a.u.)       :      0.23969
Magnitude (Debye)      :      0.60925

Rotational constants in cm-1:     0.001793     0.001041     0.001035
Rotational constants in MHz :    53.745825    31.200667    31.034795

                             ****ORCA TERMINATED NORMALLY****
TOTAL RUN TIME: 0 days 1 hours 51 minutes 58 seconds 851 msec
