                         Program Version 5.0.3 -  RELEASE  -
|  1> %pal nprocs 16 end
|  2>
|  3> !PBE def2-TZVP OPT UNO
|  4> !SLOWCONV
|  5>
|  6> *xyzfile 0 5 1-2.xyz
|  7>
|  8>                          ****END OF INPUT****
 Total Charge           Charge          ....    0
 Multiplicity           Mult            ....    5
 Number of Electrons    NEL             ....  310
FINAL SINGLE POINT ENERGY     -3188.217412588352
FINAL SINGLE POINT ENERGY     -3188.217560920975
FINAL SINGLE POINT ENERGY     -3188.217833831788
FINAL SINGLE POINT ENERGY     -3188.218098828443
FINAL SINGLE POINT ENERGY     -3188.218352070763
FINAL SINGLE POINT ENERGY     -3188.218583814758
FINAL SINGLE POINT ENERGY     -3188.218793208468
FINAL SINGLE POINT ENERGY     -3188.218982363692
FINAL SINGLE POINT ENERGY     -3188.219153850507
FINAL SINGLE POINT ENERGY     -3188.219303822013
FINAL SINGLE POINT ENERGY     -3188.219533728245
FINAL SINGLE POINT ENERGY     -3188.219625544729
FINAL SINGLE POINT ENERGY     -3188.219708370986
FINAL SINGLE POINT ENERGY     -3188.219781609662
FINAL SINGLE POINT ENERGY     -3188.219839544027
FINAL SINGLE POINT ENERGY     -3188.219883051706
FINAL SINGLE POINT ENERGY     -3188.219907635978
FINAL SINGLE POINT ENERGY     -3188.219917536134
FINAL SINGLE POINT ENERGY     -3188.219925910136
                    ***********************HURRAY********************

CARTESIAN COORDINATES (ANGSTROEM)
---------------------------------
  Au     8.228326    7.781247   11.706656
  Au     6.574861    5.970070   10.499437
  Au     6.053124    8.866727   10.349803
  Au     8.818627    9.893665    9.956386
  Au     8.508712    5.037697    8.725217
  Au     9.771366    7.365060    9.480245
  Au     6.882319   10.811269    8.308011
  Au     9.917027    6.597971    6.865800
  Au     8.916623    9.188030    7.186800
  Au     7.602464    7.116189    5.545465
  Au     4.502586    9.431703    8.041497
  Au     6.318411    9.520145    5.933031
  Au     5.912127    4.985251    7.865966
  Au     4.948826    7.115174    6.407230
  Au     4.337868    6.947132    9.167456
  Mn     7.107306    7.495695    8.242545

 Multiplicity           Mult            ....    5
 Number of Electrons    NEL             ....  310
 Basis Dimension        Dim             ....  645

ORBITAL ENERGIES
----------------
                 SPIN UP ORBITALS
  NO   OCC          E(Eh)            E(eV)
   0   1.0000    -234.209978     -6373.1775
   1   1.0000     -26.902478      -732.0537
   2   1.0000     -23.051254      -627.2565
   3   1.0000     -23.051031      -627.2505
   4   1.0000     -23.050267      -627.2296
   5   1.0000      -4.040818      -109.9562
   6   1.0000      -4.039778      -109.9279
   7   1.0000      -4.035177      -109.8028
   8   1.0000      -4.032037      -109.7173
   9   1.0000      -4.031570      -109.7046
  10   1.0000      -4.030720      -109.6815
  11   1.0000      -4.030091      -109.6644
  12   1.0000      -4.028579      -109.6232
  13   1.0000      -4.028064      -109.6092
  14   1.0000      -4.026789      -109.5745
  15   1.0000      -4.026545      -109.5678
  16   1.0000      -4.026406      -109.5641
  17   1.0000      -4.025862      -109.5493
  18   1.0000      -4.025811      -109.5479
  19   1.0000      -4.023341      -109.4807
  20   1.0000      -3.114709       -84.7555
  21   1.0000      -2.255587       -61.3776
  22   1.0000      -2.254326       -61.3433
  23   1.0000      -2.254152       -61.3386
  24   1.0000      -2.253375       -61.3174
  25   1.0000      -2.251465       -61.2655
  26   1.0000      -2.250339       -61.2348
  27   1.0000      -2.250204       -61.2312
  28   1.0000      -2.249112       -61.2015
  29   1.0000      -2.247590       -61.1600
  30   1.0000      -2.247434       -61.1558
  31   1.0000      -2.247245       -61.1506
  32   1.0000      -2.246664       -61.1348
  33   1.0000      -2.246106       -61.1196
  34   1.0000      -2.245270       -61.0969
  35   1.0000      -2.244379       -61.0727
  36   1.0000      -2.244287       -61.0702
  37   1.0000      -2.244040       -61.0634
  38   1.0000      -2.243499       -61.0487
  39   1.0000      -2.243078       -61.0373
  40   1.0000      -2.242912       -61.0327
  41   1.0000      -2.242571       -61.0235
  42   1.0000      -2.242293       -61.0159
  43   1.0000      -2.242191       -61.0131
  44   1.0000      -2.241674       -60.9991
  45   1.0000      -2.241235       -60.9871
  46   1.0000      -2.240732       -60.9734
  47   1.0000      -2.240299       -60.9616
  48   1.0000      -2.240210       -60.9592
  49   1.0000      -2.239693       -60.9451
  50   1.0000      -2.239434       -60.9381
  51   1.0000      -2.239042       -60.9274
  52   1.0000      -2.238948       -60.9249
  53   1.0000      -2.238819       -60.9214
  54   1.0000      -2.238677       -60.9175
  55   1.0000      -2.238347       -60.9085
  56   1.0000      -2.238059       -60.9007
  57   1.0000      -2.237977       -60.8984
  58   1.0000      -2.237352       -60.8814
  59   1.0000      -2.237035       -60.8728
  60   1.0000      -2.236840       -60.8675
  61   1.0000      -2.236641       -60.8621
  62   1.0000      -2.236497       -60.8582
  63   1.0000      -2.235515       -60.8315
  64   1.0000      -2.235320       -60.8261
  65   1.0000      -2.234778       -60.8114
  66   1.0000      -2.018153       -54.9167
  67   1.0000      -2.017536       -54.8999
  68   1.0000      -2.016511       -54.8720
  69   1.0000      -0.436451       -11.8764
  70   1.0000      -0.393374       -10.7042
  71   1.0000      -0.391207       -10.6453
  72   1.0000      -0.387456       -10.5432
  73   1.0000      -0.377605       -10.2752
  74   1.0000      -0.376336       -10.2406
  75   1.0000      -0.375320       -10.2130
  76   1.0000      -0.372031       -10.1235
  77   1.0000      -0.369342       -10.0503
  78   1.0000      -0.364112        -9.9080
  79   1.0000      -0.360983        -9.8228
  80   1.0000      -0.359737        -9.7889
  81   1.0000      -0.359244        -9.7755
  82   1.0000      -0.356722        -9.7069
  83   1.0000      -0.354838        -9.6556
  84   1.0000      -0.353702        -9.6247
  85   1.0000      -0.352443        -9.5905
  86   1.0000      -0.350765        -9.5448
  87   1.0000      -0.348915        -9.4945
  88   1.0000      -0.347089        -9.4448
  89   1.0000      -0.345571        -9.4035
  90   1.0000      -0.343631        -9.3507
  91   1.0000      -0.342575        -9.3220
  92   1.0000      -0.340949        -9.2777
  93   1.0000      -0.337930        -9.1955
  94   1.0000      -0.336011        -9.1433
  95   1.0000      -0.334810        -9.1107
  96   1.0000      -0.332389        -9.0448
  97   1.0000      -0.329821        -8.9749
  98   1.0000      -0.328997        -8.9525
  99   1.0000      -0.327350        -8.9076
 100   1.0000      -0.321208        -8.7405
 101   1.0000      -0.318632        -8.6704
 102   1.0000      -0.314293        -8.5524
 103   1.0000      -0.312296        -8.4980
 104   1.0000      -0.311897        -8.4871
 105   1.0000      -0.308497        -8.3946
 106   1.0000      -0.306195        -8.3320
 107   1.0000      -0.305167        -8.3040
 108   1.0000      -0.302882        -8.2418
 109   1.0000      -0.299670        -8.1544
 110   1.0000      -0.298686        -8.1277
 111   1.0000      -0.289779        -7.8853
 112   1.0000      -0.288687        -7.8556
 113   1.0000      -0.287890        -7.8339
 114   1.0000      -0.284279        -7.7356
 115   1.0000      -0.283764        -7.7216
 116   1.0000      -0.282255        -7.6806
 117   1.0000      -0.280803        -7.6410
 118   1.0000      -0.280634        -7.6364
 119   1.0000      -0.277130        -7.5411
 120   1.0000      -0.276016        -7.5108
 121   1.0000      -0.275387        -7.4937
 122   1.0000      -0.273564        -7.4441
 123   1.0000      -0.272932        -7.4269
 124   1.0000      -0.271527        -7.3886
 125   1.0000      -0.270112        -7.3501
 126   1.0000      -0.269791        -7.3414
 127   1.0000      -0.268307        -7.3010
 128   1.0000      -0.266179        -7.2431
 129   1.0000      -0.265396        -7.2218
 130   1.0000      -0.264045        -7.1850
 131   1.0000      -0.263129        -7.1601
 132   1.0000      -0.261422        -7.1136
 133   1.0000      -0.260259        -7.0820
 134   1.0000      -0.259427        -7.0594
 135   1.0000      -0.258209        -7.0262
 136   1.0000      -0.255865        -6.9624
 137   1.0000      -0.254598        -6.9280
 138   1.0000      -0.253942        -6.9101
 139   1.0000      -0.253587        -6.9005
 140   1.0000      -0.252720        -6.8769
 141   1.0000      -0.251326        -6.8389
 142   1.0000      -0.250931        -6.8282
 143   1.0000      -0.249298        -6.7837
 144   1.0000      -0.249084        -6.7779
 145   1.0000      -0.248861        -6.7719
 146   1.0000      -0.247709        -6.7405
 147   1.0000      -0.246360        -6.7038
 148   1.0000      -0.245593        -6.6829
 149   1.0000      -0.243769        -6.6333
 150   1.0000      -0.240979        -6.5574
 151   1.0000      -0.240172        -6.5354
 152   1.0000      -0.233754        -6.3608
 153   1.0000      -0.217782        -5.9261
 154   1.0000      -0.212783        -5.7901
 155   1.0000      -0.208571        -5.6755
 156   1.0000      -0.203178        -5.5288
 157   0.0000      -0.187869        -5.1122
 158   0.0000      -0.154023        -4.1912
 159   0.0000      -0.135796        -3.6952
 160   0.0000      -0.132857        -3.6152
 161   0.0000      -0.126153        -3.4328

                 SPIN DOWN ORBITALS
  NO   OCC          E(Eh)            E(eV)
   0   1.0000    -234.209277     -6373.1584
   1   1.0000     -26.834489      -730.2036
   2   1.0000     -23.000034      -625.8627
   3   1.0000     -22.999054      -625.8361
   4   1.0000     -22.998625      -625.8244
   5   1.0000      -4.040133      -109.9376
   6   1.0000      -4.039444      -109.9189
   7   1.0000      -4.034879      -109.7946
   8   1.0000      -4.031609      -109.7056
   9   1.0000      -4.031380      -109.6994
  10   1.0000      -4.030756      -109.6824
  11   1.0000      -4.029720      -109.6543
  12   1.0000      -4.028906      -109.6321
  13   1.0000      -4.027736      -109.6003
  14   1.0000      -4.026999      -109.5802
  15   1.0000      -4.026670      -109.5713
  16   1.0000      -4.026311      -109.5615
  17   1.0000      -4.026240      -109.5595
  18   1.0000      -4.026010      -109.5533
  19   1.0000      -4.023841      -109.4943
  20   1.0000      -2.947538       -80.2066
  21   1.0000      -2.254648       -61.3521
  22   1.0000      -2.253560       -61.3225
  23   1.0000      -2.253380       -61.3176
  24   1.0000      -2.253059       -61.3089
  25   1.0000      -2.250948       -61.2514
  26   1.0000      -2.250331       -61.2346
  27   1.0000      -2.249922       -61.2235
  28   1.0000      -2.249065       -61.2002
  29   1.0000      -2.247277       -61.1515
  30   1.0000      -2.247164       -61.1484
  31   1.0000      -2.246919       -61.1418
  32   1.0000      -2.246289       -61.1246
  33   1.0000      -2.246165       -61.1213
  34   1.0000      -2.245332       -61.0986
  35   1.0000      -2.244150       -61.0664
  36   1.0000      -2.243859       -61.0585
  37   1.0000      -2.243517       -61.0492
  38   1.0000      -2.243229       -61.0414
  39   1.0000      -2.242932       -61.0333
  40   1.0000      -2.242847       -61.0310
  41   1.0000      -2.242477       -61.0209
  42   1.0000      -2.242179       -61.0128
  43   1.0000      -2.242087       -61.0103
  44   1.0000      -2.241844       -61.0037
  45   1.0000      -2.240833       -60.9762
  46   1.0000      -2.240819       -60.9758
  47   1.0000      -2.240387       -60.9640
  48   1.0000      -2.240169       -60.9581
  49   1.0000      -2.239906       -60.9509
  50   1.0000      -2.239626       -60.9433
  51   1.0000      -2.239077       -60.9284
  52   1.0000      -2.239012       -60.9266
  53   1.0000      -2.238906       -60.9237
  54   1.0000      -2.238739       -60.9192
  55   1.0000      -2.238600       -60.9154
  56   1.0000      -2.238374       -60.9093
  57   1.0000      -2.237881       -60.8958
  58   1.0000      -2.237539       -60.8865
  59   1.0000      -2.237397       -60.8827
  60   1.0000      -2.237155       -60.8761
  61   1.0000      -2.237039       -60.8729
  62   1.0000      -2.236598       -60.8609
  63   1.0000      -2.236052       -60.8461
  64   1.0000      -2.235581       -60.8333
  65   1.0000      -2.235114       -60.8205
  66   1.0000      -1.854705       -50.4691
  67   1.0000      -1.853346       -50.4321
  68   1.0000      -1.851615       -50.3850
  69   1.0000      -0.430483       -11.7141
  70   1.0000      -0.392663       -10.6849
  71   1.0000      -0.390216       -10.6183
  72   1.0000      -0.386268       -10.5109
  73   1.0000      -0.373357       -10.1596
  74   1.0000      -0.371454       -10.1078
  75   1.0000      -0.369939       -10.0665
  76   1.0000      -0.367103        -9.9894
  77   1.0000      -0.366317        -9.9680
  78   1.0000      -0.362846        -9.8735
  79   1.0000      -0.359891        -9.7931
  80   1.0000      -0.359388        -9.7794
  81   1.0000      -0.358578        -9.7574
  82   1.0000      -0.355698        -9.6790
  83   1.0000      -0.354479        -9.6459
  84   1.0000      -0.353136        -9.6093
  85   1.0000      -0.351722        -9.5708
  86   1.0000      -0.349919        -9.5218
  87   1.0000      -0.349086        -9.4991
  88   1.0000      -0.345883        -9.4120
  89   1.0000      -0.343925        -9.3587
  90   1.0000      -0.342382        -9.3167
  91   1.0000      -0.342004        -9.3064
  92   1.0000      -0.338331        -9.2064
  93   1.0000      -0.337593        -9.1864
  94   1.0000      -0.334317        -9.0972
  95   1.0000      -0.333298        -9.0695
  96   1.0000      -0.330812        -9.0018
  97   1.0000      -0.328761        -8.9460
  98   1.0000      -0.326813        -8.8930
  99   1.0000      -0.324871        -8.8402
 100   1.0000      -0.319517        -8.6945
 101   1.0000      -0.314866        -8.5679
 102   1.0000      -0.313524        -8.5314
 103   1.0000      -0.311284        -8.4705
 104   1.0000      -0.309763        -8.4291
 105   1.0000      -0.306199        -8.3321
 106   1.0000      -0.303812        -8.2672
 107   1.0000      -0.300164        -8.1679
 108   1.0000      -0.299287        -8.1440
 109   1.0000      -0.296595        -8.0708
 110   1.0000      -0.292122        -7.9490
 111   1.0000      -0.287830        -7.8323
 112   1.0000      -0.287256        -7.8166
 113   1.0000      -0.285565        -7.7706
 114   1.0000      -0.283264        -7.7080
 115   1.0000      -0.282260        -7.6807
 116   1.0000      -0.281509        -7.6602
 117   1.0000      -0.279991        -7.6189
 118   1.0000      -0.279203        -7.5975
 119   1.0000      -0.276197        -7.5157
 120   1.0000      -0.274876        -7.4798
 121   1.0000      -0.273138        -7.4325
 122   1.0000      -0.272764        -7.4223
 123   1.0000      -0.272636        -7.4188
 124   1.0000      -0.270320        -7.3558
 125   1.0000      -0.269719        -7.3394
 126   1.0000      -0.269548        -7.3348
 127   1.0000      -0.268048        -7.2940
 128   1.0000      -0.266000        -7.2382
 129   1.0000      -0.264986        -7.2106
 130   1.0000      -0.262340        -7.1386
 131   1.0000      -0.261620        -7.1190
 132   1.0000      -0.259795        -7.0694
 133   1.0000      -0.257124        -6.9967
 134   1.0000      -0.256210        -6.9718
 135   1.0000      -0.255550        -6.9539
 136   1.0000      -0.253278        -6.8920
 137   1.0000      -0.252270        -6.8646
 138   1.0000      -0.251631        -6.8472
 139   1.0000      -0.250773        -6.8239
 140   1.0000      -0.248812        -6.7705
 141   1.0000      -0.248359        -6.7582
 142   1.0000      -0.246848        -6.7171
 143   1.0000      -0.246319        -6.7027
 144   1.0000      -0.245163        -6.6712
 145   1.0000      -0.242017        -6.5856
 146   1.0000      -0.240665        -6.5488
 147   1.0000      -0.234210        -6.3732
 148   1.0000      -0.223962        -6.0943
 149   1.0000      -0.220971        -6.0129
 150   1.0000      -0.215557        -5.8656
 151   1.0000      -0.212419        -5.7802
 152   1.0000      -0.199650        -5.4327
 153   0.0000      -0.150289        -4.0896
 154   0.0000      -0.140259        -3.8166
 155   0.0000      -0.137607        -3.7445
 156   0.0000      -0.133537        -3.6337
 157   0.0000      -0.132026        -3.5926

MULLIKEN ATOMIC CHARGES AND SPIN POPULATIONS
--------------------------------------------
   0 Au:    0.383573    0.015048
   1 Au:    0.109272   -0.029221
   2 Au:   -0.111331   -0.059763
   3 Au:    0.155488   -0.013286
   4 Au:    0.240328    0.015896
   5 Au:   -0.080633    0.015372
   6 Au:    0.151543   -0.019879
   7 Au:    0.324876   -0.028910
   8 Au:    0.055775   -0.078369
   9 Au:    0.205559   -0.040760
  10 Au:    0.213106    0.031247
  11 Au:    0.192459   -0.016048
  12 Au:    0.290347    0.012129
  13 Au:    0.216691    0.042506
  14 Au:    0.226433   -0.032925
  15 Mn:   -2.573486    4.186964
Sum of atomic charges         :    0.0000000

LOEWDIN ATOMIC CHARGES AND SPIN POPULATIONS
-------------------------------------------
   0 Au:    0.074158   -0.012964
   1 Au:    0.016949   -0.003999
   2 Au:    0.011448   -0.027335
   3 Au:    0.021484   -0.039785
   4 Au:    0.046313   -0.007836
   5 Au:   -0.037796    0.015048
   6 Au:    0.026426   -0.044604
   7 Au:    0.073003   -0.049377
   8 Au:    0.020485   -0.026207
   9 Au:    0.060381   -0.041847
  10 Au:    0.019250    0.001367
  11 Au:    0.017505   -0.005697
  12 Au:    0.074982   -0.019669
  13 Au:    0.019434    0.013634
  14 Au:    0.038323   -0.015249
  15 Mn:   -0.482346    4.264520

  Mayer bond orders larger than 0.100000
B(  0-Au,  1-Au) :   0.3032 B(  0-Au,  2-Au) :   0.3179 B(  0-Au,  3-Au) :   0.2168
B(  0-Au,  5-Au) :   0.2943 B(  0-Au, 15-Mn) :   0.1224 B(  1-Au,  2-Au) :   0.1534
B(  1-Au,  4-Au) :   0.1966 B(  1-Au,  5-Au) :   0.1273 B(  1-Au, 12-Au) :   0.1575
B(  1-Au, 14-Au) :   0.2235 B(  1-Au, 15-Mn) :   0.4419 B(  2-Au,  3-Au) :   0.1878
B(  2-Au,  6-Au) :   0.1952 B(  2-Au, 10-Au) :   0.2459 B(  2-Au, 14-Au) :   0.2446
B(  2-Au, 15-Mn) :   0.4652 B(  3-Au,  5-Au) :   0.3075 B(  3-Au,  6-Au) :   0.3384
B(  3-Au,  8-Au) :   0.2074 B(  3-Au, 15-Mn) :   0.2116 B(  4-Au,  5-Au) :   0.2589
B(  4-Au,  7-Au) :   0.2043 B(  4-Au, 12-Au) :   0.2427 B(  4-Au, 15-Mn) :   0.3748
B(  5-Au,  7-Au) :   0.3270 B(  5-Au,  8-Au) :   0.1323 B(  5-Au, 15-Mn) :   0.3460
B(  6-Au,  8-Au) :   0.2133 B(  6-Au, 10-Au) :   0.2695 B(  6-Au, 11-Au) :   0.2584
B(  6-Au, 15-Mn) :   0.2455 B(  7-Au,  8-Au) :   0.2698 B(  7-Au,  9-Au) :   0.2962
B(  7-Au, 15-Mn) :   0.2174 B(  8-Au,  9-Au) :   0.1611 B(  8-Au, 11-Au) :   0.1799
B(  8-Au, 15-Mn) :   0.4919 B(  9-Au, 11-Au) :   0.2697 B(  9-Au, 13-Au) :   0.1939
B(  9-Au, 15-Mn) :   0.4385 B( 10-Au, 11-Au) :   0.2352 B( 10-Au, 13-Au) :   0.2258
B( 10-Au, 14-Au) :   0.2628 B( 10-Au, 15-Mn) :   0.2150 B( 11-Au, 13-Au) :   0.2211
B( 11-Au, 15-Mn) :   0.2989 B( 12-Au, 13-Au) :   0.2591 B( 12-Au, 14-Au) :   0.1793
B( 12-Au, 15-Mn) :   0.4213 B( 13-Au, 14-Au) :   0.2015 B( 13-Au, 15-Mn) :   0.3599
B( 14-Au, 15-Mn) :   0.3694

FINAL SINGLE POINT ENERGY     -3188.219936676797

DIPOLE MOMENT
-------------
                                X             Y             Z
Electronic contribution:      1.71704      10.16680       5.90616
Nuclear contribution   :     -1.66584     -10.21389      -5.84976
                        -----------------------------------------
Total Dipole Moment    :      0.05121      -0.04709       0.05640
                        -----------------------------------------
Magnitude (a.u.)       :      0.08956
Magnitude (Debye)      :      0.22764

Rotational constants in cm-1:     0.000995     0.000916     0.000896
Rotational constants in MHz :    29.825031    27.473455    26.858739

                             ****ORCA TERMINATED NORMALLY****
TOTAL RUN TIME: 0 days 1 hours 6 minutes 20 seconds 577 msec
