                         Program Version 5.0.3 -  RELEASE  -
|  1> !CASSCF def2-TZVP def2-TZVP/C
|  2> !MOREAD RIJCOSX
|  3> %maxcore 6000
|  4> %moinp "pbe.qro"
|  5> %pal nprocs 2 end
|  6>
|  7> %casscf
|  8>  mult 5,3
|  9>  bweight 1,1
| 10>  nroots 5,45
| 11>  nel 6
| 12>  norb 5
| 13> end
| 14>
| 15>
| 16> *xyzfile 0 5 pbe.xyz
| 17>
| 18>
| 19>                          ****END OF INPUT****

CARTESIAN COORDINATES (ANGSTROEM)
---------------------------------
  Au     6.526965    6.891918    6.395766
  Au     8.548713    9.320054    7.230632
  Au    11.109181    4.874686    7.025001
  Au    10.362362    7.454501    6.617299
  Au     8.318612    4.913463    6.545557
  Au    10.461058    6.004981    9.538437
  Au     9.418373    3.496036    8.737846
  Au     5.730061    9.238759    7.502775
  Au     6.215891    7.407533    9.608422
  Au     7.281659   10.031829    9.660405
  Au     7.350668    4.988010    9.666505
  Au     9.285959    8.297974   10.252400
  Cr     8.383698    6.910689    8.232537

 Total Charge           Charge          ....    0
 Multiplicity           Mult            ....    5
 Number of Electrons    NEL             ....  252
 Basis Dimension        Dim             ....  525

ORBITAL ENERGIES
----------------

  NO   OCC          E(Eh)            E(eV)
   0   2.0000    -220.621552     -6003.4176
   1   2.0000     -26.482975      -720.6384
   2   2.0000     -22.420647      -610.0968
   3   2.0000     -22.405860      -609.6944
   4   2.0000     -22.405673      -609.6894
   5   2.0000      -4.714240      -128.2810
   6   2.0000      -4.714154      -128.2786
   7   2.0000      -4.714005      -128.2746
   8   2.0000      -4.713915      -128.2721
   9   2.0000      -4.712052      -128.2215
  10   2.0000      -4.712052      -128.2214
  11   2.0000      -4.712027      -128.2208
  12   2.0000      -4.711889      -128.2170
  13   2.0000      -4.701624      -127.9377
  14   2.0000      -4.701570      -127.9362
  15   2.0000      -4.701518      -127.9348
  16   2.0000      -4.701487      -127.9340
  17   2.0000      -3.520377       -95.7943
  18   2.0000      -2.755292       -74.9753
  19   2.0000      -2.755006       -74.9675
  20   2.0000      -2.753346       -74.9224
  21   2.0000      -2.752921       -74.9108
  22   2.0000      -2.752872       -74.9094
  23   2.0000      -2.752410       -74.8969
  24   2.0000      -2.751385       -74.8690
  25   2.0000      -2.751326       -74.8674
  26   2.0000      -2.751243       -74.8651
  27   2.0000      -2.750960       -74.8574
  28   2.0000      -2.750469       -74.8441
  29   2.0000      -2.750421       -74.8428
  30   2.0000      -2.749586       -74.8200
  31   2.0000      -2.749507       -74.8179
  32   2.0000      -2.748648       -74.7945
  33   2.0000      -2.748550       -74.7918
  34   2.0000      -2.747118       -74.7529
  35   2.0000      -2.746458       -74.7349
  36   2.0000      -2.746120       -74.7257
  37   2.0000      -2.746093       -74.7250
  38   2.0000      -2.743663       -74.6589
  39   2.0000      -2.743656       -74.6587
  40   2.0000      -2.743563       -74.6561
  41   2.0000      -2.743475       -74.6538
  42   2.0000      -2.739328       -74.5409
  43   2.0000      -2.739274       -74.5394
  44   2.0000      -2.739221       -74.5380
  45   2.0000      -2.739145       -74.5359
  46   2.0000      -2.735549       -74.4381
  47   2.0000      -2.735377       -74.4334
  48   2.0000      -2.735296       -74.4312
  49   2.0000      -2.735272       -74.4305
  50   2.0000      -2.731767       -74.3352
  51   2.0000      -2.731700       -74.3333
  52   2.0000      -2.731665       -74.3324
  53   2.0000      -2.731622       -74.3312
  54   2.0000      -2.279538       -62.0294
  55   2.0000      -2.269012       -61.7429
  56   2.0000      -2.268671       -61.7337
  57   2.0000      -0.557527       -15.1711
  58   2.0000      -0.551989       -15.0204
  59   2.0000      -0.547440       -14.8966
  60   2.0000      -0.541073       -14.7233
  61   2.0000      -0.540974       -14.7206
  62   2.0000      -0.540916       -14.7191
  63   2.0000      -0.540857       -14.7175
  64   2.0000      -0.532553       -14.4915
  65   2.0000      -0.531684       -14.4678
  66   2.0000      -0.529748       -14.4152
  67   2.0000      -0.527736       -14.3604
  68   2.0000      -0.523586       -14.2475
  69   2.0000      -0.521596       -14.1933
  70   2.0000      -0.521378       -14.1874
  71   2.0000      -0.518884       -14.1196
  72   2.0000      -0.517555       -14.0834
  73   2.0000      -0.510743       -13.8980
  74   2.0000      -0.509466       -13.8633
  75   2.0000      -0.509072       -13.8525
  76   2.0000      -0.506283       -13.7767
  77   2.0000      -0.505639       -13.7591
  78   2.0000      -0.504686       -13.7332
  79   2.0000      -0.504442       -13.7266
  80   2.0000      -0.504197       -13.7199
  81   2.0000      -0.496527       -13.5112
  82   2.0000      -0.476097       -12.9553
  83   2.0000      -0.473796       -12.8927
  84   2.0000      -0.471860       -12.8399
  85   2.0000      -0.468639       -12.7523
  86   2.0000      -0.468451       -12.7472
  87   2.0000      -0.468315       -12.7435
  88   2.0000      -0.466314       -12.6891
  89   2.0000      -0.466063       -12.6822
  90   2.0000      -0.463940       -12.6245
  91   2.0000      -0.459767       -12.5109
  92   2.0000      -0.459663       -12.5081
  93   2.0000      -0.458370       -12.4729
  94   2.0000      -0.455445       -12.3933
  95   2.0000      -0.454436       -12.3658
  96   2.0000      -0.453718       -12.3463
  97   2.0000      -0.449324       -12.2267
  98   2.0000      -0.448618       -12.2075
  99   2.0000      -0.445539       -12.1237
 100   2.0000      -0.445058       -12.1106
 101   2.0000      -0.444996       -12.1089
 102   2.0000      -0.441903       -12.0248
 103   2.0000      -0.440132       -11.9766
 104   2.0000      -0.438998       -11.9457
 105   2.0000      -0.438838       -11.9414
 106   2.0000      -0.436376       -11.8744
 107   2.0000      -0.433963       -11.8087
 108   2.0000      -0.428060       -11.6481
 109   2.0000      -0.424633       -11.5548
 110   2.0000      -0.424357       -11.5473
 111   2.0000      -0.416423       -11.3315
 112   2.0000      -0.416241       -11.3265
 113   2.0000      -0.412314       -11.2196
 114   2.0000      -0.412258       -11.2181
 115   2.0000      -0.405052       -11.0220
 116   2.0000      -0.404802       -11.0152
 117   2.0000      -0.404081       -10.9956
 118   2.0000      -0.370088       -10.0706
 119   2.0000      -0.311575        -8.4784
 120   2.0000      -0.309537        -8.4229
 121   2.0000      -0.257894        -7.0176
 122   2.0000      -0.230526        -6.2729
 123   1.2000      -0.184065        -5.0087
 124   1.2000      -0.178135        -4.8473
 125   1.2000      -0.174887        -4.7589
 126   1.2000      -0.140092        -3.8121
 127   1.2000      -0.216614        -5.8944
 128   0.0000      -0.012009        -0.3268
 129   0.0000      -0.001617        -0.0440
 130   0.0000       0.004214         0.1147
 131   0.0000       0.008086         0.2200
 132   0.0000       0.025440         0.6923

MULLIKEN ATOMIC CHARGES AND SPIN DENSITIES
------------------------------------------
   0 Au:    0.355359    0.021118
   1 Au:    0.141286    0.059118
   2 Au:    0.402042    0.094948
   3 Au:    0.352487    0.020843
   4 Au:    0.143252    0.059564
   5 Au:    0.141491    0.059316
   6 Au:    0.401820    0.095913
   7 Au:    0.401335    0.095659
   8 Au:    0.145464    0.059126
   9 Au:    0.401706    0.095880
  10 Au:    0.355664    0.021078
  11 Au:    0.353804    0.020982
  12 Cr:   -3.595708    2.296455
Sum of atomic charges       :    0.0000000

LOEWDIN ATOMIC CHARGES AND SPIN DENSITIES
-----------------------------------------
   0 Au:    0.085943    0.067208
   1 Au:    0.034759    0.082612
   2 Au:    0.132802    0.095136
   3 Au:    0.085863    0.066863
   4 Au:    0.034061    0.083027
   5 Au:    0.033987    0.082773
   6 Au:    0.132196    0.095685
   7 Au:    0.132057    0.095572
   8 Au:    0.034091    0.082846
   9 Au:    0.132227    0.095724
  10 Au:    0.086235    0.067219
  11 Au:    0.086113    0.067164
  12 Cr:   -1.010336    2.018171

  Mayer bond orders larger than 0.100000
B(  0-Au,  4-Au) :   0.4136 B(  0-Au,  7-Au) :   0.1355 B(  0-Au, 12-Cr) :   0.7084
B(  1-Au,  3-Au) :   0.4165 B(  1-Au,  7-Au) :   0.1601 B(  1-Au,  9-Au) :   0.1867
B(  1-Au, 12-Cr) :   0.4706 B(  2-Au,  3-Au) :   0.1346 B(  2-Au,  4-Au) :   0.1603
B(  2-Au,  5-Au) :   0.1873 B(  2-Au,  6-Au) :   0.1580 B(  2-Au, 12-Cr) :   0.3476
B(  3-Au, 12-Cr) :   0.7076 B(  4-Au,  6-Au) :   0.1868 B(  4-Au, 12-Cr) :   0.4719
B(  5-Au,  6-Au) :   0.1594 B(  5-Au, 11-Au) :   0.4159 B(  5-Au, 12-Cr) :   0.4705
B(  6-Au, 10-Au) :   0.1350 B(  6-Au, 12-Cr) :   0.3472 B(  7-Au,  8-Au) :   0.1862
B(  7-Au,  9-Au) :   0.1578 B(  7-Au, 12-Cr) :   0.3476 B(  8-Au,  9-Au) :   0.1603
B(  8-Au, 10-Au) :   0.4134 B(  8-Au, 12-Cr) :   0.4729 B(  9-Au, 11-Au) :   0.1349
B(  9-Au, 12-Cr) :   0.3465 B( 10-Au, 12-Cr) :   0.7096 B( 11-Au, 12-Cr) :   0.7071

FINAL SINGLE POINT ENERGY     -2660.802314052345

DIPOLE MOMENT
-------------
                                X             Y             Z
Electronic contribution:      0.01792      -0.02634      -0.02957
Nuclear contribution   :     -0.01501       0.02495       0.02751
                        -----------------------------------------
Total Dipole Moment    :      0.00291      -0.00140      -0.00206
                        -----------------------------------------
Magnitude (a.u.)       :      0.00383
Magnitude (Debye)      :      0.00974

Rotational constants in cm-1:     0.001825     0.001029     0.001029
Rotational constants in MHz :    54.712874    30.842859    30.839811

                             ****ORCA TERMINATED NORMALLY****
TOTAL RUN TIME: 0 days 0 hours 41 minutes 45 seconds 998 msec
