                         Program Version 5.0.3 -  RELEASE  -
|  1> !SC-NEVPT2 def2-TZVP def2-TZVP/C
|  2> !MOREAD RIJCOSX def2/J
|  3> %maxcore 4000
|  4> %moinp "casscf.gbw"
|  5> %pal nprocs 8 end
|  6>
|  7> %casscf
|  8>  mult 5,3
|  9>  bweight 1,1
| 10>  nroots 5,45
| 11>  nel 6
| 12>  norb 5
| 13>  ptsettings
| 14>   d4tpre 1e-14 # default = 1e-10
| 15>   d3tpre 1e-14
| 16>  end
| 17>  rel
| 18>    dosoc true
| 19>    gtensor true
| 20>  end
| 21> end
| 22>
| 23>
| 24> *xyzfile 0 5 pbe.xyz
| 25>
| 26>
| 27>                          ****END OF INPUT****

CARTESIAN COORDINATES (ANGSTROEM)
---------------------------------
  Au     5.328275    9.567976    7.323774
  Au     7.575423    9.303226    5.417949
  Au     4.960829    7.143365    8.353148
  Au     7.025797   10.230007    9.396678
  Au     7.242756   11.630786    6.996804
  Au     6.867947    7.722371   10.467255
  Au     8.770025    5.000649    7.557753
  Au    10.176458    7.346608    7.630232
  Au     9.348319    8.761463    9.849047
  Au     8.300031    6.746013    5.494392
  Au     9.448486    9.961889    7.335872
  Au     6.685174    5.245023    9.316887
  Cr     7.511962    7.784978    7.836740

 Total Charge           Charge          ....    0
 Multiplicity           Mult            ....    5
 Number of Electrons    NEL             ....  252
 Basis Dimension        Dim             ....  525

ORBITAL ENERGIES
----------------

  NO   OCC          E(Eh)            E(eV)
   0   2.0000    -220.493645     -5999.9371
   1   2.0000     -26.330130      -716.4793
   2   2.0000     -22.264835      -605.8570
   3   2.0000     -22.263334      -605.8161
   4   2.0000     -22.249477      -605.4390
   5   2.0000      -4.721671      -128.4832
   6   2.0000      -4.720286      -128.4455
   7   2.0000      -4.720186      -128.4428
   8   2.0000      -4.712010      -128.2203
   9   2.0000      -4.711650      -128.2105
  10   2.0000      -4.707847      -128.1070
  11   2.0000      -4.707770      -128.1049
  12   2.0000      -4.706831      -128.0794
  13   2.0000      -4.706753      -128.0773
  14   2.0000      -4.702791      -127.9694
  15   2.0000      -4.692241      -127.6824
  16   2.0000      -4.691961      -127.6748
  17   2.0000      -3.385114       -92.1136
  18   2.0000      -2.762320       -75.1666
  19   2.0000      -2.761667       -75.1488
  20   2.0000      -2.758778       -75.0702
  21   2.0000      -2.757927       -75.0470
  22   2.0000      -2.757663       -75.0398
  23   2.0000      -2.757039       -75.0228
  24   2.0000      -2.756476       -75.0075
  25   2.0000      -2.753965       -74.9392
  26   2.0000      -2.753867       -74.9365
  27   2.0000      -2.750198       -74.8367
  28   2.0000      -2.749904       -74.8287
  29   2.0000      -2.749403       -74.8151
  30   2.0000      -2.749124       -74.8075
  31   2.0000      -2.748092       -74.7794
  32   2.0000      -2.747788       -74.7711
  33   2.0000      -2.746915       -74.7474
  34   2.0000      -2.745770       -74.7162
  35   2.0000      -2.744832       -74.6907
  36   2.0000      -2.744639       -74.6854
  37   2.0000      -2.744009       -74.6683
  38   2.0000      -2.742486       -74.6268
  39   2.0000      -2.741971       -74.6128
  40   2.0000      -2.740815       -74.5814
  41   2.0000      -2.740687       -74.5779
  42   2.0000      -2.740362       -74.5690
  43   2.0000      -2.739858       -74.5553
  44   2.0000      -2.739601       -74.5483
  45   2.0000      -2.737651       -74.4953
  46   2.0000      -2.736632       -74.4675
  47   2.0000      -2.736543       -74.4651
  48   2.0000      -2.730805       -74.3090
  49   2.0000      -2.728408       -74.2438
  50   2.0000      -2.728006       -74.2328
  51   2.0000      -2.725968       -74.1773
  52   2.0000      -2.725543       -74.1658
  53   2.0000      -2.723420       -74.1080
  54   2.0000      -2.151593       -58.5478
  55   2.0000      -2.150450       -58.5167
  56   2.0000      -2.137286       -58.1585
  57   2.0000      -0.556858       -15.1529
  58   2.0000      -0.554234       -15.0815
  59   2.0000      -0.551625       -15.0105
  60   2.0000      -0.545921       -14.8553
  61   2.0000      -0.544728       -14.8228
  62   2.0000      -0.538503       -14.6534
  63   2.0000      -0.536181       -14.5902
  64   2.0000      -0.533511       -14.5176
  65   2.0000      -0.533409       -14.5148
  66   2.0000      -0.532415       -14.4877
  67   2.0000      -0.530964       -14.4483
  68   2.0000      -0.524473       -14.2716
  69   2.0000      -0.523490       -14.2449
  70   2.0000      -0.522069       -14.2062
  71   2.0000      -0.521295       -14.1852
  72   2.0000      -0.518934       -14.1209
  73   2.0000      -0.515484       -14.0270
  74   2.0000      -0.506377       -13.7792
  75   2.0000      -0.505913       -13.7666
  76   2.0000      -0.501689       -13.6516
  77   2.0000      -0.501633       -13.6501
  78   2.0000      -0.500590       -13.6217
  79   2.0000      -0.495391       -13.4803
  80   2.0000      -0.494425       -13.4540
  81   2.0000      -0.489507       -13.3202
  82   2.0000      -0.487040       -13.2530
  83   2.0000      -0.486545       -13.2396
  84   2.0000      -0.481234       -13.0950
  85   2.0000      -0.480923       -13.0866
  86   2.0000      -0.476779       -12.9738
  87   2.0000      -0.475820       -12.9477
  88   2.0000      -0.471663       -12.8346
  89   2.0000      -0.470629       -12.8065
  90   2.0000      -0.466185       -12.6855
  91   2.0000      -0.462764       -12.5924
  92   2.0000      -0.456764       -12.4292
  93   2.0000      -0.454818       -12.3762
  94   2.0000      -0.450247       -12.2518
  95   2.0000      -0.450121       -12.2484
  96   2.0000      -0.449660       -12.2359
  97   2.0000      -0.447665       -12.1816
  98   2.0000      -0.445621       -12.1260
  99   2.0000      -0.442434       -12.0392
 100   2.0000      -0.441410       -12.0114
 101   2.0000      -0.440263       -11.9802
 102   2.0000      -0.437579       -11.9071
 103   2.0000      -0.436739       -11.8843
 104   2.0000      -0.433276       -11.7901
 105   2.0000      -0.429293       -11.6817
 106   2.0000      -0.428886       -11.6706
 107   2.0000      -0.426937       -11.6176
 108   2.0000      -0.425438       -11.5767
 109   2.0000      -0.424840       -11.5605
 110   2.0000      -0.422639       -11.5006
 111   2.0000      -0.418242       -11.3809
 112   2.0000      -0.417651       -11.3649
 113   2.0000      -0.413672       -11.2566
 114   2.0000      -0.408286       -11.1100
 115   2.0000      -0.402975       -10.9655
 116   2.0000      -0.394788       -10.7427
 117   2.0000      -0.382091       -10.3972
 118   2.0000      -0.349672        -9.5150
 119   2.0000      -0.339617        -9.2414
 120   2.0000      -0.309461        -8.4209
 121   2.0000      -0.234161        -6.3718
 122   2.0000      -0.229114        -6.2345
 123   1.2000      -0.079528        -2.1641
 124   1.2000      -0.133661        -3.6371
 125   1.2000      -0.111170        -3.0251
 126   1.2000      -0.099484        -2.7071
 127   1.2000      -0.080688        -2.1956
 128   0.0000      -0.019065        -0.5188
 129   0.0000      -0.013961        -0.3799
 130   0.0000      -0.001539        -0.0419
 131   0.0000       0.000444         0.0121
 132   0.0000       0.012428         0.3382

MULLIKEN ATOMIC CHARGES AND SPIN DENSITIES
------------------------------------------
   0 Au:    0.273638    0.051511
   1 Au:    0.271624    0.050974
   2 Au:    0.355135    0.029838
   3 Au:    0.198829    0.033267
   4 Au:    0.278605    0.009631
   5 Au:    0.476563    0.044108
   6 Au:    0.335187    0.007151
   7 Au:    0.470586    0.044841
   8 Au:    0.337204    0.037997
   9 Au:    0.355014    0.029365
  10 Au:    0.203523    0.033175
  11 Au:    0.335324    0.006948
  12 Cr:   -3.891232    2.621195
Sum of atomic charges       :    0.0000000

LOEWDIN ATOMIC CHARGES AND SPIN DENSITIES
-----------------------------------------
   0 Au:    0.071328    0.063204
   1 Au:    0.068991    0.062879
   2 Au:    0.118140    0.060662
   3 Au:    0.030452    0.046752
   4 Au:    0.115106    0.013829
   5 Au:    0.087834    0.058104
   6 Au:    0.094281    0.022180
   7 Au:    0.085714    0.058541
   8 Au:    0.168033    0.065951
   9 Au:    0.119071    0.060125
  10 Au:    0.031439    0.046711
  11 Au:    0.093088    0.022340
  12 Cr:   -1.083477    2.418723

  Mayer bond orders larger than 0.100000
B(  0-Au,  1-Au) :   0.1133 B(  0-Au,  2-Au) :   0.2625 B(  0-Au,  3-Au) :   0.1679
B(  0-Au,  4-Au) :   0.1629 B(  0-Au, 12-Cr) :   0.3992 B(  1-Au,  4-Au) :   0.1650
B(  1-Au,  9-Au) :   0.2654 B(  1-Au, 10-Au) :   0.1651 B(  1-Au, 12-Cr) :   0.3980
B(  2-Au,  5-Au) :   0.1148 B(  2-Au,  7-Au) :   0.1007 B(  2-Au, 11-Au) :   0.2976
B(  2-Au, 12-Cr) :   0.4023 B(  3-Au,  4-Au) :   0.2421 B(  3-Au,  5-Au) :   0.1764
B(  3-Au,  8-Au) :   0.1977 B(  3-Au, 10-Au) :   0.1031 B(  3-Au, 12-Cr) :   0.4223
B(  4-Au, 10-Au) :   0.2421 B(  4-Au, 12-Cr) :   0.3645 B(  5-Au,  8-Au) :   0.1764
B(  5-Au, 11-Au) :   0.2591 B(  5-Au, 12-Cr) :   0.3113 B(  6-Au,  7-Au) :   0.2625
B(  6-Au,  9-Au) :   0.2930 B(  6-Au, 11-Au) :   0.1269 B(  6-Au, 12-Cr) :   0.3295
B(  7-Au,  8-Au) :   0.1781 B(  7-Au,  9-Au) :   0.1142 B(  7-Au, 10-Au) :   0.1772
B(  7-Au, 12-Cr) :   0.3119 B(  8-Au, 10-Au) :   0.1955 B(  8-Au, 12-Cr) :   0.3890
B(  9-Au, 12-Cr) :   0.4044 B( 10-Au, 12-Cr) :   0.4239 B( 11-Au, 12-Cr) :   0.3267

FINAL SINGLE POINT ENERGY     -2666.933816733764

DIPOLE MOMENT
-------------
                                X             Y             Z
Electronic contribution:      4.85710      15.56596       3.44112
Nuclear contribution   :     -4.63925     -15.32686      -3.21450
                        -----------------------------------------
Total Dipole Moment    :      0.21784       0.23910       0.22662
                        -----------------------------------------
Magnitude (a.u.)       :      0.39494
Magnitude (Debye)      :      1.00386

Rotational constants in cm-1:     0.001526     0.001215     0.001078
Rotational constants in MHz :    45.734362    36.438065    32.326913

                             ****ORCA TERMINATED NORMALLY****
TOTAL RUN TIME: 0 days 0 hours 45 minutes 20 seconds 819 msec
