                         Program Version 5.0.3 -  RELEASE  -
|  1> %pal nprocs 16 end
|  2>
|  3> !PBE def2-TZVP OPT UNO
|  4> !SLOWCONV KDIIS
|  5>
|  6> %geom maxiter 300 end
|  7>
|  8> *xyzfile 0 3 5.xyz                           ****END OF INPUT****
 Total Charge           Charge          ....    0
 Multiplicity           Mult            ....    3
 Number of Electrons    NEL             ....  254
FINAL SINGLE POINT ENERGY     -2893.388077365474
FINAL SINGLE POINT ENERGY     -2893.388394475380
FINAL SINGLE POINT ENERGY     -2893.389378739695
FINAL SINGLE POINT ENERGY     -2893.389496710428
FINAL SINGLE POINT ENERGY     -2893.389820472197
FINAL SINGLE POINT ENERGY     -2893.389942784826
FINAL SINGLE POINT ENERGY     -2893.390056690433
FINAL SINGLE POINT ENERGY     -2893.390170834605
FINAL SINGLE POINT ENERGY     -2893.390223774097
FINAL SINGLE POINT ENERGY     -2893.390240188130
FINAL SINGLE POINT ENERGY     -2893.390251758422
FINAL SINGLE POINT ENERGY     -2893.390259565454
FINAL SINGLE POINT ENERGY     -2893.390262889138
                    ***********************HURRAY********************

CARTESIAN COORDINATES (ANGSTROEM)
---------------------------------
  Au     8.325103    7.335938   11.047545
  Au    10.234949    8.983428   12.175636
  Au     9.476890    4.869828    9.992557
  Au     7.057268    5.823815    9.027238
  Au     9.540791    9.733631    9.646885
  Au     6.978282    8.592269    8.785953
  Au     9.058704    4.846912    7.150139
  Au    11.534566    8.500229    8.015777
  Au     9.103587    9.336517    6.970377
  Au     7.558271    7.054125    6.441805
  Au    11.528910    5.725756    8.154195
  Au    11.301143    7.112513   10.504127
  Fe     9.298813    7.177813    8.556360

 Multiplicity           Mult            ....    3
 Number of Electrons    NEL             ....  254
 Basis Dimension        Dim             ....  525

ORBITAL ENERGIES
----------------
                 SPIN UP ORBITALS
  NO   OCC          E(Eh)            E(eV)
   0   1.0000    -254.752824     -6932.1768
   1   1.0000     -29.589912      -805.1824
   2   1.0000     -25.528648      -694.6698
   3   1.0000     -25.527875      -694.6488
   4   1.0000     -25.520014      -694.4349
   5   1.0000      -4.029773      -109.6557
   6   1.0000      -4.029055      -109.6362
   7   1.0000      -4.026236      -109.5595
   8   1.0000      -4.026064      -109.5548
   9   1.0000      -4.024782      -109.5199
  10   1.0000      -4.024769      -109.5195
  11   1.0000      -4.022938      -109.4697
  12   1.0000      -4.022136      -109.4479
  13   1.0000      -4.021976      -109.4435
  14   1.0000      -4.020048      -109.3911
  15   1.0000      -4.014357      -109.2362
  16   1.0000      -4.014159      -109.2308
  17   1.0000      -3.365765       -91.5871
  18   1.0000      -2.246915       -61.1417
  19   1.0000      -2.244483       -61.0755
  20   1.0000      -2.244275       -61.0698
  21   1.0000      -2.244190       -61.0675
  22   1.0000      -2.243222       -61.0412
  23   1.0000      -2.241929       -61.0060
  24   1.0000      -2.240746       -60.9738
  25   1.0000      -2.240524       -60.9678
  26   1.0000      -2.240349       -60.9630
  27   1.0000      -2.240119       -60.9567
  28   1.0000      -2.239508       -60.9401
  29   1.0000      -2.238751       -60.9195
  30   1.0000      -2.238310       -60.9075
  31   1.0000      -2.238116       -60.9022
  32   1.0000      -2.237786       -60.8932
  33   1.0000      -2.237069       -60.8737
  34   1.0000      -2.237007       -60.8721
  35   1.0000      -2.236363       -60.8545
  36   1.0000      -2.236046       -60.8459
  37   1.0000      -2.235580       -60.8332
  38   1.0000      -2.235398       -60.8283
  39   1.0000      -2.234812       -60.8123
  40   1.0000      -2.234545       -60.8051
  41   1.0000      -2.233782       -60.7843
  42   1.0000      -2.233442       -60.7750
  43   1.0000      -2.233283       -60.7707
  44   1.0000      -2.233114       -60.7661
  45   1.0000      -2.232252       -60.7427
  46   1.0000      -2.231491       -60.7220
  47   1.0000      -2.230586       -60.6973
  48   1.0000      -2.230293       -60.6894
  49   1.0000      -2.228759       -60.6476
  50   1.0000      -2.228060       -60.6286
  51   1.0000      -2.226200       -60.5780
  52   1.0000      -2.224537       -60.5327
  53   1.0000      -2.223786       -60.5123
  54   1.0000      -2.185912       -59.4817
  55   1.0000      -2.184922       -59.4548
  56   1.0000      -2.167663       -58.9851
  57   1.0000      -0.433176       -11.7873
  58   1.0000      -0.383757       -10.4425
  59   1.0000      -0.382683       -10.4133
  60   1.0000      -0.379198       -10.3185
  61   1.0000      -0.376099       -10.2342
  62   1.0000      -0.368021       -10.0144
  63   1.0000      -0.366749        -9.9797
  64   1.0000      -0.359516        -9.7829
  65   1.0000      -0.359106        -9.7718
  66   1.0000      -0.348132        -9.4732
  67   1.0000      -0.347165        -9.4468
  68   1.0000      -0.345412        -9.3991
  69   1.0000      -0.341383        -9.2895
  70   1.0000      -0.340127        -9.2553
  71   1.0000      -0.337688        -9.1889
  72   1.0000      -0.335959        -9.1419
  73   1.0000      -0.331584        -9.0229
  74   1.0000      -0.331285        -9.0147
  75   1.0000      -0.330407        -8.9908
  76   1.0000      -0.323085        -8.7916
  77   1.0000      -0.322654        -8.7799
  78   1.0000      -0.318696        -8.6722
  79   1.0000      -0.317966        -8.6523
  80   1.0000      -0.317800        -8.6478
  81   1.0000      -0.315633        -8.5888
  82   1.0000      -0.313320        -8.5259
  83   1.0000      -0.310101        -8.4383
  84   1.0000      -0.306914        -8.3516
  85   1.0000      -0.303130        -8.2486
  86   1.0000      -0.302324        -8.2267
  87   1.0000      -0.298444        -8.1211
  88   1.0000      -0.297695        -8.1007
  89   1.0000      -0.294581        -8.0160
  90   1.0000      -0.286748        -7.8028
  91   1.0000      -0.284450        -7.7403
  92   1.0000      -0.283294        -7.7088
  93   1.0000      -0.281887        -7.6705
  94   1.0000      -0.281501        -7.6600
  95   1.0000      -0.279560        -7.6072
  96   1.0000      -0.274437        -7.4678
  97   1.0000      -0.274410        -7.4671
  98   1.0000      -0.271132        -7.3779
  99   1.0000      -0.270819        -7.3694
 100   1.0000      -0.268471        -7.3055
 101   1.0000      -0.265825        -7.2335
 102   1.0000      -0.264745        -7.2041
 103   1.0000      -0.264374        -7.1940
 104   1.0000      -0.263095        -7.1592
 105   1.0000      -0.261645        -7.1197
 106   1.0000      -0.259678        -7.0662
 107   1.0000      -0.256380        -6.9764
 108   1.0000      -0.255343        -6.9482
 109   1.0000      -0.253140        -6.8883
 110   1.0000      -0.251290        -6.8379
 111   1.0000      -0.250230        -6.8091
 112   1.0000      -0.249956        -6.8017
 113   1.0000      -0.248331        -6.7574
 114   1.0000      -0.247016        -6.7217
 115   1.0000      -0.246576        -6.7097
 116   1.0000      -0.244513        -6.6535
 117   1.0000      -0.243886        -6.6365
 118   1.0000      -0.243229        -6.6186
 119   1.0000      -0.242077        -6.5873
 120   1.0000      -0.241474        -6.5708
 121   1.0000      -0.240741        -6.5509
 122   1.0000      -0.238124        -6.4797
 123   1.0000      -0.237447        -6.4613
 124   1.0000      -0.234658        -6.3854
 125   1.0000      -0.229526        -6.2457
 126   1.0000      -0.202692        -5.5155
 127   1.0000      -0.185875        -5.0579
 128   0.0000      -0.176208        -4.7949
 129   0.0000      -0.172699        -4.6994
 130   0.0000      -0.155123        -4.2211
 131   0.0000      -0.138595        -3.7714
 132   0.0000      -0.112795        -3.0693

                 SPIN DOWN ORBITALS
  NO   OCC          E(Eh)            E(eV)
   0   1.0000    -254.752159     -6932.1587
   1   1.0000     -29.533807      -803.6558
   2   1.0000     -25.485098      -693.4848
   3   1.0000     -25.483855      -693.4510
   4   1.0000     -25.480460      -693.3586
   5   1.0000      -4.029813      -109.6568
   6   1.0000      -4.029472      -109.6475
   7   1.0000      -4.026326      -109.5619
   8   1.0000      -4.026157      -109.5573
   9   1.0000      -4.025033      -109.5267
  10   1.0000      -4.025019      -109.5263
  11   1.0000      -4.023225      -109.4775
  12   1.0000      -4.022489      -109.4575
  13   1.0000      -4.022323      -109.4530
  14   1.0000      -4.021065      -109.4187
  15   1.0000      -4.014482      -109.2396
  16   1.0000      -4.014268      -109.2338
  17   1.0000      -3.239584       -88.1536
  18   1.0000      -2.246876       -61.1406
  19   1.0000      -2.244599       -61.0787
  20   1.0000      -2.244328       -61.0713
  21   1.0000      -2.244116       -61.0655
  22   1.0000      -2.242992       -61.0349
  23   1.0000      -2.242637       -61.0253
  24   1.0000      -2.241169       -60.9853
  25   1.0000      -2.240738       -60.9736
  26   1.0000      -2.240506       -60.9673
  27   1.0000      -2.240421       -60.9650
  28   1.0000      -2.239314       -60.9348
  29   1.0000      -2.238466       -60.9118
  30   1.0000      -2.238450       -60.9113
  31   1.0000      -2.237796       -60.8935
  32   1.0000      -2.237716       -60.8913
  33   1.0000      -2.237173       -60.8766
  34   1.0000      -2.237058       -60.8734
  35   1.0000      -2.236775       -60.8657
  36   1.0000      -2.236654       -60.8625
  37   1.0000      -2.236151       -60.8488
  38   1.0000      -2.235971       -60.8439
  39   1.0000      -2.235709       -60.8367
  40   1.0000      -2.235113       -60.8205
  41   1.0000      -2.234419       -60.8016
  42   1.0000      -2.234073       -60.7922
  43   1.0000      -2.233752       -60.7835
  44   1.0000      -2.233589       -60.7790
  45   1.0000      -2.232873       -60.7596
  46   1.0000      -2.232520       -60.7500
  47   1.0000      -2.231388       -60.7191
  48   1.0000      -2.229759       -60.6748
  49   1.0000      -2.228588       -60.6430
  50   1.0000      -2.228454       -60.6393
  51   1.0000      -2.226627       -60.5896
  52   1.0000      -2.224847       -60.5412
  53   1.0000      -2.223956       -60.5169
  54   1.0000      -2.059144       -56.0322
  55   1.0000      -2.056969       -55.9730
  56   1.0000      -2.052024       -55.8384
  57   1.0000      -0.429786       -11.6951
  58   1.0000      -0.383471       -10.4348
  59   1.0000      -0.382379       -10.4051
  60   1.0000      -0.378031       -10.2867
  61   1.0000      -0.369004       -10.0411
  62   1.0000      -0.362936        -9.8760
  63   1.0000      -0.360307        -9.8045
  64   1.0000      -0.356023        -9.6879
  65   1.0000      -0.352419        -9.5898
  66   1.0000      -0.348863        -9.4930
  67   1.0000      -0.348011        -9.4699
  68   1.0000      -0.345016        -9.3884
  69   1.0000      -0.342211        -9.3120
  70   1.0000      -0.339816        -9.2469
  71   1.0000      -0.338563        -9.2128
  72   1.0000      -0.334857        -9.1119
  73   1.0000      -0.333155        -9.0656
  74   1.0000      -0.331800        -9.0287
  75   1.0000      -0.329908        -8.9773
  76   1.0000      -0.325316        -8.8523
  77   1.0000      -0.321348        -8.7443
  78   1.0000      -0.319128        -8.6839
  79   1.0000      -0.317760        -8.6467
  80   1.0000      -0.317587        -8.6420
  81   1.0000      -0.311748        -8.4831
  82   1.0000      -0.311667        -8.4809
  83   1.0000      -0.308551        -8.3961
  84   1.0000      -0.307065        -8.3557
  85   1.0000      -0.302400        -8.2287
  86   1.0000      -0.295746        -8.0477
  87   1.0000      -0.294935        -8.0256
  88   1.0000      -0.291620        -7.9354
  89   1.0000      -0.288600        -7.8532
  90   1.0000      -0.287798        -7.8314
  91   1.0000      -0.283231        -7.7071
  92   1.0000      -0.282374        -7.6838
  93   1.0000      -0.281279        -7.6540
  94   1.0000      -0.278935        -7.5902
  95   1.0000      -0.276916        -7.5353
  96   1.0000      -0.274238        -7.4624
  97   1.0000      -0.272381        -7.4119
  98   1.0000      -0.270972        -7.3735
  99   1.0000      -0.269801        -7.3417
 100   1.0000      -0.268307        -7.3010
 101   1.0000      -0.265746        -7.2313
 102   1.0000      -0.265097        -7.2137
 103   1.0000      -0.264329        -7.1928
 104   1.0000      -0.263174        -7.1613
 105   1.0000      -0.261987        -7.1290
 106   1.0000      -0.259873        -7.0715
 107   1.0000      -0.256900        -6.9906
 108   1.0000      -0.255672        -6.9572
 109   1.0000      -0.253352        -6.8940
 110   1.0000      -0.252727        -6.8771
 111   1.0000      -0.250344        -6.8122
 112   1.0000      -0.249957        -6.8017
 113   1.0000      -0.248791        -6.7699
 114   1.0000      -0.246394        -6.7047
 115   1.0000      -0.245678        -6.6852
 116   1.0000      -0.244585        -6.6555
 117   1.0000      -0.240994        -6.5578
 118   1.0000      -0.239187        -6.5086
 119   1.0000      -0.239025        -6.5042
 120   1.0000      -0.231560        -6.3011
 121   1.0000      -0.210819        -5.7367
 122   1.0000      -0.200959        -5.4684
 123   1.0000      -0.196781        -5.3547
 124   1.0000      -0.191615        -5.2141
 125   1.0000      -0.181040        -4.9264
 126   0.0000      -0.156586        -4.2609
 127   0.0000      -0.151904        -4.1335
 128   0.0000      -0.150654        -4.0995
 129   0.0000      -0.146896        -3.9972
 130   0.0000      -0.144873        -3.9422

MULLIKEN ATOMIC CHARGES AND SPIN POPULATIONS
--------------------------------------------
   0 Au:    0.045366   -0.064783
   1 Au:    0.371171    0.018157
   2 Au:    0.238074   -0.109702
   3 Au:    0.353324   -0.143102
   4 Au:   -0.022157    0.004326
   5 Au:    0.236834   -0.106502
   6 Au:    0.208466    0.018337
   7 Au:    0.332519   -0.176033
   8 Au:    0.359926   -0.132522
   9 Au:    0.209195    0.017452
  10 Au:    0.358883   -0.131838
  11 Au:   -0.024853    0.007667
  12 Fe:   -2.666749    2.798543
Sum of atomic charges         :    0.0000000

LOEWDIN ATOMIC CHARGES AND SPIN POPULATIONS
-------------------------------------------
   0 Au:    0.023785   -0.077456
   1 Au:    0.124558   -0.016696
   2 Au:    0.072535   -0.103251
   3 Au:    0.058962   -0.085931
   4 Au:   -0.021565   -0.031203
   5 Au:    0.071844   -0.101801
   6 Au:    0.056575   -0.048539
   7 Au:    0.108083   -0.118441
   8 Au:    0.095219   -0.123511
   9 Au:    0.054984   -0.048393
  10 Au:    0.094298   -0.123448
  11 Au:   -0.022750   -0.029423
  12 Fe:   -0.716529    2.908095

  Mayer bond orders larger than 0.100000
B(  0-Au,  1-Au) :   0.3458 B(  0-Au,  2-Au) :   0.1654 B(  0-Au,  3-Au) :   0.2374
B(  0-Au,  4-Au) :   0.1687 B(  0-Au,  5-Au) :   0.1661 B(  0-Au, 11-Au) :   0.1680
B(  0-Au, 12-Fe) :   0.4893 B(  1-Au,  4-Au) :   0.3760 B(  1-Au, 11-Au) :   0.3775
B(  1-Au, 12-Fe) :   0.1079 B(  2-Au,  3-Au) :   0.2212 B(  2-Au,  6-Au) :   0.1879
B(  2-Au, 10-Au) :   0.1028 B(  2-Au, 11-Au) :   0.1332 B(  2-Au, 12-Fe) :   0.5790
B(  3-Au,  5-Au) :   0.2167 B(  3-Au,  6-Au) :   0.1390 B(  3-Au,  9-Au) :   0.1410
B(  3-Au, 12-Fe) :   0.5053 B(  4-Au,  5-Au) :   0.1330 B(  4-Au,  7-Au) :   0.1485
B(  4-Au,  8-Au) :   0.3234 B(  4-Au, 11-Au) :   0.1278 B(  4-Au, 12-Fe) :   0.5285
B(  5-Au,  9-Au) :   0.1956 B(  5-Au, 12-Fe) :   0.5768 B(  6-Au,  9-Au) :   0.2315
B(  6-Au, 10-Au) :   0.1801 B(  6-Au, 12-Fe) :   0.5288 B(  7-Au,  8-Au) :   0.2028
B(  7-Au, 10-Au) :   0.2010 B(  7-Au, 11-Au) :   0.1458 B(  7-Au, 12-Fe) :   0.5769
B(  8-Au,  9-Au) :   0.1815 B(  8-Au, 12-Fe) :   0.5110 B(  9-Au, 12-Fe) :   0.5234
B( 10-Au, 11-Au) :   0.3286 B( 10-Au, 12-Fe) :   0.5082 B( 11-Au, 12-Fe) :   0.5259

FINAL SINGLE POINT ENERGY     -2893.390264085389

DIPOLE MOMENT
-------------
                                X             Y             Z
Electronic contribution:      0.40107       5.78718      16.93803
Nuclear contribution   :     -0.35741      -5.64834     -16.60349
                        -----------------------------------------
Total Dipole Moment    :      0.04367       0.13884       0.33454
                        -----------------------------------------
Magnitude (a.u.)       :      0.36484
Magnitude (Debye)      :      0.92734

Rotational constants in cm-1:     0.001561     0.001300     0.001202
Rotational constants in MHz :    46.799173    38.977309    36.032870

                             ****ORCA TERMINATED NORMALLY****
TOTAL RUN TIME: 0 days 0 hours 27 minutes 18 seconds 544 msec
