                         Program Version 5.0.3 -  RELEASE  -
|  1> !SC-NEVPT2 def2-TZVP def2-TZVP/C
|  2> !MOREAD RIJCOSX def2/J
|  3> %maxcore 4000
|  4> %moinp "casscf.gbw"
|  5> %pal nprocs 8 end
|  6>
|  7> %casscf
|  8>  mult 5,3
|  9>  bweight 1,1
| 10>  nroots 5,45
| 11>  nel 6
| 12>  norb 5
| 13>  ptsettings
| 14>   d4tpre 1e-14 # default = 1e-10
| 15>   d3tpre 1e-14
| 16>  end
| 17>  rel
| 18>    dosoc true
| 19>    gtensor true
| 20>  end
| 21> end
| 22>
| 23>
| 24> *xyzfile 0 5 pbe.xyz
| 25>
| 26>
| 27>                          ****END OF INPUT****

CARTESIAN COORDINATES (ANGSTROEM)
---------------------------------
  Au     9.796898    8.275430   10.346947
  Au    10.018345    6.002777    8.757944
  Au     7.310273    9.502772   10.141337
  Au     5.262915    5.487197    8.547052
  Au     7.480229    6.732565    9.714829
  Au     5.144164    8.301494    8.903928
  Au    11.097653    8.403125    7.873384
  Au     9.465279   10.520299    8.713260
  Au     7.833197    4.815303    7.538404
  Au     9.483880    9.737256    6.046784
  Au     9.357228    6.927450    6.182528
  Au     7.221646    5.680316    4.901455
  Au     7.308379    8.523364    4.834273
  Au     4.512267    5.972377    5.796691
  Au     4.796129    8.814475    6.130623
  Au     7.017658    9.951537    7.377466
  Cr     6.638738    7.144431    7.020043

 Total Charge           Charge          ....    0
 Multiplicity           Mult            ....    5
 Number of Electrons    NEL             ....  328
 Basis Dimension        Dim             ....  685

ORBITAL ENERGIES
----------------

  NO   OCC          E(Eh)            E(eV)
   0   2.0000    -220.510979     -6000.4088
   1   2.0000     -26.352422      -717.0858
   2   2.0000     -22.285660      -606.4236
   3   2.0000     -22.285312      -606.4142
   4   2.0000     -22.272850      -606.0751
   5   2.0000      -4.719205      -128.4161
   6   2.0000      -4.715838      -128.3245
   7   2.0000      -4.715370      -128.3118
   8   2.0000      -4.715061      -128.3033
   9   2.0000      -4.714904      -128.2991
  10   2.0000      -4.713997      -128.2744
  11   2.0000      -4.712445      -128.2322
  12   2.0000      -4.711004      -128.1929
  13   2.0000      -4.710685      -128.1842
  14   2.0000      -4.710356      -128.1753
  15   2.0000      -4.707449      -128.0962
  16   2.0000      -4.707295      -128.0920
  17   2.0000      -4.707243      -128.0906
  18   2.0000      -4.706805      -128.0787
  19   2.0000      -4.703686      -127.9938
  20   2.0000      -4.701760      -127.9414
  21   2.0000      -3.406554       -92.6970
  22   2.0000      -2.757999       -75.0490
  23   2.0000      -2.756837       -75.0173
  24   2.0000      -2.756196       -74.9999
  25   2.0000      -2.755862       -74.9908
  26   2.0000      -2.754425       -74.9517
  27   2.0000      -2.753768       -74.9338
  28   2.0000      -2.753548       -74.9278
  29   2.0000      -2.753429       -74.9246
  30   2.0000      -2.752298       -74.8938
  31   2.0000      -2.752090       -74.8882
  32   2.0000      -2.751567       -74.8740
  33   2.0000      -2.751218       -74.8645
  34   2.0000      -2.750611       -74.8479
  35   2.0000      -2.750305       -74.8396
  36   2.0000      -2.750126       -74.8347
  37   2.0000      -2.749800       -74.8259
  38   2.0000      -2.749446       -74.8162
  39   2.0000      -2.748874       -74.8007
  40   2.0000      -2.748542       -74.7916
  41   2.0000      -2.748493       -74.7903
  42   2.0000      -2.747869       -74.7733
  43   2.0000      -2.747678       -74.7681
  44   2.0000      -2.747132       -74.7533
  45   2.0000      -2.746971       -74.7489
  46   2.0000      -2.746605       -74.7389
  47   2.0000      -2.746382       -74.7329
  48   2.0000      -2.746112       -74.7255
  49   2.0000      -2.745916       -74.7202
  50   2.0000      -2.745513       -74.7092
  51   2.0000      -2.745368       -74.7053
  52   2.0000      -2.745069       -74.6971
  53   2.0000      -2.744562       -74.6833
  54   2.0000      -2.744470       -74.6808
  55   2.0000      -2.743863       -74.6643
  56   2.0000      -2.742881       -74.6376
  57   2.0000      -2.742638       -74.6310
  58   2.0000      -2.742403       -74.6246
  59   2.0000      -2.741822       -74.6088
  60   2.0000      -2.741519       -74.6005
  61   2.0000      -2.741503       -74.6001
  62   2.0000      -2.741050       -74.5878
  63   2.0000      -2.740552       -74.5742
  64   2.0000      -2.739366       -74.5419
  65   2.0000      -2.738477       -74.5177
  66   2.0000      -2.737706       -74.4968
  67   2.0000      -2.736658       -74.4683
  68   2.0000      -2.736096       -74.4530
  69   2.0000      -2.735084       -74.4254
  70   2.0000      -2.171357       -59.0856
  71   2.0000      -2.171101       -59.0787
  72   2.0000      -2.158733       -58.7421
  73   2.0000      -0.559463       -15.2238
  74   2.0000      -0.551737       -15.0135
  75   2.0000      -0.551003       -14.9936
  76   2.0000      -0.550063       -14.9680
  77   2.0000      -0.546096       -14.8600
  78   2.0000      -0.545065       -14.8320
  79   2.0000      -0.544634       -14.8202
  80   2.0000      -0.543064       -14.7775
  81   2.0000      -0.542843       -14.7715
  82   2.0000      -0.539259       -14.6740
  83   2.0000      -0.538952       -14.6656
  84   2.0000      -0.538627       -14.6568
  85   2.0000      -0.536158       -14.5896
  86   2.0000      -0.530723       -14.4417
  87   2.0000      -0.530382       -14.4324
  88   2.0000      -0.528439       -14.3795
  89   2.0000      -0.528199       -14.3730
  90   2.0000      -0.527824       -14.3628
  91   2.0000      -0.527434       -14.3522
  92   2.0000      -0.525997       -14.3131
  93   2.0000      -0.524971       -14.2852
  94   2.0000      -0.524853       -14.2820
  95   2.0000      -0.524422       -14.2702
  96   2.0000      -0.521875       -14.2009
  97   2.0000      -0.514358       -13.9964
  98   2.0000      -0.512635       -13.9495
  99   2.0000      -0.511686       -13.9237
 100   2.0000      -0.510939       -13.9033
 101   2.0000      -0.503189       -13.6925
 102   2.0000      -0.502539       -13.6748
 103   2.0000      -0.502337       -13.6693
 104   2.0000      -0.500588       -13.6217
 105   2.0000      -0.498379       -13.5616
 106   2.0000      -0.488943       -13.3048
 107   2.0000      -0.488138       -13.2829
 108   2.0000      -0.487897       -13.2764
 109   2.0000      -0.487859       -13.2753
 110   2.0000      -0.485681       -13.2161
 111   2.0000      -0.485011       -13.1978
 112   2.0000      -0.476916       -12.9775
 113   2.0000      -0.475503       -12.9391
 114   2.0000      -0.475108       -12.9284
 115   2.0000      -0.474819       -12.9205
 116   2.0000      -0.474266       -12.9054
 117   2.0000      -0.474038       -12.8992
 118   2.0000      -0.470545       -12.8042
 119   2.0000      -0.469835       -12.7848
 120   2.0000      -0.468345       -12.7443
 121   2.0000      -0.467935       -12.7332
 122   2.0000      -0.459954       -12.5160
 123   2.0000      -0.453848       -12.3498
 124   2.0000      -0.452081       -12.3018
 125   2.0000      -0.449653       -12.2357
 126   2.0000      -0.449184       -12.2229
 127   2.0000      -0.447834       -12.1862
 128   2.0000      -0.447556       -12.1786
 129   2.0000      -0.446826       -12.1588
 130   2.0000      -0.446206       -12.1419
 131   2.0000      -0.441206       -12.0058
 132   2.0000      -0.438291       -11.9265
 133   2.0000      -0.438165       -11.9231
 134   2.0000      -0.436942       -11.8898
 135   2.0000      -0.435486       -11.8502
 136   2.0000      -0.432718       -11.7748
 137   2.0000      -0.432172       -11.7600
 138   2.0000      -0.427675       -11.6376
 139   2.0000      -0.427437       -11.6311
 140   2.0000      -0.425230       -11.5711
 141   2.0000      -0.424430       -11.5493
 142   2.0000      -0.422510       -11.4971
 143   2.0000      -0.419572       -11.4171
 144   2.0000      -0.418676       -11.3928
 145   2.0000      -0.418226       -11.3805
 146   2.0000      -0.412046       -11.2123
 147   2.0000      -0.411154       -11.1881
 148   2.0000      -0.408986       -11.1291
 149   2.0000      -0.405284       -11.0283
 150   2.0000      -0.404588       -11.0094
 151   2.0000      -0.397534       -10.8174
 152   2.0000      -0.397157       -10.8072
 153   2.0000      -0.395712       -10.7679
 154   2.0000      -0.380549       -10.3553
 155   2.0000      -0.352713        -9.5978
 156   2.0000      -0.352132        -9.5820
 157   2.0000      -0.258836        -7.0433
 158   2.0000      -0.253641        -6.9019
 159   2.0000      -0.250065        -6.8046
 160   2.0000      -0.218364        -5.9420
 161   1.2000      -0.090339        -2.4583
 162   1.2000      -0.116006        -3.1567
 163   1.2000      -0.104619        -2.8468
 164   1.2000      -0.146929        -3.9981
 165   1.2000      -0.109203        -2.9716
 166   0.0000      -0.025277        -0.6878
 167   0.0000      -0.008502        -0.2313
 168   0.0000      -0.008187        -0.2228
 169   0.0000      -0.006986        -0.1901
 170   0.0000       0.004159         0.1132

MULLIKEN ATOMIC CHARGES AND SPIN DENSITIES
------------------------------------------
   0 Au:    0.217696    0.030573
   1 Au:    0.130518    0.028477
   2 Au:    0.101157    0.029169
   3 Au:    0.556872    0.003941
   4 Au:   -0.117246    0.061294
   5 Au:    0.569188    0.023360
   6 Au:    0.191795    0.010224
   7 Au:    0.201066    0.017511
   8 Au:    0.592000    0.030873
   9 Au:    0.176793    0.027991
  10 Au:   -0.245645    0.018417
  11 Au:    0.572155    0.023688
  12 Au:    0.630663    0.046273
  13 Au:    0.512484    0.008949
  14 Au:    0.566104    0.015857
  15 Au:   -0.195163    0.034907
  16 Cr:   -4.460437    2.588497
Sum of atomic charges       :    0.0000000

LOEWDIN ATOMIC CHARGES AND SPIN DENSITIES
-----------------------------------------
   0 Au:    0.042427    0.031868
   1 Au:    0.049703    0.038847
   2 Au:    0.052587    0.043394
   3 Au:    0.150833    0.033107
   4 Au:   -0.016637    0.056243
   5 Au:    0.081763    0.051757
   6 Au:    0.012275    0.015583
   7 Au:    0.023435    0.021591
   8 Au:    0.088755    0.057305
   9 Au:    0.045886    0.031559
  10 Au:   -0.028413    0.051507
  11 Au:    0.150791    0.051893
  12 Au:    0.100476    0.067325
  13 Au:    0.201064    0.021483
  14 Au:    0.150357    0.044520
  15 Au:   -0.023946    0.053326
  16 Cr:   -1.081355    2.328692

  Mayer bond orders larger than 0.100000
B(  0-Au,  1-Au) :   0.2437 B(  0-Au,  2-Au) :   0.2368 B(  0-Au,  4-Au) :   0.3192
B(  0-Au,  6-Au) :   0.1820 B(  0-Au,  7-Au) :   0.1977 B(  1-Au,  4-Au) :   0.2859
B(  1-Au,  6-Au) :   0.2199 B(  1-Au, 10-Au) :   0.1779 B(  1-Au, 16-Cr) :   0.4604
B(  2-Au,  4-Au) :   0.2453 B(  2-Au,  7-Au) :   0.2211 B(  2-Au, 15-Au) :   0.1770
B(  2-Au, 16-Cr) :   0.5218 B(  3-Au,  5-Au) :   0.1473 B(  3-Au,  8-Au) :   0.1410
B(  3-Au, 12-Au) :   0.2363 B(  3-Au, 13-Au) :   0.1491 B(  3-Au, 16-Cr) :   0.2541
B(  4-Au,  8-Au) :   0.1014 B(  4-Au, 16-Cr) :   0.2964 B(  5-Au, 11-Au) :   0.2575
B(  5-Au, 14-Au) :   0.1473 B(  5-Au, 16-Cr) :   0.1439 B(  6-Au,  7-Au) :   0.1588
B(  6-Au,  9-Au) :   0.2314 B(  6-Au, 10-Au) :   0.4522 B(  7-Au,  9-Au) :   0.2425
B(  7-Au, 15-Au) :   0.4000 B(  8-Au, 11-Au) :   0.1438 B(  8-Au, 14-Au) :   0.2493
B(  8-Au, 16-Cr) :   0.1353 B(  9-Au, 10-Au) :   0.2401 B(  9-Au, 15-Au) :   0.2846
B(  9-Au, 16-Cr) :   0.3578 B( 10-Au, 11-Au) :   0.1290 B( 10-Au, 16-Cr) :   0.2748
B( 11-Au, 12-Au) :   0.1338 B( 11-Au, 13-Au) :   0.1485 B( 11-Au, 16-Cr) :   0.2352
B( 12-Au, 14-Au) :   0.1340 B( 12-Au, 16-Cr) :   0.1211 B( 13-Au, 14-Au) :   0.1491
B( 13-Au, 16-Cr) :   0.3691 B( 14-Au, 15-Au) :   0.1183 B( 14-Au, 16-Cr) :   0.2419
B( 15-Au, 16-Cr) :   0.2842

FINAL SINGLE POINT ENERGY     -3208.237316070773

DIPOLE MOMENT
-------------
                                X             Y             Z
Electronic contribution:     36.48398      20.17585      20.51026
Nuclear contribution   :    -37.24712     -20.59476     -20.92427
                        -----------------------------------------
Total Dipole Moment    :     -0.76314      -0.41892      -0.41400
                        -----------------------------------------
Magnitude (a.u.)       :      0.96399
Magnitude (Debye)      :      2.45026

Rotational constants in cm-1:     0.001020     0.000727     0.000727
Rotational constants in MHz :    30.589439    21.787592    21.782688

                             ****ORCA TERMINATED NORMALLY****
TOTAL RUN TIME: 0 days 2 hours 15 minutes 26 seconds 819 msec
