                         Program Version 5.0.3 -  RELEASE  -
|  1> %pal nprocs 16 end
|  2>
|  3> !PBE def2-TZVP OPT UNO
|  4> !SLOWCONV KDIIS
|  5>
|  6> %geom maxiter 300 end
|  7>
|  8> *xyzfile 0 3 6.xyz                           ****END OF INPUT****
 Total Charge           Charge          ....    0
 Multiplicity           Mult            ....    3
 Number of Electrons    NEL             ....  254
FINAL SINGLE POINT ENERGY     -2893.382395866240
FINAL SINGLE POINT ENERGY     -2893.383584920328
FINAL SINGLE POINT ENERGY     -2893.383896576287
FINAL SINGLE POINT ENERGY     -2893.384188298889
FINAL SINGLE POINT ENERGY     -2893.384262172740
FINAL SINGLE POINT ENERGY     -2893.384383990835
FINAL SINGLE POINT ENERGY     -2893.384427903233
FINAL SINGLE POINT ENERGY     -2893.384520509235
FINAL SINGLE POINT ENERGY     -2893.384658422610
FINAL SINGLE POINT ENERGY     -2893.384917853426
FINAL SINGLE POINT ENERGY     -2893.387873192574
FINAL SINGLE POINT ENERGY     -2893.388489289544
FINAL SINGLE POINT ENERGY     -2893.389068559791
FINAL SINGLE POINT ENERGY     -2893.389549275443
FINAL SINGLE POINT ENERGY     -2893.389692505056
FINAL SINGLE POINT ENERGY     -2893.389754484685
FINAL SINGLE POINT ENERGY     -2893.389792466547
FINAL SINGLE POINT ENERGY     -2893.389799641284
FINAL SINGLE POINT ENERGY     -2893.389805751182
                    ***********************HURRAY********************

CARTESIAN COORDINATES (ANGSTROEM)
---------------------------------
  Au     9.240305    9.726279   10.556914
  Au     9.580922    7.052430   11.566076
  Au     7.749529    5.727456   10.128264
  Au     7.288653    6.733367    7.399832
  Au     6.538064    8.956084    6.108726
  Au     7.167447    4.110388    7.933412
  Au     7.284568    9.343597    8.766912
  Au    11.816259    8.734373   11.167367
  Au    11.594301    6.511839    9.436243
  Au     9.727454    5.204315    8.030504
  Au    11.247117    9.186008    8.434993
  Au     9.261027    8.803305    6.679170
  Fe     9.255484    7.602007    9.034956

 Multiplicity           Mult            ....    3
 Number of Electrons    NEL             ....  254
 Basis Dimension        Dim             ....  525

ORBITAL ENERGIES
----------------
                 SPIN UP ORBITALS
  NO   OCC          E(Eh)            E(eV)
   0   1.0000    -254.743215     -6931.9153
   1   1.0000     -29.581744      -804.9602
   2   1.0000     -25.522056      -694.4904
   3   1.0000     -25.518811      -694.4021
   4   1.0000     -25.511737      -694.2096
   5   1.0000      -4.032572      -109.7319
   6   1.0000      -4.022340      -109.4534
   7   1.0000      -4.022300      -109.4524
   8   1.0000      -4.022277      -109.4517
   9   1.0000      -4.022241      -109.4507
  10   1.0000      -4.020462      -109.4023
  11   1.0000      -4.020414      -109.4010
  12   1.0000      -4.020353      -109.3994
  13   1.0000      -4.020309      -109.3982
  14   1.0000      -4.017477      -109.3211
  15   1.0000      -4.017387      -109.3187
  16   1.0000      -4.013352      -109.2089
  17   1.0000      -3.356054       -91.3229
  18   1.0000      -2.251657       -61.2707
  19   1.0000      -2.245519       -61.1037
  20   1.0000      -2.241177       -60.9855
  21   1.0000      -2.241138       -60.9845
  22   1.0000      -2.240943       -60.9792
  23   1.0000      -2.240775       -60.9746
  24   1.0000      -2.239529       -60.9407
  25   1.0000      -2.238121       -60.9024
  26   1.0000      -2.238029       -60.8999
  27   1.0000      -2.236868       -60.8683
  28   1.0000      -2.236759       -60.8653
  29   1.0000      -2.236706       -60.8639
  30   1.0000      -2.236214       -60.8505
  31   1.0000      -2.235992       -60.8444
  32   1.0000      -2.235601       -60.8338
  33   1.0000      -2.235350       -60.8270
  34   1.0000      -2.234469       -60.8030
  35   1.0000      -2.234257       -60.7972
  36   1.0000      -2.233790       -60.7845
  37   1.0000      -2.233391       -60.7736
  38   1.0000      -2.233129       -60.7665
  39   1.0000      -2.229607       -60.6707
  40   1.0000      -2.229402       -60.6651
  41   1.0000      -2.229161       -60.6586
  42   1.0000      -2.228710       -60.6463
  43   1.0000      -2.228590       -60.6430
  44   1.0000      -2.228283       -60.6347
  45   1.0000      -2.228104       -60.6298
  46   1.0000      -2.228055       -60.6285
  47   1.0000      -2.227954       -60.6257
  48   1.0000      -2.227940       -60.6253
  49   1.0000      -2.227878       -60.6236
  50   1.0000      -2.227331       -60.6088
  51   1.0000      -2.226129       -60.5761
  52   1.0000      -2.225770       -60.5663
  53   1.0000      -2.225748       -60.5657
  54   1.0000      -2.177562       -59.2545
  55   1.0000      -2.172986       -59.1299
  56   1.0000      -2.158978       -58.7488
  57   1.0000      -0.421115       -11.4591
  58   1.0000      -0.392770       -10.6878
  59   1.0000      -0.380801       -10.3621
  60   1.0000      -0.371227       -10.1016
  61   1.0000      -0.361666        -9.8414
  62   1.0000      -0.360974        -9.8226
  63   1.0000      -0.359674        -9.7872
  64   1.0000      -0.358495        -9.7551
  65   1.0000      -0.343695        -9.3524
  66   1.0000      -0.343484        -9.3467
  67   1.0000      -0.343023        -9.3341
  68   1.0000      -0.339742        -9.2448
  69   1.0000      -0.337147        -9.1742
  70   1.0000      -0.336711        -9.1624
  71   1.0000      -0.333301        -9.0696
  72   1.0000      -0.332012        -9.0345
  73   1.0000      -0.328175        -8.9301
  74   1.0000      -0.327639        -8.9155
  75   1.0000      -0.323391        -8.7999
  76   1.0000      -0.322515        -8.7761
  77   1.0000      -0.317776        -8.6471
  78   1.0000      -0.314990        -8.5713
  79   1.0000      -0.310814        -8.4577
  80   1.0000      -0.309138        -8.4121
  81   1.0000      -0.308344        -8.3905
  82   1.0000      -0.305775        -8.3206
  83   1.0000      -0.300960        -8.1895
  84   1.0000      -0.300679        -8.1819
  85   1.0000      -0.296272        -8.0620
  86   1.0000      -0.293188        -7.9780
  87   1.0000      -0.292702        -7.9648
  88   1.0000      -0.292434        -7.9575
  89   1.0000      -0.287000        -7.8097
  90   1.0000      -0.285847        -7.7783
  91   1.0000      -0.284501        -7.7417
  92   1.0000      -0.283072        -7.7028
  93   1.0000      -0.281647        -7.6640
  94   1.0000      -0.280090        -7.6216
  95   1.0000      -0.276977        -7.5369
  96   1.0000      -0.275589        -7.4992
  97   1.0000      -0.271463        -7.3869
  98   1.0000      -0.271149        -7.3783
  99   1.0000      -0.267944        -7.2911
 100   1.0000      -0.267598        -7.2817
 101   1.0000      -0.267317        -7.2741
 102   1.0000      -0.266867        -7.2618
 103   1.0000      -0.265662        -7.2290
 104   1.0000      -0.263550        -7.1716
 105   1.0000      -0.263352        -7.1662
 106   1.0000      -0.258017        -7.0210
 107   1.0000      -0.257564        -7.0087
 108   1.0000      -0.255740        -6.9591
 109   1.0000      -0.255645        -6.9565
 110   1.0000      -0.251435        -6.8419
 111   1.0000      -0.250306        -6.8112
 112   1.0000      -0.249337        -6.7848
 113   1.0000      -0.247686        -6.7399
 114   1.0000      -0.247398        -6.7320
 115   1.0000      -0.246976        -6.7205
 116   1.0000      -0.243755        -6.6329
 117   1.0000      -0.241623        -6.5749
 118   1.0000      -0.240217        -6.5367
 119   1.0000      -0.239732        -6.5234
 120   1.0000      -0.236003        -6.4220
 121   1.0000      -0.231739        -6.3059
 122   1.0000      -0.231646        -6.3034
 123   1.0000      -0.227760        -6.1977
 124   1.0000      -0.226600        -6.1661
 125   1.0000      -0.223008        -6.0684
 126   1.0000      -0.208121        -5.6633
 127   1.0000      -0.208065        -5.6617
 128   0.0000      -0.175018        -4.7625
 129   0.0000      -0.159611        -4.3432
 130   0.0000      -0.153712        -4.1827
 131   0.0000      -0.134380        -3.6567
 132   0.0000      -0.123731        -3.3669

                 SPIN DOWN ORBITALS
  NO   OCC          E(Eh)            E(eV)
   0   1.0000    -254.742579     -6931.8980
   1   1.0000     -29.528122      -803.5010
   2   1.0000     -25.480577      -693.3618
   3   1.0000     -25.476619      -693.2540
   4   1.0000     -25.473925      -693.1807
   5   1.0000      -4.032636      -109.7336
   6   1.0000      -4.022233      -109.4505
   7   1.0000      -4.022184      -109.4492
   8   1.0000      -4.022169      -109.4488
   9   1.0000      -4.022123      -109.4475
  10   1.0000      -4.020333      -109.3988
  11   1.0000      -4.020286      -109.3975
  12   1.0000      -4.020214      -109.3956
  13   1.0000      -4.020168      -109.3943
  14   1.0000      -4.018323      -109.3441
  15   1.0000      -4.018239      -109.3418
  16   1.0000      -4.013839      -109.2221
  17   1.0000      -3.234877       -88.0255
  18   1.0000      -2.252006       -61.2802
  19   1.0000      -2.244957       -61.0884
  20   1.0000      -2.240961       -60.9797
  21   1.0000      -2.240831       -60.9761
  22   1.0000      -2.240656       -60.9714
  23   1.0000      -2.240472       -60.9663
  24   1.0000      -2.239805       -60.9482
  25   1.0000      -2.237853       -60.8951
  26   1.0000      -2.237708       -60.8911
  27   1.0000      -2.236530       -60.8591
  28   1.0000      -2.236428       -60.8563
  29   1.0000      -2.236183       -60.8496
  30   1.0000      -2.235918       -60.8424
  31   1.0000      -2.235409       -60.8286
  32   1.0000      -2.235306       -60.8258
  33   1.0000      -2.235205       -60.8230
  34   1.0000      -2.234485       -60.8034
  35   1.0000      -2.234403       -60.8012
  36   1.0000      -2.234374       -60.8004
  37   1.0000      -2.233705       -60.7822
  38   1.0000      -2.232785       -60.7572
  39   1.0000      -2.229878       -60.6781
  40   1.0000      -2.229682       -60.6727
  41   1.0000      -2.229413       -60.6654
  42   1.0000      -2.229105       -60.6570
  43   1.0000      -2.229045       -60.6554
  44   1.0000      -2.228755       -60.6475
  45   1.0000      -2.228705       -60.6461
  46   1.0000      -2.228627       -60.6440
  47   1.0000      -2.228605       -60.6434
  48   1.0000      -2.228371       -60.6370
  49   1.0000      -2.228272       -60.6344
  50   1.0000      -2.227537       -60.6144
  51   1.0000      -2.226811       -60.5946
  52   1.0000      -2.226526       -60.5869
  53   1.0000      -2.225835       -60.5680
  54   1.0000      -2.055350       -55.9289
  55   1.0000      -2.049342       -55.7654
  56   1.0000      -2.049089       -55.7585
  57   1.0000      -0.418887       -11.3985
  58   1.0000      -0.392131       -10.6704
  59   1.0000      -0.380246       -10.3470
  60   1.0000      -0.368099       -10.0165
  61   1.0000      -0.359049        -9.7702
  62   1.0000      -0.358683        -9.7603
  63   1.0000      -0.357328        -9.7234
  64   1.0000      -0.355078        -9.6622
  65   1.0000      -0.342764        -9.3271
  66   1.0000      -0.339200        -9.2301
  67   1.0000      -0.337936        -9.1957
  68   1.0000      -0.336929        -9.1683
  69   1.0000      -0.334253        -9.0955
  70   1.0000      -0.332279        -9.0418
  71   1.0000      -0.331820        -9.0293
  72   1.0000      -0.330243        -8.9864
  73   1.0000      -0.327287        -8.9059
  74   1.0000      -0.324662        -8.8345
  75   1.0000      -0.324487        -8.8297
  76   1.0000      -0.316056        -8.6003
  77   1.0000      -0.314238        -8.5508
  78   1.0000      -0.309951        -8.4342
  79   1.0000      -0.309846        -8.4313
  80   1.0000      -0.309549        -8.4232
  81   1.0000      -0.307984        -8.3807
  82   1.0000      -0.306056        -8.3282
  83   1.0000      -0.300986        -8.1902
  84   1.0000      -0.300824        -8.1858
  85   1.0000      -0.296406        -8.0656
  86   1.0000      -0.292319        -7.9544
  87   1.0000      -0.291949        -7.9443
  88   1.0000      -0.291553        -7.9336
  89   1.0000      -0.284740        -7.7482
  90   1.0000      -0.284672        -7.7463
  91   1.0000      -0.283317        -7.7094
  92   1.0000      -0.280927        -7.6444
  93   1.0000      -0.280611        -7.6358
  94   1.0000      -0.279653        -7.6097
  95   1.0000      -0.277185        -7.5426
  96   1.0000      -0.276418        -7.5217
  97   1.0000      -0.272387        -7.4120
  98   1.0000      -0.270808        -7.3691
  99   1.0000      -0.268530        -7.3071
 100   1.0000      -0.268334        -7.3017
 101   1.0000      -0.267907        -7.2901
 102   1.0000      -0.267634        -7.2827
 103   1.0000      -0.264378        -7.1941
 104   1.0000      -0.262808        -7.1514
 105   1.0000      -0.262754        -7.1499
 106   1.0000      -0.258651        -7.0382
 107   1.0000      -0.256032        -6.9670
 108   1.0000      -0.255733        -6.9588
 109   1.0000      -0.252294        -6.8653
 110   1.0000      -0.251116        -6.8332
 111   1.0000      -0.250560        -6.8181
 112   1.0000      -0.248452        -6.7607
 113   1.0000      -0.247750        -6.7416
 114   1.0000      -0.246917        -6.7189
 115   1.0000      -0.245104        -6.6696
 116   1.0000      -0.241403        -6.5689
 117   1.0000      -0.241246        -6.5646
 118   1.0000      -0.240086        -6.5331
 119   1.0000      -0.231207        -6.2915
 120   1.0000      -0.226650        -6.1675
 121   1.0000      -0.215841        -5.8733
 122   1.0000      -0.214997        -5.8504
 123   1.0000      -0.200182        -5.4472
 124   1.0000      -0.182253        -4.9593
 125   1.0000      -0.171962        -4.6793
 126   0.0000      -0.156707        -4.2642
 127   0.0000      -0.150542        -4.0965
 128   0.0000      -0.147088        -4.0025
 129   0.0000      -0.146056        -3.9744
 130   0.0000      -0.141066        -3.8386

MULLIKEN ATOMIC CHARGES AND SPIN POPULATIONS
--------------------------------------------
   0 Au:    0.147003   -0.052425
   1 Au:    0.147113   -0.051549
   2 Au:    0.199258   -0.117498
   3 Au:   -0.372918    0.013602
   4 Au:    0.422486   -0.052253
   5 Au:    0.421993   -0.053541
   6 Au:    0.199138   -0.118523
   7 Au:    0.293876   -0.013874
   8 Au:    0.146229   -0.052662
   9 Au:    0.198436   -0.118412
  10 Au:    0.146483   -0.053637
  11 Au:    0.198273   -0.119468
  12 Fe:   -2.147370    2.790239
Sum of atomic charges         :    0.0000000

LOEWDIN ATOMIC CHARGES AND SPIN POPULATIONS
-------------------------------------------
   0 Au:    0.056232   -0.061234
   1 Au:    0.056869   -0.060500
   2 Au:    0.060507   -0.088562
   3 Au:   -0.106394   -0.027274
   4 Au:    0.117019   -0.072003
   5 Au:    0.116638   -0.072926
   6 Au:    0.060283   -0.089382
   7 Au:    0.034388   -0.038057
   8 Au:    0.056701   -0.061279
   9 Au:    0.059863   -0.089008
  10 Au:    0.056169   -0.062076
  11 Au:    0.059695   -0.089848
  12 Fe:   -0.627971    2.812149

  Mayer bond orders larger than 0.100000
B(  0-Au,  1-Au) :   0.1573 B(  0-Au,  6-Au) :   0.3601 B(  0-Au,  7-Au) :   0.2704
B(  0-Au, 10-Au) :   0.1604 B(  0-Au, 12-Fe) :   0.5687 B(  1-Au,  2-Au) :   0.3596
B(  1-Au,  7-Au) :   0.2712 B(  1-Au,  8-Au) :   0.1569 B(  1-Au, 12-Fe) :   0.5705
B(  2-Au,  3-Au) :   0.1586 B(  2-Au,  5-Au) :   0.2554 B(  2-Au,  9-Au) :   0.1412
B(  2-Au, 12-Fe) :   0.5747 B(  3-Au,  4-Au) :   0.5431 B(  3-Au,  5-Au) :   0.5419
B(  3-Au,  6-Au) :   0.1581 B(  3-Au,  9-Au) :   0.1574 B(  3-Au, 11-Au) :   0.1569
B(  3-Au, 12-Fe) :   0.3515 B(  4-Au,  6-Au) :   0.2552 B(  4-Au, 11-Au) :   0.2581
B(  4-Au, 12-Fe) :   0.1258 B(  5-Au,  9-Au) :   0.2584 B(  5-Au, 12-Fe) :   0.1267
B(  6-Au, 11-Au) :   0.1431 B(  6-Au, 12-Fe) :   0.5727 B(  7-Au,  8-Au) :   0.2714
B(  7-Au, 10-Au) :   0.2703 B(  7-Au, 12-Fe) :   0.1039 B(  8-Au,  9-Au) :   0.3598
B(  8-Au, 10-Au) :   0.1570 B(  8-Au, 12-Fe) :   0.5703 B(  9-Au, 12-Fe) :   0.5736
B( 10-Au, 11-Au) :   0.3599 B( 10-Au, 12-Fe) :   0.5685 B( 11-Au, 12-Fe) :   0.5719

FINAL SINGLE POINT ENERGY     -2893.389809851302

DIPOLE MOMENT
-------------
                                X             Y             Z
Electronic contribution:     -8.32638      -3.67374      -7.16224
Nuclear contribution   :      8.15018       3.59804       7.01142
                        -----------------------------------------
Total Dipole Moment    :     -0.17620      -0.07570      -0.15083
                        -----------------------------------------
Magnitude (a.u.)       :      0.24398
Magnitude (Debye)      :      0.62015

Rotational constants in cm-1:     0.001574     0.001181     0.000930
Rotational constants in MHz :    47.185650    35.403241    27.888150

                             ****ORCA TERMINATED NORMALLY****
TOTAL RUN TIME: 0 days 0 hours 48 minutes 30 seconds 172 msec
