                         Program Version 5.0.3 -  RELEASE  -
|  1> !RI-B2PLYP def2-TZVP def2-TZVP/C
|  2> !RIJCOSX VERYSLOWCONV
|  3>
|  4> %scf
|  5>   AutoTRAHIter 200
|  6>   maxiter 400
|  7> end
|  8>
|  9>
| 10> %pal nprocs 6 end
| 11>
| 12> *xyzfile 0 5 pbe.xyz
| 13>
| 14> $new_job
| 15>
| 16> !RI-B2PLYP def2-TZVP def2-TZVP/C
| 17> !RIJCOSX VERYSLOWCONV
| 18>
| 19> %scf
| 20>   AutoTRAHIter 200
| 21>   maxiter 400
| 22> end
| 23>
| 24>
| 25> %pal nprocs 6 end
| 26>
| 27> *xyzfile 0 3 pbe.xyz
| 28>
| 29>
| 30>
| 31>
| 32>
| 33>                          ****END OF INPUT****
 Total Charge           Charge          ....    0
 Multiplicity           Mult            ....    5
 Number of Electrons    NEL             ....  290
MP2 TOTAL ENERGY:    -2942.520473498 Eh
FINAL SINGLE POINT ENERGY     -2942.520473498187

CARTESIAN COORDINATES (ANGSTROEM)
---------------------------------
  Au     8.961145    9.195280    6.100246
  Au     5.599826   10.362498    6.877522
  Au     8.158222    7.602688    3.981937
  Au     5.314843    6.119159    7.301285
  Au     5.738330    8.150999    5.374466
  Au     5.007280    7.557717    9.539031
  Au     7.457790    4.251306    7.153596
  Au     6.392195    5.512146    4.816383
  Au     8.300849    6.101691    9.033570
  Au     7.580552    8.276803   10.580036
  Au     8.776551    6.461819    6.346844
  Au     8.113199   10.797251    8.188386
  Au     5.851630   10.243738    9.683384
  Au     9.634918    8.587897    8.781980
  Cr     6.974726    8.278805    7.862427

 Multiplicity           Mult            ....    3
 Number of Electrons    NEL             ....  290
 Basis Dimension        Dim             ....  605

ORBITAL ENERGIES
----------------
                 SPIN UP ORBITALS
  NO   OCC          E(Eh)            E(eV)
   0   1.0000    -217.755605     -5925.4312
   1   1.0000     -25.441551      -692.2998
   2   1.0000     -21.581007      -587.2491
   3   1.0000     -21.580496      -587.2351
   4   1.0000     -21.575469      -587.0984
   5   1.0000      -4.403976      -119.8383
   6   1.0000      -4.398840      -119.6985
   7   1.0000      -4.398673      -119.6940
   8   1.0000      -4.398596      -119.6919
   9   1.0000      -4.397812      -119.6705
  10   1.0000      -4.395677      -119.6124
  11   1.0000      -4.395548      -119.6089
  12   1.0000      -4.394566      -119.5822
  13   1.0000      -4.394505      -119.5806
  14   1.0000      -4.391339      -119.4944
  15   1.0000      -4.391237      -119.4916
  16   1.0000      -4.390184      -119.4630
  17   1.0000      -4.387593      -119.3925
  18   1.0000      -4.387512      -119.3903
  19   1.0000      -3.230207       -87.8984
  20   1.0000      -2.525286       -68.7165
  21   1.0000      -2.522967       -68.6534
  22   1.0000      -2.520494       -68.5861
  23   1.0000      -2.520370       -68.5827
  24   1.0000      -2.519897       -68.5699
  25   1.0000      -2.519288       -68.5533
  26   1.0000      -2.518883       -68.5423
  27   1.0000      -2.517852       -68.5142
  28   1.0000      -2.516174       -68.4686
  29   1.0000      -2.516037       -68.4648
  30   1.0000      -2.515964       -68.4629
  31   1.0000      -2.515787       -68.4580
  32   1.0000      -2.515678       -68.4551
  33   1.0000      -2.515307       -68.4450
  34   1.0000      -2.515159       -68.4410
  35   1.0000      -2.513892       -68.4065
  36   1.0000      -2.513769       -68.4031
  37   1.0000      -2.513236       -68.3886
  38   1.0000      -2.513102       -68.3850
  39   1.0000      -2.512161       -68.3594
  40   1.0000      -2.512013       -68.3553
  41   1.0000      -2.511448       -68.3400
  42   1.0000      -2.510966       -68.3268
  43   1.0000      -2.510914       -68.3254
  44   1.0000      -2.509675       -68.2917
  45   1.0000      -2.509319       -68.2820
  46   1.0000      -2.509247       -68.2801
  47   1.0000      -2.508905       -68.2708
  48   1.0000      -2.508536       -68.2607
  49   1.0000      -2.508380       -68.2565
  50   1.0000      -2.508158       -68.2504
  51   1.0000      -2.507874       -68.2427
  52   1.0000      -2.507732       -68.2388
  53   1.0000      -2.507106       -68.2218
  54   1.0000      -2.507040       -68.2200
  55   1.0000      -2.506214       -68.1976
  56   1.0000      -2.505967       -68.1908
  57   1.0000      -2.505904       -68.1891
  58   1.0000      -2.504028       -68.1381
  59   1.0000      -2.503656       -68.1279
  60   1.0000      -2.499884       -68.0253
  61   1.0000      -2.499798       -68.0230
  62   1.0000      -2.122538       -57.7572
  63   1.0000      -2.111992       -57.4702
  64   1.0000      -2.111369       -57.4533
  65   1.0000      -0.490713       -13.3530
  66   1.0000      -0.479090       -13.0367
  67   1.0000      -0.472541       -12.8585
  68   1.0000      -0.470287       -12.7972
  69   1.0000      -0.466319       -12.6892
  70   1.0000      -0.466142       -12.6844
  71   1.0000      -0.465075       -12.6553
  72   1.0000      -0.463078       -12.6010
  73   1.0000      -0.461471       -12.5573
  74   1.0000      -0.457330       -12.4446
  75   1.0000      -0.455375       -12.3914
  76   1.0000      -0.453047       -12.3280
  77   1.0000      -0.451608       -12.2889
  78   1.0000      -0.449682       -12.2365
  79   1.0000      -0.444154       -12.0860
  80   1.0000      -0.440712       -11.9924
  81   1.0000      -0.437118       -11.8946
  82   1.0000      -0.435556       -11.8521
  83   1.0000      -0.434284       -11.8175
  84   1.0000      -0.434109       -11.8127
  85   1.0000      -0.431598       -11.7444
  86   1.0000      -0.430017       -11.7013
  87   1.0000      -0.425893       -11.5891
  88   1.0000      -0.422529       -11.4976
  89   1.0000      -0.422269       -11.4905
  90   1.0000      -0.420602       -11.4452
  91   1.0000      -0.419497       -11.4151
  92   1.0000      -0.416716       -11.3394
  93   1.0000      -0.413946       -11.2641
  94   1.0000      -0.411530       -11.1983
  95   1.0000      -0.408359       -11.1120
  96   1.0000      -0.406757       -11.0684
  97   1.0000      -0.402737       -10.9590
  98   1.0000      -0.399974       -10.8839
  99   1.0000      -0.397985       -10.8297
 100   1.0000      -0.394117       -10.7245
 101   1.0000      -0.393775       -10.7152
 102   1.0000      -0.390810       -10.6345
 103   1.0000      -0.387891       -10.5551
 104   1.0000      -0.383468       -10.4347
 105   1.0000      -0.382327       -10.4036
 106   1.0000      -0.380389       -10.3509
 107   1.0000      -0.377755       -10.2792
 108   1.0000      -0.377063       -10.2604
 109   1.0000      -0.374250       -10.1839
 110   1.0000      -0.373143       -10.1538
 111   1.0000      -0.370676       -10.0866
 112   1.0000      -0.369500       -10.0546
 113   1.0000      -0.368330       -10.0228
 114   1.0000      -0.366712        -9.9787
 115   1.0000      -0.364729        -9.9248
 116   1.0000      -0.362511        -9.8644
 117   1.0000      -0.361032        -9.8242
 118   1.0000      -0.360482        -9.8092
 119   1.0000      -0.359838        -9.7917
 120   1.0000      -0.355585        -9.6760
 121   1.0000      -0.354012        -9.6332
 122   1.0000      -0.353992        -9.6326
 123   1.0000      -0.352527        -9.5927
 124   1.0000      -0.351728        -9.5710
 125   1.0000      -0.348669        -9.4878
 126   1.0000      -0.348098        -9.4722
 127   1.0000      -0.344787        -9.3821
 128   1.0000      -0.342905        -9.3309
 129   1.0000      -0.341653        -9.2969
 130   1.0000      -0.340533        -9.2664
 131   1.0000      -0.338554        -9.2125
 132   1.0000      -0.336670        -9.1613
 133   1.0000      -0.335975        -9.1423
 134   1.0000      -0.330225        -8.9859
 135   1.0000      -0.329838        -8.9753
 136   1.0000      -0.326251        -8.8777
 137   1.0000      -0.323442        -8.8013
 138   1.0000      -0.318960        -8.6793
 139   1.0000      -0.317753        -8.6465
 140   1.0000      -0.317215        -8.6318
 141   1.0000      -0.300038        -8.1645
 142   1.0000      -0.289862        -7.8875
 143   1.0000      -0.242979        -6.6118
 144   1.0000      -0.231121        -6.2891
 145   1.0000      -0.229539        -6.2461
 146   0.0000      -0.138422        -3.7667
 147   0.0000      -0.089034        -2.4227
 148   0.0000      -0.076819        -2.0904
 149   0.0000      -0.071513        -1.9460
 150   0.0000      -0.069533        -1.8921

                 SPIN DOWN ORBITALS
  NO   OCC          E(Eh)            E(eV)
   0   1.0000    -217.754299     -5925.3957
   1   1.0000     -25.371103      -690.3828
   2   1.0000     -21.521116      -585.6193
   3   1.0000     -21.519708      -585.5810
   4   1.0000     -21.500970      -585.0711
   5   1.0000      -4.405812      -119.8882
   6   1.0000      -4.400385      -119.7406
   7   1.0000      -4.398623      -119.6926
   8   1.0000      -4.398546      -119.6905
   9   1.0000      -4.398122      -119.6790
  10   1.0000      -4.394978      -119.5934
  11   1.0000      -4.394847      -119.5899
  12   1.0000      -4.394602      -119.5832
  13   1.0000      -4.394537      -119.5814
  14   1.0000      -4.392806      -119.5343
  15   1.0000      -4.392712      -119.5318
  16   1.0000      -4.390283      -119.4657
  17   1.0000      -4.387430      -119.3880
  18   1.0000      -4.387349      -119.3858
  19   1.0000      -3.014214       -82.0209
  20   1.0000      -2.527606       -68.7797
  21   1.0000      -2.523335       -68.6634
  22   1.0000      -2.520558       -68.5879
  23   1.0000      -2.519987       -68.5723
  24   1.0000      -2.519914       -68.5704
  25   1.0000      -2.519685       -68.5641
  26   1.0000      -2.518988       -68.5452
  27   1.0000      -2.517133       -68.4947
  28   1.0000      -2.516891       -68.4881
  29   1.0000      -2.516013       -68.4642
  30   1.0000      -2.515727       -68.4564
  31   1.0000      -2.515326       -68.4455
  32   1.0000      -2.514974       -68.4359
  33   1.0000      -2.514713       -68.4288
  34   1.0000      -2.514434       -68.4212
  35   1.0000      -2.513122       -68.3855
  36   1.0000      -2.512936       -68.3805
  37   1.0000      -2.512828       -68.3775
  38   1.0000      -2.512817       -68.3772
  39   1.0000      -2.512129       -68.3585
  40   1.0000      -2.511319       -68.3365
  41   1.0000      -2.511231       -68.3341
  42   1.0000      -2.511075       -68.3298
  43   1.0000      -2.510669       -68.3188
  44   1.0000      -2.510288       -68.3084
  45   1.0000      -2.510106       -68.3034
  46   1.0000      -2.509949       -68.2992
  47   1.0000      -2.509344       -68.2827
  48   1.0000      -2.509219       -68.2793
  49   1.0000      -2.509037       -68.2744
  50   1.0000      -2.508284       -68.2539
  51   1.0000      -2.507675       -68.2373
  52   1.0000      -2.507496       -68.2324
  53   1.0000      -2.507113       -68.2220
  54   1.0000      -2.506742       -68.2119
  55   1.0000      -2.506359       -68.2015
  56   1.0000      -2.506299       -68.1999
  57   1.0000      -2.505739       -68.1846
  58   1.0000      -2.503462       -68.1227
  59   1.0000      -2.503155       -68.1143
  60   1.0000      -2.499793       -68.0228
  61   1.0000      -2.499708       -68.0205
  62   1.0000      -1.882590       -51.2279
  63   1.0000      -1.880374       -51.1676
  64   1.0000      -1.837680       -50.0058
  65   1.0000      -0.490098       -13.3363
  66   1.0000      -0.479827       -13.0567
  67   1.0000      -0.469942       -12.7878
  68   1.0000      -0.467251       -12.7146
  69   1.0000      -0.465869       -12.6770
  70   1.0000      -0.463542       -12.6136
  71   1.0000      -0.460805       -12.5392
  72   1.0000      -0.457825       -12.4581
  73   1.0000      -0.454065       -12.3557
  74   1.0000      -0.453895       -12.3511
  75   1.0000      -0.452927       -12.3248
  76   1.0000      -0.452327       -12.3084
  77   1.0000      -0.450529       -12.2595
  78   1.0000      -0.445422       -12.1205
  79   1.0000      -0.441610       -12.0168
  80   1.0000      -0.440485       -11.9862
  81   1.0000      -0.435814       -11.8591
  82   1.0000      -0.435243       -11.8436
  83   1.0000      -0.434431       -11.8215
  84   1.0000      -0.432292       -11.7633
  85   1.0000      -0.431951       -11.7540
  86   1.0000      -0.430827       -11.7234
  87   1.0000      -0.425052       -11.5663
  88   1.0000      -0.423056       -11.5120
  89   1.0000      -0.422155       -11.4874
  90   1.0000      -0.421388       -11.4666
  91   1.0000      -0.418740       -11.3945
  92   1.0000      -0.416561       -11.3352
  93   1.0000      -0.414179       -11.2704
  94   1.0000      -0.408807       -11.1242
  95   1.0000      -0.408007       -11.1024
  96   1.0000      -0.402449       -10.9512
  97   1.0000      -0.399623       -10.8743
  98   1.0000      -0.396684       -10.7943
  99   1.0000      -0.395223       -10.7546
 100   1.0000      -0.392901       -10.6914
 101   1.0000      -0.388184       -10.5630
 102   1.0000      -0.385467       -10.4891
 103   1.0000      -0.381360       -10.3773
 104   1.0000      -0.380965       -10.3666
 105   1.0000      -0.380686       -10.3590
 106   1.0000      -0.378456       -10.2983
 107   1.0000      -0.376779       -10.2527
 108   1.0000      -0.375640       -10.2217
 109   1.0000      -0.374651       -10.1948
 110   1.0000      -0.372833       -10.1453
 111   1.0000      -0.370805       -10.0901
 112   1.0000      -0.370613       -10.0849
 113   1.0000      -0.369734       -10.0610
 114   1.0000      -0.366943        -9.9850
 115   1.0000      -0.365098        -9.9348
 116   1.0000      -0.361659        -9.8412
 117   1.0000      -0.361325        -9.8321
 118   1.0000      -0.360047        -9.7974
 119   1.0000      -0.358262        -9.7488
 120   1.0000      -0.355549        -9.6750
 121   1.0000      -0.354888        -9.6570
 122   1.0000      -0.353810        -9.6277
 123   1.0000      -0.352741        -9.5986
 124   1.0000      -0.350406        -9.5350
 125   1.0000      -0.346519        -9.4293
 126   1.0000      -0.346455        -9.4275
 127   1.0000      -0.343783        -9.3548
 128   1.0000      -0.343336        -9.3426
 129   1.0000      -0.341524        -9.2934
 130   1.0000      -0.341360        -9.2889
 131   1.0000      -0.336288        -9.1509
 132   1.0000      -0.336239        -9.1495
 133   1.0000      -0.331105        -9.0098
 134   1.0000      -0.325661        -8.8617
 135   1.0000      -0.320431        -8.7194
 136   1.0000      -0.318163        -8.6576
 137   1.0000      -0.312907        -8.5146
 138   1.0000      -0.306313        -8.3352
 139   1.0000      -0.253276        -6.8920
 140   1.0000      -0.237016        -6.4495
 141   1.0000      -0.235175        -6.3994
 142   1.0000      -0.226801        -6.1716
 143   1.0000      -0.178140        -4.8474
 144   0.0000      -0.084218        -2.2917
 145   0.0000      -0.080873        -2.2007
 146   0.0000      -0.069577        -1.8933
 147   0.0000      -0.068312        -1.8589
 148   0.0000      -0.063958        -1.7404

MULLIKEN ATOMIC CHARGES AND SPIN POPULATIONS
--------------------------------------------
   0 Au:    0.339971   -0.153986
   1 Au:    0.328544   -0.028333
   2 Au:    0.243538   -0.114053
   3 Au:    0.136922   -0.084350
   4 Au:    0.134541   -0.084056
   5 Au:    0.327558   -0.028573
   6 Au:    0.245814   -0.111367
   7 Au:    0.283859   -0.152839
   8 Au:    0.337913   -0.154162
   9 Au:    0.471501   -0.088124
  10 Au:   -0.163998   -0.204533
  11 Au:    0.471068   -0.089454
  12 Au:    0.420258   -0.099598
  13 Au:    0.444579   -0.146284
  14 Cr:   -4.022069    3.539712
Sum of atomic charges         :   -0.0000000

LOEWDIN ATOMIC CHARGES AND SPIN POPULATIONS
-------------------------------------------
   0 Au:    0.060815   -0.158155
   1 Au:    0.132948   -0.079787
   2 Au:    0.117161   -0.144587
   3 Au:    0.028084   -0.100663
   4 Au:    0.028147   -0.100532
   5 Au:    0.132952   -0.079929
   6 Au:    0.118124   -0.143000
   7 Au:    0.074485   -0.120874
   8 Au:    0.059984   -0.157443
   9 Au:    0.082741   -0.098449
  10 Au:   -0.043198   -0.136176
  11 Au:    0.082489   -0.099106
  12 Au:    0.096600   -0.077856
  13 Au:    0.117419   -0.134377
  14 Cr:   -1.088751    3.630934

  Mayer bond orders larger than 0.100000
B(  0-Au,  2-Au) :   0.2317 B(  0-Au, 10-Au) :   0.1821 B(  0-Au, 11-Au) :   0.2482
B(  0-Au, 13-Au) :   0.1897 B(  0-Au, 14-Cr) :   0.6437 B(  1-Au,  4-Au) :   0.3471
B(  1-Au, 11-Au) :   0.1777 B(  1-Au, 12-Au) :   0.1926 B(  1-Au, 14-Cr) :   0.5984
B(  2-Au,  4-Au) :   0.1735 B(  2-Au,  7-Au) :   0.1839 B(  2-Au, 10-Au) :   0.3000
B(  2-Au, 14-Cr) :   0.3805 B(  3-Au,  4-Au) :   0.2268 B(  3-Au,  5-Au) :   0.3464
B(  3-Au,  6-Au) :   0.1739 B(  3-Au,  7-Au) :   0.1915 B(  3-Au, 14-Cr) :   0.4821
B(  4-Au,  7-Au) :   0.1916 B(  4-Au, 14-Cr) :   0.4820 B(  5-Au,  9-Au) :   0.1784
B(  5-Au, 12-Au) :   0.1936 B(  5-Au, 14-Cr) :   0.5973 B(  6-Au,  7-Au) :   0.1827
B(  6-Au,  8-Au) :   0.2323 B(  6-Au, 10-Au) :   0.3009 B(  6-Au, 14-Cr) :   0.3797
B(  7-Au, 10-Au) :   0.1711 B(  7-Au, 14-Cr) :   0.2801 B(  8-Au,  9-Au) :   0.2493
B(  8-Au, 10-Au) :   0.1803 B(  8-Au, 13-Au) :   0.1893 B(  8-Au, 14-Cr) :   0.6471
B(  9-Au, 12-Au) :   0.1889 B(  9-Au, 13-Au) :   0.1348 B(  9-Au, 14-Cr) :   0.4207
B( 10-Au, 13-Au) :   0.1071 B( 10-Au, 14-Cr) :   0.5335 B( 11-Au, 12-Au) :   0.1890
B( 11-Au, 13-Au) :   0.1349 B( 11-Au, 14-Cr) :   0.4210 B( 12-Au, 14-Cr) :   0.3267
B( 13-Au, 14-Cr) :   0.4718

MP2 TOTAL ENERGY:    -2942.489100603 Eh
FINAL SINGLE POINT ENERGY     -2942.489100603349

DIPOLE MOMENT
-------------
                                X             Y             Z
Electronic contribution:      8.24928     -16.96626     -16.02654
Nuclear contribution   :     -8.15161      16.80614      15.88321
                        -----------------------------------------
Total Dipole Moment    :      0.09767      -0.16012      -0.14332
                        -----------------------------------------
Magnitude (a.u.)       :      0.23605
Magnitude (Debye)      :      0.59998

Rotational constants in cm-1:     0.001258     0.000921     0.000848
Rotational constants in MHz :    37.724285    27.625388    25.420588

                             ****ORCA TERMINATED NORMALLY****
TOTAL RUN TIME: 0 days 1 hours 20 minutes 42 seconds 370 msec
