                         Program Version 5.0.3 -  RELEASE  -
|  1> !PBE def2-TZVP VERYSLOWCONV
|  2>
|  3> %scf
|  4>   AutoTRAHIter 200
|  5>   maxiter 400
|  6> end
|  7>
|  8>
|  9> %pal nprocs 6 end
| 10>
| 11> *xyzfile 0 5 pbe.xyz
| 12>
| 13> $new_job
| 14>
| 15> !PBE def2-TZVP VERYSLOWCONV
| 16>
| 17> %scf
| 18>   AutoTRAHIter 200
| 19>   maxiter 400
| 20> end
| 21>
| 22>
| 23> %pal nprocs 6 end
| 24>
| 25> *xyzfile 0 3 pbe.xyz
| 26>
| 27>
| 28>
| 29>
| 30>
| 31>                          ****END OF INPUT****
 Total Charge           Charge          ....    0
 Multiplicity           Mult            ....    5
 Number of Electrons    NEL             ....  290
FINAL SINGLE POINT ENERGY     -2945.827530461188

CARTESIAN COORDINATES (ANGSTROEM)
---------------------------------
  Au     8.961145    9.195280    6.100246
  Au     5.599826   10.362498    6.877522
  Au     8.158222    7.602688    3.981937
  Au     5.314843    6.119159    7.301285
  Au     5.738330    8.150999    5.374466
  Au     5.007280    7.557717    9.539031
  Au     7.457790    4.251306    7.153596
  Au     6.392195    5.512146    4.816383
  Au     8.300849    6.101691    9.033570
  Au     7.580552    8.276803   10.580036
  Au     8.776551    6.461819    6.346844
  Au     8.113199   10.797251    8.188386
  Au     5.851630   10.243738    9.683384
  Au     9.634918    8.587897    8.781980
  Cr     6.974726    8.278805    7.862427

 Multiplicity           Mult            ....    3
 Number of Electrons    NEL             ....  290
 Basis Dimension        Dim             ....  605

ORBITAL ENERGIES
----------------
                 SPIN UP ORBITALS
  NO   OCC          E(Eh)            E(eV)
   0   1.0000    -214.507210     -5837.0379
   1   1.0000     -24.308514      -661.4683
   2   1.0000     -20.675713      -562.6147
   3   1.0000     -20.670566      -562.4747
   4   1.0000     -20.669759      -562.4527
   5   1.0000      -4.032681      -109.7348
   6   1.0000      -4.029632      -109.6519
   7   1.0000      -4.029562      -109.6500
   8   1.0000      -4.027593      -109.5964
   9   1.0000      -4.027477      -109.5932
  10   1.0000      -4.025234      -109.5322
  11   1.0000      -4.024992      -109.5256
  12   1.0000      -4.024928      -109.5239
  13   1.0000      -4.020824      -109.4122
  14   1.0000      -4.020482      -109.4029
  15   1.0000      -4.020421      -109.4012
  16   1.0000      -4.020297      -109.3978
  17   1.0000      -4.018880      -109.3593
  18   1.0000      -4.018779      -109.3565
  19   1.0000      -2.808012       -76.4099
  20   1.0000      -2.250472       -61.2385
  21   1.0000      -2.246896       -61.1412
  22   1.0000      -2.246302       -61.1250
  23   1.0000      -2.246219       -61.1227
  24   1.0000      -2.245457       -61.1020
  25   1.0000      -2.245129       -61.0931
  26   1.0000      -2.242983       -61.0347
  27   1.0000      -2.242909       -61.0326
  28   1.0000      -2.241931       -61.0060
  29   1.0000      -2.241173       -60.9854
  30   1.0000      -2.241035       -60.9817
  31   1.0000      -2.240379       -60.9638
  32   1.0000      -2.239700       -60.9453
  33   1.0000      -2.239404       -60.9373
  34   1.0000      -2.239283       -60.9340
  35   1.0000      -2.239056       -60.9278
  36   1.0000      -2.238913       -60.9239
  37   1.0000      -2.237540       -60.8866
  38   1.0000      -2.237117       -60.8750
  39   1.0000      -2.237025       -60.8726
  40   1.0000      -2.237001       -60.8719
  41   1.0000      -2.236398       -60.8555
  42   1.0000      -2.236313       -60.8532
  43   1.0000      -2.235921       -60.8425
  44   1.0000      -2.235464       -60.8301
  45   1.0000      -2.235442       -60.8295
  46   1.0000      -2.235156       -60.8217
  47   1.0000      -2.234815       -60.8124
  48   1.0000      -2.234401       -60.8012
  49   1.0000      -2.234222       -60.7963
  50   1.0000      -2.233405       -60.7740
  51   1.0000      -2.233212       -60.7688
  52   1.0000      -2.233121       -60.7663
  53   1.0000      -2.232995       -60.7629
  54   1.0000      -2.232568       -60.7513
  55   1.0000      -2.231520       -60.7227
  56   1.0000      -2.230948       -60.7072
  57   1.0000      -2.230764       -60.7022
  58   1.0000      -2.229483       -60.6673
  59   1.0000      -2.229375       -60.6644
  60   1.0000      -2.226976       -60.5991
  61   1.0000      -2.226913       -60.5974
  62   1.0000      -1.801821       -49.0300
  63   1.0000      -1.795845       -48.8674
  64   1.0000      -1.793765       -48.8108
  65   1.0000      -0.421827       -11.4785
  66   1.0000      -0.390591       -10.6285
  67   1.0000      -0.380440       -10.3523
  68   1.0000      -0.377417       -10.2700
  69   1.0000      -0.369192       -10.0462
  70   1.0000      -0.367846       -10.0096
  71   1.0000      -0.363688        -9.8965
  72   1.0000      -0.361802        -9.8451
  73   1.0000      -0.357141        -9.7183
  74   1.0000      -0.355559        -9.6752
  75   1.0000      -0.352813        -9.6005
  76   1.0000      -0.351800        -9.5730
  77   1.0000      -0.348444        -9.4817
  78   1.0000      -0.346109        -9.4181
  79   1.0000      -0.341715        -9.2985
  80   1.0000      -0.340680        -9.2704
  81   1.0000      -0.336280        -9.1506
  82   1.0000      -0.335935        -9.1413
  83   1.0000      -0.333653        -9.0792
  84   1.0000      -0.332045        -9.0354
  85   1.0000      -0.329835        -8.9753
  86   1.0000      -0.328884        -8.9494
  87   1.0000      -0.326387        -8.8814
  88   1.0000      -0.325199        -8.8491
  89   1.0000      -0.322891        -8.7863
  90   1.0000      -0.320236        -8.7141
  91   1.0000      -0.319779        -8.7016
  92   1.0000      -0.316056        -8.6003
  93   1.0000      -0.314894        -8.5687
  94   1.0000      -0.311771        -8.4837
  95   1.0000      -0.310791        -8.4570
  96   1.0000      -0.306693        -8.3456
  97   1.0000      -0.300753        -8.1839
  98   1.0000      -0.300437        -8.1753
  99   1.0000      -0.299200        -8.1417
 100   1.0000      -0.298389        -8.1196
 101   1.0000      -0.290909        -7.9160
 102   1.0000      -0.290800        -7.9131
 103   1.0000      -0.289234        -7.8704
 104   1.0000      -0.286865        -7.8060
 105   1.0000      -0.283362        -7.7107
 106   1.0000      -0.281104        -7.6492
 107   1.0000      -0.280113        -7.6223
 108   1.0000      -0.279063        -7.5937
 109   1.0000      -0.277317        -7.5462
 110   1.0000      -0.274897        -7.4803
 111   1.0000      -0.274243        -7.4625
 112   1.0000      -0.273450        -7.4410
 113   1.0000      -0.271601        -7.3906
 114   1.0000      -0.271047        -7.3756
 115   1.0000      -0.269356        -7.3296
 116   1.0000      -0.268102        -7.2954
 117   1.0000      -0.266772        -7.2592
 118   1.0000      -0.265029        -7.2118
 119   1.0000      -0.263462        -7.1692
 120   1.0000      -0.260110        -7.0780
 121   1.0000      -0.259817        -7.0700
 122   1.0000      -0.259443        -7.0598
 123   1.0000      -0.258786        -7.0419
 124   1.0000      -0.258659        -7.0385
 125   1.0000      -0.254214        -6.9175
 126   1.0000      -0.253864        -6.9080
 127   1.0000      -0.251997        -6.8572
 128   1.0000      -0.251793        -6.8516
 129   1.0000      -0.250041        -6.8040
 130   1.0000      -0.249257        -6.7826
 131   1.0000      -0.248023        -6.7491
 132   1.0000      -0.246798        -6.7157
 133   1.0000      -0.244300        -6.6477
 134   1.0000      -0.242689        -6.6039
 135   1.0000      -0.240372        -6.5409
 136   1.0000      -0.240324        -6.5395
 137   1.0000      -0.235004        -6.3948
 138   1.0000      -0.233352        -6.3498
 139   1.0000      -0.224658        -6.1133
 140   1.0000      -0.222294        -6.0489
 141   1.0000      -0.218736        -5.9521
 142   1.0000      -0.216839        -5.9005
 143   1.0000      -0.214682        -5.8418
 144   1.0000      -0.200750        -5.4627
 145   1.0000      -0.196306        -5.3417
 146   0.0000      -0.187874        -5.1123
 147   0.0000      -0.174828        -4.7573
 148   0.0000      -0.156005        -4.2451
 149   0.0000      -0.138476        -3.7681
 150   0.0000      -0.137228        -3.7342

                 SPIN DOWN ORBITALS
  NO   OCC          E(Eh)            E(eV)
   0   1.0000    -214.506800     -5837.0268
   1   1.0000     -24.263938      -660.2553
   2   1.0000     -20.644578      -561.7675
   3   1.0000     -20.635097      -561.5095
   4   1.0000     -20.634178      -561.4845
   5   1.0000      -4.033151      -109.7476
   6   1.0000      -4.029690      -109.6534
   7   1.0000      -4.029626      -109.6517
   8   1.0000      -4.027146      -109.5842
   9   1.0000      -4.027029      -109.5810
  10   1.0000      -4.025264      -109.5330
  11   1.0000      -4.024908      -109.5233
  12   1.0000      -4.024849      -109.5217
  13   1.0000      -4.021215      -109.4228
  14   1.0000      -4.020277      -109.3973
  15   1.0000      -4.020213      -109.3955
  16   1.0000      -4.020106      -109.3926
  17   1.0000      -4.019606      -109.3790
  18   1.0000      -4.019508      -109.3764
  19   1.0000      -2.688242       -73.1508
  20   1.0000      -2.251617       -61.2696
  21   1.0000      -2.246956       -61.1428
  22   1.0000      -2.246402       -61.1277
  23   1.0000      -2.246261       -61.1239
  24   1.0000      -2.245031       -61.0904
  25   1.0000      -2.244634       -61.0796
  26   1.0000      -2.243037       -61.0361
  27   1.0000      -2.242940       -61.0335
  28   1.0000      -2.241467       -60.9934
  29   1.0000      -2.241316       -60.9893
  30   1.0000      -2.240852       -60.9767
  31   1.0000      -2.240521       -60.9677
  32   1.0000      -2.239198       -60.9317
  33   1.0000      -2.239094       -60.9288
  34   1.0000      -2.239005       -60.9264
  35   1.0000      -2.238834       -60.9218
  36   1.0000      -2.238768       -60.9200
  37   1.0000      -2.237509       -60.8857
  38   1.0000      -2.237107       -60.8748
  39   1.0000      -2.236639       -60.8620
  40   1.0000      -2.236561       -60.8599
  41   1.0000      -2.236395       -60.8554
  42   1.0000      -2.236015       -60.8451
  43   1.0000      -2.235985       -60.8442
  44   1.0000      -2.235487       -60.8307
  45   1.0000      -2.235294       -60.8254
  46   1.0000      -2.235150       -60.8215
  47   1.0000      -2.234911       -60.8150
  48   1.0000      -2.234633       -60.8075
  49   1.0000      -2.234352       -60.7998
  50   1.0000      -2.234165       -60.7947
  51   1.0000      -2.233966       -60.7893
  52   1.0000      -2.233109       -60.7660
  53   1.0000      -2.233100       -60.7658
  54   1.0000      -2.232558       -60.7510
  55   1.0000      -2.232112       -60.7388
  56   1.0000      -2.231298       -60.7167
  57   1.0000      -2.230898       -60.7058
  58   1.0000      -2.230340       -60.6906
  59   1.0000      -2.230236       -60.6878
  60   1.0000      -2.226866       -60.5961
  61   1.0000      -2.226803       -60.5944
  62   1.0000      -1.693375       -46.0791
  63   1.0000      -1.673703       -45.5438
  64   1.0000      -1.670418       -45.4544
  65   1.0000      -0.418196       -11.3797
  66   1.0000      -0.389650       -10.6029
  67   1.0000      -0.381038       -10.3686
  68   1.0000      -0.377303       -10.2669
  69   1.0000      -0.367137        -9.9903
  70   1.0000      -0.367035        -9.9875
  71   1.0000      -0.362941        -9.8761
  72   1.0000      -0.359163        -9.7733
  73   1.0000      -0.356350        -9.6968
  74   1.0000      -0.354921        -9.6579
  75   1.0000      -0.352316        -9.5870
  76   1.0000      -0.350622        -9.5409
  77   1.0000      -0.348863        -9.4930
  78   1.0000      -0.345407        -9.3990
  79   1.0000      -0.339429        -9.2363
  80   1.0000      -0.339066        -9.2264
  81   1.0000      -0.335545        -9.1307
  82   1.0000      -0.335284        -9.1236
  83   1.0000      -0.333004        -9.0615
  84   1.0000      -0.332855        -9.0575
  85   1.0000      -0.330398        -8.9906
  86   1.0000      -0.329564        -8.9679
  87   1.0000      -0.326679        -8.8894
  88   1.0000      -0.325480        -8.8568
  89   1.0000      -0.322987        -8.7889
  90   1.0000      -0.321243        -8.7415
  91   1.0000      -0.319818        -8.7027
  92   1.0000      -0.316210        -8.6045
  93   1.0000      -0.314313        -8.5529
  94   1.0000      -0.311869        -8.4864
  95   1.0000      -0.308865        -8.4046
  96   1.0000      -0.306850        -8.3498
  97   1.0000      -0.300945        -8.1891
  98   1.0000      -0.300382        -8.1738
  99   1.0000      -0.299213        -8.1420
 100   1.0000      -0.297337        -8.0910
 101   1.0000      -0.291297        -7.9266
 102   1.0000      -0.288151        -7.8410
 103   1.0000      -0.287634        -7.8269
 104   1.0000      -0.286762        -7.8032
 105   1.0000      -0.283099        -7.7035
 106   1.0000      -0.281005        -7.6465
 107   1.0000      -0.280205        -7.6248
 108   1.0000      -0.279463        -7.6046
 109   1.0000      -0.278205        -7.5703
 110   1.0000      -0.275494        -7.4966
 111   1.0000      -0.274993        -7.4829
 112   1.0000      -0.273878        -7.4526
 113   1.0000      -0.272608        -7.4180
 114   1.0000      -0.271658        -7.3922
 115   1.0000      -0.270225        -7.3532
 116   1.0000      -0.269093        -7.3224
 117   1.0000      -0.267614        -7.2821
 118   1.0000      -0.266015        -7.2386
 119   1.0000      -0.264377        -7.1941
 120   1.0000      -0.261393        -7.1129
 121   1.0000      -0.261222        -7.1082
 122   1.0000      -0.260063        -7.0767
 123   1.0000      -0.259367        -7.0577
 124   1.0000      -0.258854        -7.0438
 125   1.0000      -0.254801        -6.9335
 126   1.0000      -0.254386        -6.9222
 127   1.0000      -0.252751        -6.8777
 128   1.0000      -0.252546        -6.8721
 129   1.0000      -0.250573        -6.8184
 130   1.0000      -0.250187        -6.8079
 131   1.0000      -0.249544        -6.7904
 132   1.0000      -0.247700        -6.7403
 133   1.0000      -0.245125        -6.6702
 134   1.0000      -0.244397        -6.6504
 135   1.0000      -0.241810        -6.5800
 136   1.0000      -0.240599        -6.5470
 137   1.0000      -0.235501        -6.4083
 138   1.0000      -0.234453        -6.3798
 139   1.0000      -0.219649        -5.9770
 140   1.0000      -0.215307        -5.8588
 141   1.0000      -0.209458        -5.6996
 142   1.0000      -0.207931        -5.6581
 143   1.0000      -0.170478        -4.6390
 144   0.0000      -0.148544        -4.0421
 145   0.0000      -0.144894        -3.9428
 146   0.0000      -0.137195        -3.7333
 147   0.0000      -0.132622        -3.6088
 148   0.0000      -0.128235        -3.4895

MULLIKEN ATOMIC CHARGES AND SPIN POPULATIONS
--------------------------------------------
   0 Au:    0.360168   -0.089894
   1 Au:    0.344140   -0.021143
   2 Au:    0.282622   -0.076465
   3 Au:    0.148831   -0.049050
   4 Au:    0.147900   -0.048702
   5 Au:    0.344623   -0.021781
   6 Au:    0.284888   -0.074024
   7 Au:    0.274427   -0.034783
   8 Au:    0.358394   -0.089689
   9 Au:    0.491255   -0.050969
  10 Au:   -0.141609   -0.142885
  11 Au:    0.490870   -0.051921
  12 Au:    0.463546   -0.047137
  13 Au:    0.424612   -0.104671
  14 Cr:   -4.274668    2.903112
Sum of atomic charges         :   -0.0000000

LOEWDIN ATOMIC CHARGES AND SPIN POPULATIONS
-------------------------------------------
   0 Au:    0.089198   -0.113949
   1 Au:    0.158083   -0.065898
   2 Au:    0.102007   -0.097510
   3 Au:    0.053888   -0.058632
   4 Au:    0.054001   -0.058509
   5 Au:    0.158135   -0.066116
   6 Au:    0.102711   -0.095996
   7 Au:    0.041384   -0.039567
   8 Au:    0.088608   -0.113352
   9 Au:    0.094086   -0.067863
  10 Au:   -0.023166   -0.080809
  11 Au:    0.093903   -0.068465
  12 Au:    0.092829   -0.044043
  13 Au:    0.118696   -0.099819
  14 Cr:   -1.224364    3.070528

  Mayer bond orders larger than 0.100000
B(  0-Au,  2-Au) :   0.2698 B(  0-Au, 10-Au) :   0.2380 B(  0-Au, 11-Au) :   0.2766
B(  0-Au, 13-Au) :   0.2120 B(  0-Au, 14-Cr) :   0.6749 B(  1-Au,  4-Au) :   0.3681
B(  1-Au, 11-Au) :   0.2085 B(  1-Au, 12-Au) :   0.2288 B(  1-Au, 14-Cr) :   0.6834
B(  2-Au,  4-Au) :   0.2083 B(  2-Au,  7-Au) :   0.2157 B(  2-Au, 10-Au) :   0.3342
B(  2-Au, 14-Cr) :   0.3692 B(  3-Au,  4-Au) :   0.2686 B(  3-Au,  5-Au) :   0.3673
B(  3-Au,  6-Au) :   0.2085 B(  3-Au,  7-Au) :   0.2368 B(  3-Au, 14-Cr) :   0.5336
B(  4-Au,  7-Au) :   0.2368 B(  4-Au, 14-Cr) :   0.5326 B(  5-Au,  9-Au) :   0.2090
B(  5-Au, 12-Au) :   0.2297 B(  5-Au, 14-Cr) :   0.6815 B(  6-Au,  7-Au) :   0.2146
B(  6-Au,  8-Au) :   0.2708 B(  6-Au, 10-Au) :   0.3354 B(  6-Au, 14-Cr) :   0.3678
B(  7-Au, 10-Au) :   0.1631 B(  7-Au, 14-Cr) :   0.3068 B(  8-Au,  9-Au) :   0.2780
B(  8-Au, 10-Au) :   0.2357 B(  8-Au, 13-Au) :   0.2113 B(  8-Au, 14-Cr) :   0.6796
B(  9-Au, 12-Au) :   0.2336 B(  9-Au, 13-Au) :   0.1919 B(  9-Au, 14-Cr) :   0.4977
B( 10-Au, 13-Au) :   0.1080 B( 10-Au, 14-Cr) :   0.5792 B( 11-Au, 12-Au) :   0.2338
B( 11-Au, 13-Au) :   0.1921 B( 11-Au, 14-Cr) :   0.4991 B( 12-Au, 14-Cr) :   0.3650
B( 13-Au, 14-Cr) :   0.5742

FINAL SINGLE POINT ENERGY     -2945.811561550704

DIPOLE MOMENT
-------------
                                X             Y             Z
Electronic contribution:      8.19297     -16.86489     -15.93248
Nuclear contribution   :     -8.15161      16.80614      15.88321
                        -----------------------------------------
Total Dipole Moment    :      0.04136      -0.05875      -0.04927
                        -----------------------------------------
Magnitude (a.u.)       :      0.08712
Magnitude (Debye)      :      0.22144

Rotational constants in cm-1:     0.001258     0.000921     0.000848
Rotational constants in MHz :    37.724285    27.625388    25.420588

                             ****ORCA TERMINATED NORMALLY****
TOTAL RUN TIME: 0 days 1 hours 17 minutes 53 seconds 96 msec
