                         Program Version 5.0.3 -  RELEASE  -
|  1> !R2SCAN def2-TZVP VERYSLOWCONV
|  2> !KDIIS
|  3> %scf
|  4>   AutoTRAHIter 200
|  5>   maxiter 400
|  6> end
|  7>
|  8> %pal nprocs 6 end
|  9>
| 10> *xyzfile 0 5 pbe.xyz
| 11>
| 12> $new_job
| 13>
| 14> !R2SCAN def2-TZVP VERYSLOWCONV
| 15> !KDIIS
| 16> %scf
| 17>   AutoTRAHIter 200
| 18>   maxiter 400
| 19> end
| 20>
| 21>
| 22> %pal nprocs 6 end
| 23>
| 24> *xyzfile 0 3 pbe.xyz
| 25>
| 26>
| 27>
| 28>
| 29>
| 30>                          ****END OF INPUT****
 Total Charge           Charge          ....    0
 Multiplicity           Mult            ....    5
 Number of Electrons    NEL             ....  290
FINAL SINGLE POINT ENERGY     -2946.311821774499

CARTESIAN COORDINATES (ANGSTROEM)
---------------------------------
  Au     8.961145    9.195280    6.100246
  Au     5.599826   10.362498    6.877522
  Au     8.158222    7.602688    3.981937
  Au     5.314843    6.119159    7.301285
  Au     5.738330    8.150999    5.374466
  Au     5.007280    7.557717    9.539031
  Au     7.457790    4.251306    7.153596
  Au     6.392195    5.512146    4.816383
  Au     8.300849    6.101691    9.033570
  Au     7.580552    8.276803   10.580036
  Au     8.776551    6.461819    6.346844
  Au     8.113199   10.797251    8.188386
  Au     5.851630   10.243738    9.683384
  Au     9.634918    8.587897    8.781980
  Cr     6.974726    8.278805    7.862427

 Multiplicity           Mult            ....    3
 Number of Electrons    NEL             ....  290
 Basis Dimension        Dim             ....  605

ORBITAL ENERGIES
----------------
                 SPIN UP ORBITALS
  NO   OCC          E(Eh)            E(eV)
   0   1.0000    -215.303533     -5858.7070
   1   1.0000     -24.605027      -669.5368
   2   1.0000     -20.874214      -568.0162
   3   1.0000     -20.870035      -567.9025
   4   1.0000     -20.869459      -567.8869
   5   1.0000      -4.122918      -112.1903
   6   1.0000      -4.120324      -112.1197
   7   1.0000      -4.120262      -112.1180
   8   1.0000      -4.118157      -112.0608
   9   1.0000      -4.118024      -112.0571
  10   1.0000      -4.115692      -111.9937
  11   1.0000      -4.115399      -111.9857
  12   1.0000      -4.115329      -111.9838
  13   1.0000      -4.111929      -111.8913
  14   1.0000      -4.111108      -111.8689
  15   1.0000      -4.111053      -111.8675
  16   1.0000      -4.110617      -111.8556
  17   1.0000      -4.109527      -111.8259
  18   1.0000      -4.109420      -111.8230
  19   1.0000      -2.922356       -79.5213
  20   1.0000      -2.313392       -62.9506
  21   1.0000      -2.310214       -62.8641
  22   1.0000      -2.309761       -62.8518
  23   1.0000      -2.309672       -62.8494
  24   1.0000      -2.308828       -62.8264
  25   1.0000      -2.308459       -62.8164
  26   1.0000      -2.306299       -62.7576
  27   1.0000      -2.306241       -62.7560
  28   1.0000      -2.305416       -62.7336
  29   1.0000      -2.304622       -62.7120
  30   1.0000      -2.304420       -62.7064
  31   1.0000      -2.303661       -62.6858
  32   1.0000      -2.303071       -62.6697
  33   1.0000      -2.302674       -62.6590
  34   1.0000      -2.302578       -62.6563
  35   1.0000      -2.302516       -62.6546
  36   1.0000      -2.302378       -62.6509
  37   1.0000      -2.301026       -62.6141
  38   1.0000      -2.300409       -62.5973
  39   1.0000      -2.300391       -62.5968
  40   1.0000      -2.300276       -62.5937
  41   1.0000      -2.300044       -62.5874
  42   1.0000      -2.299808       -62.5810
  43   1.0000      -2.299477       -62.5720
  44   1.0000      -2.299044       -62.5602
  45   1.0000      -2.298893       -62.5561
  46   1.0000      -2.298455       -62.5441
  47   1.0000      -2.298086       -62.5341
  48   1.0000      -2.297964       -62.5308
  49   1.0000      -2.297602       -62.5209
  50   1.0000      -2.296728       -62.4971
  51   1.0000      -2.296464       -62.4899
  52   1.0000      -2.296256       -62.4843
  53   1.0000      -2.296167       -62.4819
  54   1.0000      -2.296087       -62.4797
  55   1.0000      -2.294874       -62.4467
  56   1.0000      -2.294475       -62.4358
  57   1.0000      -2.294118       -62.4261
  58   1.0000      -2.292935       -62.3939
  59   1.0000      -2.292824       -62.3909
  60   1.0000      -2.290824       -62.3365
  61   1.0000      -2.290746       -62.3344
  62   1.0000      -1.871005       -50.9126
  63   1.0000      -1.868347       -50.8403
  64   1.0000      -1.866752       -50.7969
  65   1.0000      -0.426346       -11.6015
  66   1.0000      -0.396004       -10.7758
  67   1.0000      -0.387064       -10.5325
  68   1.0000      -0.384046       -10.4504
  69   1.0000      -0.376981       -10.2582
  70   1.0000      -0.375790       -10.2258
  71   1.0000      -0.372195       -10.1279
  72   1.0000      -0.369966       -10.0673
  73   1.0000      -0.365407        -9.9432
  74   1.0000      -0.364306        -9.9133
  75   1.0000      -0.361211        -9.8290
  76   1.0000      -0.360847        -9.8191
  77   1.0000      -0.357259        -9.7215
  78   1.0000      -0.355025        -9.6607
  79   1.0000      -0.350792        -9.5455
  80   1.0000      -0.349861        -9.5202
  81   1.0000      -0.344858        -9.3841
  82   1.0000      -0.344836        -9.3835
  83   1.0000      -0.342543        -9.3211
  84   1.0000      -0.340918        -9.2768
  85   1.0000      -0.338900        -9.2219
  86   1.0000      -0.337675        -9.1886
  87   1.0000      -0.334759        -9.1093
  88   1.0000      -0.333861        -9.0848
  89   1.0000      -0.331651        -9.0247
  90   1.0000      -0.328843        -8.9483
  91   1.0000      -0.328513        -8.9393
  92   1.0000      -0.324689        -8.8352
  93   1.0000      -0.323691        -8.8081
  94   1.0000      -0.320176        -8.7124
  95   1.0000      -0.319285        -8.6882
  96   1.0000      -0.315433        -8.5834
  97   1.0000      -0.308975        -8.4076
  98   1.0000      -0.308480        -8.3942
  99   1.0000      -0.307809        -8.3759
 100   1.0000      -0.306777        -8.3478
 101   1.0000      -0.299519        -8.1503
 102   1.0000      -0.299373        -8.1464
 103   1.0000      -0.297568        -8.0972
 104   1.0000      -0.294573        -8.0157
 105   1.0000      -0.291462        -7.9311
 106   1.0000      -0.289557        -7.8793
 107   1.0000      -0.288480        -7.8499
 108   1.0000      -0.287123        -7.8130
 109   1.0000      -0.285735        -7.7752
 110   1.0000      -0.283021        -7.7014
 111   1.0000      -0.282430        -7.6853
 112   1.0000      -0.281570        -7.6619
 113   1.0000      -0.279832        -7.6146
 114   1.0000      -0.279315        -7.6005
 115   1.0000      -0.276956        -7.5364
 116   1.0000      -0.275557        -7.4983
 117   1.0000      -0.274664        -7.4740
 118   1.0000      -0.273118        -7.4319
 119   1.0000      -0.271131        -7.3778
 120   1.0000      -0.267699        -7.2845
 121   1.0000      -0.267562        -7.2807
 122   1.0000      -0.266766        -7.2591
 123   1.0000      -0.266600        -7.2546
 124   1.0000      -0.266452        -7.2505
 125   1.0000      -0.261838        -7.1250
 126   1.0000      -0.260911        -7.0997
 127   1.0000      -0.259739        -7.0679
 128   1.0000      -0.258976        -7.0471
 129   1.0000      -0.257220        -6.9993
 130   1.0000      -0.256417        -6.9775
 131   1.0000      -0.254902        -6.9362
 132   1.0000      -0.253824        -6.9069
 133   1.0000      -0.251301        -6.8382
 134   1.0000      -0.248066        -6.7502
 135   1.0000      -0.246580        -6.7098
 136   1.0000      -0.245325        -6.6756
 137   1.0000      -0.241278        -6.5655
 138   1.0000      -0.239644        -6.5210
 139   1.0000      -0.235455        -6.4070
 140   1.0000      -0.228110        -6.2072
 141   1.0000      -0.226181        -6.1547
 142   1.0000      -0.223153        -6.0723
 143   1.0000      -0.219144        -5.9632
 144   1.0000      -0.205653        -5.5961
 145   1.0000      -0.201945        -5.4952
 146   0.0000      -0.187503        -5.1022
 147   0.0000      -0.173456        -4.7200
 148   0.0000      -0.152053        -4.1376
 149   0.0000      -0.134628        -3.6634
 150   0.0000      -0.131906        -3.5893

                 SPIN DOWN ORBITALS
  NO   OCC          E(Eh)            E(eV)
   0   1.0000    -215.302932     -5858.6906
   1   1.0000     -24.543884      -667.8730
   2   1.0000     -20.830667      -566.8313
   3   1.0000     -20.821532      -566.5827
   4   1.0000     -20.820268      -566.5483
   5   1.0000      -4.123823      -112.2149
   6   1.0000      -4.120501      -112.1245
   7   1.0000      -4.120445      -112.1230
   8   1.0000      -4.117825      -112.0517
   9   1.0000      -4.117690      -112.0480
  10   1.0000      -4.115912      -111.9997
  11   1.0000      -4.115450      -111.9871
  12   1.0000      -4.115380      -111.9852
  13   1.0000      -4.112441      -111.9052
  14   1.0000      -4.111043      -111.8672
  15   1.0000      -4.110987      -111.8656
  16   1.0000      -4.110517      -111.8529
  17   1.0000      -4.110470      -111.8516
  18   1.0000      -4.110371      -111.8489
  19   1.0000      -2.762966       -75.1841
  20   1.0000      -2.314961       -62.9933
  21   1.0000      -2.310370       -62.8684
  22   1.0000      -2.309735       -62.8511
  23   1.0000      -2.309646       -62.8487
  24   1.0000      -2.308266       -62.8111
  25   1.0000      -2.307830       -62.7992
  26   1.0000      -2.306539       -62.7641
  27   1.0000      -2.306474       -62.7624
  28   1.0000      -2.305074       -62.7243
  29   1.0000      -2.304891       -62.7193
  30   1.0000      -2.304247       -62.7017
  31   1.0000      -2.303850       -62.6910
  32   1.0000      -2.302591       -62.6567
  33   1.0000      -2.302509       -62.6545
  34   1.0000      -2.302469       -62.6534
  35   1.0000      -2.302283       -62.6483
  36   1.0000      -2.302205       -62.6462
  37   1.0000      -2.300954       -62.6121
  38   1.0000      -2.300519       -62.6003
  39   1.0000      -2.300135       -62.5899
  40   1.0000      -2.300102       -62.5890
  41   1.0000      -2.299845       -62.5820
  42   1.0000      -2.299681       -62.5775
  43   1.0000      -2.299597       -62.5752
  44   1.0000      -2.298963       -62.5580
  45   1.0000      -2.298881       -62.5557
  46   1.0000      -2.298339       -62.5410
  47   1.0000      -2.298195       -62.5371
  48   1.0000      -2.298062       -62.5334
  49   1.0000      -2.297695       -62.5235
  50   1.0000      -2.297601       -62.5209
  51   1.0000      -2.297474       -62.5174
  52   1.0000      -2.297010       -62.5048
  53   1.0000      -2.296087       -62.4797
  54   1.0000      -2.295729       -62.4700
  55   1.0000      -2.295629       -62.4672
  56   1.0000      -2.295304       -62.4584
  57   1.0000      -2.293987       -62.4226
  58   1.0000      -2.293904       -62.4203
  59   1.0000      -2.293800       -62.4175
  60   1.0000      -2.290688       -62.3328
  61   1.0000      -2.290609       -62.3306
  62   1.0000      -1.723325       -46.8941
  63   1.0000      -1.704356       -46.3779
  64   1.0000      -1.700839       -46.2822
  65   1.0000      -0.422938       -11.5087
  66   1.0000      -0.395632       -10.7657
  67   1.0000      -0.388047       -10.5593
  68   1.0000      -0.383996       -10.4491
  69   1.0000      -0.375061       -10.2059
  70   1.0000      -0.374574       -10.1927
  71   1.0000      -0.371845       -10.1184
  72   1.0000      -0.367215        -9.9924
  73   1.0000      -0.365300        -9.9403
  74   1.0000      -0.363285        -9.8855
  75   1.0000      -0.361507        -9.8371
  76   1.0000      -0.359196        -9.7742
  77   1.0000      -0.358022        -9.7423
  78   1.0000      -0.354146        -9.6368
  79   1.0000      -0.348362        -9.4794
  80   1.0000      -0.348262        -9.4767
  81   1.0000      -0.344640        -9.3781
  82   1.0000      -0.344514        -9.3747
  83   1.0000      -0.342150        -9.3104
  84   1.0000      -0.342074        -9.3083
  85   1.0000      -0.339544        -9.2395
  86   1.0000      -0.338643        -9.2150
  87   1.0000      -0.335715        -9.1353
  88   1.0000      -0.334207        -9.0942
  89   1.0000      -0.331951        -9.0328
  90   1.0000      -0.330280        -8.9874
  91   1.0000      -0.328778        -8.9465
  92   1.0000      -0.325229        -8.8499
  93   1.0000      -0.323310        -8.7977
  94   1.0000      -0.320574        -8.7233
  95   1.0000      -0.317733        -8.6459
  96   1.0000      -0.315425        -8.5832
  97   1.0000      -0.309350        -8.4179
  98   1.0000      -0.308793        -8.4027
  99   1.0000      -0.307897        -8.3783
 100   1.0000      -0.305783        -8.3208
 101   1.0000      -0.300022        -8.1640
 102   1.0000      -0.296775        -8.0757
 103   1.0000      -0.295803        -8.0492
 104   1.0000      -0.294840        -8.0230
 105   1.0000      -0.291505        -7.9323
 106   1.0000      -0.289869        -7.8877
 107   1.0000      -0.288511        -7.8508
 108   1.0000      -0.288121        -7.8402
 109   1.0000      -0.286937        -7.8080
 110   1.0000      -0.284044        -7.7292
 111   1.0000      -0.283624        -7.7178
 112   1.0000      -0.282350        -7.6831
 113   1.0000      -0.281289        -7.6543
 114   1.0000      -0.280313        -7.6277
 115   1.0000      -0.278416        -7.5761
 116   1.0000      -0.277354        -7.5472
 117   1.0000      -0.275985        -7.5099
 118   1.0000      -0.274649        -7.4736
 119   1.0000      -0.272603        -7.4179
 120   1.0000      -0.269432        -7.3316
 121   1.0000      -0.269316        -7.3285
 122   1.0000      -0.268051        -7.2940
 123   1.0000      -0.267488        -7.2787
 124   1.0000      -0.266602        -7.2546
 125   1.0000      -0.262287        -7.1372
 126   1.0000      -0.262150        -7.1335
 127   1.0000      -0.260518        -7.0891
 128   1.0000      -0.260473        -7.0878
 129   1.0000      -0.258071        -7.0225
 130   1.0000      -0.257757        -7.0139
 131   1.0000      -0.257085        -6.9956
 132   1.0000      -0.255161        -6.9433
 133   1.0000      -0.252521        -6.8714
 134   1.0000      -0.251107        -6.8330
 135   1.0000      -0.248138        -6.7522
 136   1.0000      -0.247456        -6.7336
 137   1.0000      -0.241868        -6.5815
 138   1.0000      -0.241176        -6.5627
 139   1.0000      -0.223169        -6.0727
 140   1.0000      -0.217031        -5.9057
 141   1.0000      -0.211807        -5.7635
 142   1.0000      -0.209961        -5.7133
 143   1.0000      -0.169331        -4.6077
 144   0.0000      -0.144679        -3.9369
 145   0.0000      -0.139792        -3.8039
 146   0.0000      -0.129515        -3.5243
 147   0.0000      -0.127972        -3.4823
 148   0.0000      -0.123450        -3.3593

MULLIKEN ATOMIC CHARGES AND SPIN POPULATIONS
--------------------------------------------
   0 Au:    0.321474   -0.123208
   1 Au:    0.313616   -0.046958
   2 Au:    0.254734   -0.094722
   3 Au:    0.141088   -0.072133
   4 Au:    0.140106   -0.071480
   5 Au:    0.314125   -0.047803
   6 Au:    0.256955   -0.091449
   7 Au:    0.245217   -0.054303
   8 Au:    0.319609   -0.123263
   9 Au:    0.437276   -0.071970
  10 Au:   -0.134782   -0.165749
  11 Au:    0.436886   -0.073726
  12 Au:    0.410801   -0.066269
  13 Au:    0.389845   -0.130711
  14 Cr:   -3.846950    3.233742
Sum of atomic charges         :   -0.0000000

LOEWDIN ATOMIC CHARGES AND SPIN POPULATIONS
-------------------------------------------
   0 Au:    0.084239   -0.133815
   1 Au:    0.152502   -0.082838
   2 Au:    0.099715   -0.114485
   3 Au:    0.050097   -0.078328
   4 Au:    0.050148   -0.078090
   5 Au:    0.152560   -0.083071
   6 Au:    0.100436   -0.112580
   7 Au:    0.042477   -0.053810
   8 Au:    0.083592   -0.133186
   9 Au:    0.088884   -0.081362
  10 Au:   -0.026282   -0.098327
  11 Au:    0.088706   -0.082257
  12 Au:    0.087512   -0.052621
  13 Au:    0.115777   -0.117594
  14 Cr:   -1.170363    3.302363

  Mayer bond orders larger than 0.100000
B(  0-Au,  2-Au) :   0.2713 B(  0-Au, 10-Au) :   0.2239 B(  0-Au, 11-Au) :   0.2816
B(  0-Au, 13-Au) :   0.2024 B(  0-Au, 14-Cr) :   0.6581 B(  1-Au,  4-Au) :   0.3712
B(  1-Au, 11-Au) :   0.1976 B(  1-Au, 12-Au) :   0.2157 B(  1-Au, 14-Cr) :   0.6758
B(  2-Au,  4-Au) :   0.1940 B(  2-Au,  7-Au) :   0.2028 B(  2-Au, 10-Au) :   0.3171
B(  2-Au, 14-Cr) :   0.3434 B(  3-Au,  4-Au) :   0.2492 B(  3-Au,  5-Au) :   0.3705
B(  3-Au,  6-Au) :   0.1940 B(  3-Au,  7-Au) :   0.2261 B(  3-Au, 14-Cr) :   0.5340
B(  4-Au,  7-Au) :   0.2263 B(  4-Au, 14-Cr) :   0.5332 B(  5-Au,  9-Au) :   0.1980
B(  5-Au, 12-Au) :   0.2166 B(  5-Au, 14-Cr) :   0.6739 B(  6-Au,  7-Au) :   0.2016
B(  6-Au,  8-Au) :   0.2724 B(  6-Au, 10-Au) :   0.3186 B(  6-Au, 14-Cr) :   0.3421
B(  7-Au, 10-Au) :   0.1531 B(  7-Au, 14-Cr) :   0.2925 B(  8-Au,  9-Au) :   0.2831
B(  8-Au, 10-Au) :   0.2214 B(  8-Au, 13-Au) :   0.2016 B(  8-Au, 14-Cr) :   0.6626
B(  9-Au, 12-Au) :   0.2241 B(  9-Au, 13-Au) :   0.1788 B(  9-Au, 14-Cr) :   0.4948
B( 10-Au, 13-Au) :   0.1153 B( 10-Au, 14-Cr) :   0.5547 B( 11-Au, 12-Au) :   0.2242
B( 11-Au, 13-Au) :   0.1787 B( 11-Au, 14-Cr) :   0.4964 B( 12-Au, 14-Cr) :   0.3670
B( 13-Au, 14-Cr) :   0.5559

FINAL SINGLE POINT ENERGY     -2946.290782194165

DIPOLE MOMENT
-------------
                                X             Y             Z
Electronic contribution:      8.18224     -16.87523     -15.94572
Nuclear contribution   :     -8.15161      16.80614      15.88321
                        -----------------------------------------
Total Dipole Moment    :      0.03063      -0.06909      -0.06251
                        -----------------------------------------
Magnitude (a.u.)       :      0.09807
Magnitude (Debye)      :      0.24929

Rotational constants in cm-1:     0.001258     0.000921     0.000848
Rotational constants in MHz :    37.724285    27.625388    25.420588

                             ****ORCA TERMINATED NORMALLY****
TOTAL RUN TIME: 0 days 0 hours 23 minutes 16 seconds 763 msec
