                         Program Version 5.0.3 -  RELEASE  -
|  1> %pal nprocs 1 end
|  2>
|  3> !PBE def2-TZVP OPT UNO
|  4> !SLOWCONV
|  5>
|  6> *xyzfile 0 3 7.xyz                           ****END OF INPUT****
 Total Charge           Charge          ....    0
 Multiplicity           Mult            ....    3
 Number of Electrons    NEL             ....  330
FINAL SINGLE POINT ENERGY     -3436.739830644387
FINAL SINGLE POINT ENERGY     -3436.742274475358
FINAL SINGLE POINT ENERGY     -3436.743061986800
FINAL SINGLE POINT ENERGY     -3436.743750127946
FINAL SINGLE POINT ENERGY     -3436.744275500659
FINAL SINGLE POINT ENERGY     -3436.744587518762
FINAL SINGLE POINT ENERGY     -3436.744730412750
FINAL SINGLE POINT ENERGY     -3436.744831581947
FINAL SINGLE POINT ENERGY     -3436.744924516576
FINAL SINGLE POINT ENERGY     -3436.744982974667
FINAL SINGLE POINT ENERGY     -3436.745017374640
FINAL SINGLE POINT ENERGY     -3436.745036574468
FINAL SINGLE POINT ENERGY     -3436.745045789666
                    ***********************HURRAY********************

CARTESIAN COORDINATES (ANGSTROEM)
---------------------------------
  Au     9.023081    6.213688    7.079266
  Au     8.362296    8.366166    8.976971
  Au     6.918633    5.974785    8.980674
  Au     6.542715    5.034884    6.330456
  Au     9.293757    9.041493    6.470640
  Au    10.539101    7.042015    4.930472
  Au     9.154281    9.173433    3.646438
  Au     7.795006    6.831498    4.429112
  Au     4.367545    6.481367    7.522559
  Au     4.471562    9.185399    6.579876
  Au     5.542244    8.483135    9.136457
  Au     5.032704    6.902330    4.838924
  Au     7.024320   10.347571    7.524517
  Au     8.200830   11.287058    5.162118
  Au     5.410520   11.605255    5.604612
  Au     6.399490    9.256639    4.393886
  Fe     6.736717    7.676563    6.854290

 Multiplicity           Mult            ....    3
 Number of Electrons    NEL             ....  330
 Basis Dimension        Dim             ....  685

ORBITAL ENERGIES
----------------
                 SPIN UP ORBITALS
  NO   OCC          E(Eh)            E(eV)
   0   1.0000    -254.740126     -6931.8312
   1   1.0000     -29.573506      -804.7360
   2   1.0000     -25.512048      -694.2181
   3   1.0000     -25.510813      -694.1845
   4   1.0000     -25.505544      -694.0411
   5   1.0000      -4.037928      -109.8776
   6   1.0000      -4.035941      -109.8235
   7   1.0000      -4.033706      -109.7627
   8   1.0000      -4.032920      -109.7413
   9   1.0000      -4.032833      -109.7390
  10   1.0000      -4.032638      -109.7337
  11   1.0000      -4.032377      -109.7266
  12   1.0000      -4.030860      -109.6853
  13   1.0000      -4.030288      -109.6697
  14   1.0000      -4.030137      -109.6656
  15   1.0000      -4.027439      -109.5922
  16   1.0000      -4.026154      -109.5572
  17   1.0000      -4.022032      -109.4450
  18   1.0000      -4.020326      -109.3986
  19   1.0000      -4.019052      -109.3640
  20   1.0000      -4.018646      -109.3529
  21   1.0000      -3.351135       -91.1890
  22   1.0000      -2.253898       -61.3317
  23   1.0000      -2.252528       -61.2944
  24   1.0000      -2.251245       -61.2595
  25   1.0000      -2.249858       -61.2218
  26   1.0000      -2.249033       -61.1993
  27   1.0000      -2.248854       -61.1944
  28   1.0000      -2.248546       -61.1860
  29   1.0000      -2.248462       -61.1838
  30   1.0000      -2.247564       -61.1593
  31   1.0000      -2.247493       -61.1574
  32   1.0000      -2.246949       -61.1426
  33   1.0000      -2.246785       -61.1381
  34   1.0000      -2.246582       -61.1326
  35   1.0000      -2.245973       -61.1160
  36   1.0000      -2.245859       -61.1129
  37   1.0000      -2.245475       -61.1025
  38   1.0000      -2.245217       -61.0955
  39   1.0000      -2.245061       -61.0912
  40   1.0000      -2.244908       -61.0870
  41   1.0000      -2.244482       -61.0755
  42   1.0000      -2.244315       -61.0709
  43   1.0000      -2.243504       -61.0489
  44   1.0000      -2.243069       -61.0370
  45   1.0000      -2.242840       -61.0308
  46   1.0000      -2.242632       -61.0251
  47   1.0000      -2.242452       -61.0202
  48   1.0000      -2.241701       -60.9998
  49   1.0000      -2.241341       -60.9900
  50   1.0000      -2.241029       -60.9815
  51   1.0000      -2.240877       -60.9774
  52   1.0000      -2.240823       -60.9759
  53   1.0000      -2.239532       -60.9408
  54   1.0000      -2.239342       -60.9356
  55   1.0000      -2.239179       -60.9312
  56   1.0000      -2.238448       -60.9113
  57   1.0000      -2.237604       -60.8883
  58   1.0000      -2.237419       -60.8833
  59   1.0000      -2.234866       -60.8138
  60   1.0000      -2.234703       -60.8094
  61   1.0000      -2.234217       -60.7961
  62   1.0000      -2.233632       -60.7802
  63   1.0000      -2.233245       -60.7697
  64   1.0000      -2.232048       -60.7371
  65   1.0000      -2.231427       -60.7202
  66   1.0000      -2.231159       -60.7129
  67   1.0000      -2.230776       -60.7025
  68   1.0000      -2.230084       -60.6837
  69   1.0000      -2.229839       -60.6770
  70   1.0000      -2.171524       -59.0902
  71   1.0000      -2.167646       -58.9846
  72   1.0000      -2.157360       -58.7048
  73   1.0000      -0.443407       -12.0657
  74   1.0000      -0.400993       -10.9116
  75   1.0000      -0.395850       -10.7716
  76   1.0000      -0.394777       -10.7424
  77   1.0000      -0.381168       -10.3721
  78   1.0000      -0.380445       -10.3524
  79   1.0000      -0.376785       -10.2528
  80   1.0000      -0.375238       -10.2107
  81   1.0000      -0.371061       -10.0971
  82   1.0000      -0.369354       -10.0506
  83   1.0000      -0.367903       -10.0112
  84   1.0000      -0.363372        -9.8879
  85   1.0000      -0.362445        -9.8626
  86   1.0000      -0.356372        -9.6974
  87   1.0000      -0.355573        -9.6756
  88   1.0000      -0.354867        -9.6564
  89   1.0000      -0.350575        -9.5396
  90   1.0000      -0.349815        -9.5190
  91   1.0000      -0.347407        -9.4534
  92   1.0000      -0.346605        -9.4316
  93   1.0000      -0.345171        -9.3926
  94   1.0000      -0.343992        -9.3605
  95   1.0000      -0.342361        -9.3161
  96   1.0000      -0.339034        -9.2256
  97   1.0000      -0.338426        -9.2091
  98   1.0000      -0.337114        -9.1733
  99   1.0000      -0.335905        -9.1404
 100   1.0000      -0.331233        -9.0133
 101   1.0000      -0.327012        -8.8984
 102   1.0000      -0.325570        -8.8592
 103   1.0000      -0.323914        -8.8142
 104   1.0000      -0.319533        -8.6949
 105   1.0000      -0.318672        -8.6715
 106   1.0000      -0.313871        -8.5409
 107   1.0000      -0.312265        -8.4972
 108   1.0000      -0.312066        -8.4917
 109   1.0000      -0.309647        -8.4259
 110   1.0000      -0.307328        -8.3628
 111   1.0000      -0.305931        -8.3248
 112   1.0000      -0.304778        -8.2934
 113   1.0000      -0.299504        -8.1499
 114   1.0000      -0.298583        -8.1249
 115   1.0000      -0.296705        -8.0738
 116   1.0000      -0.293856        -7.9962
 117   1.0000      -0.291504        -7.9322
 118   1.0000      -0.290649        -7.9090
 119   1.0000      -0.289064        -7.8658
 120   1.0000      -0.286252        -7.7893
 121   1.0000      -0.284801        -7.7498
 122   1.0000      -0.281354        -7.6560
 123   1.0000      -0.281120        -7.6497
 124   1.0000      -0.280423        -7.6307
 125   1.0000      -0.278248        -7.5715
 126   1.0000      -0.277957        -7.5636
 127   1.0000      -0.276963        -7.5366
 128   1.0000      -0.276345        -7.5197
 129   1.0000      -0.274598        -7.4722
 130   1.0000      -0.273963        -7.4549
 131   1.0000      -0.272083        -7.4038
 132   1.0000      -0.271868        -7.3979
 133   1.0000      -0.269513        -7.3338
 134   1.0000      -0.267891        -7.2897
 135   1.0000      -0.267084        -7.2677
 136   1.0000      -0.266895        -7.2626
 137   1.0000      -0.265330        -7.2200
 138   1.0000      -0.265050        -7.2124
 139   1.0000      -0.263626        -7.1736
 140   1.0000      -0.263289        -7.1645
 141   1.0000      -0.260147        -7.0790
 142   1.0000      -0.259373        -7.0579
 143   1.0000      -0.257997        -7.0205
 144   1.0000      -0.254488        -6.9250
 145   1.0000      -0.254301        -6.9199
 146   1.0000      -0.253540        -6.8992
 147   1.0000      -0.251818        -6.8523
 148   1.0000      -0.251312        -6.8386
 149   1.0000      -0.250608        -6.8194
 150   1.0000      -0.248895        -6.7728
 151   1.0000      -0.248388        -6.7590
 152   1.0000      -0.246462        -6.7066
 153   1.0000      -0.245833        -6.6895
 154   1.0000      -0.244498        -6.6531
 155   1.0000      -0.243859        -6.6357
 156   1.0000      -0.242453        -6.5975
 157   1.0000      -0.239094        -6.5061
 158   1.0000      -0.237628        -6.4662
 159   1.0000      -0.236783        -6.4432
 160   1.0000      -0.235580        -6.4105
 161   1.0000      -0.230964        -6.2848
 162   1.0000      -0.220425        -5.9981
 163   1.0000      -0.212884        -5.7929
 164   1.0000      -0.209644        -5.7047
 165   1.0000      -0.199141        -5.4189
 166   0.0000      -0.186194        -5.0666
 167   0.0000      -0.158642        -4.3169
 168   0.0000      -0.144578        -3.9342
 169   0.0000      -0.139592        -3.7985
 170   0.0000      -0.130560        -3.5527

                 SPIN DOWN ORBITALS
  NO   OCC          E(Eh)            E(eV)
   0   1.0000    -254.739537     -6931.8152
   1   1.0000     -29.519422      -803.2643
   2   1.0000     -25.470345      -693.0833
   3   1.0000     -25.469740      -693.0669
   4   1.0000     -25.465861      -692.9613
   5   1.0000      -4.038175      -109.8843
   6   1.0000      -4.036417      -109.8365
   7   1.0000      -4.033627      -109.7606
   8   1.0000      -4.033344      -109.7529
   9   1.0000      -4.032872      -109.7400
  10   1.0000      -4.032832      -109.7389
  11   1.0000      -4.032731      -109.7362
  12   1.0000      -4.031139      -109.6929
  13   1.0000      -4.030195      -109.6672
  14   1.0000      -4.030051      -109.6633
  15   1.0000      -4.027523      -109.5945
  16   1.0000      -4.026447      -109.5652
  17   1.0000      -4.022091      -109.4467
  18   1.0000      -4.021277      -109.4245
  19   1.0000      -4.020067      -109.3916
  20   1.0000      -4.018893      -109.3596
  21   1.0000      -3.228212       -87.8441
  22   1.0000      -2.254519       -61.3486
  23   1.0000      -2.253219       -61.3132
  24   1.0000      -2.251547       -61.2677
  25   1.0000      -2.250459       -61.2381
  26   1.0000      -2.249553       -61.2135
  27   1.0000      -2.248980       -61.1978
  28   1.0000      -2.248741       -61.1913
  29   1.0000      -2.248343       -61.1805
  30   1.0000      -2.247704       -61.1631
  31   1.0000      -2.247423       -61.1555
  32   1.0000      -2.247218       -61.1499
  33   1.0000      -2.246811       -61.1388
  34   1.0000      -2.246713       -61.1362
  35   1.0000      -2.246272       -61.1242
  36   1.0000      -2.246039       -61.1178
  37   1.0000      -2.245589       -61.1056
  38   1.0000      -2.245272       -61.0970
  39   1.0000      -2.245123       -61.0929
  40   1.0000      -2.244761       -61.0830
  41   1.0000      -2.244172       -61.0670
  42   1.0000      -2.244103       -61.0651
  43   1.0000      -2.243597       -61.0514
  44   1.0000      -2.243203       -61.0406
  45   1.0000      -2.243108       -61.0381
  46   1.0000      -2.242798       -61.0296
  47   1.0000      -2.242632       -61.0251
  48   1.0000      -2.241825       -61.0032
  49   1.0000      -2.241573       -60.9963
  50   1.0000      -2.241275       -60.9882
  51   1.0000      -2.241093       -60.9832
  52   1.0000      -2.240797       -60.9752
  53   1.0000      -2.239778       -60.9475
  54   1.0000      -2.239620       -60.9432
  55   1.0000      -2.239175       -60.9310
  56   1.0000      -2.238859       -60.9225
  57   1.0000      -2.237779       -60.8931
  58   1.0000      -2.237603       -60.8883
  59   1.0000      -2.236147       -60.8487
  60   1.0000      -2.235049       -60.8188
  61   1.0000      -2.234550       -60.8052
  62   1.0000      -2.234373       -60.8004
  63   1.0000      -2.233798       -60.7847
  64   1.0000      -2.232569       -60.7513
  65   1.0000      -2.232238       -60.7423
  66   1.0000      -2.231936       -60.7341
  67   1.0000      -2.231158       -60.7129
  68   1.0000      -2.231053       -60.7100
  69   1.0000      -2.230300       -60.6896
  70   1.0000      -2.048834       -55.7516
  71   1.0000      -2.046725       -55.6942
  72   1.0000      -2.039590       -55.5001
  73   1.0000      -0.440674       -11.9914
  74   1.0000      -0.400536       -10.8991
  75   1.0000      -0.396625       -10.7927
  76   1.0000      -0.395362       -10.7583
  77   1.0000      -0.377924       -10.2838
  78   1.0000      -0.377487       -10.2719
  79   1.0000      -0.374613       -10.1937
  80   1.0000      -0.371163       -10.0999
  81   1.0000      -0.369843       -10.0639
  82   1.0000      -0.368286       -10.0216
  83   1.0000      -0.367382        -9.9970
  84   1.0000      -0.362191        -9.8557
  85   1.0000      -0.361958        -9.8494
  86   1.0000      -0.356188        -9.6924
  87   1.0000      -0.355627        -9.6771
  88   1.0000      -0.354595        -9.6490
  89   1.0000      -0.350272        -9.5314
  90   1.0000      -0.350069        -9.5259
  91   1.0000      -0.347422        -9.4538
  92   1.0000      -0.346554        -9.4302
  93   1.0000      -0.345374        -9.3981
  94   1.0000      -0.343960        -9.3596
  95   1.0000      -0.342519        -9.3204
  96   1.0000      -0.339545        -9.2395
  97   1.0000      -0.338368        -9.2075
  98   1.0000      -0.337420        -9.1817
  99   1.0000      -0.335755        -9.1364
 100   1.0000      -0.331395        -9.0177
 101   1.0000      -0.327065        -8.8999
 102   1.0000      -0.325852        -8.8669
 103   1.0000      -0.323703        -8.8084
 104   1.0000      -0.319419        -8.6918
 105   1.0000      -0.317534        -8.6405
 106   1.0000      -0.313779        -8.5384
 107   1.0000      -0.312784        -8.5113
 108   1.0000      -0.311477        -8.4757
 109   1.0000      -0.308359        -8.3909
 110   1.0000      -0.306844        -8.3497
 111   1.0000      -0.305570        -8.3150
 112   1.0000      -0.304355        -8.2819
 113   1.0000      -0.295996        -8.0545
 114   1.0000      -0.293988        -7.9998
 115   1.0000      -0.292875        -7.9695
 116   1.0000      -0.292521        -7.9599
 117   1.0000      -0.288206        -7.8425
 118   1.0000      -0.287894        -7.8340
 119   1.0000      -0.287646        -7.8272
 120   1.0000      -0.284272        -7.7354
 121   1.0000      -0.283687        -7.7195
 122   1.0000      -0.281925        -7.6716
 123   1.0000      -0.281527        -7.6607
 124   1.0000      -0.281075        -7.6484
 125   1.0000      -0.277408        -7.5487
 126   1.0000      -0.277349        -7.5470
 127   1.0000      -0.277007        -7.5377
 128   1.0000      -0.276830        -7.5329
 129   1.0000      -0.274830        -7.4785
 130   1.0000      -0.274500        -7.4695
 131   1.0000      -0.272194        -7.4068
 132   1.0000      -0.272113        -7.4046
 133   1.0000      -0.270063        -7.3488
 134   1.0000      -0.268353        -7.3023
 135   1.0000      -0.267623        -7.2824
 136   1.0000      -0.267274        -7.2729
 137   1.0000      -0.265125        -7.2144
 138   1.0000      -0.265064        -7.2128
 139   1.0000      -0.264170        -7.1884
 140   1.0000      -0.263619        -7.1734
 141   1.0000      -0.260660        -7.0929
 142   1.0000      -0.259872        -7.0715
 143   1.0000      -0.257628        -7.0104
 144   1.0000      -0.255287        -6.9467
 145   1.0000      -0.254607        -6.9282
 146   1.0000      -0.254081        -6.9139
 147   1.0000      -0.251992        -6.8570
 148   1.0000      -0.251612        -6.8467
 149   1.0000      -0.250987        -6.8297
 150   1.0000      -0.249026        -6.7763
 151   1.0000      -0.248514        -6.7624
 152   1.0000      -0.244746        -6.6599
 153   1.0000      -0.243769        -6.6333
 154   1.0000      -0.239616        -6.5203
 155   1.0000      -0.238319        -6.4850
 156   1.0000      -0.236879        -6.4458
 157   1.0000      -0.227756        -6.1976
 158   1.0000      -0.221070        -6.0156
 159   1.0000      -0.219049        -5.9606
 160   1.0000      -0.208717        -5.6795
 161   1.0000      -0.200807        -5.4642
 162   1.0000      -0.173989        -4.7345
 163   1.0000      -0.171819        -4.6754
 164   0.0000      -0.156906        -4.2696
 165   0.0000      -0.150091        -4.0842
 166   0.0000      -0.146758        -3.9935
 167   0.0000      -0.144914        -3.9433
 168   0.0000      -0.138726        -3.7749

MULLIKEN ATOMIC CHARGES AND SPIN POPULATIONS
--------------------------------------------
   0 Au:    0.075590   -0.014390
   1 Au:    0.410223   -0.047021
   2 Au:    0.342235   -0.001494
   3 Au:    0.375597   -0.059785
   4 Au:   -0.418983   -0.009512
   5 Au:    0.394997   -0.136860
   6 Au:    0.309810   -0.067369
   7 Au:   -0.149765   -0.099631
   8 Au:    0.343533   -0.008901
   9 Au:    0.076743   -0.024096
  10 Au:    0.376532   -0.066126
  11 Au:    0.408879   -0.039029
  12 Au:   -0.154242   -0.088071
  13 Au:    0.350779    0.023713
  14 Au:    0.376629   -0.174915
  15 Au:   -0.408348    0.004164
  16 Fe:   -2.710208    2.809323
Sum of atomic charges         :   -0.0000000

LOEWDIN ATOMIC CHARGES AND SPIN POPULATIONS
-------------------------------------------
   0 Au:    0.022050   -0.051108
   1 Au:    0.105946   -0.063460
   2 Au:    0.070878   -0.026502
   3 Au:    0.097248   -0.052831
   4 Au:   -0.065199   -0.038951
   5 Au:    0.097978   -0.118100
   6 Au:    0.025667   -0.048301
   7 Au:   -0.019145   -0.073495
   8 Au:    0.071001   -0.034262
   9 Au:    0.019138   -0.063377
  10 Au:    0.095376   -0.057487
  11 Au:    0.105035   -0.056061
  12 Au:   -0.017064   -0.063508
  13 Au:    0.032350   -0.010696
  14 Au:    0.094518   -0.131490
  15 Au:   -0.062193   -0.032404
  16 Fe:   -0.673584    2.922033

  Mayer bond orders larger than 0.100000
B(  0-Au,  1-Au) :   0.1063 B(  0-Au,  2-Au) :   0.2348 B(  0-Au,  3-Au) :   0.1682
B(  0-Au,  4-Au) :   0.2013 B(  0-Au,  5-Au) :   0.3511 B(  0-Au,  7-Au) :   0.1940
B(  0-Au, 16-Fe) :   0.3994 B(  1-Au,  2-Au) :   0.2106 B(  1-Au,  4-Au) :   0.2733
B(  1-Au, 10-Au) :   0.1543 B(  1-Au, 12-Au) :   0.2279 B(  1-Au, 16-Fe) :   0.4268
B(  2-Au,  3-Au) :   0.1615 B(  2-Au,  8-Au) :   0.1224 B(  2-Au, 10-Au) :   0.1964
B(  2-Au, 16-Fe) :   0.4045 B(  3-Au,  7-Au) :   0.1690 B(  3-Au,  8-Au) :   0.1944
B(  3-Au, 11-Au) :   0.1555 B(  3-Au, 16-Fe) :   0.4410 B(  4-Au,  5-Au) :   0.2737
B(  4-Au,  6-Au) :   0.2370 B(  4-Au,  7-Au) :   0.1554 B(  4-Au, 12-Au) :   0.2639
B(  4-Au, 13-Au) :   0.2980 B(  4-Au, 15-Au) :   0.1228 B(  4-Au, 16-Fe) :   0.3864
B(  5-Au,  6-Au) :   0.1939 B(  5-Au,  7-Au) :   0.2881 B(  6-Au,  7-Au) :   0.2545
B(  6-Au, 13-Au) :   0.2805 B(  6-Au, 15-Au) :   0.2732 B(  7-Au, 11-Au) :   0.2309
B(  7-Au, 15-Au) :   0.2775 B(  7-Au, 16-Fe) :   0.4252 B(  8-Au,  9-Au) :   0.2218
B(  8-Au, 10-Au) :   0.1657 B(  8-Au, 11-Au) :   0.2048 B(  8-Au, 16-Fe) :   0.4082
B(  9-Au, 10-Au) :   0.1672 B(  9-Au, 11-Au) :   0.1143 B(  9-Au, 12-Au) :   0.1957
B(  9-Au, 14-Au) :   0.3322 B(  9-Au, 15-Au) :   0.1916 B(  9-Au, 16-Fe) :   0.4082
B( 10-Au, 12-Au) :   0.1895 B( 10-Au, 16-Fe) :   0.4221 B( 11-Au, 15-Au) :   0.2691
B( 11-Au, 16-Fe) :   0.4278 B( 12-Au, 13-Au) :   0.2744 B( 12-Au, 14-Au) :   0.2921
B( 12-Au, 15-Au) :   0.1559 B( 12-Au, 16-Fe) :   0.4248 B( 13-Au, 14-Au) :   0.1901
B( 13-Au, 15-Au) :   0.2318 B( 14-Au, 15-Au) :   0.2801 B( 15-Au, 16-Fe) :   0.3849

FINAL SINGLE POINT ENERGY     -3436.745051778370

DIPOLE MOMENT
-------------
                                X             Y             Z
Electronic contribution:     14.94554      19.94667     -19.14306
Nuclear contribution   :    -15.04785     -20.09782      19.28437
                        -----------------------------------------
Total Dipole Moment    :     -0.10231      -0.15115       0.14132
                        -----------------------------------------
Magnitude (a.u.)       :      0.23083
Magnitude (Debye)      :      0.58672

Rotational constants in cm-1:     0.000949     0.000863     0.000707
Rotational constants in MHz :    28.456729    25.863368    21.207971

                             ****ORCA TERMINATED NORMALLY****
TOTAL RUN TIME: 0 days 11 hours 7 minutes 18 seconds 773 msec
