                         Program Version 5.0.3 -  RELEASE  -
|  1> %pal nprocs 1 end
|  2>
|  3> !PBE def2-TZVP OPT UNO
|  4> !SLOWCONV KDIIS
|  5>
|  6> %geom maxiter 300 end
|  7>
|  8> *xyzfile 0 5 5.xyz                           ****END OF INPUT****
 Total Charge           Charge          ....    0
 Multiplicity           Mult            ....    5
 Number of Electrons    NEL             ....  216
FINAL SINGLE POINT ENERGY     -2621.729213756300
FINAL SINGLE POINT ENERGY     -2621.729945378570
FINAL SINGLE POINT ENERGY     -2621.731131521431
FINAL SINGLE POINT ENERGY     -2621.732105586896
FINAL SINGLE POINT ENERGY     -2621.732760758363
FINAL SINGLE POINT ENERGY     -2621.733788249018
FINAL SINGLE POINT ENERGY     -2621.734532750612
FINAL SINGLE POINT ENERGY     -2621.735387033315
FINAL SINGLE POINT ENERGY     -2621.736226975415
FINAL SINGLE POINT ENERGY     -2621.737022978942
FINAL SINGLE POINT ENERGY     -2621.738411890006
FINAL SINGLE POINT ENERGY     -2621.738415652377
FINAL SINGLE POINT ENERGY     -2621.738418947552
FINAL SINGLE POINT ENERGY     -2621.738420968499
FINAL SINGLE POINT ENERGY     -2621.738423582162
FINAL SINGLE POINT ENERGY     -2621.738426064609
FINAL SINGLE POINT ENERGY     -2621.738427596583
FINAL SINGLE POINT ENERGY     -2621.738428105271
FINAL SINGLE POINT ENERGY     -2621.738428332827
                    ***********************HURRAY********************

CARTESIAN COORDINATES (ANGSTROEM)
---------------------------------
  Au     6.110258    7.753569    8.464928
  Au     7.021975    5.341953    9.459248
  Au     8.850913    4.597930    5.778213
  Au     7.021015    6.477830    6.188066
  Au     8.846101    3.610362    8.607351
  Au    13.404123    6.222639    7.950417
  Au    11.069018    7.477487    8.360565
  Au    11.248834    4.808644    7.440264
  Au    10.391012    2.427915    6.609431
  Au     8.694286    8.555076    8.727019
  Fe     8.870056    6.161367    7.910426

 Multiplicity           Mult            ....    5
 Number of Electrons    NEL             ....  216
 Basis Dimension        Dim             ....  445

ORBITAL ENERGIES
----------------
                 SPIN UP ORBITALS
  NO   OCC          E(Eh)            E(eV)
   0   1.0000    -254.764475     -6932.4938
   1   1.0000     -29.608774      -805.6957
   2   1.0000     -25.555273      -695.3943
   3   1.0000     -25.538546      -694.9392
   4   1.0000     -25.536569      -694.8854
   5   1.0000      -4.038017      -109.8800
   6   1.0000      -4.032175      -109.7211
   7   1.0000      -4.025338      -109.5350
   8   1.0000      -4.025286      -109.5336
   9   1.0000      -4.023036      -109.4724
  10   1.0000      -4.018766      -109.3562
  11   1.0000      -4.016616      -109.2977
  12   1.0000      -4.016593      -109.2971
  13   1.0000      -4.011142      -109.1487
  14   1.0000      -4.010048      -109.1190
  15   1.0000      -3.388761       -92.2129
  16   1.0000      -2.258651       -61.4610
  17   1.0000      -2.252291       -61.2880
  18   1.0000      -2.251822       -61.2752
  19   1.0000      -2.247238       -61.1505
  20   1.0000      -2.243836       -61.0579
  21   1.0000      -2.243310       -61.0436
  22   1.0000      -2.242544       -61.0227
  23   1.0000      -2.241448       -60.9929
  24   1.0000      -2.239647       -60.9439
  25   1.0000      -2.239487       -60.9395
  26   1.0000      -2.237987       -60.8987
  27   1.0000      -2.235282       -60.8251
  28   1.0000      -2.234946       -60.8160
  29   1.0000      -2.234923       -60.8154
  30   1.0000      -2.233412       -60.7742
  31   1.0000      -2.233410       -60.7742
  32   1.0000      -2.233244       -60.7697
  33   1.0000      -2.231861       -60.7320
  34   1.0000      -2.231319       -60.7173
  35   1.0000      -2.230499       -60.6950
  36   1.0000      -2.230142       -60.6852
  37   1.0000      -2.229962       -60.6803
  38   1.0000      -2.224863       -60.5416
  39   1.0000      -2.224069       -60.5200
  40   1.0000      -2.223466       -60.5036
  41   1.0000      -2.223221       -60.4969
  42   1.0000      -2.223120       -60.4942
  43   1.0000      -2.222914       -60.4886
  44   1.0000      -2.222708       -60.4829
  45   1.0000      -2.222665       -60.4818
  46   1.0000      -2.216035       -60.3014
  47   1.0000      -2.191803       -59.6420
  48   1.0000      -2.187977       -59.5379
  49   1.0000      -0.415252       -11.2996
  50   1.0000      -0.388095       -10.5606
  51   1.0000      -0.381009       -10.3678
  52   1.0000      -0.369676       -10.0594
  53   1.0000      -0.367363        -9.9965
  54   1.0000      -0.364525        -9.9192
  55   1.0000      -0.354743        -9.6531
  56   1.0000      -0.350279        -9.5316
  57   1.0000      -0.349013        -9.4971
  58   1.0000      -0.338865        -9.2210
  59   1.0000      -0.335020        -9.1163
  60   1.0000      -0.333565        -9.0768
  61   1.0000      -0.329080        -8.9547
  62   1.0000      -0.328567        -8.9408
  63   1.0000      -0.325699        -8.8627
  64   1.0000      -0.321652        -8.7526
  65   1.0000      -0.320409        -8.7188
  66   1.0000      -0.317430        -8.6377
  67   1.0000      -0.314636        -8.5617
  68   1.0000      -0.310823        -8.4579
  69   1.0000      -0.309960        -8.4344
  70   1.0000      -0.304140        -8.2761
  71   1.0000      -0.299433        -8.1480
  72   1.0000      -0.297528        -8.0961
  73   1.0000      -0.293625        -7.9899
  74   1.0000      -0.293121        -7.9762
  75   1.0000      -0.289359        -7.8739
  76   1.0000      -0.286749        -7.8028
  77   1.0000      -0.286474        -7.7954
  78   1.0000      -0.284333        -7.7371
  79   1.0000      -0.281528        -7.6608
  80   1.0000      -0.279664        -7.6100
  81   1.0000      -0.276187        -7.5154
  82   1.0000      -0.276054        -7.5118
  83   1.0000      -0.274510        -7.4698
  84   1.0000      -0.272128        -7.4050
  85   1.0000      -0.270980        -7.3737
  86   1.0000      -0.269285        -7.3276
  87   1.0000      -0.266854        -7.2615
  88   1.0000      -0.265834        -7.2337
  89   1.0000      -0.263795        -7.1782
  90   1.0000      -0.263583        -7.1725
  91   1.0000      -0.263321        -7.1653
  92   1.0000      -0.259968        -7.0741
  93   1.0000      -0.259929        -7.0730
  94   1.0000      -0.259333        -7.0568
  95   1.0000      -0.255842        -6.9618
  96   1.0000      -0.255074        -6.9409
  97   1.0000      -0.254352        -6.9213
  98   1.0000      -0.247787        -6.7426
  99   1.0000      -0.246444        -6.7061
 100   1.0000      -0.246170        -6.6986
 101   1.0000      -0.245610        -6.6834
 102   1.0000      -0.244808        -6.6616
 103   1.0000      -0.242707        -6.6044
 104   1.0000      -0.237491        -6.4625
 105   1.0000      -0.234717        -6.3870
 106   1.0000      -0.230249        -6.2654
 107   1.0000      -0.217518        -5.9190
 108   1.0000      -0.214698        -5.8422
 109   1.0000      -0.204694        -5.5700
 110   0.0000      -0.156546        -4.2598
 111   0.0000      -0.147461        -4.0126
 112   0.0000      -0.132417        -3.6033
 113   0.0000      -0.117839        -3.2066
 114   0.0000      -0.097477        -2.6525

                 SPIN DOWN ORBITALS
  NO   OCC          E(Eh)            E(eV)
   0   1.0000    -254.763676     -6932.4721
   1   1.0000     -29.547032      -804.0156
   2   1.0000     -25.503467      -693.9846
   3   1.0000     -25.493908      -693.7245
   4   1.0000     -25.493067      -693.7016
   5   1.0000      -4.036802      -109.8470
   6   1.0000      -4.030029      -109.6627
   7   1.0000      -4.024348      -109.5081
   8   1.0000      -4.024292      -109.5066
   9   1.0000      -4.023099      -109.4741
  10   1.0000      -4.016724      -109.3006
  11   1.0000      -4.014915      -109.2514
  12   1.0000      -4.014884      -109.2505
  13   1.0000      -4.011280      -109.1525
  14   1.0000      -4.009818      -109.1127
  15   1.0000      -3.248634       -88.3998
  16   1.0000      -2.257175       -61.4208
  17   1.0000      -2.249802       -61.2202
  18   1.0000      -2.249255       -61.2053
  19   1.0000      -2.244651       -61.0801
  20   1.0000      -2.242742       -61.0281
  21   1.0000      -2.242176       -61.0127
  22   1.0000      -2.241839       -61.0035
  23   1.0000      -2.240516       -60.9675
  24   1.0000      -2.238851       -60.9222
  25   1.0000      -2.238508       -60.9129
  26   1.0000      -2.234909       -60.8150
  27   1.0000      -2.233718       -60.7826
  28   1.0000      -2.233343       -60.7723
  29   1.0000      -2.233221       -60.7690
  30   1.0000      -2.232318       -60.7445
  31   1.0000      -2.232275       -60.7433
  32   1.0000      -2.231122       -60.7119
  33   1.0000      -2.231037       -60.7096
  34   1.0000      -2.230444       -60.6935
  35   1.0000      -2.229612       -60.6708
  36   1.0000      -2.229153       -60.6583
  37   1.0000      -2.228780       -60.6482
  38   1.0000      -2.223750       -60.5113
  39   1.0000      -2.223426       -60.5025
  40   1.0000      -2.223070       -60.4928
  41   1.0000      -2.222868       -60.4873
  42   1.0000      -2.221598       -60.4528
  43   1.0000      -2.221213       -60.4423
  44   1.0000      -2.221166       -60.4410
  45   1.0000      -2.215838       -60.2960
  46   1.0000      -2.072235       -56.3884
  47   1.0000      -2.061142       -56.0865
  48   1.0000      -2.060956       -56.0815
  49   1.0000      -0.412018       -11.2116
  50   1.0000      -0.380919       -10.3653
  51   1.0000      -0.377472       -10.2715
  52   1.0000      -0.360725        -9.8158
  53   1.0000      -0.358244        -9.7483
  54   1.0000      -0.356532        -9.7017
  55   1.0000      -0.348608        -9.4861
  56   1.0000      -0.339415        -9.2360
  57   1.0000      -0.338920        -9.2225
  58   1.0000      -0.332431        -9.0459
  59   1.0000      -0.327882        -8.9221
  60   1.0000      -0.325772        -8.8647
  61   1.0000      -0.321394        -8.7456
  62   1.0000      -0.319552        -8.6955
  63   1.0000      -0.317868        -8.6496
  64   1.0000      -0.316803        -8.6206
  65   1.0000      -0.310899        -8.4600
  66   1.0000      -0.310200        -8.4410
  67   1.0000      -0.307244        -8.3605
  68   1.0000      -0.306231        -8.3330
  69   1.0000      -0.305384        -8.3099
  70   1.0000      -0.302396        -8.2286
  71   1.0000      -0.296073        -8.0566
  72   1.0000      -0.292972        -7.9722
  73   1.0000      -0.290882        -7.9153
  74   1.0000      -0.286757        -7.8031
  75   1.0000      -0.283796        -7.7225
  76   1.0000      -0.283582        -7.7167
  77   1.0000      -0.280597        -7.6354
  78   1.0000      -0.280436        -7.6310
  79   1.0000      -0.277086        -7.5399
  80   1.0000      -0.276301        -7.5185
  81   1.0000      -0.273580        -7.4445
  82   1.0000      -0.273328        -7.4376
  83   1.0000      -0.271602        -7.3907
  84   1.0000      -0.270103        -7.3499
  85   1.0000      -0.266292        -7.2462
  86   1.0000      -0.265467        -7.2237
  87   1.0000      -0.264910        -7.2086
  88   1.0000      -0.264178        -7.1887
  89   1.0000      -0.262696        -7.1483
  90   1.0000      -0.261999        -7.1294
  91   1.0000      -0.257663        -7.0114
  92   1.0000      -0.254949        -6.9375
  93   1.0000      -0.254120        -6.9149
  94   1.0000      -0.248763        -6.7692
  95   1.0000      -0.247258        -6.7282
  96   1.0000      -0.246512        -6.7079
  97   1.0000      -0.245961        -6.6929
  98   1.0000      -0.243736        -6.6324
  99   1.0000      -0.243209        -6.6180
 100   1.0000      -0.241014        -6.5583
 101   1.0000      -0.236262        -6.4290
 102   1.0000      -0.222854        -6.0642
 103   1.0000      -0.220135        -5.9902
 104   1.0000      -0.207029        -5.6335
 105   1.0000      -0.183603        -4.9961
 106   0.0000      -0.174035        -4.7357
 107   0.0000      -0.167110        -4.5473
 108   0.0000      -0.163548        -4.4504
 109   0.0000      -0.154585        -4.2065
 110   0.0000      -0.142038        -3.8650

MULLIKEN ATOMIC CHARGES AND SPIN POPULATIONS
--------------------------------------------
   0 Au:    0.238001    0.017237
   1 Au:    0.156320    0.099953
   2 Au:    0.083204    0.033270
   3 Au:    0.155236    0.101134
   4 Au:    0.081024    0.033042
   5 Au:    0.357914    0.073334
   6 Au:   -0.057038    0.084652
   7 Au:   -0.375665    0.035659
   8 Au:    0.416521    0.059889
   9 Au:    0.161859    0.111200
  10 Fe:   -1.217376    3.350629
Sum of atomic charges         :   -0.0000000

LOEWDIN ATOMIC CHARGES AND SPIN POPULATIONS
-------------------------------------------
   0 Au:   -0.003261    0.012036
   1 Au:    0.060552    0.085829
   2 Au:    0.022323    0.046065
   3 Au:    0.060064    0.086724
   4 Au:    0.022371    0.045922
   5 Au:    0.106468    0.057261
   6 Au:    0.019500    0.097107
   7 Au:   -0.128959    0.065134
   8 Au:    0.114266    0.035334
   9 Au:    0.053295    0.094691
  10 Fe:   -0.326617    3.373897

  Mayer bond orders larger than 0.100000
B(  0-Au,  1-Au) :   0.2992 B(  0-Au,  3-Au) :   0.2992 B(  0-Au,  9-Au) :   0.3263
B(  0-Au, 10-Fe) :   0.2012 B(  1-Au,  4-Au) :   0.4829 B(  1-Au, 10-Fe) :   0.6634
B(  2-Au,  3-Au) :   0.4829 B(  2-Au,  4-Au) :   0.1093 B(  2-Au,  7-Au) :   0.1708
B(  2-Au,  8-Au) :   0.2542 B(  2-Au, 10-Fe) :   0.6420 B(  3-Au, 10-Fe) :   0.6646
B(  4-Au,  7-Au) :   0.1699 B(  4-Au,  8-Au) :   0.2549 B(  4-Au, 10-Fe) :   0.6439
B(  5-Au,  6-Au) :   0.3750 B(  5-Au,  7-Au) :   0.6783 B(  6-Au,  7-Au) :   0.3061
B(  6-Au,  9-Au) :   0.4847 B(  6-Au, 10-Fe) :   0.6651 B(  7-Au,  8-Au) :   0.5458
B(  7-Au, 10-Fe) :   0.2811 B(  9-Au, 10-Fe) :   0.6075

FINAL SINGLE POINT ENERGY     -2621.738428449083

DIPOLE MOMENT
-------------
                                X             Y             Z
Electronic contribution:     15.31670     -16.83999      -5.88849
Nuclear contribution   :    -14.98823      16.44007       5.75276
                        -----------------------------------------
Total Dipole Moment    :      0.32846      -0.39991      -0.13573
                        -----------------------------------------
Magnitude (a.u.)       :      0.53502
Magnitude (Debye)      :      1.35990

Rotational constants in cm-1:     0.002027     0.001391     0.001034
Rotational constants in MHz :    60.776815    41.706928    31.000835

                             ****ORCA TERMINATED NORMALLY****
TOTAL RUN TIME: 0 days 3 hours 27 minutes 11 seconds 557 msec
