                         Program Version 5.0.3 -  RELEASE  -
|  1> %pal nprocs 1 end
|  2>
|  3> !PBE def2-TZVP OPT UNO
|  4> !SLOWCONV KDIIS
|  5>
|  6> %geom maxiter 300 end
|  7>
|  8> *xyzfile 0 4 3.xyz                           ****END OF INPUT****
 Total Charge           Charge          ....    0
 Multiplicity           Mult            ....    4
 Number of Electrons    NEL             ....  215
FINAL SINGLE POINT ENERGY     -2509.010987248549
FINAL SINGLE POINT ENERGY     -2509.014586700379
FINAL SINGLE POINT ENERGY     -2509.016211857413
FINAL SINGLE POINT ENERGY     -2509.017388376259
FINAL SINGLE POINT ENERGY     -2509.017847992871
FINAL SINGLE POINT ENERGY     -2509.018186777892
FINAL SINGLE POINT ENERGY     -2509.018667346156
FINAL SINGLE POINT ENERGY     -2509.019072653045
FINAL SINGLE POINT ENERGY     -2509.019403416072
FINAL SINGLE POINT ENERGY     -2509.020013176497
FINAL SINGLE POINT ENERGY     -2509.030078456076
FINAL SINGLE POINT ENERGY     -2509.030581626325
FINAL SINGLE POINT ENERGY     -2509.030981883646
FINAL SINGLE POINT ENERGY     -2509.031190197852
FINAL SINGLE POINT ENERGY     -2509.031257633948
FINAL SINGLE POINT ENERGY     -2509.031304644884
FINAL SINGLE POINT ENERGY     -2509.031327126984
FINAL SINGLE POINT ENERGY     -2509.031340345860
FINAL SINGLE POINT ENERGY     -2509.031347752482
                    ***********************HURRAY********************

CARTESIAN COORDINATES (ANGSTROEM)
---------------------------------
  Au     9.520657    7.276553    9.064198
  Au     6.999623    5.702716    8.844367
  Au     5.140324    7.354058    7.882880
  Au     8.335982    7.035456    4.680056
  Au     9.451456    4.537298    9.256966
  Au     9.109499    5.476232    6.699779
  Au     8.221538    9.760099    5.513247
  Au     8.936822    9.744537    8.259876
  Au     6.208133    9.955988    7.479006
  Au     5.830613    8.263189    5.257956
  Mn     7.670103    7.671357    7.165456

 Multiplicity           Mult            ....    4
 Number of Electrons    NEL             ....  215
 Basis Dimension        Dim             ....  445

ORBITAL ENERGIES
----------------
                 SPIN UP ORBITALS
  NO   OCC          E(Eh)            E(eV)
   0   1.0000    -234.197354     -6372.8340
   1   1.0000     -26.894076      -731.8250
   2   1.0000     -23.043354      -627.0415
   3   1.0000     -23.043283      -627.0396
   4   1.0000     -23.041755      -626.9980
   5   1.0000      -4.022420      -109.4556
   6   1.0000      -4.022358      -109.4539
   7   1.0000      -4.022352      -109.4538
   8   1.0000      -4.020709      -109.4090
   9   1.0000      -4.020577      -109.4055
  10   1.0000      -4.020420      -109.4012
  11   1.0000      -4.019814      -109.3847
  12   1.0000      -4.019688      -109.3813
  13   1.0000      -4.019568      -109.3780
  14   1.0000      -4.018687      -109.3540
  15   1.0000      -3.099741       -84.3482
  16   1.0000      -2.241752       -61.0012
  17   1.0000      -2.241160       -60.9851
  18   1.0000      -2.241084       -60.9830
  19   1.0000      -2.238431       -60.9108
  20   1.0000      -2.238019       -60.8996
  21   1.0000      -2.236880       -60.8686
  22   1.0000      -2.236840       -60.8675
  23   1.0000      -2.236507       -60.8584
  24   1.0000      -2.236401       -60.8556
  25   1.0000      -2.235744       -60.8377
  26   1.0000      -2.235336       -60.8266
  27   1.0000      -2.235176       -60.8222
  28   1.0000      -2.234562       -60.8055
  29   1.0000      -2.234500       -60.8038
  30   1.0000      -2.234326       -60.7991
  31   1.0000      -2.233346       -60.7724
  32   1.0000      -2.232617       -60.7526
  33   1.0000      -2.232271       -60.7432
  34   1.0000      -2.232233       -60.7422
  35   1.0000      -2.231290       -60.7165
  36   1.0000      -2.230022       -60.6820
  37   1.0000      -2.229899       -60.6786
  38   1.0000      -2.229254       -60.6611
  39   1.0000      -2.229156       -60.6584
  40   1.0000      -2.228995       -60.6540
  41   1.0000      -2.228845       -60.6499
  42   1.0000      -2.228531       -60.6414
  43   1.0000      -2.228028       -60.6277
  44   1.0000      -2.227860       -60.6231
  45   1.0000      -2.227805       -60.6217
  46   1.0000      -2.003478       -54.5174
  47   1.0000      -2.003384       -54.5149
  48   1.0000      -1.999851       -54.4187
  49   1.0000      -0.413032       -11.2392
  50   1.0000      -0.382381       -10.4051
  51   1.0000      -0.363672        -9.8960
  52   1.0000      -0.363516        -9.8918
  53   1.0000      -0.361291        -9.8312
  54   1.0000      -0.359490        -9.7822
  55   1.0000      -0.359045        -9.7701
  56   1.0000      -0.354185        -9.6379
  57   1.0000      -0.337882        -9.1942
  58   1.0000      -0.336338        -9.1522
  59   1.0000      -0.335948        -9.1416
  60   1.0000      -0.328292        -8.9333
  61   1.0000      -0.327701        -8.9172
  62   1.0000      -0.326733        -8.8909
  63   1.0000      -0.320256        -8.7146
  64   1.0000      -0.319823        -8.7028
  65   1.0000      -0.317674        -8.6444
  66   1.0000      -0.317192        -8.6312
  67   1.0000      -0.314951        -8.5703
  68   1.0000      -0.314590        -8.5604
  69   1.0000      -0.313742        -8.5373
  70   1.0000      -0.313105        -8.5200
  71   1.0000      -0.301319        -8.1993
  72   1.0000      -0.300926        -8.1886
  73   1.0000      -0.298723        -8.1287
  74   1.0000      -0.289969        -7.8905
  75   1.0000      -0.286809        -7.8045
  76   1.0000      -0.286662        -7.8005
  77   1.0000      -0.284313        -7.7365
  78   1.0000      -0.279473        -7.6049
  79   1.0000      -0.279143        -7.5959
  80   1.0000      -0.275850        -7.5063
  81   1.0000      -0.275497        -7.4966
  82   1.0000      -0.273907        -7.4534
  83   1.0000      -0.273771        -7.4497
  84   1.0000      -0.273197        -7.4341
  85   1.0000      -0.267158        -7.2697
  86   1.0000      -0.267008        -7.2657
  87   1.0000      -0.266413        -7.2495
  88   1.0000      -0.262918        -7.1544
  89   1.0000      -0.260156        -7.0792
  90   1.0000      -0.259863        -7.0712
  91   1.0000      -0.256134        -6.9698
  92   1.0000      -0.256075        -6.9681
  93   1.0000      -0.255910        -6.9637
  94   1.0000      -0.253354        -6.8941
  95   1.0000      -0.250764        -6.8236
  96   1.0000      -0.248477        -6.7614
  97   1.0000      -0.248326        -6.7573
  98   1.0000      -0.242831        -6.6078
  99   1.0000      -0.242815        -6.6073
 100   1.0000      -0.237938        -6.4746
 101   1.0000      -0.237504        -6.4628
 102   1.0000      -0.237082        -6.4513
 103   1.0000      -0.235272        -6.4021
 104   1.0000      -0.230290        -6.2665
 105   1.0000      -0.230081        -6.2608
 106   1.0000      -0.226812        -6.1719
 107   1.0000      -0.226202        -6.1553
 108   1.0000      -0.200052        -5.4437
 109   0.0000      -0.169911        -4.6235
 110   0.0000      -0.169623        -4.6157
 111   0.0000      -0.132284        -3.5996
 112   0.0000      -0.130747        -3.5578
 113   0.0000      -0.130331        -3.5465

                 SPIN DOWN ORBITALS
  NO   OCC          E(Eh)            E(eV)
   0   1.0000    -234.196631     -6372.8143
   1   1.0000     -26.830776      -730.1025
   2   1.0000     -22.994720      -625.7181
   3   1.0000     -22.994706      -625.7178
   4   1.0000     -22.994694      -625.7174
   5   1.0000      -4.021890      -109.4412
   6   1.0000      -4.021814      -109.4391
   7   1.0000      -4.021772      -109.4380
   8   1.0000      -4.020709      -109.4091
   9   1.0000      -4.020582      -109.4056
  10   1.0000      -4.020390      -109.4004
  11   1.0000      -4.019376      -109.3728
  12   1.0000      -4.019224      -109.3686
  13   1.0000      -4.019056      -109.3641
  14   1.0000      -4.019015      -109.3630
  15   1.0000      -2.944728       -80.1301
  16   1.0000      -2.241231       -60.9870
  17   1.0000      -2.240306       -60.9618
  18   1.0000      -2.240274       -60.9609
  19   1.0000      -2.237624       -60.8888
  20   1.0000      -2.237532       -60.8863
  21   1.0000      -2.236477       -60.8576
  22   1.0000      -2.236347       -60.8541
  23   1.0000      -2.235604       -60.8339
  24   1.0000      -2.235567       -60.8329
  25   1.0000      -2.235104       -60.8203
  26   1.0000      -2.234590       -60.8063
  27   1.0000      -2.234530       -60.8046
  28   1.0000      -2.234062       -60.7919
  29   1.0000      -2.233970       -60.7894
  30   1.0000      -2.233788       -60.7845
  31   1.0000      -2.233657       -60.7809
  32   1.0000      -2.232646       -60.7534
  33   1.0000      -2.232218       -60.7417
  34   1.0000      -2.232179       -60.7407
  35   1.0000      -2.231013       -60.7089
  36   1.0000      -2.230086       -60.6837
  37   1.0000      -2.229938       -60.6797
  38   1.0000      -2.229875       -60.6780
  39   1.0000      -2.229700       -60.6732
  40   1.0000      -2.228956       -60.6530
  41   1.0000      -2.228806       -60.6489
  42   1.0000      -2.228340       -60.6362
  43   1.0000      -2.227681       -60.6183
  44   1.0000      -2.227504       -60.6135
  45   1.0000      -2.227471       -60.6126
  46   1.0000      -1.851604       -50.3847
  47   1.0000      -1.849434       -50.3256
  48   1.0000      -1.849313       -50.3224
  49   1.0000      -0.406352       -11.0574
  50   1.0000      -0.382935       -10.4202
  51   1.0000      -0.360208        -9.8018
  52   1.0000      -0.360070        -9.7980
  53   1.0000      -0.354848        -9.6559
  54   1.0000      -0.354723        -9.6525
  55   1.0000      -0.354606        -9.6493
  56   1.0000      -0.351308        -9.5596
  57   1.0000      -0.339558        -9.2398
  58   1.0000      -0.330575        -8.9954
  59   1.0000      -0.329984        -8.9793
  60   1.0000      -0.326216        -8.8768
  61   1.0000      -0.322632        -8.7793
  62   1.0000      -0.322403        -8.7730
  63   1.0000      -0.319124        -8.6838
  64   1.0000      -0.318945        -8.6789
  65   1.0000      -0.315137        -8.5753
  66   1.0000      -0.314969        -8.5707
  67   1.0000      -0.314642        -8.5619
  68   1.0000      -0.308870        -8.4048
  69   1.0000      -0.307846        -8.3769
  70   1.0000      -0.307465        -8.3666
  71   1.0000      -0.300949        -8.1892
  72   1.0000      -0.300586        -8.1794
  73   1.0000      -0.299218        -8.1421
  74   1.0000      -0.289096        -7.8667
  75   1.0000      -0.287224        -7.8158
  76   1.0000      -0.287101        -7.8124
  77   1.0000      -0.280404        -7.6302
  78   1.0000      -0.279502        -7.6056
  79   1.0000      -0.279269        -7.5993
  80   1.0000      -0.274609        -7.4725
  81   1.0000      -0.274103        -7.4587
  82   1.0000      -0.273472        -7.4416
  83   1.0000      -0.270796        -7.3687
  84   1.0000      -0.270440        -7.3590
  85   1.0000      -0.268070        -7.2946
  86   1.0000      -0.267907        -7.2901
  87   1.0000      -0.267014        -7.2658
  88   1.0000      -0.263510        -7.1705
  89   1.0000      -0.259872        -7.0715
  90   1.0000      -0.259583        -7.0636
  91   1.0000      -0.255940        -6.9645
  92   1.0000      -0.255828        -6.9614
  93   1.0000      -0.255173        -6.9436
  94   1.0000      -0.253334        -6.8936
  95   1.0000      -0.252732        -6.8772
  96   1.0000      -0.247943        -6.7469
  97   1.0000      -0.247927        -6.7464
  98   1.0000      -0.238140        -6.4801
  99   1.0000      -0.237625        -6.4661
 100   1.0000      -0.236518        -6.4360
 101   1.0000      -0.235100        -6.3974
 102   1.0000      -0.234470        -6.3803
 103   1.0000      -0.209210        -5.6929
 104   1.0000      -0.190407        -5.1812
 105   1.0000      -0.190236        -5.1766
 106   0.0000      -0.147203        -4.0056
 107   0.0000      -0.146698        -3.9919
 108   0.0000      -0.140504        -3.8233
 109   0.0000      -0.123125        -3.3504
 110   0.0000      -0.123077        -3.3491

MULLIKEN ATOMIC CHARGES AND SPIN POPULATIONS
--------------------------------------------
   0 Au:    0.077213   -0.182219
   1 Au:    0.080892   -0.178938
   2 Au:    0.238147    0.014229
   3 Au:    0.240986    0.011585
   4 Au:    0.326478    0.033037
   5 Au:    0.077467   -0.178470
   6 Au:    0.231280   -0.165300
   7 Au:    0.235625    0.011887
   8 Au:    0.229567   -0.162680
   9 Au:    0.232118   -0.163881
  10 Mn:   -1.969772    3.960751
Sum of atomic charges         :   -0.0000000

LOEWDIN ATOMIC CHARGES AND SPIN POPULATIONS
-------------------------------------------
   0 Au:    0.012938   -0.093708
   1 Au:    0.015069   -0.091148
   2 Au:    0.094509   -0.052812
   3 Au:    0.094757   -0.055916
   4 Au:    0.077471   -0.034402
   5 Au:    0.016360   -0.089354
   6 Au:    0.034997   -0.129065
   7 Au:    0.092388   -0.056650
   8 Au:    0.033169   -0.128354
   9 Au:    0.035984   -0.128766
  10 Mn:   -0.507642    3.860175

  Mayer bond orders larger than 0.100000
B(  0-Au,  1-Au) :   0.1176 B(  0-Au,  4-Au) :   0.3561 B(  0-Au,  5-Au) :   0.1112
B(  0-Au,  7-Au) :   0.3833 B(  0-Au, 10-Mn) :   0.5919 B(  1-Au,  2-Au) :   0.3810
B(  1-Au,  4-Au) :   0.3543 B(  1-Au,  5-Au) :   0.1066 B(  1-Au, 10-Mn) :   0.5939
B(  2-Au,  6-Au) :   0.1047 B(  2-Au,  8-Au) :   0.1828 B(  2-Au,  9-Au) :   0.1748
B(  2-Au, 10-Mn) :   0.5453 B(  3-Au,  5-Au) :   0.3812 B(  3-Au,  6-Au) :   0.1793
B(  3-Au,  8-Au) :   0.1046 B(  3-Au,  9-Au) :   0.1808 B(  3-Au, 10-Mn) :   0.5433
B(  4-Au,  5-Au) :   0.3547 B(  4-Au, 10-Mn) :   0.1134 B(  5-Au, 10-Mn) :   0.5979
B(  6-Au,  7-Au) :   0.1859 B(  6-Au,  8-Au) :   0.2177 B(  6-Au,  9-Au) :   0.2085
B(  6-Au, 10-Mn) :   0.5133 B(  7-Au,  8-Au) :   0.1834 B(  7-Au,  9-Au) :   0.1055
B(  7-Au, 10-Mn) :   0.5326 B(  8-Au,  9-Au) :   0.2192 B(  8-Au, 10-Mn) :   0.5057
B(  9-Au, 10-Mn) :   0.5167

FINAL SINGLE POINT ENERGY     -2509.031350324149

DIPOLE MOMENT
-------------
                                X             Y             Z
Electronic contribution:      3.81903      -5.82709       4.64689
Nuclear contribution   :     -3.81599       5.82184      -4.64956
                        -----------------------------------------
Total Dipole Moment    :      0.00305      -0.00525      -0.00267
                        -----------------------------------------
Magnitude (a.u.)       :      0.00663
Magnitude (Debye)      :      0.01686

Rotational constants in cm-1:     0.002287     0.001363     0.001357
Rotational constants in MHz :    68.567373    40.851324    40.678706

                             ****ORCA TERMINATED NORMALLY****
TOTAL RUN TIME: 0 days 3 hours 50 minutes 4 seconds 503 msec
