                         Program Version 5.0.3 -  RELEASE  -
|  1> %pal nprocs 1 end
|  2>
|  3> !PBE def2-TZVP OPT UNO
|  4> !SLOWCONV KDIIS
|  5>
|  6> %geom maxiter 300 end
|  7>
|  8> *xyzfile 0 3 9.xyz                           ****END OF INPUT****
 Total Charge           Charge          ....    0
 Multiplicity           Mult            ....    3
 Number of Electrons    NEL             ....  216
FINAL SINGLE POINT ENERGY     -2621.727250146354
FINAL SINGLE POINT ENERGY     -2621.727953253965
FINAL SINGLE POINT ENERGY     -2621.728741017066
FINAL SINGLE POINT ENERGY     -2621.729295967230
FINAL SINGLE POINT ENERGY     -2621.729677859646
FINAL SINGLE POINT ENERGY     -2621.729899082682
FINAL SINGLE POINT ENERGY     -2621.729993608237
FINAL SINGLE POINT ENERGY     -2621.730048090959
FINAL SINGLE POINT ENERGY     -2621.730106346493
FINAL SINGLE POINT ENERGY     -2621.730149440835
FINAL SINGLE POINT ENERGY     -2621.730164117166
FINAL SINGLE POINT ENERGY     -2621.730173826111
FINAL SINGLE POINT ENERGY     -2621.730180111130
FINAL SINGLE POINT ENERGY     -2621.730185170485
FINAL SINGLE POINT ENERGY     -2621.730188978857
                    ***********************HURRAY********************

CARTESIAN COORDINATES (ANGSTROEM)
---------------------------------
  Au     7.689947    6.578319    6.467328
  Au     8.692339    8.973408    7.001546
  Au     5.879515    4.528520    6.266713
  Au     6.380867    5.479873    8.779456
  Au     6.749910    7.192331   10.824728
  Au     4.622841    9.604730    7.533641
  Au     4.784819    7.049072    6.624985
  Au     7.087528   10.788745    8.286927
  Au     5.698389    9.724442   10.353455
  Au     4.244475    7.432173    9.367670
  Fe     6.623398    8.132700    8.350445

 Multiplicity           Mult            ....    3
 Number of Electrons    NEL             ....  216
 Basis Dimension        Dim             ....  445

ORBITAL ENERGIES
----------------
                 SPIN UP ORBITALS
  NO   OCC          E(Eh)            E(eV)
   0   1.0000    -254.746714     -6932.0105
   1   1.0000     -29.584373      -805.0317
   2   1.0000     -25.523657      -694.5340
   3   1.0000     -25.519655      -694.4251
   4   1.0000     -25.516629      -694.3428
   5   1.0000      -4.026059      -109.5546
   6   1.0000      -4.023827      -109.4939
   7   1.0000      -4.023131      -109.4750
   8   1.0000      -4.021687      -109.4357
   9   1.0000      -4.018829      -109.3579
  10   1.0000      -4.018305      -109.3436
  11   1.0000      -4.017605      -109.3246
  12   1.0000      -4.015962      -109.2799
  13   1.0000      -4.015367      -109.2637
  14   1.0000      -4.012303      -109.1803
  15   1.0000      -3.360426       -91.4418
  16   1.0000      -2.244259       -61.0694
  17   1.0000      -2.242153       -61.0121
  18   1.0000      -2.241084       -60.9830
  19   1.0000      -2.240353       -60.9631
  20   1.0000      -2.238092       -60.9016
  21   1.0000      -2.237931       -60.8972
  22   1.0000      -2.236193       -60.8499
  23   1.0000      -2.235179       -60.8223
  24   1.0000      -2.234976       -60.8168
  25   1.0000      -2.234144       -60.7942
  26   1.0000      -2.234098       -60.7929
  27   1.0000      -2.233691       -60.7818
  28   1.0000      -2.233202       -60.7685
  29   1.0000      -2.232705       -60.7550
  30   1.0000      -2.232340       -60.7451
  31   1.0000      -2.231994       -60.7356
  32   1.0000      -2.231640       -60.7260
  33   1.0000      -2.230688       -60.7001
  34   1.0000      -2.230577       -60.6971
  35   1.0000      -2.229854       -60.6774
  36   1.0000      -2.229478       -60.6672
  37   1.0000      -2.228772       -60.6480
  38   1.0000      -2.228434       -60.6388
  39   1.0000      -2.228012       -60.6273
  40   1.0000      -2.227692       -60.6186
  41   1.0000      -2.227153       -60.6039
  42   1.0000      -2.225500       -60.5589
  43   1.0000      -2.225207       -60.5510
  44   1.0000      -2.224356       -60.5278
  45   1.0000      -2.218936       -60.3803
  46   1.0000      -2.181843       -59.3710
  47   1.0000      -2.173424       -59.1419
  48   1.0000      -2.167290       -58.9750
  49   1.0000      -0.417033       -11.3480
  50   1.0000      -0.382440       -10.4067
  51   1.0000      -0.374024       -10.1777
  52   1.0000      -0.367807       -10.0085
  53   1.0000      -0.361896        -9.8477
  54   1.0000      -0.356548        -9.7022
  55   1.0000      -0.352242        -9.5850
  56   1.0000      -0.345241        -9.3945
  57   1.0000      -0.342709        -9.3256
  58   1.0000      -0.336194        -9.1483
  59   1.0000      -0.334430        -9.1003
  60   1.0000      -0.331836        -9.0297
  61   1.0000      -0.327986        -8.9250
  62   1.0000      -0.326592        -8.8870
  63   1.0000      -0.324330        -8.8255
  64   1.0000      -0.323685        -8.8079
  65   1.0000      -0.320963        -8.7338
  66   1.0000      -0.318423        -8.6647
  67   1.0000      -0.315778        -8.5928
  68   1.0000      -0.310827        -8.4580
  69   1.0000      -0.304985        -8.2991
  70   1.0000      -0.304215        -8.2781
  71   1.0000      -0.301674        -8.2090
  72   1.0000      -0.299036        -8.1372
  73   1.0000      -0.295377        -8.0376
  74   1.0000      -0.292080        -7.9479
  75   1.0000      -0.287577        -7.8254
  76   1.0000      -0.285275        -7.7627
  77   1.0000      -0.284261        -7.7351
  78   1.0000      -0.280495        -7.6326
  79   1.0000      -0.277989        -7.5645
  80   1.0000      -0.277840        -7.5604
  81   1.0000      -0.274466        -7.4686
  82   1.0000      -0.272124        -7.4049
  83   1.0000      -0.270805        -7.3690
  84   1.0000      -0.268884        -7.3167
  85   1.0000      -0.266440        -7.2502
  86   1.0000      -0.265074        -7.2130
  87   1.0000      -0.262328        -7.1383
  88   1.0000      -0.261944        -7.1279
  89   1.0000      -0.260289        -7.0828
  90   1.0000      -0.258702        -7.0396
  91   1.0000      -0.257285        -7.0011
  92   1.0000      -0.255465        -6.9515
  93   1.0000      -0.254034        -6.9126
  94   1.0000      -0.253102        -6.8873
  95   1.0000      -0.251265        -6.8373
  96   1.0000      -0.248251        -6.7553
  97   1.0000      -0.247535        -6.7358
  98   1.0000      -0.243389        -6.6230
  99   1.0000      -0.241484        -6.5711
 100   1.0000      -0.240020        -6.5313
 101   1.0000      -0.239335        -6.5126
 102   1.0000      -0.235800        -6.4165
 103   1.0000      -0.234232        -6.3738
 104   1.0000      -0.233450        -6.3525
 105   1.0000      -0.231380        -6.2962
 106   1.0000      -0.229228        -6.2376
 107   1.0000      -0.224024        -6.0960
 108   1.0000      -0.200112        -5.4453
 109   0.0000      -0.171281        -4.6608
 110   0.0000      -0.157074        -4.2742
 111   0.0000      -0.150770        -4.1027
 112   0.0000      -0.131866        -3.5883
 113   0.0000      -0.107144        -2.9155

                 SPIN DOWN ORBITALS
  NO   OCC          E(Eh)            E(eV)
   0   1.0000    -254.746040     -6931.9922
   1   1.0000     -29.528612      -803.5144
   2   1.0000     -25.480221      -693.3521
   3   1.0000     -25.477701      -693.2835
   4   1.0000     -25.475665      -693.2281
   5   1.0000      -4.026090      -109.5555
   6   1.0000      -4.023905      -109.4960
   7   1.0000      -4.023158      -109.4757
   8   1.0000      -4.022248      -109.4509
   9   1.0000      -4.018959      -109.3614
  10   1.0000      -4.018632      -109.3525
  11   1.0000      -4.018572      -109.3509
  12   1.0000      -4.016324      -109.2897
  13   1.0000      -4.015569      -109.2692
  14   1.0000      -4.011837      -109.1676
  15   1.0000      -3.234362       -88.0115
  16   1.0000      -2.244109       -61.0653
  17   1.0000      -2.242194       -61.0132
  18   1.0000      -2.240901       -60.9780
  19   1.0000      -2.239976       -60.9529
  20   1.0000      -2.238039       -60.9001
  21   1.0000      -2.237629       -60.8890
  22   1.0000      -2.236177       -60.8495
  23   1.0000      -2.235510       -60.8313
  24   1.0000      -2.234974       -60.8167
  25   1.0000      -2.234754       -60.8108
  26   1.0000      -2.234531       -60.8047
  27   1.0000      -2.234068       -60.7921
  28   1.0000      -2.233745       -60.7833
  29   1.0000      -2.233267       -60.7703
  30   1.0000      -2.232835       -60.7585
  31   1.0000      -2.232405       -60.7468
  32   1.0000      -2.231853       -60.7318
  33   1.0000      -2.231044       -60.7098
  34   1.0000      -2.230191       -60.6866
  35   1.0000      -2.229898       -60.6786
  36   1.0000      -2.229677       -60.6726
  37   1.0000      -2.229019       -60.6547
  38   1.0000      -2.228941       -60.6526
  39   1.0000      -2.228553       -60.6420
  40   1.0000      -2.228474       -60.6399
  41   1.0000      -2.227517       -60.6138
  42   1.0000      -2.226223       -60.5786
  43   1.0000      -2.225246       -60.5520
  44   1.0000      -2.224779       -60.5393
  45   1.0000      -2.218252       -60.3617
  46   1.0000      -2.054186       -55.8972
  47   1.0000      -2.050939       -55.8089
  48   1.0000      -2.047178       -55.7065
  49   1.0000      -0.413920       -11.2633
  50   1.0000      -0.382415       -10.4060
  51   1.0000      -0.369919       -10.0660
  52   1.0000      -0.364204        -9.9105
  53   1.0000      -0.355492        -9.6734
  54   1.0000      -0.354822        -9.6552
  55   1.0000      -0.350262        -9.5311
  56   1.0000      -0.342050        -9.3077
  57   1.0000      -0.340473        -9.2647
  58   1.0000      -0.335179        -9.1207
  59   1.0000      -0.334505        -9.1024
  60   1.0000      -0.329988        -8.9794
  61   1.0000      -0.328916        -8.9503
  62   1.0000      -0.326119        -8.8741
  63   1.0000      -0.324525        -8.8308
  64   1.0000      -0.321376        -8.7451
  65   1.0000      -0.319077        -8.6825
  66   1.0000      -0.317236        -8.6324
  67   1.0000      -0.311713        -8.4822
  68   1.0000      -0.308563        -8.3964
  69   1.0000      -0.304554        -8.2873
  70   1.0000      -0.300268        -8.1707
  71   1.0000      -0.297367        -8.0918
  72   1.0000      -0.296047        -8.0559
  73   1.0000      -0.292324        -7.9545
  74   1.0000      -0.291999        -7.9457
  75   1.0000      -0.286152        -7.7866
  76   1.0000      -0.283655        -7.7186
  77   1.0000      -0.282272        -7.6810
  78   1.0000      -0.280457        -7.6316
  79   1.0000      -0.277621        -7.5545
  80   1.0000      -0.275355        -7.4928
  81   1.0000      -0.272480        -7.4145
  82   1.0000      -0.271716        -7.3938
  83   1.0000      -0.271046        -7.3755
  84   1.0000      -0.268574        -7.3083
  85   1.0000      -0.265629        -7.2281
  86   1.0000      -0.264918        -7.2088
  87   1.0000      -0.262327        -7.1383
  88   1.0000      -0.261554        -7.1173
  89   1.0000      -0.261252        -7.1090
  90   1.0000      -0.258593        -7.0367
  91   1.0000      -0.257894        -7.0176
  92   1.0000      -0.256250        -6.9729
  93   1.0000      -0.253914        -6.9094
  94   1.0000      -0.249789        -6.7971
  95   1.0000      -0.249150        -6.7797
  96   1.0000      -0.247901        -6.7457
  97   1.0000      -0.243826        -6.6348
  98   1.0000      -0.241192        -6.5632
  99   1.0000      -0.237192        -6.4543
 100   1.0000      -0.236722        -6.4415
 101   1.0000      -0.235790        -6.4162
 102   1.0000      -0.230569        -6.2741
 103   1.0000      -0.209184        -5.6922
 104   1.0000      -0.193064        -5.2535
 105   1.0000      -0.182180        -4.9574
 106   1.0000      -0.177859        -4.8398
 107   0.0000      -0.153954        -4.1893
 108   0.0000      -0.146977        -3.9994
 109   0.0000      -0.144630        -3.9356
 110   0.0000      -0.144204        -3.9240
 111   0.0000      -0.142012        -3.8643

MULLIKEN ATOMIC CHARGES AND SPIN POPULATIONS
--------------------------------------------
   0 Au:    0.049006   -0.140979
   1 Au:    0.182821   -0.017233
   2 Au:    0.359227   -0.007922
   3 Au:   -0.019817   -0.147453
   4 Au:    0.322360   -0.081334
   5 Au:    0.271201   -0.078266
   6 Au:   -0.013684   -0.058929
   7 Au:    0.209128   -0.105623
   8 Au:    0.182902   -0.138047
   9 Au:    0.198935   -0.145869
  10 Fe:   -1.742081    2.921654
Sum of atomic charges         :   -0.0000000

LOEWDIN ATOMIC CHARGES AND SPIN POPULATIONS
-------------------------------------------
   0 Au:    0.003754   -0.088884
   1 Au:    0.109655   -0.067084
   2 Au:    0.096522   -0.055907
   3 Au:   -0.016752   -0.098059
   4 Au:    0.129782   -0.127458
   5 Au:    0.077419   -0.080871
   6 Au:    0.001799   -0.058328
   7 Au:    0.042656   -0.109848
   8 Au:    0.018366   -0.120112
   9 Au:    0.047059   -0.124002
  10 Fe:   -0.510259    2.930551

  Mayer bond orders larger than 0.100000
B(  0-Au,  1-Au) :   0.4030 B(  0-Au,  2-Au) :   0.3533 B(  0-Au,  3-Au) :   0.1884
B(  0-Au,  6-Au) :   0.1738 B(  0-Au, 10-Fe) :   0.5874 B(  1-Au,  7-Au) :   0.2207
B(  1-Au, 10-Fe) :   0.6290 B(  2-Au,  3-Au) :   0.3883 B(  2-Au,  6-Au) :   0.3423
B(  2-Au, 10-Fe) :   0.1074 B(  3-Au,  4-Au) :   0.3903 B(  3-Au,  6-Au) :   0.1367
B(  3-Au,  9-Au) :   0.1367 B(  3-Au, 10-Fe) :   0.5939 B(  4-Au,  8-Au) :   0.2249
B(  4-Au,  9-Au) :   0.1110 B(  4-Au, 10-Fe) :   0.5641 B(  5-Au,  6-Au) :   0.3718
B(  5-Au,  7-Au) :   0.1934 B(  5-Au,  8-Au) :   0.1004 B(  5-Au,  9-Au) :   0.1785
B(  5-Au, 10-Fe) :   0.5488 B(  6-Au,  9-Au) :   0.2366 B(  6-Au, 10-Fe) :   0.5089
B(  7-Au,  8-Au) :   0.3482 B(  7-Au, 10-Fe) :   0.5398 B(  8-Au,  9-Au) :   0.1705
B(  8-Au, 10-Fe) :   0.5168 B(  9-Au, 10-Fe) :   0.6121

FINAL SINGLE POINT ENERGY     -2621.730190037991

DIPOLE MOMENT
-------------
                                X             Y             Z
Electronic contribution:    -16.87595     -15.24567      -7.59308
Nuclear contribution   :     16.67903      15.05797       7.56802
                        -----------------------------------------
Total Dipole Moment    :     -0.19692      -0.18770      -0.02506
                        -----------------------------------------
Magnitude (a.u.)       :      0.27320
Magnitude (Debye)      :      0.69441

Rotational constants in cm-1:     0.002224     0.001550     0.001351
Rotational constants in MHz :    66.686243    46.481277    40.503451

                             ****ORCA TERMINATED NORMALLY****
TOTAL RUN TIME: 0 days 1 hours 21 minutes 25 seconds 260 msec
