                         Program Version 5.0.3 -  RELEASE  -
|  1> !RI-B2PLYP def2-TZVP def2-TZVP/C
|  2> !RIJCOSX VERYSLOWCONV
|  3>
|  4> %scf
|  5>   AutoTRAHIter 200
|  6>   maxiter 400
|  7> end
|  8>
|  9>
| 10> %pal nprocs 6 end
| 11>
| 12> *xyzfile 0 5 pbe.xyz
| 13>
| 14> $new_job
| 15>
| 16> !RI-B2PLYP def2-TZVP def2-TZVP/C
| 17> !RIJCOSX VERYSLOWCONV
| 18>
| 19> %scf
| 20>   AutoTRAHIter 200
| 21>   maxiter 400
| 22> end
| 23>
| 24>
| 25> %pal nprocs 6 end
| 26>
| 27> *xyzfile 0 3 pbe.xyz
| 28>
| 29>
| 30>
| 31>
| 32>
| 33>                          ****END OF INPUT****
 Total Charge           Charge          ....    0
 Multiplicity           Mult            ....    5
 Number of Electrons    NEL             ....  216
MP2 TOTAL ENERGY:    -2619.290627308 Eh
FINAL SINGLE POINT ENERGY     -2619.290627308101

CARTESIAN COORDINATES (ANGSTROEM)
---------------------------------
  Au     7.057391   10.411522    9.407118
  Au     5.472471    6.644333    9.761892
  Au     4.303109    9.113351    9.483203
  Au     4.932866   11.248723    7.741193
  Au     8.233911    7.945797    9.682002
  Au     7.663364    5.493806    8.398872
  Au     7.123689   10.098089    6.378071
  Au     4.362246    8.796688    6.458187
  Au     5.538959    6.331027    6.732806
  Au     8.293284    7.629195    6.656995
  Fe     6.298123    8.371264    8.070028

 Multiplicity           Mult            ....    3
 Number of Electrons    NEL             ....  216
 Basis Dimension        Dim             ....  445

ORBITAL ENERGIES
----------------
                 SPIN UP ORBITALS
  NO   OCC          E(Eh)            E(eV)
   0   1.0000    -258.315858     -7029.1319
   1   1.0000     -30.878339      -840.2423
   2   1.0000     -26.590194      -723.5560
   3   1.0000     -26.581965      -723.3321
   4   1.0000     -26.557123      -722.6561
   5   1.0000      -4.398131      -119.6792
   6   1.0000      -4.398130      -119.6792
   7   1.0000      -4.397925      -119.6736
   8   1.0000      -4.397924      -119.6736
   9   1.0000      -4.396847      -119.6443
  10   1.0000      -4.396846      -119.6443
  11   1.0000      -4.396637      -119.6386
  12   1.0000      -4.396635      -119.6385
  13   1.0000      -4.380827      -119.2084
  14   1.0000      -4.380825      -119.2083
  15   1.0000      -3.889456      -105.8375
  16   1.0000      -2.626059       -71.4587
  17   1.0000      -2.609676       -71.0129
  18   1.0000      -2.558215       -69.6126
  19   1.0000      -2.521932       -68.6253
  20   1.0000      -2.521528       -68.6143
  21   1.0000      -2.520299       -68.5808
  22   1.0000      -2.520092       -68.5752
  23   1.0000      -2.519700       -68.5645
  24   1.0000      -2.519400       -68.5564
  25   1.0000      -2.518393       -68.5289
  26   1.0000      -2.517880       -68.5150
  27   1.0000      -2.516895       -68.4882
  28   1.0000      -2.516759       -68.4845
  29   1.0000      -2.515437       -68.4485
  30   1.0000      -2.514914       -68.4343
  31   1.0000      -2.513250       -68.3890
  32   1.0000      -2.513166       -68.3867
  33   1.0000      -2.512676       -68.3734
  34   1.0000      -2.512260       -68.3621
  35   1.0000      -2.512072       -68.3570
  36   1.0000      -2.511974       -68.3543
  37   1.0000      -2.511491       -68.3411
  38   1.0000      -2.511336       -68.3369
  39   1.0000      -2.510833       -68.3232
  40   1.0000      -2.510482       -68.3137
  41   1.0000      -2.510407       -68.3116
  42   1.0000      -2.510091       -68.3031
  43   1.0000      -2.497929       -67.9721
  44   1.0000      -2.497878       -67.9707
  45   1.0000      -2.497352       -67.9564
  46   1.0000      -2.497291       -67.9547
  47   1.0000      -2.495107       -67.8953
  48   1.0000      -2.495069       -67.8943
  49   1.0000      -0.548221       -14.9178
  50   1.0000      -0.545081       -14.8324
  51   1.0000      -0.530026       -14.4227
  52   1.0000      -0.526107       -14.3161
  53   1.0000      -0.506473       -13.7818
  54   1.0000      -0.501483       -13.6461
  55   1.0000      -0.459452       -12.5023
  56   1.0000      -0.448061       -12.1924
  57   1.0000      -0.447118       -12.1667
  58   1.0000      -0.441035       -12.0012
  59   1.0000      -0.438168       -11.9232
  60   1.0000      -0.437411       -11.9025
  61   1.0000      -0.436213       -11.8700
  62   1.0000      -0.434329       -11.8187
  63   1.0000      -0.433321       -11.7913
  64   1.0000      -0.431774       -11.7492
  65   1.0000      -0.428333       -11.6555
  66   1.0000      -0.427236       -11.6257
  67   1.0000      -0.427078       -11.6214
  68   1.0000      -0.416298       -11.3280
  69   1.0000      -0.408186       -11.1073
  70   1.0000      -0.405311       -11.0291
  71   1.0000      -0.403695       -10.9851
  72   1.0000      -0.402601       -10.9553
  73   1.0000      -0.401894       -10.9361
  74   1.0000      -0.399471       -10.8702
  75   1.0000      -0.398893       -10.8544
  76   1.0000      -0.395152       -10.7526
  77   1.0000      -0.394708       -10.7405
  78   1.0000      -0.393938       -10.7196
  79   1.0000      -0.393774       -10.7151
  80   1.0000      -0.393625       -10.7111
  81   1.0000      -0.393513       -10.7080
  82   1.0000      -0.392000       -10.6669
  83   1.0000      -0.370534       -10.0827
  84   1.0000      -0.369856       -10.0643
  85   1.0000      -0.368787       -10.0352
  86   1.0000      -0.362803        -9.8724
  87   1.0000      -0.361503        -9.8370
  88   1.0000      -0.360589        -9.8121
  89   1.0000      -0.360372        -9.8062
  90   1.0000      -0.358667        -9.7598
  91   1.0000      -0.358667        -9.7598
  92   1.0000      -0.358399        -9.7525
  93   1.0000      -0.357870        -9.7381
  94   1.0000      -0.355141        -9.6639
  95   1.0000      -0.349394        -9.5075
  96   1.0000      -0.349272        -9.5042
  97   1.0000      -0.347848        -9.4654
  98   1.0000      -0.347829        -9.4649
  99   1.0000      -0.347634        -9.4596
 100   1.0000      -0.347053        -9.4438
 101   1.0000      -0.345923        -9.4130
 102   1.0000      -0.331426        -9.0186
 103   1.0000      -0.329916        -8.9775
 104   1.0000      -0.318955        -8.6792
 105   1.0000      -0.307887        -8.3780
 106   1.0000      -0.267481        -7.2785
 107   1.0000      -0.263586        -7.1725
 108   1.0000      -0.202690        -5.5155
 109   0.0000      -0.109658        -2.9840
 110   0.0000      -0.105157        -2.8615
 111   0.0000      -0.101234        -2.7547
 112   0.0000      -0.050595        -1.3768
 113   0.0000      -0.039430        -1.0729

                 SPIN DOWN ORBITALS
  NO   OCC          E(Eh)            E(eV)
   0   1.0000    -258.313807     -7029.0760
   1   1.0000     -30.788981      -837.8108
   2   1.0000     -26.498652      -721.0650
   3   1.0000     -26.496445      -721.0049
   4   1.0000     -26.489415      -720.8136
   5   1.0000      -4.398028      -119.6764
   6   1.0000      -4.398027      -119.6764
   7   1.0000      -4.397818      -119.6707
   8   1.0000      -4.397817      -119.6707
   9   1.0000      -4.396824      -119.6437
  10   1.0000      -4.396824      -119.6437
  11   1.0000      -4.396606      -119.6377
  12   1.0000      -4.396605      -119.6377
  13   1.0000      -4.381058      -119.2147
  14   1.0000      -4.381057      -119.2146
  15   1.0000      -3.653710       -99.4225
  16   1.0000      -2.520030       -68.5735
  17   1.0000      -2.519875       -68.5693
  18   1.0000      -2.518649       -68.5359
  19   1.0000      -2.518424       -68.5298
  20   1.0000      -2.517692       -68.5099
  21   1.0000      -2.517250       -68.4979
  22   1.0000      -2.516390       -68.4745
  23   1.0000      -2.516224       -68.4699
  24   1.0000      -2.515958       -68.4627
  25   1.0000      -2.515569       -68.4521
  26   1.0000      -2.514939       -68.4350
  27   1.0000      -2.514242       -68.4160
  28   1.0000      -2.513027       -68.3829
  29   1.0000      -2.512937       -68.3805
  30   1.0000      -2.512408       -68.3661
  31   1.0000      -2.512020       -68.3556
  32   1.0000      -2.511884       -68.3518
  33   1.0000      -2.511827       -68.3503
  34   1.0000      -2.511390       -68.3384
  35   1.0000      -2.511212       -68.3336
  36   1.0000      -2.510639       -68.3180
  37   1.0000      -2.510340       -68.3098
  38   1.0000      -2.510203       -68.3061
  39   1.0000      -2.509904       -68.2980
  40   1.0000      -2.497704       -67.9660
  41   1.0000      -2.497641       -67.9643
  42   1.0000      -2.496893       -67.9439
  43   1.0000      -2.496847       -67.9426
  44   1.0000      -2.496488       -67.9329
  45   1.0000      -2.496446       -67.9318
  46   1.0000      -2.335825       -63.5610
  47   1.0000      -2.326949       -63.3195
  48   1.0000      -2.322813       -63.2070
  49   1.0000      -0.501385       -13.6434
  50   1.0000      -0.477731       -12.9997
  51   1.0000      -0.461754       -12.5650
  52   1.0000      -0.447990       -12.1904
  53   1.0000      -0.447075       -12.1655
  54   1.0000      -0.444800       -12.1036
  55   1.0000      -0.443406       -12.0657
  56   1.0000      -0.442945       -12.0532
  57   1.0000      -0.441809       -12.0222
  58   1.0000      -0.440692       -11.9918
  59   1.0000      -0.436306       -11.8725
  60   1.0000      -0.436078       -11.8663
  61   1.0000      -0.435506       -11.8507
  62   1.0000      -0.434099       -11.8124
  63   1.0000      -0.433850       -11.8057
  64   1.0000      -0.428525       -11.6608
  65   1.0000      -0.426476       -11.6050
  66   1.0000      -0.408574       -11.1179
  67   1.0000      -0.405330       -11.0296
  68   1.0000      -0.404357       -11.0031
  69   1.0000      -0.403870       -10.9898
  70   1.0000      -0.403745       -10.9865
  71   1.0000      -0.403027       -10.9669
  72   1.0000      -0.402744       -10.9592
  73   1.0000      -0.398074       -10.8321
  74   1.0000      -0.397074       -10.8049
  75   1.0000      -0.396438       -10.7876
  76   1.0000      -0.393885       -10.7181
  77   1.0000      -0.393470       -10.7069
  78   1.0000      -0.392368       -10.6769
  79   1.0000      -0.391545       -10.6545
  80   1.0000      -0.381344       -10.3769
  81   1.0000      -0.367693       -10.0054
  82   1.0000      -0.365704        -9.9513
  83   1.0000      -0.364185        -9.9100
  84   1.0000      -0.362973        -9.8770
  85   1.0000      -0.360993        -9.8231
  86   1.0000      -0.360804        -9.8180
  87   1.0000      -0.359997        -9.7960
  88   1.0000      -0.359423        -9.7804
  89   1.0000      -0.356036        -9.6882
  90   1.0000      -0.351737        -9.5712
  91   1.0000      -0.350567        -9.5394
  92   1.0000      -0.350428        -9.5356
  93   1.0000      -0.350035        -9.5249
  94   1.0000      -0.349134        -9.5004
  95   1.0000      -0.348769        -9.4905
  96   1.0000      -0.347316        -9.4509
  97   1.0000      -0.337559        -9.1854
  98   1.0000      -0.334452        -9.1009
  99   1.0000      -0.332354        -9.0438
 100   1.0000      -0.321547        -8.7497
 101   1.0000      -0.314752        -8.5648
 102   1.0000      -0.291061        -7.9202
 103   1.0000      -0.280942        -7.6448
 104   1.0000      -0.224522        -6.1096
 105   1.0000      -0.206263        -5.6127
 106   1.0000      -0.200814        -5.4644
 107   0.0000      -0.120853        -3.2886
 108   0.0000      -0.054486        -1.4826
 109   0.0000      -0.048554        -1.3212
 110   0.0000      -0.041383        -1.1261
 111   0.0000      -0.034235        -0.9316

MULLIKEN ATOMIC CHARGES AND SPIN POPULATIONS
--------------------------------------------
   0 Au:    0.225198   -0.178326
   1 Au:    0.210463   -0.202473
   2 Au:    0.211076   -0.201857
   3 Au:    0.094795   -0.011917
   4 Au:    0.225735   -0.177911
   5 Au:    0.094783   -0.011915
   6 Au:    0.210451   -0.202435
   7 Au:    0.225760   -0.177938
   8 Au:    0.225185   -0.178276
   9 Au:    0.211110   -0.201876
  10 Fe:   -1.934554    3.544924
Sum of atomic charges         :   -0.0000000

LOEWDIN ATOMIC CHARGES AND SPIN POPULATIONS
-------------------------------------------
   0 Au:    0.062002   -0.142194
   1 Au:    0.056811   -0.153568
   2 Au:    0.056617   -0.153404
   3 Au:   -0.017475   -0.080584
   4 Au:    0.061964   -0.142256
   5 Au:   -0.017481   -0.080587
   6 Au:    0.056817   -0.153559
   7 Au:    0.061960   -0.142259
   8 Au:    0.062007   -0.142185
   9 Au:    0.056613   -0.153416
  10 Fe:   -0.439836    3.344011

  Mayer bond orders larger than 0.100000
B(  0-Au,  3-Au) :   0.1956 B(  0-Au,  4-Au) :   0.3078 B(  0-Au,  6-Au) :   0.1254
B(  0-Au, 10-Fe) :   0.5474 B(  1-Au,  2-Au) :   0.2845 B(  1-Au,  5-Au) :   0.1998
B(  1-Au,  8-Au) :   0.1254 B(  1-Au, 10-Fe) :   0.5570 B(  2-Au,  3-Au) :   0.1987
B(  2-Au,  7-Au) :   0.1265 B(  2-Au, 10-Fe) :   0.5565 B(  3-Au,  5-Au) :   0.2099
B(  3-Au,  6-Au) :   0.1998 B(  3-Au,  7-Au) :   0.1968 B(  3-Au, 10-Fe) :   0.2683
B(  4-Au,  5-Au) :   0.1968 B(  4-Au,  9-Au) :   0.1265 B(  4-Au, 10-Fe) :   0.5460
B(  5-Au,  8-Au) :   0.1956 B(  5-Au,  9-Au) :   0.1988 B(  5-Au, 10-Fe) :   0.2683
B(  6-Au,  9-Au) :   0.2845 B(  6-Au, 10-Fe) :   0.5570 B(  7-Au,  8-Au) :   0.3078
B(  7-Au, 10-Fe) :   0.5460 B(  8-Au, 10-Fe) :   0.5474 B(  9-Au, 10-Fe) :   0.5564

MP2 TOTAL ENERGY:    -2619.302884435 Eh
FINAL SINGLE POINT ENERGY     -2619.302884435045

DIPOLE MOMENT
-------------
                                X             Y             Z
Electronic contribution:      0.00023      -0.00043       0.00024
Nuclear contribution   :     -0.00021       0.00043      -0.00024
                        -----------------------------------------
Total Dipole Moment    :      0.00001       0.00000       0.00000
                        -----------------------------------------
Magnitude (a.u.)       :      0.00001
Magnitude (Debye)      :      0.00004

Rotational constants in cm-1:     0.002305     0.001582     0.001579
Rotational constants in MHz :    69.093878    47.412734    47.350976

                             ****ORCA TERMINATED NORMALLY****
TOTAL RUN TIME: 0 days 0 hours 10 minutes 25 seconds 488 msec
