                         Program Version 5.0.3 -  RELEASE  -
|  1> !R2SCAN def2-TZVP VERYSLOWCONV
|  2> !KDIIS
|  3> %scf
|  4>   AutoTRAHIter 200
|  5>   maxiter 400
|  6> end
|  7>
|  8> %pal nprocs 6 end
|  9>
| 10> *xyzfile 0 5 pbe.xyz
| 11>
| 12> $new_job
| 13>
| 14> !R2SCAN def2-TZVP VERYSLOWCONV
| 15> !KDIIS
| 16> %scf
| 17>   AutoTRAHIter 200
| 18>   maxiter 400
| 19> end
| 20>
| 21>
| 22> %pal nprocs 6 end
| 23>
| 24> *xyzfile 0 3 pbe.xyz
| 25>
| 26>
| 27>
| 28>
| 29>
| 30>                          ****END OF INPUT****
 Total Charge           Charge          ....    0
 Multiplicity           Mult            ....    5
 Number of Electrons    NEL             ....  216
FINAL SINGLE POINT ENERGY     -2622.080097765338

CARTESIAN COORDINATES (ANGSTROEM)
---------------------------------
  Au     7.057391   10.411522    9.407118
  Au     5.472471    6.644333    9.761892
  Au     4.303109    9.113351    9.483203
  Au     4.932866   11.248723    7.741193
  Au     8.233911    7.945797    9.682002
  Au     7.663364    5.493806    8.398872
  Au     7.123689   10.098089    6.378071
  Au     4.362246    8.796688    6.458187
  Au     5.538959    6.331027    6.732806
  Au     8.293284    7.629195    6.656995
  Fe     6.298123    8.371264    8.070028

 Multiplicity           Mult            ....    3
 Number of Electrons    NEL             ....  216
 Basis Dimension        Dim             ....  445

ORBITAL ENERGIES
----------------
                 SPIN UP ORBITALS
  NO   OCC          E(Eh)            E(eV)
   0   1.0000    -255.618685     -6955.7380
   1   1.0000     -29.916434      -814.0676
   2   1.0000     -25.759123      -700.9414
   3   1.0000     -25.748417      -700.6500
   4   1.0000     -25.736151      -700.3163
   5   1.0000      -4.111385      -111.8765
   6   1.0000      -4.111362      -111.8758
   7   1.0000      -4.111331      -111.8750
   8   1.0000      -4.111308      -111.8744
   9   1.0000      -4.111196      -111.8713
  10   1.0000      -4.111183      -111.8710
  11   1.0000      -4.111107      -111.8689
  12   1.0000      -4.111093      -111.8685
  13   1.0000      -4.106397      -111.7407
  14   1.0000      -4.106364      -111.7398
  15   1.0000      -3.489057       -94.9421
  16   1.0000      -2.303138       -62.6716
  17   1.0000      -2.303066       -62.6696
  18   1.0000      -2.303040       -62.6689
  19   1.0000      -2.302452       -62.6529
  20   1.0000      -2.302247       -62.6473
  21   1.0000      -2.300942       -62.6118
  22   1.0000      -2.300851       -62.6094
  23   1.0000      -2.300312       -62.5947
  24   1.0000      -2.299952       -62.5849
  25   1.0000      -2.299450       -62.5712
  26   1.0000      -2.299389       -62.5695
  27   1.0000      -2.298583       -62.5476
  28   1.0000      -2.297251       -62.5114
  29   1.0000      -2.297025       -62.5052
  30   1.0000      -2.296909       -62.5021
  31   1.0000      -2.296336       -62.4865
  32   1.0000      -2.293061       -62.3974
  33   1.0000      -2.292691       -62.3873
  34   1.0000      -2.292480       -62.3816
  35   1.0000      -2.292393       -62.3792
  36   1.0000      -2.292254       -62.3754
  37   1.0000      -2.292174       -62.3732
  38   1.0000      -2.292012       -62.3688
  39   1.0000      -2.291879       -62.3652
  40   1.0000      -2.291775       -62.3624
  41   1.0000      -2.291698       -62.3603
  42   1.0000      -2.291541       -62.3560
  43   1.0000      -2.291425       -62.3528
  44   1.0000      -2.289314       -62.2954
  45   1.0000      -2.289233       -62.2932
  46   1.0000      -2.277562       -61.9756
  47   1.0000      -2.254033       -61.3354
  48   1.0000      -2.230147       -60.6854
  49   1.0000      -0.421801       -11.4778
  50   1.0000      -0.381804       -10.3894
  51   1.0000      -0.378521       -10.3001
  52   1.0000      -0.365280        -9.9398
  53   1.0000      -0.364197        -9.9103
  54   1.0000      -0.362372        -9.8606
  55   1.0000      -0.356495        -9.7007
  56   1.0000      -0.356193        -9.6925
  57   1.0000      -0.354902        -9.6574
  58   1.0000      -0.353508        -9.6194
  59   1.0000      -0.346527        -9.4295
  60   1.0000      -0.346370        -9.4252
  61   1.0000      -0.341359        -9.2888
  62   1.0000      -0.334691        -9.1074
  63   1.0000      -0.334558        -9.1038
  64   1.0000      -0.332209        -9.0399
  65   1.0000      -0.330127        -8.9832
  66   1.0000      -0.328974        -8.9518
  67   1.0000      -0.327580        -8.9139
  68   1.0000      -0.320632        -8.7248
  69   1.0000      -0.313982        -8.5439
  70   1.0000      -0.313843        -8.5401
  71   1.0000      -0.305446        -8.3116
  72   1.0000      -0.304237        -8.2787
  73   1.0000      -0.299557        -8.1514
  74   1.0000      -0.298695        -8.1279
  75   1.0000      -0.298121        -8.1123
  76   1.0000      -0.297349        -8.0913
  77   1.0000      -0.295625        -8.0444
  78   1.0000      -0.295357        -8.0371
  79   1.0000      -0.294609        -8.0167
  80   1.0000      -0.294145        -8.0041
  81   1.0000      -0.281839        -7.6692
  82   1.0000      -0.281071        -7.6483
  83   1.0000      -0.276858        -7.5337
  84   1.0000      -0.275323        -7.4919
  85   1.0000      -0.273984        -7.4555
  86   1.0000      -0.271165        -7.3788
  87   1.0000      -0.270740        -7.3672
  88   1.0000      -0.264876        -7.2076
  89   1.0000      -0.264485        -7.1970
  90   1.0000      -0.264328        -7.1927
  91   1.0000      -0.263766        -7.1774
  92   1.0000      -0.263419        -7.1680
  93   1.0000      -0.261778        -7.1233
  94   1.0000      -0.261032        -7.1031
  95   1.0000      -0.259991        -7.0747
  96   1.0000      -0.259631        -7.0649
  97   1.0000      -0.256060        -6.9678
  98   1.0000      -0.254864        -6.9352
  99   1.0000      -0.253285        -6.8922
 100   1.0000      -0.247870        -6.7449
 101   1.0000      -0.239077        -6.5056
 102   1.0000      -0.238861        -6.4997
 103   1.0000      -0.237557        -6.4643
 104   1.0000      -0.236484        -6.4351
 105   1.0000      -0.234377        -6.3777
 106   1.0000      -0.233483        -6.3534
 107   1.0000      -0.231228        -6.2920
 108   1.0000      -0.191818        -5.2196
 109   0.0000      -0.167274        -4.5518
 110   0.0000      -0.165063        -4.4916
 111   0.0000      -0.162939        -4.4338
 112   0.0000      -0.106380        -2.8948
 113   0.0000      -0.101513        -2.7623

                 SPIN DOWN ORBITALS
  NO   OCC          E(Eh)            E(eV)
   0   1.0000    -255.617749     -6955.7126
   1   1.0000     -29.848020      -812.2059
   2   1.0000     -25.699551      -699.3203
   3   1.0000     -25.696622      -699.2406
   4   1.0000     -25.690911      -699.0852
   5   1.0000      -4.111061      -111.8677
   6   1.0000      -4.111036      -111.8670
   7   1.0000      -4.111010      -111.8663
   8   1.0000      -4.110986      -111.8656
   9   1.0000      -4.110869      -111.8624
  10   1.0000      -4.110855      -111.8621
  11   1.0000      -4.110781      -111.8600
  12   1.0000      -4.110767      -111.8597
  13   1.0000      -4.106221      -111.7359
  14   1.0000      -4.106187      -111.7350
  15   1.0000      -3.337220       -90.8104
  16   1.0000      -2.301824       -62.6358
  17   1.0000      -2.301713       -62.6328
  18   1.0000      -2.301645       -62.6309
  19   1.0000      -2.301342       -62.6227
  20   1.0000      -2.300197       -62.5915
  21   1.0000      -2.299488       -62.5723
  22   1.0000      -2.299458       -62.5714
  23   1.0000      -2.299397       -62.5698
  24   1.0000      -2.298857       -62.5551
  25   1.0000      -2.298807       -62.5537
  26   1.0000      -2.298754       -62.5523
  27   1.0000      -2.297883       -62.5286
  28   1.0000      -2.296820       -62.4997
  29   1.0000      -2.296604       -62.4938
  30   1.0000      -2.296524       -62.4916
  31   1.0000      -2.295935       -62.4756
  32   1.0000      -2.293109       -62.3987
  33   1.0000      -2.292743       -62.3887
  34   1.0000      -2.292447       -62.3807
  35   1.0000      -2.292396       -62.3793
  36   1.0000      -2.292093       -62.3710
  37   1.0000      -2.292047       -62.3698
  38   1.0000      -2.291814       -62.3634
  39   1.0000      -2.291471       -62.3541
  40   1.0000      -2.291442       -62.3533
  41   1.0000      -2.291348       -62.3508
  42   1.0000      -2.291287       -62.3491
  43   1.0000      -2.291198       -62.3467
  44   1.0000      -2.289920       -62.3119
  45   1.0000      -2.289822       -62.3092
  46   1.0000      -2.109607       -57.4053
  47   1.0000      -2.107994       -57.3614
  48   1.0000      -2.098183       -57.0945
  49   1.0000      -0.418205       -11.3799
  50   1.0000      -0.378461       -10.2985
  51   1.0000      -0.368118       -10.0170
  52   1.0000      -0.357912        -9.7393
  53   1.0000      -0.357634        -9.7317
  54   1.0000      -0.354693        -9.6517
  55   1.0000      -0.350947        -9.5497
  56   1.0000      -0.347824        -9.4648
  57   1.0000      -0.346986        -9.4420
  58   1.0000      -0.346883        -9.4392
  59   1.0000      -0.346698        -9.4341
  60   1.0000      -0.345729        -9.4078
  61   1.0000      -0.335600        -9.1321
  62   1.0000      -0.335075        -9.1178
  63   1.0000      -0.333518        -9.0755
  64   1.0000      -0.331179        -9.0118
  65   1.0000      -0.328929        -8.9506
  66   1.0000      -0.320351        -8.7172
  67   1.0000      -0.317466        -8.6387
  68   1.0000      -0.316510        -8.6127
  69   1.0000      -0.314166        -8.5489
  70   1.0000      -0.314155        -8.5486
  71   1.0000      -0.306140        -8.3305
  72   1.0000      -0.305591        -8.3155
  73   1.0000      -0.302427        -8.2295
  74   1.0000      -0.300216        -8.1693
  75   1.0000      -0.299955        -8.1622
  76   1.0000      -0.298558        -8.1242
  77   1.0000      -0.296152        -8.0587
  78   1.0000      -0.295692        -8.0462
  79   1.0000      -0.295557        -8.0425
  80   1.0000      -0.289532        -7.8786
  81   1.0000      -0.281670        -7.6646
  82   1.0000      -0.277036        -7.5385
  83   1.0000      -0.275836        -7.5059
  84   1.0000      -0.274205        -7.4615
  85   1.0000      -0.271548        -7.3892
  86   1.0000      -0.270854        -7.3703
  87   1.0000      -0.267287        -7.2733
  88   1.0000      -0.266098        -7.2409
  89   1.0000      -0.264921        -7.2089
  90   1.0000      -0.264857        -7.2071
  91   1.0000      -0.263956        -7.1826
  92   1.0000      -0.263383        -7.1670
  93   1.0000      -0.261316        -7.1108
  94   1.0000      -0.260800        -7.0967
  95   1.0000      -0.260653        -7.0927
  96   1.0000      -0.257460        -7.0058
  97   1.0000      -0.252596        -6.8735
  98   1.0000      -0.251921        -6.8551
  99   1.0000      -0.247799        -6.7429
 100   1.0000      -0.238868        -6.4999
 101   1.0000      -0.237918        -6.4741
 102   1.0000      -0.236946        -6.4476
 103   1.0000      -0.198284        -5.3956
 104   1.0000      -0.197484        -5.3738
 105   1.0000      -0.190949        -5.1960
 106   1.0000      -0.173773        -4.7286
 107   0.0000      -0.182995        -4.9796
 108   0.0000      -0.140646        -3.8272
 109   0.0000      -0.140197        -3.8149
 110   0.0000      -0.114930        -3.1274
 111   0.0000      -0.110277        -3.0008

MULLIKEN ATOMIC CHARGES AND SPIN POPULATIONS
--------------------------------------------
   0 Au:    0.227020   -0.118969
   1 Au:    0.226030   -0.120074
   2 Au:    0.227154   -0.119297
   3 Au:    0.139234    0.062791
   4 Au:    0.227365   -0.118228
   5 Au:    0.139217    0.062793
   6 Au:    0.226015   -0.120065
   7 Au:    0.227371   -0.118221
   8 Au:    0.227024   -0.118967
   9 Au:    0.227169   -0.119309
  10 Fe:   -2.093597    2.827546
Sum of atomic charges         :   -0.0000000

LOEWDIN ATOMIC CHARGES AND SPIN POPULATIONS
-------------------------------------------
   0 Au:    0.085669   -0.091374
   1 Au:    0.085735   -0.091801
   2 Au:    0.085447   -0.091711
   3 Au:    0.000774    0.001510
   4 Au:    0.085877   -0.091007
   5 Au:    0.000796    0.001508
   6 Au:    0.085728   -0.091797
   7 Au:    0.085863   -0.091006
   8 Au:    0.085684   -0.091372
   9 Au:    0.085457   -0.091718
  10 Fe:   -0.687030    2.728768

  Mayer bond orders larger than 0.100000
B(  0-Au,  3-Au) :   0.1997 B(  0-Au,  4-Au) :   0.3480 B(  0-Au,  6-Au) :   0.1130
B(  0-Au, 10-Fe) :   0.6167 B(  1-Au,  2-Au) :   0.3466 B(  1-Au,  5-Au) :   0.2009
B(  1-Au,  8-Au) :   0.1130 B(  1-Au, 10-Fe) :   0.6176 B(  2-Au,  3-Au) :   0.1996
B(  2-Au,  7-Au) :   0.1144 B(  2-Au, 10-Fe) :   0.6169 B(  3-Au,  5-Au) :   0.2090
B(  3-Au,  6-Au) :   0.2009 B(  3-Au,  7-Au) :   0.2005 B(  3-Au, 10-Fe) :   0.2919
B(  4-Au,  5-Au) :   0.2005 B(  4-Au,  9-Au) :   0.1144 B(  4-Au, 10-Fe) :   0.6161
B(  5-Au,  8-Au) :   0.1997 B(  5-Au,  9-Au) :   0.1996 B(  5-Au, 10-Fe) :   0.2919
B(  6-Au,  9-Au) :   0.3466 B(  6-Au, 10-Fe) :   0.6176 B(  7-Au,  8-Au) :   0.3480
B(  7-Au, 10-Fe) :   0.6161 B(  8-Au, 10-Fe) :   0.6167 B(  9-Au, 10-Fe) :   0.6169

FINAL SINGLE POINT ENERGY     -2622.098209366390

DIPOLE MOMENT
-------------
                                X             Y             Z
Electronic contribution:      0.00039      -0.00078       0.00028
Nuclear contribution   :     -0.00021       0.00043      -0.00024
                        -----------------------------------------
Total Dipole Moment    :      0.00018      -0.00035       0.00004
                        -----------------------------------------
Magnitude (a.u.)       :      0.00040
Magnitude (Debye)      :      0.00101

Rotational constants in cm-1:     0.002305     0.001582     0.001579
Rotational constants in MHz :    69.093878    47.412734    47.350976

                             ****ORCA TERMINATED NORMALLY****
TOTAL RUN TIME: 0 days 0 hours 3 minutes 25 seconds 919 msec
