                         Program Version 5.0.3 -  RELEASE  -
|  1> !CASSCF def2-TZVP def2-TZVP/C
|  2> !MOREAD RIJCOSX
|  3> %maxcore 6000
|  4> %moinp "pbe.qro"
|  5> %pal nprocs 2 end
|  6>
|  7> %casscf
|  8>  mult 5,3
|  9>  bweight 1,1
| 10>  nroots 5,45
| 11>  nel 6
| 12>  norb 5
| 13> end
| 14>
| 15>
| 16> *xyzfile 0 5 pbe.xyz
| 17>
| 18>
| 19>                          ****END OF INPUT****

CARTESIAN COORDINATES (ANGSTROEM)
---------------------------------
  Au     5.697073    7.389463    6.449546
  Au     5.422189    9.302488    8.463576
  Au     8.050630   10.240546    8.550103
  Au     7.825668    5.592484    6.392399
  Au     7.379487    7.435189    8.809886
  Au     9.505017    5.792541    8.641380
  Au    10.236171    8.509547    8.566879
  Au     9.441710   10.683490    6.182232
  Au    11.741726    9.107410    6.297997
  Au     6.752294   10.013767    5.995450
  Au     9.927090    8.739097    4.202428
  Au     7.220118    7.949812    4.187457
  Au     9.245886    6.034198    4.032037
  Au    10.789760    6.497782    6.292237
  Cr     8.642764    8.116631    6.479821

 Total Charge           Charge          ....    0
 Multiplicity           Mult            ....    5
 Number of Electrons    NEL             ....  290
 Basis Dimension        Dim             ....  605

ORBITAL ENERGIES
----------------

  NO   OCC          E(Eh)            E(eV)
   0   2.0000    -220.605352     -6002.9768
   1   2.0000     -26.457749      -719.9520
   2   2.0000     -22.391266      -609.2973
   3   2.0000     -22.384778      -609.1208
   4   2.0000     -22.382473      -609.0581
   5   2.0000      -4.724031      -128.5474
   6   2.0000      -4.723633      -128.5366
   7   2.0000      -4.720854      -128.4610
   8   2.0000      -4.718869      -128.4070
   9   2.0000      -4.717896      -128.3805
  10   2.0000      -4.717888      -128.3803
  11   2.0000      -4.710651      -128.1833
  12   2.0000      -4.707554      -128.0991
  13   2.0000      -4.704612      -128.0190
  14   2.0000      -4.704423      -128.0139
  15   2.0000      -4.703834      -127.9978
  16   2.0000      -4.703808      -127.9971
  17   2.0000      -4.703795      -127.9968
  18   2.0000      -4.697794      -127.8335
  19   2.0000      -3.499858       -95.2360
  20   2.0000      -2.763242       -75.1916
  21   2.0000      -2.762279       -75.1654
  22   2.0000      -2.761382       -75.1410
  23   2.0000      -2.761068       -75.1325
  24   2.0000      -2.759863       -75.0997
  25   2.0000      -2.758367       -75.0590
  26   2.0000      -2.757925       -75.0470
  27   2.0000      -2.757118       -75.0250
  28   2.0000      -2.756574       -75.0102
  29   2.0000      -2.756555       -75.0097
  30   2.0000      -2.755807       -74.9893
  31   2.0000      -2.755690       -74.9861
  32   2.0000      -2.754264       -74.9473
  33   2.0000      -2.754075       -74.9422
  34   2.0000      -2.753864       -74.9365
  35   2.0000      -2.753771       -74.9339
  36   2.0000      -2.751567       -74.8739
  37   2.0000      -2.751511       -74.8724
  38   2.0000      -2.747986       -74.7765
  39   2.0000      -2.747248       -74.7564
  40   2.0000      -2.746601       -74.7388
  41   2.0000      -2.743687       -74.6595
  42   2.0000      -2.742160       -74.6180
  43   2.0000      -2.741893       -74.6107
  44   2.0000      -2.741486       -74.5996
  45   2.0000      -2.741296       -74.5945
  46   2.0000      -2.741018       -74.5869
  47   2.0000      -2.740542       -74.5739
  48   2.0000      -2.740306       -74.5675
  49   2.0000      -2.739989       -74.5589
  50   2.0000      -2.739922       -74.5571
  51   2.0000      -2.739722       -74.5516
  52   2.0000      -2.739179       -74.5369
  53   2.0000      -2.738754       -74.5253
  54   2.0000      -2.738542       -74.5195
  55   2.0000      -2.737905       -74.5022
  56   2.0000      -2.737520       -74.4917
  57   2.0000      -2.736927       -74.4756
  58   2.0000      -2.736577       -74.4661
  59   2.0000      -2.734075       -74.3980
  60   2.0000      -2.732191       -74.3467
  61   2.0000      -2.732076       -74.3436
  62   2.0000      -2.259208       -61.4762
  63   2.0000      -2.253980       -61.3339
  64   2.0000      -2.251893       -61.2771
  65   2.0000      -0.570362       -15.5203
  66   2.0000      -0.556639       -15.1469
  67   2.0000      -0.555720       -15.1219
  68   2.0000      -0.553054       -15.0494
  69   2.0000      -0.548949       -14.9377
  70   2.0000      -0.542571       -14.7641
  71   2.0000      -0.542353       -14.7582
  72   2.0000      -0.541188       -14.7265
  73   2.0000      -0.540795       -14.7158
  74   2.0000      -0.539508       -14.6808
  75   2.0000      -0.536990       -14.6123
  76   2.0000      -0.535819       -14.5804
  77   2.0000      -0.534073       -14.5329
  78   2.0000      -0.530683       -14.4406
  79   2.0000      -0.530215       -14.4279
  80   2.0000      -0.529867       -14.4184
  81   2.0000      -0.528813       -14.3897
  82   2.0000      -0.525677       -14.3044
  83   2.0000      -0.524649       -14.2764
  84   2.0000      -0.523116       -14.2347
  85   2.0000      -0.520464       -14.1626
  86   2.0000      -0.517641       -14.0857
  87   2.0000      -0.517146       -14.0722
  88   2.0000      -0.516006       -14.0412
  89   2.0000      -0.509670       -13.8688
  90   2.0000      -0.508626       -13.8404
  91   2.0000      -0.505507       -13.7555
  92   2.0000      -0.502658       -13.6780
  93   2.0000      -0.500908       -13.6304
  94   2.0000      -0.498632       -13.5685
  95   2.0000      -0.495161       -13.4740
  96   2.0000      -0.493934       -13.4406
  97   2.0000      -0.485924       -13.2227
  98   2.0000      -0.484690       -13.1891
  99   2.0000      -0.481439       -13.1006
 100   2.0000      -0.477047       -12.9811
 101   2.0000      -0.474373       -12.9083
 102   2.0000      -0.466887       -12.7046
 103   2.0000      -0.462528       -12.5860
 104   2.0000      -0.459811       -12.5121
 105   2.0000      -0.458671       -12.4811
 106   2.0000      -0.456691       -12.4272
 107   2.0000      -0.455132       -12.3848
 108   2.0000      -0.454109       -12.3569
 109   2.0000      -0.453001       -12.3268
 110   2.0000      -0.450192       -12.2504
 111   2.0000      -0.448914       -12.2156
 112   2.0000      -0.448256       -12.1977
 113   2.0000      -0.446421       -12.1477
 114   2.0000      -0.444703       -12.1010
 115   2.0000      -0.443747       -12.0750
 116   2.0000      -0.442035       -12.0284
 117   2.0000      -0.441154       -12.0044
 118   2.0000      -0.437038       -11.8924
 119   2.0000      -0.436690       -11.8830
 120   2.0000      -0.435729       -11.8568
 121   2.0000      -0.432304       -11.7636
 122   2.0000      -0.431693       -11.7470
 123   2.0000      -0.428648       -11.6641
 124   2.0000      -0.428440       -11.6584
 125   2.0000      -0.426039       -11.5931
 126   2.0000      -0.423724       -11.5301
 127   2.0000      -0.421158       -11.4603
 128   2.0000      -0.419898       -11.4260
 129   2.0000      -0.419232       -11.4079
 130   2.0000      -0.414340       -11.2748
 131   2.0000      -0.413905       -11.2629
 132   2.0000      -0.406828       -11.0704
 133   2.0000      -0.406723       -11.0675
 134   2.0000      -0.400474       -10.8975
 135   2.0000      -0.386951       -10.5295
 136   2.0000      -0.369421       -10.0525
 137   2.0000      -0.347056        -9.4439
 138   2.0000      -0.343778        -9.3547
 139   2.0000      -0.244649        -6.6572
 140   2.0000      -0.241771        -6.5789
 141   2.0000      -0.221131        -6.0173
 142   1.2000      -0.163828        -4.4580
 143   1.2000      -0.176249        -4.7960
 144   1.2000      -0.173656        -4.7254
 145   1.2000      -0.178141        -4.8475
 146   1.2000      -0.152292        -4.1441
 147   0.0000      -0.021096        -0.5740
 148   0.0000       0.004284         0.1166
 149   0.0000       0.008416         0.2290
 150   0.0000       0.021769         0.5924
 151   0.0000       0.026772         0.7285

MULLIKEN ATOMIC CHARGES AND SPIN DENSITIES
------------------------------------------
   0 Au:    0.436050    0.023528
   1 Au:    0.370571    0.014049
   2 Au:    0.445170    0.022200
   3 Au:    0.587115    0.025475
   4 Au:    0.205076    0.027148
   5 Au:    0.505898    0.043236
   6 Au:    0.582250    0.024091
   7 Au:    0.561215    0.022870
   8 Au:    0.503343    0.030834
   9 Au:    0.468783    0.015588
  10 Au:    0.452326    0.042839
  11 Au:    0.569571    0.023668
  12 Au:    0.504725    0.028702
  13 Au:    0.526314    0.018999
  14 Cr:   -6.718408    2.636774
Sum of atomic charges       :    0.0000000

LOEWDIN ATOMIC CHARGES AND SPIN DENSITIES
-----------------------------------------
   0 Au:    0.066847    0.048526
   1 Au:    0.131661    0.020329
   2 Au:    0.064058    0.045016
   3 Au:    0.090021    0.070884
   4 Au:    0.027275    0.058956
   5 Au:    0.164255    0.071585
   6 Au:    0.086525    0.070216
   7 Au:    0.113749    0.070549
   8 Au:    0.151728    0.056962
   9 Au:    0.038952    0.051811
  10 Au:    0.098976    0.079148
  11 Au:    0.113713    0.071724
  12 Au:    0.151032    0.053240
  13 Au:    0.033197    0.051350
  14 Cr:   -1.331989    2.179704

  Mayer bond orders larger than 0.100000
B(  0-Au,  1-Au) :   0.1587 B(  0-Au,  3-Au) :   0.1605 B(  0-Au,  4-Au) :   0.1479
B(  0-Au,  9-Au) :   0.1137 B(  0-Au, 11-Au) :   0.1097 B(  0-Au, 14-Cr) :   0.4530
B(  1-Au,  2-Au) :   0.1549 B(  1-Au,  4-Au) :   0.2853 B(  1-Au, 14-Cr) :   0.5188
B(  2-Au,  4-Au) :   0.1455 B(  2-Au,  6-Au) :   0.1624 B(  2-Au,  7-Au) :   0.1103
B(  2-Au,  9-Au) :   0.1145 B(  2-Au, 14-Cr) :   0.4441 B(  3-Au,  7-Au) :   0.1857
B(  3-Au, 12-Au) :   0.1286 B(  3-Au, 14-Cr) :   0.2830 B(  4-Au,  5-Au) :   0.1957
B(  4-Au, 10-Au) :   0.1247 B(  4-Au, 14-Cr) :   0.4648 B(  5-Au, 14-Cr) :   0.5432
B(  6-Au,  8-Au) :   0.1299 B(  6-Au, 11-Au) :   0.1926 B(  6-Au, 14-Cr) :   0.2829
B(  7-Au,  8-Au) :   0.1495 B(  7-Au,  9-Au) :   0.1638 B(  7-Au, 10-Au) :   0.1328
B(  7-Au, 14-Cr) :   0.3114 B(  8-Au, 10-Au) :   0.1603 B(  8-Au, 13-Au) :   0.1514
B(  8-Au, 14-Cr) :   0.4249 B(  9-Au, 11-Au) :   0.1585 B(  9-Au, 13-Au) :   0.2183
B(  9-Au, 14-Cr) :   0.3578 B( 10-Au, 11-Au) :   0.1306 B( 10-Au, 12-Au) :   0.1599
B( 10-Au, 13-Au) :   0.1289 B( 10-Au, 14-Cr) :   0.3229 B( 11-Au, 12-Au) :   0.1502
B( 11-Au, 14-Cr) :   0.3010 B( 12-Au, 13-Au) :   0.1511 B( 12-Au, 14-Cr) :   0.4255
B( 13-Au, 14-Cr) :   0.2100

FINAL SINGLE POINT ENERGY     -2930.470606979597

DIPOLE MOMENT
-------------
                                X             Y             Z
Electronic contribution:     -4.20663      -1.03623       5.82048
Nuclear contribution   :      4.43620       0.86775      -5.90057
                        -----------------------------------------
Total Dipole Moment    :      0.22957      -0.16848      -0.08009
                        -----------------------------------------
Magnitude (a.u.)       :      0.29581
Magnitude (Debye)      :      0.75189

Rotational constants in cm-1:     0.001200     0.000989     0.000956
Rotational constants in MHz :    35.960629    29.653927    28.668786

                             ****ORCA TERMINATED NORMALLY****
TOTAL RUN TIME: 0 days 1 hours 10 minutes 38 seconds 243 msec
