                         Program Version 5.0.3 -  RELEASE  -
|  1> !CASSCF def2-TZVP def2-TZVP/C
|  2> !MOREAD RIJCOSX
|  3> %maxcore 6000
|  4> %moinp "pbe.qro"
|  5> %pal nprocs 2 end
|  6>
|  7> %casscf
|  8>  mult 5,3
|  9>  bweight 1,1
| 10>  nroots 5,45
| 11>  nel 6
| 12>  norb 5
| 13> end
| 14>
| 15>
| 16> *xyzfile 0 5 pbe.xyz
| 17>
| 18>
| 19>                          ****END OF INPUT****

CARTESIAN COORDINATES (ANGSTROEM)
---------------------------------
  Au    11.072205    7.117073   10.352978
  Au     8.272656    6.824324   10.943885
  Au     9.282898    9.353866   10.244418
  Au    11.385967    8.905765    8.128203
  Au    11.516843    6.139168    7.684687
  Au     7.951298    3.218784    8.089383
  Au     8.795914    9.772281    7.526035
  Au     9.099926    5.180438    6.578688
  Au     9.809579    7.703871    5.939516
  Au     9.713223    4.793688    9.486342
  Au     6.845171    8.341793    8.926837
  Au     6.914928    5.650022    8.767788
  Fe     9.182764    7.235901    8.448611

 Total Charge           Charge          ....    0
 Multiplicity           Mult            ....    5
 Number of Electrons    NEL             ....  254
 Basis Dimension        Dim             ....  525

ORBITAL ENERGIES
----------------

  NO   OCC          E(Eh)            E(eV)
   0   2.0000    -261.279391     -7109.7737
   1   2.0000     -31.827547      -866.0716
   2   2.0000     -27.315965      -743.3052
   3   2.0000     -27.305320      -743.0155
   4   2.0000     -27.304819      -743.0019
   5   2.0000      -4.723457      -128.5318
   6   2.0000      -4.723377      -128.5296
   7   2.0000      -4.723260      -128.5264
   8   2.0000      -4.717599      -128.3724
   9   2.0000      -4.717573      -128.3717
  10   2.0000      -4.716640      -128.3463
  11   2.0000      -4.708577      -128.1269
  12   2.0000      -4.704294      -128.0104
  13   2.0000      -4.704014      -128.0027
  14   2.0000      -4.701585      -127.9366
  15   2.0000      -4.701133      -127.9243
  16   2.0000      -4.700470      -127.9063
  17   2.0000      -4.059074      -110.4530
  18   2.0000      -2.764301       -75.2205
  19   2.0000      -2.763867       -75.2086
  20   2.0000      -2.762532       -75.1723
  21   2.0000      -2.761954       -75.1566
  22   2.0000      -2.760499       -75.1170
  23   2.0000      -2.760349       -75.1129
  24   2.0000      -2.759625       -75.0932
  25   2.0000      -2.759135       -75.0799
  26   2.0000      -2.757733       -75.0417
  27   2.0000      -2.757027       -75.0225
  28   2.0000      -2.756878       -75.0185
  29   2.0000      -2.754989       -74.9671
  30   2.0000      -2.754763       -74.9609
  31   2.0000      -2.753666       -74.9311
  32   2.0000      -2.752534       -74.9003
  33   2.0000      -2.752416       -74.8970
  34   2.0000      -2.752369       -74.8958
  35   2.0000      -2.751045       -74.8598
  36   2.0000      -2.745914       -74.7201
  37   2.0000      -2.743938       -74.6663
  38   2.0000      -2.743020       -74.6414
  39   2.0000      -2.742506       -74.6274
  40   2.0000      -2.741077       -74.5885
  41   2.0000      -2.739758       -74.5526
  42   2.0000      -2.738854       -74.5280
  43   2.0000      -2.738132       -74.5084
  44   2.0000      -2.737589       -74.4936
  45   2.0000      -2.737275       -74.4850
  46   2.0000      -2.736384       -74.4608
  47   2.0000      -2.736084       -74.4526
  48   2.0000      -2.735878       -74.4470
  49   2.0000      -2.735489       -74.4364
  50   2.0000      -2.735415       -74.4344
  51   2.0000      -2.734070       -74.3978
  52   2.0000      -2.733615       -74.3854
  53   2.0000      -2.733084       -74.3710
  54   2.0000      -2.647973       -72.0550
  55   2.0000      -2.641402       -71.8762
  56   2.0000      -2.641115       -71.8684
  57   2.0000      -0.574647       -15.6369
  58   2.0000      -0.558641       -15.2014
  59   2.0000      -0.553437       -15.0598
  60   2.0000      -0.551241       -15.0000
  61   2.0000      -0.548115       -14.9150
  62   2.0000      -0.546361       -14.8672
  63   2.0000      -0.543799       -14.7975
  64   2.0000      -0.540641       -14.7116
  65   2.0000      -0.539047       -14.6682
  66   2.0000      -0.537971       -14.6389
  67   2.0000      -0.536912       -14.6101
  68   2.0000      -0.534991       -14.5579
  69   2.0000      -0.532349       -14.4860
  70   2.0000      -0.530732       -14.4420
  71   2.0000      -0.525361       -14.2958
  72   2.0000      -0.523960       -14.2577
  73   2.0000      -0.522372       -14.2145
  74   2.0000      -0.519658       -14.1406
  75   2.0000      -0.518227       -14.1017
  76   2.0000      -0.514384       -13.9971
  77   2.0000      -0.508256       -13.8303
  78   2.0000      -0.508012       -13.8237
  79   2.0000      -0.504426       -13.7261
  80   2.0000      -0.500296       -13.6137
  81   2.0000      -0.497225       -13.5302
  82   2.0000      -0.495301       -13.4778
  83   2.0000      -0.492112       -13.3911
  84   2.0000      -0.486432       -13.2365
  85   2.0000      -0.483388       -13.1537
  86   2.0000      -0.479505       -13.0480
  87   2.0000      -0.478204       -13.0126
  88   2.0000      -0.473736       -12.8910
  89   2.0000      -0.470065       -12.7911
  90   2.0000      -0.468586       -12.7509
  91   2.0000      -0.464669       -12.6443
  92   2.0000      -0.463017       -12.5993
  93   2.0000      -0.456962       -12.4346
  94   2.0000      -0.456503       -12.4221
  95   2.0000      -0.454398       -12.3648
  96   2.0000      -0.451545       -12.2872
  97   2.0000      -0.450242       -12.2517
  98   2.0000      -0.446359       -12.1460
  99   2.0000      -0.446144       -12.1402
 100   2.0000      -0.443088       -12.0570
 101   2.0000      -0.442211       -12.0332
 102   2.0000      -0.439827       -11.9683
 103   2.0000      -0.439122       -11.9491
 104   2.0000      -0.434369       -11.8198
 105   2.0000      -0.433163       -11.7870
 106   2.0000      -0.431408       -11.7392
 107   2.0000      -0.430703       -11.7200
 108   2.0000      -0.425519       -11.5790
 109   2.0000      -0.425308       -11.5732
 110   2.0000      -0.423679       -11.5289
 111   2.0000      -0.420468       -11.4415
 112   2.0000      -0.420386       -11.4393
 113   2.0000      -0.416757       -11.3405
 114   2.0000      -0.416565       -11.3353
 115   2.0000      -0.406253       -11.0547
 116   2.0000      -0.400879       -10.9085
 117   2.0000      -0.398981       -10.8568
 118   2.0000      -0.376597       -10.2477
 119   2.0000      -0.361337        -9.8325
 120   2.0000      -0.337950        -9.1961
 121   2.0000      -0.303324        -8.2539
 122   2.0000      -0.245404        -6.6778
 123   2.0000      -0.214439        -5.8352
 124   1.2000      -0.152109        -4.1391
 125   1.2000      -0.154262        -4.1977
 126   1.2000      -0.181478        -4.9383
 127   1.2000      -0.160181        -4.3588
 128   1.2000      -0.105678        -2.8756
 129   0.0000      -0.048641        -1.3236
 130   0.0000      -0.019571        -0.5326
 131   0.0000      -0.008963        -0.2439
 132   0.0000       0.013731         0.3736
 133   0.0000       0.027302         0.7429

MULLIKEN ATOMIC CHARGES AND SPIN DENSITIES
------------------------------------------
   0 Au:    0.362889    0.036326
   1 Au:    0.393286    0.020204
   2 Au:    0.065408    0.067097
   3 Au:    0.060507    0.062484
   4 Au:    0.393485    0.019586
   5 Au:    0.394889    0.017312
   6 Au:    0.137265    0.131101
   7 Au:   -0.136349    0.032701
   8 Au:    0.469916    0.015028
   9 Au:   -0.170792    0.151089
  10 Au:    0.468496    0.015731
  11 Au:   -0.137749    0.030349
  12 Fe:   -2.301249    2.400992
Sum of atomic charges       :    0.0000000

LOEWDIN ATOMIC CHARGES AND SPIN DENSITIES
-----------------------------------------
   0 Au:    0.096164    0.076143
   1 Au:    0.097906    0.039141
   2 Au:   -0.001746    0.062830
   3 Au:   -0.002011    0.059536
   4 Au:    0.096406    0.038875
   5 Au:    0.131405    0.028804
   6 Au:    0.061910    0.095001
   7 Au:   -0.043810    0.037531
   8 Au:    0.117757    0.041235
   9 Au:   -0.037879    0.084655
  10 Au:    0.115905    0.041795
  11 Au:   -0.043776    0.035573
  12 Fe:   -0.588230    2.358881

  Mayer bond orders larger than 0.100000
B(  0-Au,  1-Au) :   0.1268 B(  0-Au,  2-Au) :   0.1883 B(  0-Au,  3-Au) :   0.1860
B(  0-Au,  4-Au) :   0.1261 B(  0-Au,  9-Au) :   0.2587 B(  0-Au, 12-Fe) :   0.1836
B(  1-Au,  2-Au) :   0.2002 B(  1-Au, 10-Au) :   0.1465 B(  1-Au, 11-Au) :   0.1795
B(  1-Au, 12-Fe) :   0.3745 B(  2-Au,  3-Au) :   0.1019 B(  2-Au,  6-Au) :   0.1825
B(  2-Au, 12-Fe) :   0.3973 B(  3-Au,  4-Au) :   0.2047 B(  3-Au,  6-Au) :   0.1792
B(  3-Au, 12-Fe) :   0.3970 B(  4-Au,  7-Au) :   0.1750 B(  4-Au,  8-Au) :   0.1463
B(  4-Au,  9-Au) :   0.1019 B(  4-Au, 12-Fe) :   0.3742 B(  5-Au,  7-Au) :   0.3171
B(  5-Au,  9-Au) :   0.3245 B(  5-Au, 11-Au) :   0.3168 B(  6-Au,  8-Au) :   0.1243
B(  6-Au, 10-Au) :   0.1303 B(  6-Au, 12-Fe) :   0.3415 B(  7-Au,  8-Au) :   0.3139
B(  7-Au,  9-Au) :   0.1908 B(  7-Au, 11-Au) :   0.1101 B(  7-Au, 12-Fe) :   0.3702
B(  8-Au, 12-Fe) :   0.2955 B(  9-Au, 11-Au) :   0.1889 B(  9-Au, 12-Fe) :   0.3527
B( 10-Au, 11-Au) :   0.3114 B( 10-Au, 12-Fe) :   0.2970 B( 11-Au, 12-Fe) :   0.3673

FINAL SINGLE POINT ENERGY     -2879.949937858798

DIPOLE MOMENT
-------------
                                X             Y             Z
Electronic contribution:      1.55548     -12.30973       4.18446
Nuclear contribution   :     -1.48228      12.14439      -4.07619
                        -----------------------------------------
Total Dipole Moment    :      0.07321      -0.16534       0.10827
                        -----------------------------------------
Magnitude (a.u.)       :      0.21076
Magnitude (Debye)      :      0.53571

Rotational constants in cm-1:     0.001661     0.001253     0.001135
Rotational constants in MHz :    49.798106    37.551520    34.016742

                             ****ORCA TERMINATED NORMALLY****
TOTAL RUN TIME: 0 days 5 hours 37 minutes 6 seconds 608 msec
