                         Program Version 5.0.3 -  RELEASE  -
|  1> !RI-B2PLYP def2-TZVP def2-TZVP/C
|  2> !RIJCOSX VERYSLOWCONV
|  3>
|  4> %scf
|  5>   AutoTRAHIter 200
|  6>   maxiter 400
|  7> end
|  8>
|  9>
| 10> %pal nprocs 6 end
| 11>
| 12> *xyzfile 0 6 pbe.xyz
| 13>
| 14> $new_job
| 15>
| 16> !RI-B2PLYP def2-TZVP def2-TZVP/C
| 17> !RIJCOSX VERYSLOWCONV
| 18>
| 19> %scf
| 20>   AutoTRAHIter 200
| 21>   maxiter 400
| 22> end
| 23>
| 24>
| 25> %pal nprocs 6 end
| 26>
| 27> *xyzfile 0 4 pbe.xyz
| 28>
| 29>
| 30>
| 31>
| 32>
| 33>                          ****END OF INPUT****
 Total Charge           Charge          ....    0
 Multiplicity           Mult            ....    6
 Number of Electrons    NEL             ....  291
MP2 TOTAL ENERGY:    -3049.084078887 Eh
FINAL SINGLE POINT ENERGY     -3049.084078886503

CARTESIAN COORDINATES (ANGSTROEM)
---------------------------------
  Au     5.588670   10.258068    8.439902
  Au     7.392651    7.201897    4.562333
  Au     5.600582    8.393807    6.369173
  Au     5.709012    5.613601    5.979016
  Au     7.826176    4.039181    6.762381
  Au     6.172563    5.043184    8.739026
  Au     5.746517    7.659148    9.248846
  Au     9.877353    8.233305    8.626274
  Au     8.162567    6.618469   10.070160
  Au     7.789002    9.427335   10.131694
  Au     8.037479    9.819883    7.327312
  Au     9.905227    5.449746    8.193137
  Au     9.533248    5.651428    5.331870
  Au     9.699675    8.377279    5.767483
  Mn     7.783301    6.895930    7.282775

 Multiplicity           Mult            ....    4
 Number of Electrons    NEL             ....  291
 Basis Dimension        Dim             ....  605

ORBITAL ENERGIES
----------------
                 SPIN UP ORBITALS
  NO   OCC          E(Eh)            E(eV)
   0   1.0000    -237.626764     -6466.1530
   1   1.0000     -28.126885      -765.3714
   2   1.0000     -24.045460      -654.3102
   3   1.0000     -24.044480      -654.2836
   4   1.0000     -24.044394      -654.2812
   5   1.0000      -4.401951      -119.7832
   6   1.0000      -4.401771      -119.7783
   7   1.0000      -4.401305      -119.7656
   8   1.0000      -4.401181      -119.7622
   9   1.0000      -4.400443      -119.7421
  10   1.0000      -4.399789      -119.7243
  11   1.0000      -4.398350      -119.6852
  12   1.0000      -4.397348      -119.6579
  13   1.0000      -4.397084      -119.6507
  14   1.0000      -4.393764      -119.5604
  15   1.0000      -4.393064      -119.5413
  16   1.0000      -4.392968      -119.5387
  17   1.0000      -4.392263      -119.5196
  18   1.0000      -4.392057      -119.5139
  19   1.0000      -3.605474       -98.1099
  20   1.0000      -2.523978       -68.6809
  21   1.0000      -2.523315       -68.6629
  22   1.0000      -2.522402       -68.6380
  23   1.0000      -2.522003       -68.6272
  24   1.0000      -2.521078       -68.6020
  25   1.0000      -2.520484       -68.5859
  26   1.0000      -2.520451       -68.5850
  27   1.0000      -2.519674       -68.5638
  28   1.0000      -2.519168       -68.5500
  29   1.0000      -2.518244       -68.5249
  30   1.0000      -2.517917       -68.5160
  31   1.0000      -2.517453       -68.5034
  32   1.0000      -2.516987       -68.4907
  33   1.0000      -2.516945       -68.4896
  34   1.0000      -2.516731       -68.4837
  35   1.0000      -2.516289       -68.4717
  36   1.0000      -2.516123       -68.4672
  37   1.0000      -2.515995       -68.4637
  38   1.0000      -2.515671       -68.4549
  39   1.0000      -2.515436       -68.4485
  40   1.0000      -2.515389       -68.4472
  41   1.0000      -2.514966       -68.4357
  42   1.0000      -2.514201       -68.4149
  43   1.0000      -2.514028       -68.4102
  44   1.0000      -2.513894       -68.4065
  45   1.0000      -2.513019       -68.3827
  46   1.0000      -2.512770       -68.3759
  47   1.0000      -2.512423       -68.3665
  48   1.0000      -2.511891       -68.3520
  49   1.0000      -2.511786       -68.3492
  50   1.0000      -2.511000       -68.3278
  51   1.0000      -2.510937       -68.3261
  52   1.0000      -2.510630       -68.3177
  53   1.0000      -2.510259       -68.3076
  54   1.0000      -2.508908       -68.2709
  55   1.0000      -2.508341       -68.2554
  56   1.0000      -2.507999       -68.2461
  57   1.0000      -2.506836       -68.2145
  58   1.0000      -2.506776       -68.2128
  59   1.0000      -2.506506       -68.2055
  60   1.0000      -2.506312       -68.2002
  61   1.0000      -2.505504       -68.1782
  62   1.0000      -2.408699       -65.5440
  63   1.0000      -2.406856       -65.4939
  64   1.0000      -2.406606       -65.4871
  65   1.0000      -0.519172       -14.1274
  66   1.0000      -0.515231       -14.0202
  67   1.0000      -0.512979       -13.9589
  68   1.0000      -0.509974       -13.8771
  69   1.0000      -0.505119       -13.7450
  70   1.0000      -0.502824       -13.6825
  71   1.0000      -0.473257       -12.8780
  72   1.0000      -0.467309       -12.7161
  73   1.0000      -0.466349       -12.6900
  74   1.0000      -0.464522       -12.6403
  75   1.0000      -0.463681       -12.6174
  76   1.0000      -0.459439       -12.5020
  77   1.0000      -0.453618       -12.3436
  78   1.0000      -0.452903       -12.3241
  79   1.0000      -0.452480       -12.3126
  80   1.0000      -0.449241       -12.2245
  81   1.0000      -0.449044       -12.2191
  82   1.0000      -0.443851       -12.0778
  83   1.0000      -0.441566       -12.0156
  84   1.0000      -0.440977       -11.9996
  85   1.0000      -0.440623       -11.9900
  86   1.0000      -0.438177       -11.9234
  87   1.0000      -0.437391       -11.9020
  88   1.0000      -0.435510       -11.8508
  89   1.0000      -0.433047       -11.7838
  90   1.0000      -0.427569       -11.6347
  91   1.0000      -0.425911       -11.5896
  92   1.0000      -0.425606       -11.5813
  93   1.0000      -0.422237       -11.4897
  94   1.0000      -0.422204       -11.4887
  95   1.0000      -0.418132       -11.3780
  96   1.0000      -0.416637       -11.3373
  97   1.0000      -0.416136       -11.3236
  98   1.0000      -0.412018       -11.2116
  99   1.0000      -0.410420       -11.1681
 100   1.0000      -0.407094       -11.0776
 101   1.0000      -0.406429       -11.0595
 102   1.0000      -0.401302       -10.9200
 103   1.0000      -0.401225       -10.9179
 104   1.0000      -0.400056       -10.8861
 105   1.0000      -0.397659       -10.8209
 106   1.0000      -0.388069       -10.5599
 107   1.0000      -0.387493       -10.5442
 108   1.0000      -0.384909       -10.4739
 109   1.0000      -0.380701       -10.3594
 110   1.0000      -0.380433       -10.3521
 111   1.0000      -0.377812       -10.2808
 112   1.0000      -0.375901       -10.2288
 113   1.0000      -0.372902       -10.1472
 114   1.0000      -0.371870       -10.1191
 115   1.0000      -0.369203       -10.0465
 116   1.0000      -0.369091       -10.0435
 117   1.0000      -0.368087       -10.0162
 118   1.0000      -0.366982        -9.9861
 119   1.0000      -0.366256        -9.9663
 120   1.0000      -0.361950        -9.8492
 121   1.0000      -0.361710        -9.8426
 122   1.0000      -0.357504        -9.7282
 123   1.0000      -0.355655        -9.6779
 124   1.0000      -0.353045        -9.6068
 125   1.0000      -0.351780        -9.5724
 126   1.0000      -0.350752        -9.5444
 127   1.0000      -0.350457        -9.5364
 128   1.0000      -0.348125        -9.4730
 129   1.0000      -0.346154        -9.4193
 130   1.0000      -0.344499        -9.3743
 131   1.0000      -0.343601        -9.3499
 132   1.0000      -0.343341        -9.3428
 133   1.0000      -0.342907        -9.3310
 134   1.0000      -0.339837        -9.2474
 135   1.0000      -0.335844        -9.1388
 136   1.0000      -0.335723        -9.1355
 137   1.0000      -0.334836        -9.1114
 138   1.0000      -0.331726        -9.0267
 139   1.0000      -0.331423        -9.0185
 140   1.0000      -0.324821        -8.8388
 141   1.0000      -0.307044        -8.3551
 142   1.0000      -0.304480        -8.2853
 143   1.0000      -0.301710        -8.2099
 144   1.0000      -0.245193        -6.6720
 145   1.0000      -0.220113        -5.9896
 146   1.0000      -0.216948        -5.9034
 147   0.0000      -0.140261        -3.8167
 148   0.0000      -0.100452        -2.7334
 149   0.0000      -0.087168        -2.3720
 150   0.0000      -0.065750        -1.7891
 151   0.0000      -0.053813        -1.4643

                 SPIN DOWN ORBITALS
  NO   OCC          E(Eh)            E(eV)
   0   1.0000    -237.624771     -6466.0988
   1   1.0000     -28.025601      -762.6154
   2   1.0000     -23.952116      -651.7702
   3   1.0000     -23.951752      -651.7603
   4   1.0000     -23.951416      -651.7512
   5   1.0000      -4.402425      -119.7961
   6   1.0000      -4.402301      -119.7927
   7   1.0000      -4.402203      -119.7900
   8   1.0000      -4.402081      -119.7867
   9   1.0000      -4.401776      -119.7784
  10   1.0000      -4.399919      -119.7279
  11   1.0000      -4.399264      -119.7101
  12   1.0000      -4.397726      -119.6682
  13   1.0000      -4.397465      -119.6611
  14   1.0000      -4.393499      -119.5532
  15   1.0000      -4.393110      -119.5426
  16   1.0000      -4.393014      -119.5400
  17   1.0000      -4.392552      -119.5274
  18   1.0000      -4.392347      -119.5218
  19   1.0000      -3.320785       -90.3631
  20   1.0000      -2.524984       -68.7083
  21   1.0000      -2.523686       -68.6730
  22   1.0000      -2.522401       -68.6380
  23   1.0000      -2.521737       -68.6199
  24   1.0000      -2.521663       -68.6179
  25   1.0000      -2.521225       -68.6060
  26   1.0000      -2.520734       -68.5927
  27   1.0000      -2.519570       -68.5610
  28   1.0000      -2.519489       -68.5588
  29   1.0000      -2.518578       -68.5340
  30   1.0000      -2.517763       -68.5118
  31   1.0000      -2.517641       -68.5085
  32   1.0000      -2.517176       -68.4958
  33   1.0000      -2.517102       -68.4938
  34   1.0000      -2.516633       -68.4811
  35   1.0000      -2.516622       -68.4808
  36   1.0000      -2.516479       -68.4769
  37   1.0000      -2.516185       -68.4689
  38   1.0000      -2.516157       -68.4681
  39   1.0000      -2.515988       -68.4635
  40   1.0000      -2.515705       -68.4558
  41   1.0000      -2.515475       -68.4495
  42   1.0000      -2.515042       -68.4378
  43   1.0000      -2.514720       -68.4290
  44   1.0000      -2.513292       -68.3901
  45   1.0000      -2.512880       -68.3789
  46   1.0000      -2.512303       -68.3633
  47   1.0000      -2.512269       -68.3623
  48   1.0000      -2.511725       -68.3475
  49   1.0000      -2.511534       -68.3423
  50   1.0000      -2.511064       -68.3295
  51   1.0000      -2.510446       -68.3127
  52   1.0000      -2.510314       -68.3091
  53   1.0000      -2.509887       -68.2975
  54   1.0000      -2.508776       -68.2673
  55   1.0000      -2.508437       -68.2580
  56   1.0000      -2.508194       -68.2514
  57   1.0000      -2.507288       -68.2268
  58   1.0000      -2.507163       -68.2234
  59   1.0000      -2.506773       -68.2128
  60   1.0000      -2.506613       -68.2084
  61   1.0000      -2.505889       -68.1887
  62   1.0000      -2.082096       -56.6567
  63   1.0000      -2.081602       -56.6433
  64   1.0000      -2.080766       -56.6205
  65   1.0000      -0.503253       -13.6942
  66   1.0000      -0.477201       -12.9853
  67   1.0000      -0.472004       -12.8439
  68   1.0000      -0.470598       -12.8056
  69   1.0000      -0.469130       -12.7657
  70   1.0000      -0.466965       -12.7068
  71   1.0000      -0.464745       -12.6464
  72   1.0000      -0.461267       -12.5517
  73   1.0000      -0.457143       -12.4395
  74   1.0000      -0.456178       -12.4132
  75   1.0000      -0.456107       -12.4113
  76   1.0000      -0.453897       -12.3512
  77   1.0000      -0.453807       -12.3487
  78   1.0000      -0.452287       -12.3074
  79   1.0000      -0.452132       -12.3031
  80   1.0000      -0.448206       -12.1963
  81   1.0000      -0.443334       -12.0637
  82   1.0000      -0.442476       -12.0404
  83   1.0000      -0.442222       -12.0335
  84   1.0000      -0.439881       -11.9698
  85   1.0000      -0.438598       -11.9348
  86   1.0000      -0.435360       -11.8467
  87   1.0000      -0.430137       -11.7046
  88   1.0000      -0.426446       -11.6042
  89   1.0000      -0.423697       -11.5294
  90   1.0000      -0.422658       -11.5011
  91   1.0000      -0.419377       -11.4118
  92   1.0000      -0.417673       -11.3655
  93   1.0000      -0.414442       -11.2775
  94   1.0000      -0.413932       -11.2637
  95   1.0000      -0.410786       -11.1781
  96   1.0000      -0.410545       -11.1715
  97   1.0000      -0.404109       -10.9964
  98   1.0000      -0.403978       -10.9928
  99   1.0000      -0.401938       -10.9373
 100   1.0000      -0.401592       -10.9279
 101   1.0000      -0.393230       -10.7003
 102   1.0000      -0.393126       -10.6975
 103   1.0000      -0.389356       -10.5949
 104   1.0000      -0.389088       -10.5876
 105   1.0000      -0.386794       -10.5252
 106   1.0000      -0.385051       -10.4778
 107   1.0000      -0.382512       -10.4087
 108   1.0000      -0.379581       -10.3289
 109   1.0000      -0.376808       -10.2535
 110   1.0000      -0.374934       -10.2025
 111   1.0000      -0.372597       -10.1389
 112   1.0000      -0.370799       -10.0900
 113   1.0000      -0.368524       -10.0281
 114   1.0000      -0.368311       -10.0223
 115   1.0000      -0.367380        -9.9969
 116   1.0000      -0.365728        -9.9520
 117   1.0000      -0.359126        -9.7723
 118   1.0000      -0.358464        -9.7543
 119   1.0000      -0.356408        -9.6983
 120   1.0000      -0.355271        -9.6674
 121   1.0000      -0.354418        -9.6442
 122   1.0000      -0.352792        -9.6000
 123   1.0000      -0.350187        -9.5291
 124   1.0000      -0.346967        -9.4414
 125   1.0000      -0.346417        -9.4265
 126   1.0000      -0.346135        -9.4188
 127   1.0000      -0.344676        -9.3791
 128   1.0000      -0.343691        -9.3523
 129   1.0000      -0.341012        -9.2794
 130   1.0000      -0.339218        -9.2306
 131   1.0000      -0.337712        -9.1896
 132   1.0000      -0.336809        -9.1650
 133   1.0000      -0.334060        -9.0902
 134   1.0000      -0.332633        -9.0514
 135   1.0000      -0.330062        -8.9815
 136   1.0000      -0.315276        -8.5791
 137   1.0000      -0.313410        -8.5283
 138   1.0000      -0.306732        -8.3466
 139   1.0000      -0.253718        -6.9040
 140   1.0000      -0.234689        -6.3862
 141   1.0000      -0.233178        -6.3451
 142   1.0000      -0.231174        -6.2906
 143   1.0000      -0.190117        -5.1734
 144   0.0000      -0.090863        -2.4725
 145   0.0000      -0.072595        -1.9754
 146   0.0000      -0.063824        -1.7367
 147   0.0000      -0.059226        -1.6116
 148   0.0000      -0.052489        -1.4283

MULLIKEN ATOMIC CHARGES AND SPIN POPULATIONS
--------------------------------------------
   0 Au:    0.416244   -0.013098
   1 Au:    0.235229   -0.182430
   2 Au:    0.040635   -0.076680
   3 Au:    0.235054   -0.181613
   4 Au:    0.197528   -0.021253
   5 Au:    0.238583   -0.035366
   6 Au:   -0.181578   -0.076992
   7 Au:    0.138201   -0.140754
   8 Au:    0.138162   -0.141046
   9 Au:    0.258731   -0.369654
  10 Au:   -0.181664   -0.076527
  11 Au:    0.207982   -0.061722
  12 Au:    0.196224   -0.021196
  13 Au:    0.238565   -0.034917
  14 Mn:   -2.177894    4.433248
Sum of atomic charges         :   -0.0000000

LOEWDIN ATOMIC CHARGES AND SPIN POPULATIONS
-------------------------------------------
   0 Au:    0.118995   -0.101919
   1 Au:    0.038534   -0.123734
   2 Au:    0.007870   -0.108558
   3 Au:    0.038825   -0.123383
   4 Au:    0.034522   -0.061029
   5 Au:    0.038006   -0.073813
   6 Au:   -0.051238   -0.110247
   7 Au:    0.011861   -0.134413
   8 Au:    0.011415   -0.134996
   9 Au:    0.053507   -0.196428
  10 Au:   -0.051491   -0.110149
  11 Au:    0.055369   -0.085378
  12 Au:    0.034070   -0.060802
  13 Au:    0.038136   -0.073384
  14 Mn:   -0.378380    4.498234

  Mayer bond orders larger than 0.100000
B(  0-Au,  2-Au) :   0.2498 B(  0-Au,  6-Au) :   0.3054 B(  0-Au,  9-Au) :   0.1378
B(  0-Au, 10-Au) :   0.3068 B(  1-Au,  2-Au) :   0.2545 B(  1-Au,  3-Au) :   0.1432
B(  1-Au, 12-Au) :   0.2161 B(  1-Au, 13-Au) :   0.1653 B(  1-Au, 14-Mn) :   0.4260
B(  2-Au,  3-Au) :   0.2556 B(  2-Au,  6-Au) :   0.1364 B(  2-Au, 10-Au) :   0.1357
B(  2-Au, 14-Mn) :   0.4371 B(  3-Au,  4-Au) :   0.2165 B(  3-Au,  5-Au) :   0.1649
B(  3-Au, 14-Mn) :   0.4257 B(  4-Au,  5-Au) :   0.2618 B(  4-Au, 11-Au) :   0.1603
B(  4-Au, 12-Au) :   0.1983 B(  4-Au, 14-Mn) :   0.3396 B(  5-Au,  6-Au) :   0.3518
B(  5-Au,  8-Au) :   0.1520 B(  5-Au, 14-Mn) :   0.3924 B(  6-Au,  8-Au) :   0.2381
B(  6-Au,  9-Au) :   0.2090 B(  6-Au, 10-Au) :   0.1097 B(  6-Au, 14-Mn) :   0.3745
B(  7-Au,  8-Au) :   0.1332 B(  7-Au,  9-Au) :   0.2055 B(  7-Au, 10-Au) :   0.2387
B(  7-Au, 11-Au) :   0.2054 B(  7-Au, 13-Au) :   0.1512 B(  7-Au, 14-Mn) :   0.4208
B(  8-Au,  9-Au) :   0.2072 B(  8-Au, 11-Au) :   0.2066 B(  8-Au, 14-Mn) :   0.4192
B(  9-Au, 10-Au) :   0.2086 B(  9-Au, 14-Mn) :   0.1121 B( 10-Au, 13-Au) :   0.3531
B( 10-Au, 14-Mn) :   0.3726 B( 11-Au, 12-Au) :   0.1597 B( 11-Au, 14-Mn) :   0.4486
B( 12-Au, 13-Au) :   0.2616 B( 12-Au, 14-Mn) :   0.3414 B( 13-Au, 14-Mn) :   0.3916

MP2 TOTAL ENERGY:    -3049.058640278 Eh
FINAL SINGLE POINT ENERGY     -3049.058640278123

DIPOLE MOMENT
-------------
                                X             Y             Z
Electronic contribution:     -5.13909      13.94472       9.52990
Nuclear contribution   :      5.02016     -13.67044      -9.35925
                        -----------------------------------------
Total Dipole Moment    :     -0.11893       0.27427       0.17065
                        -----------------------------------------
Magnitude (a.u.)       :      0.34422
Magnitude (Debye)      :      0.87495

Rotational constants in cm-1:     0.001238     0.000941     0.000935
Rotational constants in MHz :    37.100535    28.221771    28.034831

                             ****ORCA TERMINATED NORMALLY****
TOTAL RUN TIME: 0 days 1 hours 2 minutes 18 seconds 9 msec
