                         Program Version 5.0.3 -  RELEASE  -
|  1> !PBE def2-TZVP VERYSLOWCONV
|  2> !KDIIS
|  3>
|  4> %scf
|  5>   AutoTRAHIter 200
|  6>   maxiter 400
|  7> end
|  8>
|  9>
| 10> %pal nprocs 6 end
| 11>
| 12> *xyzfile 0 6 pbe.xyz
| 13>
| 14> $new_job
| 15>
| 16> !PBE def2-TZVP VERYSLOWCONV
| 17> !KDIIS
| 18>
| 19> %scf
| 20>   AutoTRAHIter 200
| 21>   maxiter 400
| 22> end
| 23>
| 24>
| 25> %pal nprocs 6 end
| 26>
| 27> *xyzfile 0 4 pbe.xyz
| 28>
| 29>
| 30>
| 31>
| 32>
| 33>                          ****END OF INPUT****
 Total Charge           Charge          ....    0
 Multiplicity           Mult            ....    6
 Number of Electrons    NEL             ....  291
FINAL SINGLE POINT ENERGY     -3052.379293801985

CARTESIAN COORDINATES (ANGSTROEM)
---------------------------------
  Au     5.588670   10.258068    8.439902
  Au     7.392651    7.201897    4.562333
  Au     5.600582    8.393807    6.369173
  Au     5.709012    5.613601    5.979016
  Au     7.826176    4.039181    6.762381
  Au     6.172563    5.043184    8.739026
  Au     5.746517    7.659148    9.248846
  Au     9.877353    8.233305    8.626274
  Au     8.162567    6.618469   10.070160
  Au     7.789002    9.427335   10.131694
  Au     8.037479    9.819883    7.327312
  Au     9.905227    5.449746    8.193137
  Au     9.533248    5.651428    5.331870
  Au     9.699675    8.377279    5.767483
  Mn     7.783301    6.895930    7.282775

 Multiplicity           Mult            ....    4
 Number of Electrons    NEL             ....  291
 Basis Dimension        Dim             ....  605

ORBITAL ENERGIES
----------------
                 SPIN UP ORBITALS
  NO   OCC          E(Eh)            E(eV)
   0   1.0000    -234.202912     -6372.9852
   1   1.0000     -26.895817      -731.8724
   2   1.0000     -23.046337      -627.1227
   3   1.0000     -23.043764      -627.0527
   4   1.0000     -23.042956      -627.0307
   5   1.0000      -4.032885      -109.7404
   6   1.0000      -4.032779      -109.7375
   7   1.0000      -4.032690      -109.7351
   8   1.0000      -4.032559      -109.7315
   9   1.0000      -4.030197      -109.6672
  10   1.0000      -4.028183      -109.6124
  11   1.0000      -4.025980      -109.5525
  12   1.0000      -4.025777      -109.5470
  13   1.0000      -4.024051      -109.5000
  14   1.0000      -4.023559      -109.4866
  15   1.0000      -4.023454      -109.4838
  16   1.0000      -4.023381      -109.4818
  17   1.0000      -4.021977      -109.4436
  18   1.0000      -4.021812      -109.4391
  19   1.0000      -3.105680       -84.5099
  20   1.0000      -2.250735       -61.2456
  21   1.0000      -2.250442       -61.2376
  22   1.0000      -2.247470       -61.1568
  23   1.0000      -2.246722       -61.1364
  24   1.0000      -2.246479       -61.1298
  25   1.0000      -2.246200       -61.1222
  26   1.0000      -2.245988       -61.1164
  27   1.0000      -2.245702       -61.1087
  28   1.0000      -2.244297       -61.0704
  29   1.0000      -2.243670       -61.0534
  30   1.0000      -2.243391       -61.0458
  31   1.0000      -2.242978       -61.0345
  32   1.0000      -2.242780       -61.0291
  33   1.0000      -2.242737       -61.0280
  34   1.0000      -2.242183       -61.0129
  35   1.0000      -2.241630       -60.9979
  36   1.0000      -2.241312       -60.9892
  37   1.0000      -2.240863       -60.9770
  38   1.0000      -2.240445       -60.9656
  39   1.0000      -2.240311       -60.9620
  40   1.0000      -2.239804       -60.9482
  41   1.0000      -2.238861       -60.9225
  42   1.0000      -2.238602       -60.9154
  43   1.0000      -2.238507       -60.9129
  44   1.0000      -2.238430       -60.9108
  45   1.0000      -2.238017       -60.8995
  46   1.0000      -2.237158       -60.8762
  47   1.0000      -2.237030       -60.8727
  48   1.0000      -2.236913       -60.8695
  49   1.0000      -2.236754       -60.8652
  50   1.0000      -2.236397       -60.8555
  51   1.0000      -2.236221       -60.8507
  52   1.0000      -2.236070       -60.8466
  53   1.0000      -2.235614       -60.8341
  54   1.0000      -2.234620       -60.8071
  55   1.0000      -2.234213       -60.7960
  56   1.0000      -2.234082       -60.7924
  57   1.0000      -2.233074       -60.7650
  58   1.0000      -2.232911       -60.7606
  59   1.0000      -2.232452       -60.7481
  60   1.0000      -2.232371       -60.7459
  61   1.0000      -2.231698       -60.7276
  62   1.0000      -2.012486       -54.7625
  63   1.0000      -2.006807       -54.6080
  64   1.0000      -2.005591       -54.5749
  65   1.0000      -0.430221       -11.7069
  66   1.0000      -0.391738       -10.6597
  67   1.0000      -0.383161       -10.4263
  68   1.0000      -0.382539       -10.4094
  69   1.0000      -0.375809       -10.2263
  70   1.0000      -0.369193       -10.0462
  71   1.0000      -0.368541       -10.0285
  72   1.0000      -0.366809        -9.9814
  73   1.0000      -0.363883        -9.9017
  74   1.0000      -0.358820        -9.7640
  75   1.0000      -0.356774        -9.7083
  76   1.0000      -0.356647        -9.7049
  77   1.0000      -0.352471        -9.5912
  78   1.0000      -0.351670        -9.5694
  79   1.0000      -0.351030        -9.5520
  80   1.0000      -0.348795        -9.4912
  81   1.0000      -0.343390        -9.3441
  82   1.0000      -0.342363        -9.3162
  83   1.0000      -0.340349        -9.2614
  84   1.0000      -0.337684        -9.1889
  85   1.0000      -0.335260        -9.1229
  86   1.0000      -0.333840        -9.0842
  87   1.0000      -0.329202        -8.9580
  88   1.0000      -0.324780        -8.8377
  89   1.0000      -0.323610        -8.8059
  90   1.0000      -0.322239        -8.7686
  91   1.0000      -0.320610        -8.7242
  92   1.0000      -0.316764        -8.6196
  93   1.0000      -0.315966        -8.5979
  94   1.0000      -0.315897        -8.5960
  95   1.0000      -0.313963        -8.5434
  96   1.0000      -0.311473        -8.4756
  97   1.0000      -0.311024        -8.4634
  98   1.0000      -0.308790        -8.4026
  99   1.0000      -0.305373        -8.3096
 100   1.0000      -0.303438        -8.2570
 101   1.0000      -0.302245        -8.2245
 102   1.0000      -0.299439        -8.1482
 103   1.0000      -0.299076        -8.1383
 104   1.0000      -0.292142        -7.9496
 105   1.0000      -0.290221        -7.8973
 106   1.0000      -0.287825        -7.8321
 107   1.0000      -0.286849        -7.8056
 108   1.0000      -0.286458        -7.7949
 109   1.0000      -0.282349        -7.6831
 110   1.0000      -0.280163        -7.6236
 111   1.0000      -0.277451        -7.5498
 112   1.0000      -0.276749        -7.5307
 113   1.0000      -0.274191        -7.4611
 114   1.0000      -0.273559        -7.4439
 115   1.0000      -0.271815        -7.3965
 116   1.0000      -0.269125        -7.3233
 117   1.0000      -0.264691        -7.2026
 118   1.0000      -0.263907        -7.1813
 119   1.0000      -0.261894        -7.1265
 120   1.0000      -0.261781        -7.1234
 121   1.0000      -0.260074        -7.0770
 122   1.0000      -0.258571        -7.0361
 123   1.0000      -0.256522        -6.9803
 124   1.0000      -0.256440        -6.9781
 125   1.0000      -0.254967        -6.9380
 126   1.0000      -0.254073        -6.9137
 127   1.0000      -0.252424        -6.8688
 128   1.0000      -0.252052        -6.8587
 129   1.0000      -0.251526        -6.8444
 130   1.0000      -0.251104        -6.8329
 131   1.0000      -0.249353        -6.7852
 132   1.0000      -0.248188        -6.7535
 133   1.0000      -0.248130        -6.7520
 134   1.0000      -0.247001        -6.7213
 135   1.0000      -0.246951        -6.7199
 136   1.0000      -0.246640        -6.7114
 137   1.0000      -0.246430        -6.7057
 138   1.0000      -0.244399        -6.6504
 139   1.0000      -0.243353        -6.6220
 140   1.0000      -0.242996        -6.6122
 141   1.0000      -0.242099        -6.5879
 142   1.0000      -0.241804        -6.5798
 143   1.0000      -0.224476        -6.1083
 144   1.0000      -0.218193        -5.9373
 145   1.0000      -0.200909        -5.4670
 146   1.0000      -0.197432        -5.3724
 147   0.0000      -0.200670        -5.4605
 148   0.0000      -0.167397        -4.5551
 149   0.0000      -0.148524        -4.0416
 150   0.0000      -0.129239        -3.5168
 151   0.0000      -0.125907        -3.4261

                 SPIN DOWN ORBITALS
  NO   OCC          E(Eh)            E(eV)
   0   1.0000    -234.202223     -6372.9665
   1   1.0000     -26.829636      -730.0715
   2   1.0000     -22.995348      -625.7352
   3   1.0000     -22.994283      -625.7063
   4   1.0000     -22.992681      -625.6627
   5   1.0000      -4.033445      -109.7556
   6   1.0000      -4.033325      -109.7523
   7   1.0000      -4.032914      -109.7412
   8   1.0000      -4.032756      -109.7369
   9   1.0000      -4.031450      -109.7013
  10   1.0000      -4.027822      -109.6026
  11   1.0000      -4.025922      -109.5509
  12   1.0000      -4.025718      -109.5454
  13   1.0000      -4.024744      -109.5188
  14   1.0000      -4.023684      -109.4900
  15   1.0000      -4.023581      -109.4872
  16   1.0000      -4.023153      -109.4756
  17   1.0000      -4.022114      -109.4473
  18   1.0000      -4.021945      -109.4427
  19   1.0000      -2.943292       -80.0911
  20   1.0000      -2.251387       -61.2634
  21   1.0000      -2.250953       -61.2515
  22   1.0000      -2.247619       -61.1608
  23   1.0000      -2.247361       -61.1538
  24   1.0000      -2.246973       -61.1432
  25   1.0000      -2.246832       -61.1394
  26   1.0000      -2.246391       -61.1274
  27   1.0000      -2.245863       -61.1130
  28   1.0000      -2.245008       -61.0898
  29   1.0000      -2.244146       -61.0663
  30   1.0000      -2.244012       -61.0627
  31   1.0000      -2.243697       -61.0541
  32   1.0000      -2.243631       -61.0523
  33   1.0000      -2.242875       -61.0317
  34   1.0000      -2.242386       -61.0184
  35   1.0000      -2.242019       -61.0084
  36   1.0000      -2.241511       -60.9946
  37   1.0000      -2.240622       -60.9704
  38   1.0000      -2.240247       -60.9602
  39   1.0000      -2.239641       -60.9437
  40   1.0000      -2.239630       -60.9434
  41   1.0000      -2.239276       -60.9338
  42   1.0000      -2.238772       -60.9201
  43   1.0000      -2.238469       -60.9118
  44   1.0000      -2.238037       -60.9001
  45   1.0000      -2.237789       -60.8933
  46   1.0000      -2.237607       -60.8884
  47   1.0000      -2.237317       -60.8805
  48   1.0000      -2.236979       -60.8713
  49   1.0000      -2.236769       -60.8656
  50   1.0000      -2.236723       -60.8643
  51   1.0000      -2.236389       -60.8552
  52   1.0000      -2.235878       -60.8413
  53   1.0000      -2.235841       -60.8403
  54   1.0000      -2.234625       -60.8072
  55   1.0000      -2.234349       -60.7997
  56   1.0000      -2.234125       -60.7936
  57   1.0000      -2.233572       -60.7786
  58   1.0000      -2.233338       -60.7722
  59   1.0000      -2.232938       -60.7613
  60   1.0000      -2.232596       -60.7520
  61   1.0000      -2.232142       -60.7397
  62   1.0000      -1.850826       -50.3635
  63   1.0000      -1.849454       -50.3262
  64   1.0000      -1.846312       -50.2407
  65   1.0000      -0.425219       -11.5708
  66   1.0000      -0.390814       -10.6346
  67   1.0000      -0.383185       -10.4270
  68   1.0000      -0.383061       -10.4236
  69   1.0000      -0.371699       -10.1144
  70   1.0000      -0.367168        -9.9911
  71   1.0000      -0.365182        -9.9371
  72   1.0000      -0.363659        -9.8957
  73   1.0000      -0.361844        -9.8463
  74   1.0000      -0.357544        -9.7293
  75   1.0000      -0.356595        -9.7035
  76   1.0000      -0.355675        -9.6784
  77   1.0000      -0.350838        -9.5468
  78   1.0000      -0.350200        -9.5294
  79   1.0000      -0.348608        -9.4861
  80   1.0000      -0.347121        -9.4456
  81   1.0000      -0.343044        -9.3347
  82   1.0000      -0.340144        -9.2558
  83   1.0000      -0.339789        -9.2461
  84   1.0000      -0.338191        -9.2026
  85   1.0000      -0.336233        -9.1494
  86   1.0000      -0.334889        -9.1128
  87   1.0000      -0.329483        -8.9657
  88   1.0000      -0.325734        -8.8637
  89   1.0000      -0.323545        -8.8041
  90   1.0000      -0.323213        -8.7951
  91   1.0000      -0.320728        -8.7275
  92   1.0000      -0.317629        -8.6431
  93   1.0000      -0.316589        -8.6148
  94   1.0000      -0.315498        -8.5851
  95   1.0000      -0.311300        -8.4709
  96   1.0000      -0.309964        -8.4345
  97   1.0000      -0.306140        -8.3305
  98   1.0000      -0.305534        -8.3140
  99   1.0000      -0.305147        -8.3035
 100   1.0000      -0.301291        -8.1986
 101   1.0000      -0.297947        -8.1075
 102   1.0000      -0.297196        -8.0871
 103   1.0000      -0.294069        -8.0020
 104   1.0000      -0.291178        -7.9233
 105   1.0000      -0.290666        -7.9094
 106   1.0000      -0.286920        -7.8075
 107   1.0000      -0.286871        -7.8062
 108   1.0000      -0.282661        -7.6916
 109   1.0000      -0.280905        -7.6438
 110   1.0000      -0.278838        -7.5876
 111   1.0000      -0.276940        -7.5359
 112   1.0000      -0.275936        -7.5086
 113   1.0000      -0.273631        -7.4459
 114   1.0000      -0.272515        -7.4155
 115   1.0000      -0.271977        -7.4009
 116   1.0000      -0.269476        -7.3328
 117   1.0000      -0.265492        -7.2244
 118   1.0000      -0.265307        -7.2194
 119   1.0000      -0.262516        -7.1434
 120   1.0000      -0.261267        -7.1094
 121   1.0000      -0.260366        -7.0849
 122   1.0000      -0.259361        -7.0576
 123   1.0000      -0.256936        -6.9916
 124   1.0000      -0.256548        -6.9810
 125   1.0000      -0.255485        -6.9521
 126   1.0000      -0.254302        -6.9199
 127   1.0000      -0.252770        -6.8782
 128   1.0000      -0.252016        -6.8577
 129   1.0000      -0.251739        -6.8502
 130   1.0000      -0.250170        -6.8075
 131   1.0000      -0.248921        -6.7735
 132   1.0000      -0.248898        -6.7729
 133   1.0000      -0.248059        -6.7500
 134   1.0000      -0.247841        -6.7441
 135   1.0000      -0.245844        -6.6898
 136   1.0000      -0.245350        -6.6763
 137   1.0000      -0.243389        -6.6229
 138   1.0000      -0.226241        -6.1563
 139   1.0000      -0.225389        -6.1332
 140   1.0000      -0.213216        -5.8019
 141   1.0000      -0.213090        -5.7985
 142   1.0000      -0.210434        -5.7262
 143   1.0000      -0.181441        -4.9373
 144   0.0000      -0.154956        -4.2166
 145   0.0000      -0.143579        -3.9070
 146   0.0000      -0.129432        -3.5220
 147   0.0000      -0.127380        -3.4662
 148   0.0000      -0.123536        -3.3616

MULLIKEN ATOMIC CHARGES AND SPIN POPULATIONS
--------------------------------------------
   0 Au:    0.446647   -0.055562
   1 Au:    0.258344   -0.121674
   2 Au:    0.068292   -0.037297
   3 Au:    0.258461   -0.121683
   4 Au:    0.238936   -0.015310
   5 Au:    0.252935   -0.005053
   6 Au:   -0.129044   -0.055328
   7 Au:    0.172730   -0.097421
   8 Au:    0.172872   -0.097486
   9 Au:    0.250190   -0.264412
  10 Au:   -0.128799   -0.054609
  11 Au:    0.245733   -0.042860
  12 Au:    0.237751   -0.014435
  13 Au:    0.252566   -0.005067
  14 Mn:   -2.597614    3.988198
Sum of atomic charges         :    0.0000000

LOEWDIN ATOMIC CHARGES AND SPIN POPULATIONS
-------------------------------------------
   0 Au:    0.105253   -0.102379
   1 Au:    0.055872   -0.085222
   2 Au:    0.031438   -0.067130
   3 Au:    0.056062   -0.085276
   4 Au:    0.044626   -0.045484
   5 Au:    0.059221   -0.046205
   6 Au:   -0.021474   -0.079708
   7 Au:    0.033754   -0.095018
   8 Au:    0.033279   -0.095304
   9 Au:    0.041609   -0.152772
  10 Au:   -0.021726   -0.079584
  11 Au:    0.077933   -0.060271
  12 Au:    0.044279   -0.044806
  13 Au:    0.059108   -0.045986
  14 Mn:   -0.599234    4.085142

  Mayer bond orders larger than 0.100000
B(  0-Au,  2-Au) :   0.2836 B(  0-Au,  6-Au) :   0.3348 B(  0-Au,  9-Au) :   0.1799
B(  0-Au, 10-Au) :   0.3360 B(  1-Au,  2-Au) :   0.2601 B(  1-Au,  3-Au) :   0.1948
B(  1-Au, 12-Au) :   0.2482 B(  1-Au, 13-Au) :   0.1839 B(  1-Au, 14-Mn) :   0.4524
B(  2-Au,  3-Au) :   0.2613 B(  2-Au,  6-Au) :   0.1481 B(  2-Au, 10-Au) :   0.1474
B(  2-Au, 14-Mn) :   0.4447 B(  3-Au,  4-Au) :   0.2484 B(  3-Au,  5-Au) :   0.1836
B(  3-Au, 14-Mn) :   0.4519 B(  4-Au,  5-Au) :   0.2780 B(  4-Au, 11-Au) :   0.1876
B(  4-Au, 12-Au) :   0.2475 B(  4-Au, 14-Mn) :   0.3556 B(  5-Au,  6-Au) :   0.3880
B(  5-Au,  8-Au) :   0.1685 B(  5-Au, 14-Mn) :   0.4106 B(  6-Au,  8-Au) :   0.2511
B(  6-Au,  9-Au) :   0.2586 B(  6-Au, 10-Au) :   0.1026 B(  6-Au, 14-Mn) :   0.3979
B(  7-Au,  8-Au) :   0.1677 B(  7-Au,  9-Au) :   0.2614 B(  7-Au, 10-Au) :   0.2516
B(  7-Au, 11-Au) :   0.2240 B(  7-Au, 13-Au) :   0.1677 B(  7-Au, 14-Mn) :   0.4372
B(  8-Au,  9-Au) :   0.2636 B(  8-Au, 11-Au) :   0.2250 B(  8-Au, 14-Mn) :   0.4351
B(  9-Au, 10-Au) :   0.2578 B(  9-Au, 14-Mn) :   0.1237 B( 10-Au, 13-Au) :   0.3898
B( 10-Au, 14-Mn) :   0.3960 B( 11-Au, 12-Au) :   0.1866 B( 11-Au, 14-Mn) :   0.4706
B( 12-Au, 13-Au) :   0.2778 B( 12-Au, 14-Mn) :   0.3575 B( 13-Au, 14-Mn) :   0.4093

FINAL SINGLE POINT ENERGY     -3052.360212945180

DIPOLE MOMENT
-------------
                                X             Y             Z
Electronic contribution:     -5.13020      13.93367       9.52789
Nuclear contribution   :      5.02016     -13.67044      -9.35925
                        -----------------------------------------
Total Dipole Moment    :     -0.11004       0.26323       0.16864
                        -----------------------------------------
Magnitude (a.u.)       :      0.33142
Magnitude (Debye)      :      0.84239

Rotational constants in cm-1:     0.001238     0.000941     0.000935
Rotational constants in MHz :    37.100535    28.221771    28.034831

                             ****ORCA TERMINATED NORMALLY****
TOTAL RUN TIME: 0 days 0 hours 15 minutes 1 seconds 150 msec
