                         Program Version 5.0.3 -  RELEASE  -
|  1> !R2SCAN def2-TZVP VERYSLOWCONV
|  2> !KDIIS
|  3> %scf
|  4>   AutoTRAHIter 200
|  5>   maxiter 400
|  6> end
|  7>
|  8> %pal nprocs 6 end
|  9>
| 10> *xyzfile 0 6 pbe.xyz
| 11>
| 12> $new_job
| 13>
| 14> !R2SCAN def2-TZVP VERYSLOWCONV
| 15> !KDIIS
| 16> %scf
| 17>   AutoTRAHIter 200
| 18>   maxiter 400
| 19> end
| 20>
| 21>
| 22> %pal nprocs 6 end
| 23>
| 24> *xyzfile 0 4 pbe.xyz
| 25>
| 26>
| 27>
| 28>
| 29>
| 30>                          ****END OF INPUT****
 Total Charge           Charge          ....    0
 Multiplicity           Mult            ....    6
 Number of Electrons    NEL             ....  291
FINAL SINGLE POINT ENERGY     -3052.880930240598

CARTESIAN COORDINATES (ANGSTROEM)
---------------------------------
  Au     5.588670   10.258068    8.439902
  Au     7.392651    7.201897    4.562333
  Au     5.600582    8.393807    6.369173
  Au     5.709012    5.613601    5.979016
  Au     7.826176    4.039181    6.762381
  Au     6.172563    5.043184    8.739026
  Au     5.746517    7.659148    9.248846
  Au     9.877353    8.233305    8.626274
  Au     8.162567    6.618469   10.070160
  Au     7.789002    9.427335   10.131694
  Au     8.037479    9.819883    7.327312
  Au     9.905227    5.449746    8.193137
  Au     9.533248    5.651428    5.331870
  Au     9.699675    8.377279    5.767483
  Mn     7.783301    6.895930    7.282775

 Multiplicity           Mult            ....    4
 Number of Electrons    NEL             ....  291
 Basis Dimension        Dim             ....  605

ORBITAL ENERGIES
----------------
                 SPIN UP ORBITALS
  NO   OCC          E(Eh)            E(eV)
   0   1.0000    -235.045579     -6395.9154
   1   1.0000     -27.222147      -740.7523
   2   1.0000     -23.270324      -633.2177
   3   1.0000     -23.268208      -633.1601
   4   1.0000     -23.268106      -633.1573
   5   1.0000      -4.123948      -112.2183
   6   1.0000      -4.123824      -112.2150
   7   1.0000      -4.123422      -112.2040
   8   1.0000      -4.123251      -112.1994
   9   1.0000      -4.121048      -112.1394
  10   1.0000      -4.119062      -112.0854
  11   1.0000      -4.117349      -112.0388
  12   1.0000      -4.117125      -112.0327
  13   1.0000      -4.114916      -111.9725
  14   1.0000      -4.114809      -111.9697
  15   1.0000      -4.114751      -111.9681
  16   1.0000      -4.113376      -111.9306
  17   1.0000      -4.112754      -111.9137
  18   1.0000      -4.112576      -111.9089
  19   1.0000      -3.244950       -88.2996
  20   1.0000      -2.314435       -62.9790
  21   1.0000      -2.314137       -62.9709
  22   1.0000      -2.311135       -62.8892
  23   1.0000      -2.310381       -62.8687
  24   1.0000      -2.310142       -62.8621
  25   1.0000      -2.309889       -62.8553
  26   1.0000      -2.309653       -62.8489
  27   1.0000      -2.309296       -62.8391
  28   1.0000      -2.308053       -62.8053
  29   1.0000      -2.307112       -62.7797
  30   1.0000      -2.307061       -62.7783
  31   1.0000      -2.306802       -62.7713
  32   1.0000      -2.306456       -62.7619
  33   1.0000      -2.306416       -62.7608
  34   1.0000      -2.305985       -62.7491
  35   1.0000      -2.305523       -62.7365
  36   1.0000      -2.305001       -62.7223
  37   1.0000      -2.304899       -62.7195
  38   1.0000      -2.304688       -62.7138
  39   1.0000      -2.303933       -62.6932
  40   1.0000      -2.303860       -62.6912
  41   1.0000      -2.302663       -62.6586
  42   1.0000      -2.302344       -62.6500
  43   1.0000      -2.301974       -62.6399
  44   1.0000      -2.301585       -62.6293
  45   1.0000      -2.301432       -62.6251
  46   1.0000      -2.301207       -62.6190
  47   1.0000      -2.301028       -62.6142
  48   1.0000      -2.300874       -62.6100
  49   1.0000      -2.300737       -62.6062
  50   1.0000      -2.300157       -62.5905
  51   1.0000      -2.299976       -62.5855
  52   1.0000      -2.299617       -62.5758
  53   1.0000      -2.299463       -62.5716
  54   1.0000      -2.298334       -62.5408
  55   1.0000      -2.297968       -62.5309
  56   1.0000      -2.297412       -62.5158
  57   1.0000      -2.297037       -62.5056
  58   1.0000      -2.296915       -62.5022
  59   1.0000      -2.295994       -62.4772
  60   1.0000      -2.295646       -62.4677
  61   1.0000      -2.294852       -62.4461
  62   1.0000      -2.104742       -57.2729
  63   1.0000      -2.100076       -57.1460
  64   1.0000      -2.099889       -57.1409
  65   1.0000      -0.435675       -11.8553
  66   1.0000      -0.397514       -10.8169
  67   1.0000      -0.390704       -10.6316
  68   1.0000      -0.388997       -10.5851
  69   1.0000      -0.386387       -10.5141
  70   1.0000      -0.379397       -10.3239
  71   1.0000      -0.378900       -10.3104
  72   1.0000      -0.375752       -10.2247
  73   1.0000      -0.373248       -10.1566
  74   1.0000      -0.368653       -10.0316
  75   1.0000      -0.367000        -9.9866
  76   1.0000      -0.366464        -9.9720
  77   1.0000      -0.362954        -9.8765
  78   1.0000      -0.362368        -9.8605
  79   1.0000      -0.360710        -9.8154
  80   1.0000      -0.357847        -9.7375
  81   1.0000      -0.353339        -9.6148
  82   1.0000      -0.351449        -9.5634
  83   1.0000      -0.349620        -9.5136
  84   1.0000      -0.347011        -9.4427
  85   1.0000      -0.344652        -9.3785
  86   1.0000      -0.342942        -9.3319
  87   1.0000      -0.338910        -9.2222
  88   1.0000      -0.334082        -9.0908
  89   1.0000      -0.333108        -9.0643
  90   1.0000      -0.330770        -9.0007
  91   1.0000      -0.330650        -8.9974
  92   1.0000      -0.326197        -8.8763
  93   1.0000      -0.326037        -8.8719
  94   1.0000      -0.325698        -8.8627
  95   1.0000      -0.323688        -8.8080
  96   1.0000      -0.323071        -8.7912
  97   1.0000      -0.322149        -8.7661
  98   1.0000      -0.317949        -8.6518
  99   1.0000      -0.314425        -8.5559
 100   1.0000      -0.312819        -8.5122
 101   1.0000      -0.311835        -8.4855
 102   1.0000      -0.308913        -8.4059
 103   1.0000      -0.308707        -8.4004
 104   1.0000      -0.304951        -8.2981
 105   1.0000      -0.299307        -8.1446
 106   1.0000      -0.297225        -8.0879
 107   1.0000      -0.295879        -8.0513
 108   1.0000      -0.295531        -8.0418
 109   1.0000      -0.292848        -7.9688
 110   1.0000      -0.289086        -7.8664
 111   1.0000      -0.286615        -7.7992
 112   1.0000      -0.286065        -7.7842
 113   1.0000      -0.282940        -7.6992
 114   1.0000      -0.282127        -7.6771
 115   1.0000      -0.280707        -7.6384
 116   1.0000      -0.277724        -7.5572
 117   1.0000      -0.273604        -7.4451
 118   1.0000      -0.271852        -7.3975
 119   1.0000      -0.271228        -7.3805
 120   1.0000      -0.270856        -7.3704
 121   1.0000      -0.269371        -7.3300
 122   1.0000      -0.267137        -7.2692
 123   1.0000      -0.267018        -7.2659
 124   1.0000      -0.264866        -7.2074
 125   1.0000      -0.264208        -7.1895
 126   1.0000      -0.263888        -7.1807
 127   1.0000      -0.262594        -7.1455
 128   1.0000      -0.261400        -7.1130
 129   1.0000      -0.261208        -7.1078
 130   1.0000      -0.260131        -7.0785
 131   1.0000      -0.259384        -7.0582
 132   1.0000      -0.257876        -7.0172
 133   1.0000      -0.257374        -7.0035
 134   1.0000      -0.257073        -6.9953
 135   1.0000      -0.256543        -6.9809
 136   1.0000      -0.254181        -6.9166
 137   1.0000      -0.254080        -6.9139
 138   1.0000      -0.253244        -6.8911
 139   1.0000      -0.252554        -6.8723
 140   1.0000      -0.251498        -6.8436
 141   1.0000      -0.249024        -6.7763
 142   1.0000      -0.248780        -6.7697
 143   1.0000      -0.230929        -6.2839
 144   1.0000      -0.221514        -6.0277
 145   1.0000      -0.203185        -5.5289
 146   1.0000      -0.200500        -5.4559
 147   0.0000      -0.199607        -5.4316
 148   0.0000      -0.164456        -4.4751
 149   0.0000      -0.144513        -3.9324
 150   0.0000      -0.124007        -3.3744
 151   0.0000      -0.121050        -3.2939

                 SPIN DOWN ORBITALS
  NO   OCC          E(Eh)            E(eV)
   0   1.0000    -235.044585     -6395.8883
   1   1.0000     -27.133618      -738.3433
   2   1.0000     -23.201756      -631.3519
   3   1.0000     -23.200941      -631.3297
   4   1.0000     -23.200246      -631.3108
   5   1.0000      -4.124811      -112.2418
   6   1.0000      -4.124683      -112.2383
   7   1.0000      -4.123759      -112.2132
   8   1.0000      -4.123584      -112.2084
   9   1.0000      -4.122458      -112.1778
  10   1.0000      -4.118767      -112.0773
  11   1.0000      -4.117517      -112.0433
  12   1.0000      -4.117293      -112.0372
  13   1.0000      -4.115834      -111.9975
  14   1.0000      -4.115101      -111.9776
  15   1.0000      -4.114995      -111.9747
  16   1.0000      -4.113176      -111.9252
  17   1.0000      -4.112994      -111.9203
  18   1.0000      -4.112826      -111.9157
  19   1.0000      -3.033689       -82.5509
  20   1.0000      -2.315358       -63.0041
  21   1.0000      -2.314893       -62.9915
  22   1.0000      -2.311386       -62.8960
  23   1.0000      -2.311260       -62.8926
  24   1.0000      -2.310973       -62.8848
  25   1.0000      -2.310654       -62.8761
  26   1.0000      -2.309980       -62.8577
  27   1.0000      -2.309328       -62.8400
  28   1.0000      -2.308887       -62.8280
  29   1.0000      -2.307883       -62.8007
  30   1.0000      -2.307816       -62.7989
  31   1.0000      -2.307504       -62.7904
  32   1.0000      -2.307227       -62.7828
  33   1.0000      -2.306876       -62.7733
  34   1.0000      -2.306451       -62.7617
  35   1.0000      -2.305885       -62.7463
  36   1.0000      -2.305575       -62.7379
  37   1.0000      -2.304958       -62.7211
  38   1.0000      -2.304539       -62.7097
  39   1.0000      -2.303814       -62.6900
  40   1.0000      -2.303235       -62.6742
  41   1.0000      -2.302996       -62.6677
  42   1.0000      -2.302749       -62.6610
  43   1.0000      -2.302419       -62.6520
  44   1.0000      -2.301918       -62.6384
  45   1.0000      -2.301712       -62.6328
  46   1.0000      -2.301184       -62.6184
  47   1.0000      -2.300944       -62.6119
  48   1.0000      -2.300759       -62.6068
  49   1.0000      -2.300652       -62.6039
  50   1.0000      -2.300440       -62.5982
  51   1.0000      -2.300235       -62.5926
  52   1.0000      -2.299895       -62.5833
  53   1.0000      -2.299388       -62.5695
  54   1.0000      -2.298399       -62.5426
  55   1.0000      -2.298215       -62.5376
  56   1.0000      -2.297580       -62.5203
  57   1.0000      -2.297442       -62.5166
  58   1.0000      -2.297202       -62.5100
  59   1.0000      -2.296475       -62.4903
  60   1.0000      -2.295988       -62.4770
  61   1.0000      -2.295059       -62.4517
  62   1.0000      -1.892923       -51.5090
  63   1.0000      -1.891548       -51.4716
  64   1.0000      -1.890411       -51.4407
  65   1.0000      -0.431320       -11.7368
  66   1.0000      -0.397241       -10.8095
  67   1.0000      -0.390872       -10.6362
  68   1.0000      -0.390127       -10.6159
  69   1.0000      -0.380278       -10.3479
  70   1.0000      -0.376241       -10.2380
  71   1.0000      -0.374287       -10.1849
  72   1.0000      -0.372030       -10.1234
  73   1.0000      -0.370961       -10.0944
  74   1.0000      -0.366776        -9.9805
  75   1.0000      -0.365938        -9.9577
  76   1.0000      -0.364388        -9.9155
  77   1.0000      -0.360741        -9.8163
  78   1.0000      -0.359820        -9.7912
  79   1.0000      -0.358412        -9.7529
  80   1.0000      -0.356122        -9.6906
  81   1.0000      -0.352735        -9.5984
  82   1.0000      -0.349799        -9.5185
  83   1.0000      -0.348716        -9.4890
  84   1.0000      -0.347770        -9.4633
  85   1.0000      -0.346067        -9.4170
  86   1.0000      -0.344411        -9.3719
  87   1.0000      -0.339533        -9.2392
  88   1.0000      -0.335288        -9.1236
  89   1.0000      -0.332862        -9.0576
  90   1.0000      -0.331966        -9.0333
  91   1.0000      -0.329693        -8.9714
  92   1.0000      -0.327008        -8.8983
  93   1.0000      -0.325786        -8.8651
  94   1.0000      -0.324799        -8.8382
  95   1.0000      -0.320233        -8.7140
  96   1.0000      -0.319254        -8.6874
  97   1.0000      -0.315020        -8.5721
  98   1.0000      -0.314701        -8.5634
  99   1.0000      -0.314270        -8.5517
 100   1.0000      -0.310518        -8.4496
 101   1.0000      -0.306875        -8.3505
 102   1.0000      -0.305764        -8.3203
 103   1.0000      -0.302599        -8.2341
 104   1.0000      -0.300271        -8.1708
 105   1.0000      -0.299229        -8.1424
 106   1.0000      -0.295944        -8.0531
 107   1.0000      -0.295681        -8.0459
 108   1.0000      -0.291460        -7.9310
 109   1.0000      -0.289975        -7.8906
 110   1.0000      -0.287196        -7.8150
 111   1.0000      -0.285763        -7.7760
 112   1.0000      -0.284460        -7.7405
 113   1.0000      -0.282267        -7.6809
 114   1.0000      -0.281103        -7.6492
 115   1.0000      -0.280820        -7.6415
 116   1.0000      -0.277914        -7.5624
 117   1.0000      -0.274103        -7.4587
 118   1.0000      -0.273719        -7.4483
 119   1.0000      -0.270884        -7.3711
 120   1.0000      -0.269383        -7.3303
 121   1.0000      -0.268451        -7.3049
 122   1.0000      -0.267828        -7.2880
 123   1.0000      -0.265205        -7.2166
 124   1.0000      -0.264483        -7.1969
 125   1.0000      -0.263036        -7.1576
 126   1.0000      -0.262084        -7.1317
 127   1.0000      -0.260814        -7.0971
 128   1.0000      -0.259664        -7.0658
 129   1.0000      -0.259211        -7.0535
 130   1.0000      -0.258295        -7.0286
 131   1.0000      -0.256966        -6.9924
 132   1.0000      -0.256394        -6.9768
 133   1.0000      -0.255676        -6.9573
 134   1.0000      -0.254796        -6.9334
 135   1.0000      -0.253109        -6.8874
 136   1.0000      -0.252610        -6.8739
 137   1.0000      -0.250439        -6.8148
 138   1.0000      -0.231860        -6.3092
 139   1.0000      -0.229090        -6.2339
 140   1.0000      -0.215026        -5.8511
 141   1.0000      -0.214995        -5.8503
 142   1.0000      -0.212380        -5.7792
 143   1.0000      -0.180562        -4.9133
 144   0.0000      -0.150316        -4.0903
 145   0.0000      -0.136499        -3.7143
 146   0.0000      -0.121556        -3.3077
 147   0.0000      -0.121100        -3.2953
 148   0.0000      -0.110912        -3.0181

MULLIKEN ATOMIC CHARGES AND SPIN POPULATIONS
--------------------------------------------
   0 Au:    0.419562   -0.048643
   1 Au:    0.237207   -0.155652
   2 Au:    0.042002   -0.023193
   3 Au:    0.237548   -0.155745
   4 Au:    0.203812   -0.018036
   5 Au:    0.237619   -0.028877
   6 Au:   -0.131963   -0.069206
   7 Au:    0.156136   -0.119185
   8 Au:    0.156320   -0.119044
   9 Au:    0.233975   -0.303101
  10 Au:   -0.131844   -0.068233
  11 Au:    0.206643   -0.024866
  12 Au:    0.202398   -0.017280
  13 Au:    0.237551   -0.028871
  14 Mn:   -2.306965    4.179932
Sum of atomic charges         :   -0.0000000

LOEWDIN ATOMIC CHARGES AND SPIN POPULATIONS
-------------------------------------------
   0 Au:    0.101343   -0.101658
   1 Au:    0.051947   -0.105185
   2 Au:    0.023586   -0.072287
   3 Au:    0.052172   -0.105230
   4 Au:    0.036854   -0.050346
   5 Au:    0.054316   -0.062175
   6 Au:   -0.027247   -0.095549
   7 Au:    0.027623   -0.110138
   8 Au:    0.027167   -0.110444
   9 Au:    0.043840   -0.173414
  10 Au:   -0.027533   -0.095318
  11 Au:    0.066585   -0.055627
  12 Au:    0.036481   -0.049761
  13 Au:    0.054239   -0.061901
  14 Mn:   -0.521372    4.249033

  Mayer bond orders larger than 0.100000
B(  0-Au,  2-Au) :   0.2776 B(  0-Au,  6-Au) :   0.3253 B(  0-Au,  9-Au) :   0.1656
B(  0-Au, 10-Au) :   0.3266 B(  1-Au,  2-Au) :   0.2538 B(  1-Au,  3-Au) :   0.1730
B(  1-Au, 12-Au) :   0.2392 B(  1-Au, 13-Au) :   0.1768 B(  1-Au, 14-Mn) :   0.4433
B(  2-Au,  3-Au) :   0.2551 B(  2-Au,  6-Au) :   0.1262 B(  2-Au, 10-Au) :   0.1256
B(  2-Au, 14-Mn) :   0.4501 B(  3-Au,  4-Au) :   0.2392 B(  3-Au,  5-Au) :   0.1766
B(  3-Au, 14-Mn) :   0.4427 B(  4-Au,  5-Au) :   0.2747 B(  4-Au, 11-Au) :   0.1709
B(  4-Au, 12-Au) :   0.2295 B(  4-Au, 14-Mn) :   0.3419 B(  5-Au,  6-Au) :   0.3792
B(  5-Au,  8-Au) :   0.1611 B(  5-Au, 14-Mn) :   0.3974 B(  6-Au,  8-Au) :   0.2393
B(  6-Au,  9-Au) :   0.2447 B(  6-Au, 14-Mn) :   0.3809 B(  7-Au,  8-Au) :   0.1445
B(  7-Au,  9-Au) :   0.2405 B(  7-Au, 10-Au) :   0.2396 B(  7-Au, 11-Au) :   0.2237
B(  7-Au, 13-Au) :   0.1603 B(  7-Au, 14-Mn) :   0.4314 B(  8-Au,  9-Au) :   0.2429
B(  8-Au, 11-Au) :   0.2247 B(  8-Au, 14-Mn) :   0.4293 B(  9-Au, 10-Au) :   0.2436
B(  9-Au, 14-Mn) :   0.1122 B( 10-Au, 13-Au) :   0.3813 B( 10-Au, 14-Mn) :   0.3789
B( 11-Au, 12-Au) :   0.1699 B( 11-Au, 14-Mn) :   0.4768 B( 12-Au, 13-Au) :   0.2743
B( 12-Au, 14-Mn) :   0.3440 B( 13-Au, 14-Mn) :   0.3962

FINAL SINGLE POINT ENERGY     -3052.859352856102

DIPOLE MOMENT
-------------
                                X             Y             Z
Electronic contribution:     -5.14399      13.95172       9.53179
Nuclear contribution   :      5.02016     -13.67044      -9.35925
                        -----------------------------------------
Total Dipole Moment    :     -0.12383       0.28128       0.17254
                        -----------------------------------------
Magnitude (a.u.)       :      0.35245
Magnitude (Debye)      :      0.89585

Rotational constants in cm-1:     0.001238     0.000941     0.000935
Rotational constants in MHz :    37.100535    28.221771    28.034831

                             ****ORCA TERMINATED NORMALLY****
TOTAL RUN TIME: 0 days 0 hours 10 minutes 44 seconds 521 msec
