                         Program Version 5.0.3 -  RELEASE  -
|  1> !SC-NEVPT2 def2-TZVP def2-TZVP/C
|  2> !MOREAD RIJCOSX def2/J
|  3> %maxcore 4000
|  4> %moinp "casscf.gbw"
|  5> %pal nprocs 6 end
|  6>
|  7> %casscf
|  8>  mult 6,4
|  9>  bweight 1,1
| 10>  nroots 1,24
| 11>  nel 5
| 12>  norb 5
| 13>  ptsettings
| 14>   d4tpre 1e-14 # default = 1e-10
| 15>   d3tpre 1e-14
| 16>  end
| 17>  rel
| 18>    dosoc true
| 19>    gtensor true
| 20>  end
| 21> end
| 22>
| 23>
| 24> *xyzfile 0 6 pbe.xyz
| 25>
| 26>
| 27>                          ****END OF INPUT****

CARTESIAN COORDINATES (ANGSTROEM)
---------------------------------
  Au     8.963775    7.891973    5.125718
  Au     8.003762    9.800369    8.814112
  Au    10.480669    9.278982    7.066257
  Au     7.963895    7.464339   10.499594
  Au    10.292449    8.830323    9.783521
  Au    10.966056    6.580372    6.598949
  Au     8.124140   10.418069    6.114676
  Au     6.364840    8.168778    6.067024
  Au     9.321767    4.617403    7.692820
  Au     7.480174    5.670790    5.939265
  Au     4.925555    5.975724    7.059766
  Au     5.733704    7.893480    8.890828
  Au     6.973389    5.391918    8.920886
  Au     5.638581   10.373879    7.618271
  Mn     8.681719    7.295628    7.856414

 Total Charge           Charge          ....    0
 Multiplicity           Mult            ....    6
 Number of Electrons    NEL             ....  291
 Basis Dimension        Dim             ....  605

ORBITAL ENERGIES
----------------

  NO   OCC          E(Eh)            E(eV)
   0   2.0000    -240.561624     -6546.0146
   1   2.0000     -29.135751      -792.8241
   2   2.0000     -24.841255      -675.9649
   3   2.0000     -24.840515      -675.9448
   4   2.0000     -24.840278      -675.9383
   5   2.0000      -4.734272      -128.8261
   6   2.0000      -4.725421      -128.5852
   7   2.0000      -4.717039      -128.3571
   8   2.0000      -4.716930      -128.3542
   9   2.0000      -4.715625      -128.3187
  10   2.0000      -4.714300      -128.2826
  11   2.0000      -4.713708      -128.2665
  12   2.0000      -4.712357      -128.2297
  13   2.0000      -4.709273      -128.1458
  14   2.0000      -4.708913      -128.1360
  15   2.0000      -4.708569      -128.1267
  16   2.0000      -4.705225      -128.0357
  17   2.0000      -4.704029      -128.0031
  18   2.0000      -4.696206      -127.7903
  19   2.0000      -3.841078      -104.5211
  20   2.0000      -2.774429       -75.4961
  21   2.0000      -2.770456       -75.3879
  22   2.0000      -2.767963       -75.3201
  23   2.0000      -2.764941       -75.2379
  24   2.0000      -2.761993       -75.1576
  25   2.0000      -2.760938       -75.1289
  26   2.0000      -2.755388       -74.9779
  27   2.0000      -2.755014       -74.9677
  28   2.0000      -2.754496       -74.9537
  29   2.0000      -2.753552       -74.9280
  30   2.0000      -2.753070       -74.9148
  31   2.0000      -2.752618       -74.9025
  32   2.0000      -2.752298       -74.8938
  33   2.0000      -2.751824       -74.8809
  34   2.0000      -2.751445       -74.8706
  35   2.0000      -2.750333       -74.8404
  36   2.0000      -2.750020       -74.8318
  37   2.0000      -2.749706       -74.8233
  38   2.0000      -2.748552       -74.7919
  39   2.0000      -2.748237       -74.7833
  40   2.0000      -2.747991       -74.7766
  41   2.0000      -2.747668       -74.7678
  42   2.0000      -2.747292       -74.7576
  43   2.0000      -2.747007       -74.7499
  44   2.0000      -2.746447       -74.7346
  45   2.0000      -2.745710       -74.7146
  46   2.0000      -2.745252       -74.7021
  47   2.0000      -2.744772       -74.6890
  48   2.0000      -2.744031       -74.6689
  49   2.0000      -2.742312       -74.6221
  50   2.0000      -2.742050       -74.6150
  51   2.0000      -2.741639       -74.6038
  52   2.0000      -2.741420       -74.5978
  53   2.0000      -2.741091       -74.5889
  54   2.0000      -2.740302       -74.5674
  55   2.0000      -2.739619       -74.5488
  56   2.0000      -2.739329       -74.5409
  57   2.0000      -2.736876       -74.4742
  58   2.0000      -2.735960       -74.4493
  59   2.0000      -2.733613       -74.3854
  60   2.0000      -2.731567       -74.3297
  61   2.0000      -2.731242       -74.3209
  62   2.0000      -2.509723       -68.2930
  63   2.0000      -2.509323       -68.2822
  64   2.0000      -2.508764       -68.2670
  65   2.0000      -0.575419       -15.6579
  66   2.0000      -0.567045       -15.4301
  67   2.0000      -0.562333       -15.3019
  68   2.0000      -0.559147       -15.2152
  69   2.0000      -0.557112       -15.1598
  70   2.0000      -0.554013       -15.0755
  71   2.0000      -0.548824       -14.9343
  72   2.0000      -0.546846       -14.8804
  73   2.0000      -0.545398       -14.8410
  74   2.0000      -0.543091       -14.7783
  75   2.0000      -0.542122       -14.7519
  76   2.0000      -0.539466       -14.6796
  77   2.0000      -0.537800       -14.6343
  78   2.0000      -0.534504       -14.5446
  79   2.0000      -0.533703       -14.5228
  80   2.0000      -0.532287       -14.4843
  81   2.0000      -0.528854       -14.3909
  82   2.0000      -0.524827       -14.2813
  83   2.0000      -0.520101       -14.1527
  84   2.0000      -0.518941       -14.1211
  85   2.0000      -0.516828       -14.0636
  86   2.0000      -0.515108       -14.0168
  87   2.0000      -0.513176       -13.9642
  88   2.0000      -0.511396       -13.9158
  89   2.0000      -0.508109       -13.8263
  90   2.0000      -0.506027       -13.7697
  91   2.0000      -0.501788       -13.6543
  92   2.0000      -0.501269       -13.6402
  93   2.0000      -0.499225       -13.5846
  94   2.0000      -0.494377       -13.4527
  95   2.0000      -0.492391       -13.3986
  96   2.0000      -0.489828       -13.3289
  97   2.0000      -0.487318       -13.2606
  98   2.0000      -0.479507       -13.0480
  99   2.0000      -0.478207       -13.0127
 100   2.0000      -0.476243       -12.9592
 101   2.0000      -0.473329       -12.8799
 102   2.0000      -0.468861       -12.7584
 103   2.0000      -0.466990       -12.7074
 104   2.0000      -0.465426       -12.6649
 105   2.0000      -0.462161       -12.5760
 106   2.0000      -0.461928       -12.5697
 107   2.0000      -0.458285       -12.4706
 108   2.0000      -0.457973       -12.4621
 109   2.0000      -0.455919       -12.4062
 110   2.0000      -0.452794       -12.3212
 111   2.0000      -0.452235       -12.3059
 112   2.0000      -0.451022       -12.2729
 113   2.0000      -0.449739       -12.2380
 114   2.0000      -0.449235       -12.2243
 115   2.0000      -0.447167       -12.1680
 116   2.0000      -0.444461       -12.0944
 117   2.0000      -0.443080       -12.0568
 118   2.0000      -0.440799       -11.9947
 119   2.0000      -0.436935       -11.8896
 120   2.0000      -0.435821       -11.8593
 121   2.0000      -0.432461       -11.7679
 122   2.0000      -0.429432       -11.6854
 123   2.0000      -0.427419       -11.6307
 124   2.0000      -0.425815       -11.5870
 125   2.0000      -0.424627       -11.5547
 126   2.0000      -0.423906       -11.5351
 127   2.0000      -0.423063       -11.5121
 128   2.0000      -0.421348       -11.4655
 129   2.0000      -0.419289       -11.4094
 130   2.0000      -0.415744       -11.3130
 131   2.0000      -0.413354       -11.2479
 132   2.0000      -0.408715       -11.1217
 133   2.0000      -0.404039       -10.9945
 134   2.0000      -0.395216       -10.7544
 135   2.0000      -0.389527       -10.5996
 136   2.0000      -0.370633       -10.0854
 137   2.0000      -0.361328        -9.8322
 138   2.0000      -0.346515        -9.4292
 139   2.0000      -0.263417        -7.1680
 140   2.0000      -0.235573        -6.4103
 141   2.0000      -0.228397        -6.2150
 142   2.0000      -0.223170        -6.0728
 143   1.0000      -0.155317        -4.2264
 144   1.0000      -0.159890        -4.3508
 145   1.0000      -0.153440        -4.1753
 146   1.0000      -0.158518        -4.3135
 147   1.0000      -0.163485        -4.4486
 148   0.0000      -0.040183        -1.0934
 149   0.0000      -0.025063        -0.6820
 150   0.0000      -0.008812        -0.2398
 151   0.0000       0.002821         0.0768
 152   0.0000       0.013332         0.3628

MULLIKEN ATOMIC CHARGES AND SPIN DENSITIES
------------------------------------------
   0 Au:    0.149938    0.007919
   1 Au:   -0.448022    0.008381
   2 Au:    0.134116    0.008374
   3 Au:    0.252656    0.008826
   4 Au:    0.427377    0.006792
   5 Au:    0.222978    0.009852
   6 Au:    0.188696    0.004949
   7 Au:   -0.524050    0.005726
   8 Au:    0.287476    0.008578
   9 Au:    0.168957    0.008185
  10 Au:    0.394771    0.004348
  11 Au:   -0.140681    0.006154
  12 Au:    0.102071    0.009215
  13 Au:    0.518946    0.003252
  14 Mn:   -1.735228    3.899450
Sum of atomic charges       :    0.0000000

LOEWDIN ATOMIC CHARGES AND SPIN DENSITIES
-----------------------------------------
   0 Au:   -0.011226    0.010675
   1 Au:   -0.112265    0.012610
   2 Au:   -0.063060    0.012065
   3 Au:    0.075886    0.012058
   4 Au:    0.136250    0.009414
   5 Au:    0.055142    0.012920
   6 Au:    0.026314    0.005676
   7 Au:   -0.106574    0.007739
   8 Au:    0.097176    0.011821
   9 Au:   -0.030107    0.011845
  10 Au:    0.100300    0.005359
  11 Au:   -0.106967    0.008245
  12 Au:   -0.071688    0.013269
  13 Au:    0.181699    0.003885
  14 Mn:   -0.170880    3.862420

  Mayer bond orders larger than 0.100000
B(  0-Au,  2-Au) :   0.1304 B(  0-Au,  5-Au) :   0.1522 B(  0-Au,  6-Au) :   0.1822
B(  0-Au,  7-Au) :   0.3832 B(  0-Au,  9-Au) :   0.1643 B(  0-Au, 14-Mn) :   0.3874
B(  1-Au,  2-Au) :   0.1485 B(  1-Au,  3-Au) :   0.1504 B(  1-Au,  4-Au) :   0.4664
B(  1-Au,  6-Au) :   0.2540 B(  1-Au,  7-Au) :   0.2312 B(  1-Au, 11-Au) :   0.1747
B(  1-Au, 13-Au) :   0.3796 B(  1-Au, 14-Mn) :   0.4716 B(  2-Au,  4-Au) :   0.1536
B(  2-Au,  5-Au) :   0.2136 B(  2-Au,  6-Au) :   0.3058 B(  2-Au, 14-Mn) :   0.3836
B(  3-Au,  4-Au) :   0.1268 B(  3-Au, 11-Au) :   0.2363 B(  3-Au, 12-Au) :   0.1523
B(  3-Au, 14-Mn) :   0.4265 B(  4-Au, 14-Mn) :   0.2196 B(  5-Au,  8-Au) :   0.1489
B(  5-Au, 14-Mn) :   0.4695 B(  6-Au,  7-Au) :   0.2057 B(  6-Au, 13-Au) :   0.1075
B(  6-Au, 14-Mn) :   0.1559 B(  7-Au,  9-Au) :   0.4188 B(  7-Au, 10-Au) :   0.2855
B(  7-Au, 11-Au) :   0.3329 B(  7-Au, 13-Au) :   0.1843 B(  7-Au, 14-Mn) :   0.2558
B(  8-Au,  9-Au) :   0.2071 B(  8-Au, 12-Au) :   0.1993 B(  8-Au, 14-Mn) :   0.3846
B(  9-Au, 10-Au) :   0.1978 B(  9-Au, 12-Au) :   0.1384 B(  9-Au, 14-Mn) :   0.3751
B( 10-Au, 11-Au) :   0.2118 B( 10-Au, 12-Au) :   0.2008 B( 11-Au, 12-Au) :   0.2681
B( 11-Au, 13-Au) :   0.2134 B( 11-Au, 14-Mn) :   0.2783 B( 12-Au, 14-Mn) :   0.4084

FINAL SINGLE POINT ENERGY     -3044.141638596852

DIPOLE MOMENT
-------------
                                X             Y             Z
Electronic contribution:    -26.87229      16.38851      -9.67092
Nuclear contribution   :     26.88379     -16.21063       9.90247
                        -----------------------------------------
Total Dipole Moment    :      0.01150       0.17788       0.23155
                        -----------------------------------------
Magnitude (a.u.)       :      0.29221
Magnitude (Debye)      :      0.74275

Rotational constants in cm-1:     0.001085     0.001061     0.000915
Rotational constants in MHz :    32.527920    31.815017    27.423815

                             ****ORCA TERMINATED NORMALLY****
TOTAL RUN TIME: 0 days 2 hours 11 minutes 57 seconds 670 msec
