                         Program Version 5.0.3 -  RELEASE  -
|  1> !SC-NEVPT2 def2-TZVP def2-TZVP/C
|  2> !MOREAD RIJCOSX def2/J
|  3> %maxcore 4000
|  4> %moinp "casscf.gbw"
|  5> %pal nprocs 8 end
|  6>
|  7> %casscf
|  8>  mult 5,3
|  9>  bweight 1,1
| 10>  nroots 5,45
| 11>  nel 6
| 12>  norb 5
| 13>  ptsettings
| 14>   d4tpre 1e-14 # default = 1e-10
| 15>   d3tpre 1e-14
| 16>  end
| 17>  rel
| 18>    dosoc true
| 19>    gtensor true
| 20>  end
| 21> end
| 22>
| 23>
| 24> *xyzfile 0 5 pbe.xyz
| 25>
| 26>
| 27>                          ****END OF INPUT****

CARTESIAN COORDINATES (ANGSTROEM)
---------------------------------
  Au     9.920557    7.617424   10.396405
  Au     7.943021    5.543909   10.667676
  Au    10.639938    5.088328   10.787685
  Au     8.082561    3.249881    8.866048
  Au     5.716120    6.925070   10.234563
  Au     9.065541    9.909993    9.425681
  Au     9.979221    7.960219    7.354652
  Au     9.522176    5.459340    8.107685
  Au     5.469950    7.538687    7.285982
  Au     6.665653    5.264661    7.861938
  Cr     7.743962    7.661372    8.717122

 Total Charge           Charge          ....    0
 Multiplicity           Mult            ....    5
 Number of Electrons    NEL             ....  214
 Basis Dimension        Dim             ....  445

ORBITAL ENERGIES
----------------

  NO   OCC          E(Eh)            E(eV)
   0   2.0000    -220.485600     -5999.7182
   1   2.0000     -26.323437      -716.2971
   2   2.0000     -22.256992      -605.6435
   3   2.0000     -22.256738      -605.6366
   4   2.0000     -22.243295      -605.2708
   5   2.0000      -4.710420      -128.1771
   6   2.0000      -4.709593      -128.1546
   7   2.0000      -4.708308      -128.1196
   8   2.0000      -4.706716      -128.0763
   9   2.0000      -4.703932      -128.0005
  10   2.0000      -4.702635      -127.9652
  11   2.0000      -4.699294      -127.8743
  12   2.0000      -4.699257      -127.8733
  13   2.0000      -4.697291      -127.8198
  14   2.0000      -4.696578      -127.8004
  15   2.0000      -3.378490       -91.9334
  16   2.0000      -2.752573       -74.9013
  17   2.0000      -2.751985       -74.8853
  18   2.0000      -2.750084       -74.8336
  19   2.0000      -2.748852       -74.8001
  20   2.0000      -2.747465       -74.7623
  21   2.0000      -2.747090       -74.7521
  22   2.0000      -2.744336       -74.6772
  23   2.0000      -2.743991       -74.6678
  24   2.0000      -2.743545       -74.6557
  25   2.0000      -2.742279       -74.6212
  26   2.0000      -2.742116       -74.6168
  27   2.0000      -2.741798       -74.6081
  28   2.0000      -2.741002       -74.5865
  29   2.0000      -2.740702       -74.5783
  30   2.0000      -2.738645       -74.5223
  31   2.0000      -2.737715       -74.4970
  32   2.0000      -2.737105       -74.4804
  33   2.0000      -2.736443       -74.4624
  34   2.0000      -2.736184       -74.4553
  35   2.0000      -2.735736       -74.4431
  36   2.0000      -2.734419       -74.4073
  37   2.0000      -2.733895       -74.3931
  38   2.0000      -2.733111       -74.3717
  39   2.0000      -2.732962       -74.3677
  40   2.0000      -2.732466       -74.3542
  41   2.0000      -2.732412       -74.3527
  42   2.0000      -2.730917       -74.3120
  43   2.0000      -2.730113       -74.2901
  44   2.0000      -2.729491       -74.2732
  45   2.0000      -2.728795       -74.2543
  46   2.0000      -2.145534       -58.3829
  47   2.0000      -2.141747       -58.2799
  48   2.0000      -2.130892       -57.9845
  49   2.0000      -0.551937       -15.0190
  50   2.0000      -0.548784       -14.9332
  51   2.0000      -0.543703       -14.7949
  52   2.0000      -0.538772       -14.6607
  53   2.0000      -0.536424       -14.5968
  54   2.0000      -0.533385       -14.5142
  55   2.0000      -0.532629       -14.4936
  56   2.0000      -0.527381       -14.3508
  57   2.0000      -0.525027       -14.2867
  58   2.0000      -0.520767       -14.1708
  59   2.0000      -0.519610       -14.1393
  60   2.0000      -0.509396       -13.8614
  61   2.0000      -0.503961       -13.7135
  62   2.0000      -0.497516       -13.5381
  63   2.0000      -0.497201       -13.5295
  64   2.0000      -0.496104       -13.4997
  65   2.0000      -0.489497       -13.3199
  66   2.0000      -0.482935       -13.1413
  67   2.0000      -0.481508       -13.1025
  68   2.0000      -0.475841       -12.9483
  69   2.0000      -0.472290       -12.8517
  70   2.0000      -0.468299       -12.7431
  71   2.0000      -0.467436       -12.7196
  72   2.0000      -0.466374       -12.6907
  73   2.0000      -0.464947       -12.6518
  74   2.0000      -0.461767       -12.5653
  75   2.0000      -0.460272       -12.5246
  76   2.0000      -0.458268       -12.4701
  77   2.0000      -0.456867       -12.4320
  78   2.0000      -0.454660       -12.3719
  79   2.0000      -0.450394       -12.2558
  80   2.0000      -0.449393       -12.2286
  81   2.0000      -0.448641       -12.2081
  82   2.0000      -0.448233       -12.1970
  83   2.0000      -0.447438       -12.1754
  84   2.0000      -0.441163       -12.0046
  85   2.0000      -0.439442       -11.9578
  86   2.0000      -0.437431       -11.9031
  87   2.0000      -0.436172       -11.8688
  88   2.0000      -0.431933       -11.7535
  89   2.0000      -0.430468       -11.7136
  90   2.0000      -0.429170       -11.6783
  91   2.0000      -0.428232       -11.6528
  92   2.0000      -0.424260       -11.5447
  93   2.0000      -0.423799       -11.5322
  94   2.0000      -0.420085       -11.4311
  95   2.0000      -0.419152       -11.4057
  96   2.0000      -0.413862       -11.2618
  97   2.0000      -0.406871       -11.0715
  98   2.0000      -0.394460       -10.7338
  99   2.0000      -0.389829       -10.6078
 100   2.0000      -0.338298        -9.2056
 101   2.0000      -0.319926        -8.7056
 102   2.0000      -0.265700        -7.2301
 103   2.0000      -0.233751        -6.3607
 104   1.2000      -0.074577        -2.0293
 105   1.2000      -0.074773        -2.0347
 106   1.2000      -0.067568        -1.8386
 107   1.2000      -0.126002        -3.4287
 108   1.2000      -0.132596        -3.6081
 109   0.0000      -0.021913        -0.5963
 110   0.0000       0.000962         0.0262
 111   0.0000       0.004604         0.1253
 112   0.0000       0.023579         0.6416
 113   0.0000       0.032590         0.8868

MULLIKEN ATOMIC CHARGES AND SPIN DENSITIES
------------------------------------------
   0 Au:   -0.094003    0.042337
   1 Au:   -0.262444    0.074636
   2 Au:    0.501014    0.017947
   3 Au:    0.509584    0.016797
   4 Au:    0.406658    0.075625
   5 Au:    0.375875    0.052292
   6 Au:    0.400478    0.070160
   7 Au:   -0.270266    0.073758
   8 Au:    0.374613    0.061158
   9 Au:   -0.102168    0.044115
  10 Cr:   -1.839342    2.471175
Sum of atomic charges       :    0.0000000

LOEWDIN ATOMIC CHARGES AND SPIN DENSITIES
-----------------------------------------
   0 Au:   -0.079404    0.057945
   1 Au:   -0.097299    0.056403
   2 Au:    0.168509    0.021970
   3 Au:    0.168991    0.020992
   4 Au:    0.152736    0.084230
   5 Au:    0.170511    0.062223
   6 Au:    0.142014    0.079762
   7 Au:   -0.093746    0.055371
   8 Au:    0.173414    0.069729
   9 Au:   -0.081986    0.061045
  10 Cr:   -0.623739    2.430331

  Mayer bond orders larger than 0.100000
B(  0-Au,  1-Au) :   0.3558 B(  0-Au,  2-Au) :   0.4696 B(  0-Au,  5-Au) :   0.4246
B(  0-Au,  7-Au) :   0.1328 B(  0-Au, 10-Cr) :   0.3637 B(  1-Au,  2-Au) :   0.2829
B(  1-Au,  4-Au) :   0.4492 B(  1-Au,  7-Au) :   0.2444 B(  1-Au,  9-Au) :   0.1447
B(  1-Au, 10-Cr) :   0.3789 B(  3-Au,  7-Au) :   0.2789 B(  3-Au,  9-Au) :   0.4687
B(  4-Au, 10-Cr) :   0.3265 B(  5-Au, 10-Cr) :   0.3779 B(  6-Au,  7-Au) :   0.4547
B(  6-Au, 10-Cr) :   0.3274 B(  7-Au,  9-Au) :   0.3607 B(  7-Au, 10-Cr) :   0.3785
B(  8-Au,  9-Au) :   0.4253 B(  8-Au, 10-Cr) :   0.3820 B(  9-Au, 10-Cr) :   0.3508

FINAL SINGLE POINT ENERGY     -2396.339241482054

DIPOLE MOMENT
-------------
                                X             Y             Z
Electronic contribution:     19.39596     -42.08913      13.32990
Nuclear contribution   :    -19.45101      42.13846     -13.34138
                        -----------------------------------------
Total Dipole Moment    :     -0.05505       0.04933      -0.01148
                        -----------------------------------------
Magnitude (a.u.)       :      0.07480
Magnitude (Debye)      :      0.19013

Rotational constants in cm-1:     0.001807     0.001781     0.001299
Rotational constants in MHz :    54.183364    53.402942    38.946438

                             ****ORCA TERMINATED NORMALLY****
TOTAL RUN TIME: 0 days 0 hours 25 minutes 38 seconds 550 msec
