                         Program Version 5.0.3 -  RELEASE  -
|  1> !RI-B2PLYP def2-TZVP def2-TZVP/C
|  2> !RIJCOSX VERYSLOWCONV
|  3>
|  4> %scf
|  5>   AutoTRAHIter 200
|  6>   maxiter 400
|  7> end
|  8>
|  9>
| 10> %pal nprocs 6 end
| 11>
| 12> *xyzfile 0 5 pbe.xyz
| 13>
| 14> $new_job
| 15>
| 16> !RI-B2PLYP def2-TZVP def2-TZVP/C
| 17> !RIJCOSX VERYSLOWCONV
| 18>
| 19> %scf
| 20>   AutoTRAHIter 200
| 21>   maxiter 400
| 22> end
| 23>
| 24>
| 25> %pal nprocs 6 end
| 26>
| 27> *xyzfile 0 3 pbe.xyz
| 28>
| 29>
| 30>
| 31>
| 32>
| 33>                          ****END OF INPUT****
 Total Charge           Charge          ....    0
 Multiplicity           Mult            ....    5
 Number of Electrons    NEL             ....  290
MP2 TOTAL ENERGY:    -2942.503853918 Eh
FINAL SINGLE POINT ENERGY     -2942.503853918437

CARTESIAN COORDINATES (ANGSTROEM)
---------------------------------
  Au     7.869494    7.748588    5.274060
  Au    10.520025    6.465044    5.450092
  Au     6.003454    9.618160    6.308971
  Au     6.110440    6.746900    7.275676
  Au     8.432692   10.591225    5.843691
  Au    10.433049    9.069563    4.589608
  Au    11.092165   10.839533    6.669445
  Au     4.305095    8.582530    8.170673
  Au     8.612063    5.863013    7.421071
  Au    11.266017    6.350917    8.155977
  Au     6.961470    8.913843    8.869135
  Au     9.250475    7.682329    9.630383
  Au    11.666471    9.052456    8.735896
  Au     9.140030   10.512746    8.689760
  Cr     9.671370    8.430422    7.100756

 Multiplicity           Mult            ....    3
 Number of Electrons    NEL             ....  290
 Basis Dimension        Dim             ....  605

ORBITAL ENERGIES
----------------
                 SPIN UP ORBITALS
  NO   OCC          E(Eh)            E(eV)
   0   1.0000    -217.769699     -5925.8148
   1   1.0000     -25.457540      -692.7349
   2   1.0000     -21.597911      -587.7090
   3   1.0000     -21.596272      -587.6645
   4   1.0000     -21.590631      -587.5109
   5   1.0000      -4.403076      -119.8138
   6   1.0000      -4.401067      -119.7591
   7   1.0000      -4.400973      -119.7566
   8   1.0000      -4.397655      -119.6663
   9   1.0000      -4.397406      -119.6595
  10   1.0000      -4.395785      -119.6154
  11   1.0000      -4.395446      -119.6062
  12   1.0000      -4.395151      -119.5981
  13   1.0000      -4.394190      -119.5720
  14   1.0000      -4.393985      -119.5664
  15   1.0000      -4.392253      -119.5193
  16   1.0000      -4.384917      -119.3196
  17   1.0000      -4.384339      -119.3039
  18   1.0000      -4.384146      -119.2987
  19   1.0000      -3.243703       -88.2656
  20   1.0000      -2.524109       -68.6845
  21   1.0000      -2.522643       -68.6446
  22   1.0000      -2.521476       -68.6128
  23   1.0000      -2.520770       -68.5936
  24   1.0000      -2.519737       -68.5655
  25   1.0000      -2.519350       -68.5550
  26   1.0000      -2.519063       -68.5472
  27   1.0000      -2.518721       -68.5379
  28   1.0000      -2.518593       -68.5344
  29   1.0000      -2.517263       -68.4982
  30   1.0000      -2.517052       -68.4925
  31   1.0000      -2.516249       -68.4706
  32   1.0000      -2.515717       -68.4561
  33   1.0000      -2.515595       -68.4528
  34   1.0000      -2.515376       -68.4469
  35   1.0000      -2.514645       -68.4270
  36   1.0000      -2.514291       -68.4173
  37   1.0000      -2.514050       -68.4108
  38   1.0000      -2.513042       -68.3834
  39   1.0000      -2.512639       -68.3724
  40   1.0000      -2.512561       -68.3703
  41   1.0000      -2.511836       -68.3505
  42   1.0000      -2.511725       -68.3475
  43   1.0000      -2.510669       -68.3188
  44   1.0000      -2.510178       -68.3054
  45   1.0000      -2.509884       -68.2974
  46   1.0000      -2.509021       -68.2739
  47   1.0000      -2.508923       -68.2713
  48   1.0000      -2.508671       -68.2644
  49   1.0000      -2.508506       -68.2599
  50   1.0000      -2.508216       -68.2520
  51   1.0000      -2.507481       -68.2320
  52   1.0000      -2.507419       -68.2303
  53   1.0000      -2.506615       -68.2085
  54   1.0000      -2.504392       -68.1480
  55   1.0000      -2.501579       -68.0714
  56   1.0000      -2.500414       -68.0397
  57   1.0000      -2.499974       -68.0277
  58   1.0000      -2.499434       -68.0130
  59   1.0000      -2.498986       -68.0009
  60   1.0000      -2.498951       -67.9999
  61   1.0000      -2.498634       -67.9913
  62   1.0000      -2.134474       -58.0820
  63   1.0000      -2.126568       -57.8669
  64   1.0000      -2.123122       -57.7731
  65   1.0000      -0.505327       -13.7506
  66   1.0000      -0.484627       -13.1874
  67   1.0000      -0.482653       -13.1337
  68   1.0000      -0.478028       -13.0078
  69   1.0000      -0.470959       -12.8154
  70   1.0000      -0.468079       -12.7371
  71   1.0000      -0.460631       -12.5344
  72   1.0000      -0.459036       -12.4910
  73   1.0000      -0.457668       -12.4538
  74   1.0000      -0.456897       -12.4328
  75   1.0000      -0.456371       -12.4185
  76   1.0000      -0.452462       -12.3121
  77   1.0000      -0.449193       -12.2231
  78   1.0000      -0.447755       -12.1840
  79   1.0000      -0.446436       -12.1481
  80   1.0000      -0.445700       -12.1281
  81   1.0000      -0.442871       -12.0511
  82   1.0000      -0.438730       -11.9384
  83   1.0000      -0.435403       -11.8479
  84   1.0000      -0.432092       -11.7578
  85   1.0000      -0.427894       -11.6436
  86   1.0000      -0.426815       -11.6142
  87   1.0000      -0.426084       -11.5943
  88   1.0000      -0.423645       -11.5280
  89   1.0000      -0.421252       -11.4628
  90   1.0000      -0.419715       -11.4210
  91   1.0000      -0.417074       -11.3492
  92   1.0000      -0.413748       -11.2586
  93   1.0000      -0.411225       -11.1900
  94   1.0000      -0.410485       -11.1699
  95   1.0000      -0.408145       -11.1062
  96   1.0000      -0.407014       -11.0754
  97   1.0000      -0.403368       -10.9762
  98   1.0000      -0.400617       -10.9013
  99   1.0000      -0.397515       -10.8169
 100   1.0000      -0.396742       -10.7959
 101   1.0000      -0.396197       -10.7811
 102   1.0000      -0.393721       -10.7137
 103   1.0000      -0.391822       -10.6620
 104   1.0000      -0.386990       -10.5305
 105   1.0000      -0.385618       -10.4932
 106   1.0000      -0.379929       -10.3384
 107   1.0000      -0.379787       -10.3345
 108   1.0000      -0.378777       -10.3071
 109   1.0000      -0.376305       -10.2398
 110   1.0000      -0.371640       -10.1128
 111   1.0000      -0.368921       -10.0389
 112   1.0000      -0.366626        -9.9764
 113   1.0000      -0.365922        -9.9572
 114   1.0000      -0.364981        -9.9316
 115   1.0000      -0.363656        -9.8956
 116   1.0000      -0.362563        -9.8658
 117   1.0000      -0.361236        -9.8297
 118   1.0000      -0.359552        -9.7839
 119   1.0000      -0.359259        -9.7759
 120   1.0000      -0.358321        -9.7504
 121   1.0000      -0.356429        -9.6989
 122   1.0000      -0.355043        -9.6612
 123   1.0000      -0.352316        -9.5870
 124   1.0000      -0.348186        -9.4746
 125   1.0000      -0.348033        -9.4705
 126   1.0000      -0.347741        -9.4625
 127   1.0000      -0.344304        -9.3690
 128   1.0000      -0.342004        -9.3064
 129   1.0000      -0.341562        -9.2944
 130   1.0000      -0.340298        -9.2600
 131   1.0000      -0.337524        -9.1845
 132   1.0000      -0.334663        -9.1067
 133   1.0000      -0.333336        -9.0705
 134   1.0000      -0.330172        -8.9844
 135   1.0000      -0.327426        -8.9097
 136   1.0000      -0.325863        -8.8672
 137   1.0000      -0.325113        -8.8468
 138   1.0000      -0.322106        -8.7649
 139   1.0000      -0.317681        -8.6445
 140   1.0000      -0.308076        -8.3832
 141   1.0000      -0.299813        -8.1583
 142   1.0000      -0.296012        -8.0549
 143   1.0000      -0.249939        -6.8012
 144   1.0000      -0.232895        -6.3374
 145   1.0000      -0.219486        -5.9725
 146   0.0000      -0.116546        -3.1714
 147   0.0000      -0.113688        -3.0936
 148   0.0000      -0.078765        -2.1433
 149   0.0000      -0.070488        -1.9181
 150   0.0000      -0.058032        -1.5791

                 SPIN DOWN ORBITALS
  NO   OCC          E(Eh)            E(eV)
   0   1.0000    -217.768374     -5925.7787
   1   1.0000     -25.388273      -690.8500
   2   1.0000     -21.540319      -586.1419
   3   1.0000     -21.534790      -585.9914
   4   1.0000     -21.517755      -585.5279
   5   1.0000      -4.403758      -119.8323
   6   1.0000      -4.401378      -119.7676
   7   1.0000      -4.401284      -119.7650
   8   1.0000      -4.397678      -119.6669
   9   1.0000      -4.397426      -119.6600
  10   1.0000      -4.396544      -119.6360
  11   1.0000      -4.395713      -119.6134
  12   1.0000      -4.395419      -119.6054
  13   1.0000      -4.394344      -119.5762
  14   1.0000      -4.394139      -119.5706
  15   1.0000      -4.392267      -119.5197
  16   1.0000      -4.385219      -119.3279
  17   1.0000      -4.384661      -119.3127
  18   1.0000      -4.384470      -119.3075
  19   1.0000      -3.032076       -82.5070
  20   1.0000      -2.523646       -68.6719
  21   1.0000      -2.521637       -68.6172
  22   1.0000      -2.520576       -68.5884
  23   1.0000      -2.520449       -68.5849
  24   1.0000      -2.520088       -68.5751
  25   1.0000      -2.519659       -68.5634
  26   1.0000      -2.519177       -68.5503
  27   1.0000      -2.518390       -68.5289
  28   1.0000      -2.518236       -68.5247
  29   1.0000      -2.516970       -68.4902
  30   1.0000      -2.516374       -68.4740
  31   1.0000      -2.515988       -68.4635
  32   1.0000      -2.515624       -68.4536
  33   1.0000      -2.514993       -68.4364
  34   1.0000      -2.514772       -68.4304
  35   1.0000      -2.514452       -68.4217
  36   1.0000      -2.513786       -68.4036
  37   1.0000      -2.513485       -68.3954
  38   1.0000      -2.512880       -68.3789
  39   1.0000      -2.512470       -68.3678
  40   1.0000      -2.512346       -68.3644
  41   1.0000      -2.511754       -68.3483
  42   1.0000      -2.511598       -68.3441
  43   1.0000      -2.510920       -68.3256
  44   1.0000      -2.510323       -68.3094
  45   1.0000      -2.509728       -68.2932
  46   1.0000      -2.509114       -68.2765
  47   1.0000      -2.508760       -68.2668
  48   1.0000      -2.508579       -68.2619
  49   1.0000      -2.508195       -68.2515
  50   1.0000      -2.508004       -68.2463
  51   1.0000      -2.507706       -68.2381
  52   1.0000      -2.507401       -68.2299
  53   1.0000      -2.506413       -68.2030
  54   1.0000      -2.504724       -68.1570
  55   1.0000      -2.502017       -68.0833
  56   1.0000      -2.500723       -68.0481
  57   1.0000      -2.500288       -68.0363
  58   1.0000      -2.499798       -68.0230
  59   1.0000      -2.499462       -68.0138
  60   1.0000      -2.499326       -68.0101
  61   1.0000      -2.499245       -68.0079
  62   1.0000      -1.905916       -51.8626
  63   1.0000      -1.893060       -51.5128
  64   1.0000      -1.855527       -50.4915
  65   1.0000      -0.497355       -13.5337
  66   1.0000      -0.477294       -12.9878
  67   1.0000      -0.469008       -12.7624
  68   1.0000      -0.466853       -12.7037
  69   1.0000      -0.462607       -12.5882
  70   1.0000      -0.461573       -12.5600
  71   1.0000      -0.460504       -12.5309
  72   1.0000      -0.458177       -12.4676
  73   1.0000      -0.457344       -12.4450
  74   1.0000      -0.455944       -12.4069
  75   1.0000      -0.453629       -12.3439
  76   1.0000      -0.451067       -12.2742
  77   1.0000      -0.449409       -12.2290
  78   1.0000      -0.448379       -12.2010
  79   1.0000      -0.446893       -12.1606
  80   1.0000      -0.444337       -12.0910
  81   1.0000      -0.442233       -12.0338
  82   1.0000      -0.436773       -11.8852
  83   1.0000      -0.436354       -11.8738
  84   1.0000      -0.431877       -11.7520
  85   1.0000      -0.427818       -11.6415
  86   1.0000      -0.427394       -11.6300
  87   1.0000      -0.426395       -11.6028
  88   1.0000      -0.424965       -11.5639
  89   1.0000      -0.421302       -11.4642
  90   1.0000      -0.419108       -11.4045
  91   1.0000      -0.416114       -11.3230
  92   1.0000      -0.413033       -11.2392
  93   1.0000      -0.411116       -11.1870
  94   1.0000      -0.409478       -11.1425
  95   1.0000      -0.407834       -11.0977
  96   1.0000      -0.404807       -11.0154
  97   1.0000      -0.400825       -10.9070
  98   1.0000      -0.399144       -10.8613
  99   1.0000      -0.396341       -10.7850
 100   1.0000      -0.395650       -10.7662
 101   1.0000      -0.392049       -10.6682
 102   1.0000      -0.387740       -10.5509
 103   1.0000      -0.386355       -10.5133
 104   1.0000      -0.383590       -10.4380
 105   1.0000      -0.380892       -10.3646
 106   1.0000      -0.378993       -10.3129
 107   1.0000      -0.376106       -10.2344
 108   1.0000      -0.373549       -10.1648
 109   1.0000      -0.372539       -10.1373
 110   1.0000      -0.369459       -10.0535
 111   1.0000      -0.366562        -9.9747
 112   1.0000      -0.366408        -9.9705
 113   1.0000      -0.365761        -9.9529
 114   1.0000      -0.365579        -9.9479
 115   1.0000      -0.362988        -9.8774
 116   1.0000      -0.361873        -9.8471
 117   1.0000      -0.360944        -9.8218
 118   1.0000      -0.358882        -9.7657
 119   1.0000      -0.358777        -9.7628
 120   1.0000      -0.357188        -9.7196
 121   1.0000      -0.355340        -9.6693
 122   1.0000      -0.353067        -9.6074
 123   1.0000      -0.350215        -9.5298
 124   1.0000      -0.349047        -9.4980
 125   1.0000      -0.345261        -9.3950
 126   1.0000      -0.344501        -9.3743
 127   1.0000      -0.344339        -9.3699
 128   1.0000      -0.342790        -9.3278
 129   1.0000      -0.339971        -9.2511
 130   1.0000      -0.337134        -9.1739
 131   1.0000      -0.336176        -9.1478
 132   1.0000      -0.331879        -9.0309
 133   1.0000      -0.328279        -8.9329
 134   1.0000      -0.326483        -8.8840
 135   1.0000      -0.320009        -8.7079
 136   1.0000      -0.318724        -8.6729
 137   1.0000      -0.310567        -8.4510
 138   1.0000      -0.309119        -8.4116
 139   1.0000      -0.250747        -6.8232
 140   1.0000      -0.231844        -6.3088
 141   1.0000      -0.229428        -6.2430
 142   1.0000      -0.218046        -5.9333
 143   1.0000      -0.214556        -5.8384
 144   0.0000      -0.082692        -2.2502
 145   0.0000      -0.064374        -1.7517
 146   0.0000      -0.063377        -1.7246
 147   0.0000      -0.052543        -1.4298
 148   0.0000      -0.049492        -1.3467

MULLIKEN ATOMIC CHARGES AND SPIN POPULATIONS
--------------------------------------------
   0 Au:    0.301432   -0.074206
   1 Au:    0.428740   -0.118382
   2 Au:    0.123215    0.019539
   3 Au:    0.120961    0.021074
   4 Au:    0.279991   -0.085414
   5 Au:    0.427022   -0.117477
   6 Au:    0.504148   -0.047342
   7 Au:    0.411837    0.001087
   8 Au:    0.277928   -0.084106
   9 Au:    0.503221   -0.048840
  10 Au:   -0.335691   -0.044339
  11 Au:    0.568382   -0.089531
  12 Au:    0.422795   -0.128204
  13 Au:    0.566064   -0.091419
  14 Cr:   -4.600044    2.887560
Sum of atomic charges         :   -0.0000000

LOEWDIN ATOMIC CHARGES AND SPIN POPULATIONS
-------------------------------------------
   0 Au:    0.067161   -0.088397
   1 Au:    0.126284   -0.155529
   2 Au:   -0.010634   -0.015879
   3 Au:   -0.010712   -0.014605
   4 Au:    0.051396   -0.128372
   5 Au:    0.126570   -0.154547
   6 Au:    0.127830   -0.134189
   7 Au:    0.156794   -0.005284
   8 Au:    0.050740   -0.127911
   9 Au:    0.128058   -0.134749
  10 Au:   -0.071806   -0.056736
  11 Au:    0.113813   -0.139118
  12 Au:    0.120237   -0.122223
  13 Au:    0.113320   -0.140036
  14 Cr:   -1.089051    3.417576

  Mayer bond orders larger than 0.100000
B(  0-Au,  2-Au) :   0.1861 B(  0-Au,  3-Au) :   0.1821 B(  0-Au,  4-Au) :   0.1565
B(  0-Au,  8-Au) :   0.1582 B(  0-Au, 12-Au) :   0.1231 B(  0-Au, 14-Cr) :   0.5049
B(  1-Au,  5-Au) :   0.2623 B(  1-Au,  8-Au) :   0.1266 B(  1-Au,  9-Au) :   0.2011
B(  1-Au, 14-Cr) :   0.5764 B(  2-Au,  3-Au) :   0.1237 B(  2-Au,  4-Au) :   0.2996
B(  2-Au,  7-Au) :   0.2954 B(  2-Au, 10-Au) :   0.2586 B(  2-Au, 14-Cr) :   0.4027
B(  3-Au,  7-Au) :   0.2949 B(  3-Au,  8-Au) :   0.3032 B(  3-Au, 10-Au) :   0.2592
B(  3-Au, 14-Cr) :   0.4014 B(  4-Au,  5-Au) :   0.1269 B(  4-Au,  6-Au) :   0.1773
B(  4-Au, 13-Au) :   0.1703 B(  4-Au, 14-Cr) :   0.5117 B(  5-Au,  6-Au) :   0.2016
B(  5-Au, 14-Cr) :   0.5791 B(  6-Au, 12-Au) :   0.2095 B(  6-Au, 13-Au) :   0.1310
B(  6-Au, 14-Cr) :   0.4440 B(  7-Au, 10-Au) :   0.4179 B(  8-Au,  9-Au) :   0.1755
B(  8-Au, 11-Au) :   0.1707 B(  8-Au, 14-Cr) :   0.5111 B(  9-Au, 11-Au) :   0.1297
B(  9-Au, 12-Au) :   0.2100 B(  9-Au, 14-Cr) :   0.4466 B( 10-Au, 11-Au) :   0.2393
B( 10-Au, 13-Au) :   0.2401 B( 10-Au, 14-Cr) :   0.4523 B( 11-Au, 12-Au) :   0.1064
B( 11-Au, 14-Cr) :   0.5022 B( 12-Au, 13-Au) :   0.1055 B( 12-Au, 14-Cr) :   0.5705
B( 13-Au, 14-Cr) :   0.5019

MP2 TOTAL ENERGY:    -2942.507594397 Eh
FINAL SINGLE POINT ENERGY     -2942.507594396554

DIPOLE MOMENT
-------------
                                X             Y             Z
Electronic contribution:    -34.34562       0.05712       4.26769
Nuclear contribution   :     34.54706      -0.02752      -4.20980
                        -----------------------------------------
Total Dipole Moment    :      0.20143       0.02960       0.05788
                        -----------------------------------------
Magnitude (a.u.)       :      0.21167
Magnitude (Debye)      :      0.53801

Rotational constants in cm-1:     0.001271     0.000888     0.000839
Rotational constants in MHz :    38.115682    26.617965    25.162090

                             ****ORCA TERMINATED NORMALLY****
TOTAL RUN TIME: 0 days 2 hours 9 minutes 57 seconds 577 msec
