                         Program Version 5.0.3 -  RELEASE  -
|  1> !PBE def2-TZVP VERYSLOWCONV
|  2>
|  3> %scf
|  4>   AutoTRAHIter 200
|  5>   maxiter 400
|  6> end
|  7>
|  8>
|  9> %pal nprocs 6 end
| 10>
| 11> *xyzfile 0 5 pbe.xyz
| 12>
| 13> $new_job
| 14>
| 15> !PBE def2-TZVP VERYSLOWCONV
| 16>
| 17> %scf
| 18>   AutoTRAHIter 200
| 19>   maxiter 400
| 20> end
| 21>
| 22>
| 23> %pal nprocs 6 end
| 24>
| 25> *xyzfile 0 3 pbe.xyz
| 26>
| 27>
| 28>
| 29>
| 30>
| 31>                          ****END OF INPUT****
 Total Charge           Charge          ....    0
 Multiplicity           Mult            ....    5
 Number of Electrons    NEL             ....  290
FINAL SINGLE POINT ENERGY     -2945.818966048927

CARTESIAN COORDINATES (ANGSTROEM)
---------------------------------
  Au     7.869494    7.748588    5.274060
  Au    10.520025    6.465044    5.450092
  Au     6.003454    9.618160    6.308971
  Au     6.110440    6.746900    7.275676
  Au     8.432692   10.591225    5.843691
  Au    10.433049    9.069563    4.589608
  Au    11.092165   10.839533    6.669445
  Au     4.305095    8.582530    8.170673
  Au     8.612063    5.863013    7.421071
  Au    11.266017    6.350917    8.155977
  Au     6.961470    8.913843    8.869135
  Au     9.250475    7.682329    9.630383
  Au    11.666471    9.052456    8.735896
  Au     9.140030   10.512746    8.689760
  Cr     9.671370    8.430422    7.100756

 Multiplicity           Mult            ....    3
 Number of Electrons    NEL             ....  290
 Basis Dimension        Dim             ....  605

ORBITAL ENERGIES
----------------
                 SPIN UP ORBITALS
  NO   OCC          E(Eh)            E(eV)
   0   1.0000    -214.511126     -5837.1445
   1   1.0000     -24.312856      -661.5865
   2   1.0000     -20.679279      -562.7118
   3   1.0000     -20.675312      -562.6038
   4   1.0000     -20.674862      -562.5916
   5   1.0000      -4.032039      -109.7174
   6   1.0000      -4.030078      -109.6640
   7   1.0000      -4.029993      -109.6617
   8   1.0000      -4.027746      -109.6005
   9   1.0000      -4.027525      -109.5945
  10   1.0000      -4.025113      -109.5289
  11   1.0000      -4.024662      -109.5166
  12   1.0000      -4.024558      -109.5138
  13   1.0000      -4.024392      -109.5093
  14   1.0000      -4.021847      -109.4400
  15   1.0000      -4.021675      -109.4353
  16   1.0000      -4.016907      -109.3056
  17   1.0000      -4.016645      -109.2985
  18   1.0000      -4.015783      -109.2750
  19   1.0000      -2.810415       -76.4753
  20   1.0000      -2.249136       -61.2021
  21   1.0000      -2.247376       -61.1542
  22   1.0000      -2.246043       -61.1179
  23   1.0000      -2.245982       -61.1163
  24   1.0000      -2.244953       -61.0883
  25   1.0000      -2.244790       -61.0838
  26   1.0000      -2.244375       -61.0726
  27   1.0000      -2.243573       -61.0507
  28   1.0000      -2.242778       -61.0291
  29   1.0000      -2.242204       -61.0135
  30   1.0000      -2.241981       -61.0074
  31   1.0000      -2.241743       -61.0009
  32   1.0000      -2.240752       -60.9740
  33   1.0000      -2.240624       -60.9705
  34   1.0000      -2.240178       -60.9583
  35   1.0000      -2.239068       -60.9281
  36   1.0000      -2.238518       -60.9132
  37   1.0000      -2.238442       -60.9111
  38   1.0000      -2.237874       -60.8957
  39   1.0000      -2.236681       -60.8632
  40   1.0000      -2.236544       -60.8595
  41   1.0000      -2.236439       -60.8566
  42   1.0000      -2.235946       -60.8432
  43   1.0000      -2.235866       -60.8410
  44   1.0000      -2.235465       -60.8301
  45   1.0000      -2.235266       -60.8247
  46   1.0000      -2.234469       -60.8030
  47   1.0000      -2.234041       -60.7914
  48   1.0000      -2.233890       -60.7872
  49   1.0000      -2.233823       -60.7854
  50   1.0000      -2.233631       -60.7802
  51   1.0000      -2.233213       -60.7688
  52   1.0000      -2.233018       -60.7635
  53   1.0000      -2.232354       -60.7454
  54   1.0000      -2.232200       -60.7412
  55   1.0000      -2.231092       -60.7111
  56   1.0000      -2.227522       -60.6140
  57   1.0000      -2.227300       -60.6079
  58   1.0000      -2.226973       -60.5990
  59   1.0000      -2.226573       -60.5881
  60   1.0000      -2.226419       -60.5840
  61   1.0000      -2.226376       -60.5828
  62   1.0000      -1.803038       -49.0632
  63   1.0000      -1.798648       -48.9437
  64   1.0000      -1.797291       -48.9068
  65   1.0000      -0.426790       -11.6135
  66   1.0000      -0.392560       -10.6821
  67   1.0000      -0.383003       -10.4220
  68   1.0000      -0.380375       -10.3505
  69   1.0000      -0.374299       -10.1852
  70   1.0000      -0.370225       -10.0743
  71   1.0000      -0.363020        -9.8783
  72   1.0000      -0.361837        -9.8461
  73   1.0000      -0.359777        -9.7900
  74   1.0000      -0.355984        -9.6868
  75   1.0000      -0.352327        -9.5873
  76   1.0000      -0.349626        -9.5138
  77   1.0000      -0.348579        -9.4853
  78   1.0000      -0.347295        -9.4504
  79   1.0000      -0.344772        -9.3817
  80   1.0000      -0.342057        -9.3078
  81   1.0000      -0.339709        -9.2440
  82   1.0000      -0.336228        -9.1492
  83   1.0000      -0.334574        -9.1042
  84   1.0000      -0.329820        -8.9749
  85   1.0000      -0.328871        -8.9490
  86   1.0000      -0.325333        -8.8528
  87   1.0000      -0.325266        -8.8509
  88   1.0000      -0.323307        -8.7976
  89   1.0000      -0.321505        -8.7486
  90   1.0000      -0.319930        -8.7057
  91   1.0000      -0.315664        -8.5896
  92   1.0000      -0.314494        -8.5578
  93   1.0000      -0.313418        -8.5285
  94   1.0000      -0.312483        -8.5031
  95   1.0000      -0.310574        -8.4512
  96   1.0000      -0.305999        -8.3266
  97   1.0000      -0.305354        -8.3091
  98   1.0000      -0.303646        -8.2626
  99   1.0000      -0.297797        -8.1035
 100   1.0000      -0.296558        -8.0698
 101   1.0000      -0.295444        -8.0394
 102   1.0000      -0.292168        -7.9503
 103   1.0000      -0.291318        -7.9272
 104   1.0000      -0.287756        -7.8302
 105   1.0000      -0.285491        -7.7686
 106   1.0000      -0.280840        -7.6420
 107   1.0000      -0.279701        -7.6110
 108   1.0000      -0.278322        -7.5735
 109   1.0000      -0.278169        -7.5694
 110   1.0000      -0.275458        -7.4956
 111   1.0000      -0.273613        -7.4454
 112   1.0000      -0.271815        -7.3965
 113   1.0000      -0.271677        -7.3927
 114   1.0000      -0.271045        -7.3755
 115   1.0000      -0.269988        -7.3467
 116   1.0000      -0.266851        -7.2614
 117   1.0000      -0.265872        -7.2347
 118   1.0000      -0.264642        -7.2013
 119   1.0000      -0.263356        -7.1663
 120   1.0000      -0.261319        -7.1109
 121   1.0000      -0.260864        -7.0985
 122   1.0000      -0.260370        -7.0850
 123   1.0000      -0.256332        -6.9752
 124   1.0000      -0.255474        -6.9518
 125   1.0000      -0.255098        -6.9416
 126   1.0000      -0.254263        -6.9188
 127   1.0000      -0.251817        -6.8523
 128   1.0000      -0.249291        -6.7836
 129   1.0000      -0.247637        -6.7385
 130   1.0000      -0.247019        -6.7217
 131   1.0000      -0.245735        -6.6868
 132   1.0000      -0.244994        -6.6666
 133   1.0000      -0.244527        -6.6539
 134   1.0000      -0.242320        -6.5939
 135   1.0000      -0.241644        -6.5755
 136   1.0000      -0.238148        -6.4803
 137   1.0000      -0.234541        -6.3822
 138   1.0000      -0.227666        -6.1951
 139   1.0000      -0.223686        -6.0868
 140   1.0000      -0.222377        -6.0512
 141   1.0000      -0.219682        -5.9778
 142   1.0000      -0.215644        -5.8680
 143   1.0000      -0.212674        -5.7872
 144   1.0000      -0.211485        -5.7548
 145   1.0000      -0.192716        -5.2441
 146   0.0000      -0.182041        -4.9536
 147   0.0000      -0.171788        -4.6746
 148   0.0000      -0.170506        -4.6397
 149   0.0000      -0.136277        -3.7083
 150   0.0000      -0.125680        -3.4199

                 SPIN DOWN ORBITALS
  NO   OCC          E(Eh)            E(eV)
   0   1.0000    -214.510722     -5837.1335
   1   1.0000     -24.269620      -660.4099
   2   1.0000     -20.649120      -561.8911
   3   1.0000     -20.641553      -561.6852
   4   1.0000     -20.639665      -561.6338
   5   1.0000      -4.031924      -109.7142
   6   1.0000      -4.030034      -109.6628
   7   1.0000      -4.029953      -109.6606
   8   1.0000      -4.027748      -109.6006
   9   1.0000      -4.027518      -109.5943
  10   1.0000      -4.025141      -109.5297
  11   1.0000      -4.024589      -109.5146
  12   1.0000      -4.024550      -109.5136
  13   1.0000      -4.024277      -109.5061
  14   1.0000      -4.021734      -109.4369
  15   1.0000      -4.021563      -109.4323
  16   1.0000      -4.017304      -109.3164
  17   1.0000      -4.017044      -109.3093
  18   1.0000      -4.016059      -109.2825
  19   1.0000      -2.694280       -73.3151
  20   1.0000      -2.248534       -61.1857
  21   1.0000      -2.247284       -61.1517
  22   1.0000      -2.245839       -61.1124
  23   1.0000      -2.245551       -61.1046
  24   1.0000      -2.245126       -61.0930
  25   1.0000      -2.244969       -61.0887
  26   1.0000      -2.244668       -61.0805
  27   1.0000      -2.243570       -61.0507
  28   1.0000      -2.242879       -61.0319
  29   1.0000      -2.242180       -61.0128
  30   1.0000      -2.241611       -60.9973
  31   1.0000      -2.241533       -60.9952
  32   1.0000      -2.240477       -60.9665
  33   1.0000      -2.240257       -60.9605
  34   1.0000      -2.239727       -60.9461
  35   1.0000      -2.239110       -60.9293
  36   1.0000      -2.238576       -60.9148
  37   1.0000      -2.238505       -60.9128
  38   1.0000      -2.238031       -60.8999
  39   1.0000      -2.236690       -60.8634
  40   1.0000      -2.236540       -60.8594
  41   1.0000      -2.236492       -60.8580
  42   1.0000      -2.236111       -60.8477
  43   1.0000      -2.235758       -60.8381
  44   1.0000      -2.235676       -60.8358
  45   1.0000      -2.235273       -60.8249
  46   1.0000      -2.234510       -60.8041
  47   1.0000      -2.234104       -60.7931
  48   1.0000      -2.233967       -60.7893
  49   1.0000      -2.233743       -60.7832
  50   1.0000      -2.233612       -60.7797
  51   1.0000      -2.233244       -60.7697
  52   1.0000      -2.233053       -60.7645
  53   1.0000      -2.232207       -60.7414
  54   1.0000      -2.232046       -60.7371
  55   1.0000      -2.231441       -60.7206
  56   1.0000      -2.227979       -60.6264
  57   1.0000      -2.227721       -60.6194
  58   1.0000      -2.227459       -60.6122
  59   1.0000      -2.227103       -60.6026
  60   1.0000      -2.226716       -60.5920
  61   1.0000      -2.226705       -60.5917
  62   1.0000      -1.698341       -46.2142
  63   1.0000      -1.681920       -45.7674
  64   1.0000      -1.675609       -45.5956
  65   1.0000      -0.421735       -11.4760
  66   1.0000      -0.391276       -10.6471
  67   1.0000      -0.383017       -10.4224
  68   1.0000      -0.380423       -10.3518
  69   1.0000      -0.371244       -10.1021
  70   1.0000      -0.365851        -9.9553
  71   1.0000      -0.361126        -9.8267
  72   1.0000      -0.360165        -9.8006
  73   1.0000      -0.359015        -9.7693
  74   1.0000      -0.355432        -9.6718
  75   1.0000      -0.351078        -9.5533
  76   1.0000      -0.349488        -9.5100
  77   1.0000      -0.348532        -9.4840
  78   1.0000      -0.345965        -9.4142
  79   1.0000      -0.344104        -9.3635
  80   1.0000      -0.342049        -9.3076
  81   1.0000      -0.339486        -9.2379
  82   1.0000      -0.336251        -9.1499
  83   1.0000      -0.334698        -9.1076
  84   1.0000      -0.329512        -8.9665
  85   1.0000      -0.329144        -8.9565
  86   1.0000      -0.325933        -8.8691
  87   1.0000      -0.324997        -8.8436
  88   1.0000      -0.324306        -8.8248
  89   1.0000      -0.321438        -8.7468
  90   1.0000      -0.320384        -8.7181
  91   1.0000      -0.315916        -8.5965
  92   1.0000      -0.314769        -8.5653
  93   1.0000      -0.314136        -8.5481
  94   1.0000      -0.310504        -8.4492
  95   1.0000      -0.310432        -8.4473
  96   1.0000      -0.304948        -8.2980
  97   1.0000      -0.303903        -8.2696
  98   1.0000      -0.302019        -8.2184
  99   1.0000      -0.298325        -8.1178
 100   1.0000      -0.297213        -8.0876
 101   1.0000      -0.295521        -8.0415
 102   1.0000      -0.291164        -7.9230
 103   1.0000      -0.290165        -7.8958
 104   1.0000      -0.287927        -7.8349
 105   1.0000      -0.285399        -7.7661
 106   1.0000      -0.281234        -7.6528
 107   1.0000      -0.279719        -7.6115
 108   1.0000      -0.278868        -7.5884
 109   1.0000      -0.277317        -7.5462
 110   1.0000      -0.276219        -7.5163
 111   1.0000      -0.274676        -7.4743
 112   1.0000      -0.272846        -7.4245
 113   1.0000      -0.272655        -7.4193
 114   1.0000      -0.271730        -7.3941
 115   1.0000      -0.270133        -7.3507
 116   1.0000      -0.267283        -7.2731
 117   1.0000      -0.266609        -7.2548
 118   1.0000      -0.265050        -7.2124
 119   1.0000      -0.263815        -7.1788
 120   1.0000      -0.262232        -7.1357
 121   1.0000      -0.261716        -7.1217
 122   1.0000      -0.260816        -7.0972
 123   1.0000      -0.256953        -6.9920
 124   1.0000      -0.256291        -6.9740
 125   1.0000      -0.255805        -6.9608
 126   1.0000      -0.254911        -6.9365
 127   1.0000      -0.252625        -6.8743
 128   1.0000      -0.250184        -6.8079
 129   1.0000      -0.248139        -6.7522
 130   1.0000      -0.248011        -6.7487
 131   1.0000      -0.246486        -6.7072
 132   1.0000      -0.246116        -6.6972
 133   1.0000      -0.246033        -6.6949
 134   1.0000      -0.243104        -6.6152
 135   1.0000      -0.242732        -6.6051
 136   1.0000      -0.238948        -6.5021
 137   1.0000      -0.235498        -6.4082
 138   1.0000      -0.227754        -6.1975
 139   1.0000      -0.222218        -6.0469
 140   1.0000      -0.210271        -5.7218
 141   1.0000      -0.207140        -5.6366
 142   1.0000      -0.198289        -5.3957
 143   1.0000      -0.195918        -5.3312
 144   0.0000      -0.148751        -4.0477
 145   0.0000      -0.135678        -3.6920
 146   0.0000      -0.133784        -3.6404
 147   0.0000      -0.122055        -3.3213
 148   0.0000      -0.118698        -3.2299

MULLIKEN ATOMIC CHARGES AND SPIN POPULATIONS
--------------------------------------------
   0 Au:    0.273891   -0.032673
   1 Au:    0.466135   -0.081743
   2 Au:    0.152154   -0.000221
   3 Au:    0.149726    0.001312
   4 Au:    0.325251   -0.041648
   5 Au:    0.464765   -0.081314
   6 Au:    0.524045   -0.017950
   7 Au:    0.427299   -0.017123
   8 Au:    0.323114   -0.040600
   9 Au:    0.524370   -0.018841
  10 Au:   -0.269827   -0.095629
  11 Au:    0.561794   -0.037657
  12 Au:    0.459891   -0.082352
  13 Au:    0.560785   -0.038902
  14 Cr:   -4.943393    2.585339
Sum of atomic charges         :   -0.0000000

LOEWDIN ATOMIC CHARGES AND SPIN POPULATIONS
-------------------------------------------
   0 Au:    0.091055   -0.055821
   1 Au:    0.144403   -0.105682
   2 Au:    0.000475   -0.025752
   3 Au:    0.000367   -0.024590
   4 Au:    0.068047   -0.071214
   5 Au:    0.144920   -0.105195
   6 Au:    0.126538   -0.068107
   7 Au:    0.131878   -0.015079
   8 Au:    0.067033   -0.070122
   9 Au:    0.127247   -0.068750
  10 Au:   -0.044112   -0.058045
  11 Au:    0.132414   -0.091831
  12 Au:    0.143825   -0.085550
  13 Au:    0.132048   -0.092536
  14 Cr:   -1.266140    2.938274

  Mayer bond orders larger than 0.100000
B(  0-Au,  1-Au) :   0.1242 B(  0-Au,  2-Au) :   0.2358 B(  0-Au,  3-Au) :   0.2311
B(  0-Au,  4-Au) :   0.1442 B(  0-Au,  5-Au) :   0.1185 B(  0-Au,  8-Au) :   0.1458
B(  0-Au, 12-Au) :   0.1244 B(  0-Au, 14-Cr) :   0.6194 B(  1-Au,  5-Au) :   0.3158
B(  1-Au,  8-Au) :   0.1670 B(  1-Au,  9-Au) :   0.2453 B(  1-Au, 14-Cr) :   0.6469
B(  2-Au,  3-Au) :   0.1436 B(  2-Au,  4-Au) :   0.3346 B(  2-Au,  7-Au) :   0.3377
B(  2-Au, 10-Au) :   0.2716 B(  2-Au, 14-Cr) :   0.3649 B(  3-Au,  7-Au) :   0.3367
B(  3-Au,  8-Au) :   0.3381 B(  3-Au, 10-Au) :   0.2727 B(  3-Au, 14-Cr) :   0.3653
B(  4-Au,  5-Au) :   0.1666 B(  4-Au,  6-Au) :   0.2165 B(  4-Au, 13-Au) :   0.1883
B(  4-Au, 14-Cr) :   0.5918 B(  5-Au,  6-Au) :   0.2458 B(  5-Au, 14-Cr) :   0.6503
B(  6-Au, 12-Au) :   0.2610 B(  6-Au, 13-Au) :   0.1651 B(  6-Au, 14-Cr) :   0.4790
B(  7-Au, 10-Au) :   0.4237 B(  8-Au,  9-Au) :   0.2149 B(  8-Au, 11-Au) :   0.1888
B(  8-Au, 14-Cr) :   0.5895 B(  9-Au, 11-Au) :   0.1636 B(  9-Au, 12-Au) :   0.2617
B(  9-Au, 14-Cr) :   0.4826 B( 10-Au, 11-Au) :   0.2872 B( 10-Au, 13-Au) :   0.2879
B( 10-Au, 14-Cr) :   0.3702 B( 11-Au, 12-Au) :   0.1225 B( 11-Au, 14-Cr) :   0.6514
B( 12-Au, 13-Au) :   0.1215 B( 12-Au, 14-Cr) :   0.6491 B( 13-Au, 14-Cr) :   0.6508

FINAL SINGLE POINT ENERGY     -2945.832527340639

DIPOLE MOMENT
-------------
                                X             Y             Z
Electronic contribution:    -34.37490       0.05384       4.26116
Nuclear contribution   :     34.54706      -0.02752      -4.20980
                        -----------------------------------------
Total Dipole Moment    :      0.17216       0.02633       0.05136
                        -----------------------------------------
Magnitude (a.u.)       :      0.18157
Magnitude (Debye)      :      0.46152

Rotational constants in cm-1:     0.001271     0.000888     0.000839
Rotational constants in MHz :    38.115682    26.617965    25.162090

                             ****ORCA TERMINATED NORMALLY****
TOTAL RUN TIME: 0 days 1 hours 17 minutes 28 seconds 414 msec
