                         Program Version 5.0.3 -  RELEASE  -
|  1> !R2SCAN def2-TZVP VERYSLOWCONV
|  2> !KDIIS
|  3> %scf
|  4>   AutoTRAHIter 200
|  5>   maxiter 400
|  6> end
|  7>
|  8> %pal nprocs 6 end
|  9>
| 10> *xyzfile 0 5 pbe.xyz
| 11>
| 12> $new_job
| 13>
| 14> !R2SCAN def2-TZVP VERYSLOWCONV
| 15> !KDIIS
| 16> %scf
| 17>   AutoTRAHIter 200
| 18>   maxiter 400
| 19> end
| 20>
| 21>
| 22> %pal nprocs 6 end
| 23>
| 24> *xyzfile 0 3 pbe.xyz
| 25>
| 26>
| 27>
| 28>
| 29>
| 30>                          ****END OF INPUT****
 Total Charge           Charge          ....    0
 Multiplicity           Mult            ....    5
 Number of Electrons    NEL             ....  290
FINAL SINGLE POINT ENERGY     -2946.300749533373

CARTESIAN COORDINATES (ANGSTROEM)
---------------------------------
  Au     7.869494    7.748588    5.274060
  Au    10.520025    6.465044    5.450092
  Au     6.003454    9.618160    6.308971
  Au     6.110440    6.746900    7.275676
  Au     8.432692   10.591225    5.843691
  Au    10.433049    9.069563    4.589608
  Au    11.092165   10.839533    6.669445
  Au     4.305095    8.582530    8.170673
  Au     8.612063    5.863013    7.421071
  Au    11.266017    6.350917    8.155977
  Au     6.961470    8.913843    8.869135
  Au     9.250475    7.682329    9.630383
  Au    11.666471    9.052456    8.735896
  Au     9.140030   10.512746    8.689760
  Cr     9.671370    8.430422    7.100756

 Multiplicity           Mult            ....    3
 Number of Electrons    NEL             ....  290
 Basis Dimension        Dim             ....  605

ORBITAL ENERGIES
----------------
                 SPIN UP ORBITALS
  NO   OCC          E(Eh)            E(eV)
   0   1.0000    -215.306098     -5858.7768
   1   1.0000     -24.607939      -669.6161
   2   1.0000     -20.876377      -568.0751
   3   1.0000     -20.874069      -568.0123
   4   1.0000     -20.872516      -567.9700
   5   1.0000      -4.122553      -112.1804
   6   1.0000      -4.120529      -112.1253
   7   1.0000      -4.120438      -112.1228
   8   1.0000      -4.118224      -112.0626
   9   1.0000      -4.118004      -112.0566
  10   1.0000      -4.115778      -111.9960
  11   1.0000      -4.115162      -111.9793
  12   1.0000      -4.114892      -111.9719
  13   1.0000      -4.114873      -111.9714
  14   1.0000      -4.112422      -111.9047
  15   1.0000      -4.112253      -111.9001
  16   1.0000      -4.107177      -111.7620
  17   1.0000      -4.106908      -111.7547
  18   1.0000      -4.106633      -111.7472
  19   1.0000      -2.923686       -79.5575
  20   1.0000      -2.312319       -62.9214
  21   1.0000      -2.310766       -62.8791
  22   1.0000      -2.309264       -62.8383
  23   1.0000      -2.309134       -62.8347
  24   1.0000      -2.308151       -62.8080
  25   1.0000      -2.307999       -62.8039
  26   1.0000      -2.307649       -62.7943
  27   1.0000      -2.307036       -62.7776
  28   1.0000      -2.306307       -62.7578
  29   1.0000      -2.305290       -62.7301
  30   1.0000      -2.305220       -62.7282
  31   1.0000      -2.304792       -62.7166
  32   1.0000      -2.304048       -62.6963
  33   1.0000      -2.303883       -62.6918
  34   1.0000      -2.303430       -62.6795
  35   1.0000      -2.302743       -62.6608
  36   1.0000      -2.302070       -62.6425
  37   1.0000      -2.302047       -62.6419
  38   1.0000      -2.301249       -62.6202
  39   1.0000      -2.300144       -62.5901
  40   1.0000      -2.299980       -62.5856
  41   1.0000      -2.299916       -62.5839
  42   1.0000      -2.299428       -62.5706
  43   1.0000      -2.299223       -62.5650
  44   1.0000      -2.298647       -62.5494
  45   1.0000      -2.298609       -62.5483
  46   1.0000      -2.297920       -62.5296
  47   1.0000      -2.297630       -62.5217
  48   1.0000      -2.297427       -62.5162
  49   1.0000      -2.297128       -62.5080
  50   1.0000      -2.296718       -62.4969
  51   1.0000      -2.296388       -62.4879
  52   1.0000      -2.296330       -62.4863
  53   1.0000      -2.295744       -62.4704
  54   1.0000      -2.295592       -62.4662
  55   1.0000      -2.294125       -62.4263
  56   1.0000      -2.290653       -62.3318
  57   1.0000      -2.290532       -62.3285
  58   1.0000      -2.290089       -62.3165
  59   1.0000      -2.289920       -62.3119
  60   1.0000      -2.289850       -62.3100
  61   1.0000      -2.289521       -62.3010
  62   1.0000      -1.871666       -50.9306
  63   1.0000      -1.869724       -50.8778
  64   1.0000      -1.868934       -50.8563
  65   1.0000      -0.431686       -11.7468
  66   1.0000      -0.398587       -10.8461
  67   1.0000      -0.388717       -10.5775
  68   1.0000      -0.386278       -10.5112
  69   1.0000      -0.382027       -10.3955
  70   1.0000      -0.378792       -10.3074
  71   1.0000      -0.371466       -10.1081
  72   1.0000      -0.369515       -10.0550
  73   1.0000      -0.368186       -10.0188
  74   1.0000      -0.364530        -9.9194
  75   1.0000      -0.361294        -9.8313
  76   1.0000      -0.358007        -9.7419
  77   1.0000      -0.357084        -9.7167
  78   1.0000      -0.356399        -9.6981
  79   1.0000      -0.353435        -9.6175
  80   1.0000      -0.351005        -9.5513
  81   1.0000      -0.348488        -9.4828
  82   1.0000      -0.344644        -9.3782
  83   1.0000      -0.343547        -9.3484
  84   1.0000      -0.338382        -9.2078
  85   1.0000      -0.337804        -9.1921
  86   1.0000      -0.334040        -9.0897
  87   1.0000      -0.333989        -9.0883
  88   1.0000      -0.332024        -9.0348
  89   1.0000      -0.330039        -8.9808
  90   1.0000      -0.328183        -8.9303
  91   1.0000      -0.324244        -8.8231
  92   1.0000      -0.322793        -8.7837
  93   1.0000      -0.321651        -8.7526
  94   1.0000      -0.320460        -8.7202
  95   1.0000      -0.319351        -8.6900
  96   1.0000      -0.314779        -8.5656
  97   1.0000      -0.313593        -8.5333
  98   1.0000      -0.312054        -8.4914
  99   1.0000      -0.306227        -8.3329
 100   1.0000      -0.305216        -8.3053
 101   1.0000      -0.303741        -8.2652
 102   1.0000      -0.300852        -8.1866
 103   1.0000      -0.299343        -8.1455
 104   1.0000      -0.295966        -8.0536
 105   1.0000      -0.293633        -7.9902
 106   1.0000      -0.289603        -7.8805
 107   1.0000      -0.287908        -7.8344
 108   1.0000      -0.286507        -7.7962
 109   1.0000      -0.286122        -7.7858
 110   1.0000      -0.283242        -7.7074
 111   1.0000      -0.281261        -7.6535
 112   1.0000      -0.279223        -7.5980
 113   1.0000      -0.278873        -7.5885
 114   1.0000      -0.278630        -7.5819
 115   1.0000      -0.278159        -7.5691
 116   1.0000      -0.274796        -7.4776
 117   1.0000      -0.274043        -7.4571
 118   1.0000      -0.272460        -7.4140
 119   1.0000      -0.271133        -7.3779
 120   1.0000      -0.269107        -7.3228
 121   1.0000      -0.268452        -7.3050
 122   1.0000      -0.268257        -7.2997
 123   1.0000      -0.263403        -7.1676
 124   1.0000      -0.263063        -7.1583
 125   1.0000      -0.262620        -7.1462
 126   1.0000      -0.261373        -7.1123
 127   1.0000      -0.259117        -7.0509
 128   1.0000      -0.256740        -6.9863
 129   1.0000      -0.255021        -6.9395
 130   1.0000      -0.253650        -6.9022
 131   1.0000      -0.252708        -6.8765
 132   1.0000      -0.251893        -6.8544
 133   1.0000      -0.249584        -6.7915
 134   1.0000      -0.249260        -6.7827
 135   1.0000      -0.246775        -6.7151
 136   1.0000      -0.245085        -6.6691
 137   1.0000      -0.240341        -6.5400
 138   1.0000      -0.236478        -6.4349
 139   1.0000      -0.234398        -6.3783
 140   1.0000      -0.227443        -6.1890
 141   1.0000      -0.226699        -6.1688
 142   1.0000      -0.219832        -5.9819
 143   1.0000      -0.218543        -5.9469
 144   1.0000      -0.213807        -5.8180
 145   1.0000      -0.196923        -5.3585
 146   0.0000      -0.180557        -4.9132
 147   0.0000      -0.169341        -4.6080
 148   0.0000      -0.168502        -4.5852
 149   0.0000      -0.131657        -3.5826
 150   0.0000      -0.121356        -3.3023

                 SPIN DOWN ORBITALS
  NO   OCC          E(Eh)            E(eV)
   0   1.0000    -215.305503     -5858.7606
   1   1.0000     -24.548263      -667.9922
   2   1.0000     -20.833562      -566.9100
   3   1.0000     -20.825922      -566.7022
   4   1.0000     -20.825596      -566.6933
   5   1.0000      -4.122695      -112.1842
   6   1.0000      -4.120692      -112.1297
   7   1.0000      -4.120606      -112.1274
   8   1.0000      -4.118400      -112.0674
   9   1.0000      -4.118168      -112.0611
  10   1.0000      -4.115888      -111.9990
  11   1.0000      -4.115286      -111.9826
  12   1.0000      -4.115263      -111.9820
  13   1.0000      -4.114994      -111.9747
  14   1.0000      -4.112421      -111.9047
  15   1.0000      -4.112248      -111.9000
  16   1.0000      -4.107626      -111.7742
  17   1.0000      -4.107355      -111.7668
  18   1.0000      -4.106986      -111.7568
  19   1.0000      -2.767734       -75.3139
  20   1.0000      -2.311991       -62.9125
  21   1.0000      -2.310708       -62.8776
  22   1.0000      -2.309160       -62.8354
  23   1.0000      -2.308858       -62.8272
  24   1.0000      -2.308330       -62.8128
  25   1.0000      -2.308174       -62.8086
  26   1.0000      -2.307874       -62.8005
  27   1.0000      -2.307048       -62.7780
  28   1.0000      -2.306594       -62.7656
  29   1.0000      -2.305312       -62.7307
  30   1.0000      -2.305063       -62.7239
  31   1.0000      -2.304846       -62.7181
  32   1.0000      -2.303904       -62.6924
  33   1.0000      -2.303703       -62.6869
  34   1.0000      -2.303119       -62.6710
  35   1.0000      -2.302799       -62.6623
  36   1.0000      -2.302210       -62.6463
  37   1.0000      -2.302019       -62.6411
  38   1.0000      -2.301522       -62.6276
  39   1.0000      -2.300233       -62.5925
  40   1.0000      -2.300092       -62.5887
  41   1.0000      -2.299881       -62.5829
  42   1.0000      -2.299577       -62.5747
  43   1.0000      -2.299108       -62.5619
  44   1.0000      -2.298979       -62.5584
  45   1.0000      -2.298624       -62.5487
  46   1.0000      -2.297939       -62.5301
  47   1.0000      -2.297553       -62.5196
  48   1.0000      -2.297390       -62.5152
  49   1.0000      -2.297075       -62.5066
  50   1.0000      -2.296942       -62.5030
  51   1.0000      -2.296519       -62.4915
  52   1.0000      -2.296413       -62.4886
  53   1.0000      -2.295567       -62.4655
  54   1.0000      -2.295404       -62.4611
  55   1.0000      -2.294556       -62.4380
  56   1.0000      -2.291127       -62.3447
  57   1.0000      -2.290988       -62.3410
  58   1.0000      -2.290669       -62.3323
  59   1.0000      -2.290358       -62.3238
  60   1.0000      -2.290240       -62.3206
  61   1.0000      -2.290167       -62.3186
  62   1.0000      -1.726302       -46.9751
  63   1.0000      -1.709093       -46.5068
  64   1.0000      -1.707978       -46.4765
  65   1.0000      -0.426621       -11.6089
  66   1.0000      -0.397446       -10.8150
  67   1.0000      -0.389460       -10.5977
  68   1.0000      -0.386627       -10.5207
  69   1.0000      -0.378987       -10.3128
  70   1.0000      -0.373542       -10.1646
  71   1.0000      -0.369270       -10.0483
  72   1.0000      -0.368334       -10.0229
  73   1.0000      -0.367495       -10.0000
  74   1.0000      -0.364423        -9.9164
  75   1.0000      -0.360148        -9.8001
  76   1.0000      -0.358260        -9.7488
  77   1.0000      -0.357377        -9.7247
  78   1.0000      -0.354984        -9.6596
  79   1.0000      -0.353202        -9.6111
  80   1.0000      -0.351075        -9.5532
  81   1.0000      -0.348738        -9.4896
  82   1.0000      -0.345282        -9.3956
  83   1.0000      -0.343747        -9.3538
  84   1.0000      -0.338531        -9.2119
  85   1.0000      -0.338452        -9.2097
  86   1.0000      -0.334938        -9.1141
  87   1.0000      -0.334156        -9.0928
  88   1.0000      -0.333662        -9.0794
  89   1.0000      -0.330332        -8.9888
  90   1.0000      -0.329193        -8.9578
  91   1.0000      -0.324695        -8.8354
  92   1.0000      -0.323575        -8.8049
  93   1.0000      -0.322980        -8.7887
  94   1.0000      -0.319372        -8.6906
  95   1.0000      -0.318909        -8.6780
  96   1.0000      -0.313891        -8.5414
  97   1.0000      -0.312157        -8.4942
  98   1.0000      -0.310412        -8.4467
  99   1.0000      -0.306944        -8.3524
 100   1.0000      -0.305862        -8.3229
 101   1.0000      -0.304046        -8.2735
 102   1.0000      -0.299699        -8.1552
 103   1.0000      -0.298580        -8.1248
 104   1.0000      -0.296224        -8.0607
 105   1.0000      -0.293837        -7.9957
 106   1.0000      -0.290090        -7.8937
 107   1.0000      -0.288123        -7.8402
 108   1.0000      -0.287069        -7.8115
 109   1.0000      -0.285491        -7.7686
 110   1.0000      -0.284321        -7.7368
 111   1.0000      -0.282845        -7.6966
 112   1.0000      -0.280927        -7.6444
 113   1.0000      -0.280671        -7.6374
 114   1.0000      -0.279888        -7.6161
 115   1.0000      -0.278334        -7.5739
 116   1.0000      -0.275427        -7.4947
 117   1.0000      -0.275054        -7.4846
 118   1.0000      -0.273290        -7.4366
 119   1.0000      -0.272021        -7.4021
 120   1.0000      -0.270465        -7.3597
 121   1.0000      -0.269897        -7.3443
 122   1.0000      -0.268994        -7.3197
 123   1.0000      -0.264681        -7.2023
 124   1.0000      -0.264049        -7.1851
 125   1.0000      -0.263802        -7.1784
 126   1.0000      -0.262385        -7.1398
 127   1.0000      -0.260256        -7.0819
 128   1.0000      -0.258005        -7.0207
 129   1.0000      -0.255744        -6.9591
 130   1.0000      -0.255052        -6.9403
 131   1.0000      -0.253767        -6.9054
 132   1.0000      -0.253645        -6.9020
 133   1.0000      -0.252834        -6.8800
 134   1.0000      -0.249843        -6.7986
 135   1.0000      -0.249775        -6.7967
 136   1.0000      -0.246093        -6.6965
 137   1.0000      -0.241972        -6.5844
 138   1.0000      -0.234043        -6.3686
 139   1.0000      -0.224900        -6.1199
 140   1.0000      -0.212166        -5.7733
 141   1.0000      -0.209264        -5.6944
 142   1.0000      -0.198897        -5.4123
 143   1.0000      -0.196366        -5.3434
 144   0.0000      -0.143066        -3.8930
 145   0.0000      -0.128575        -3.4987
 146   0.0000      -0.126126        -3.4321
 147   0.0000      -0.115722        -3.1490
 148   0.0000      -0.108302        -2.9470

MULLIKEN ATOMIC CHARGES AND SPIN POPULATIONS
--------------------------------------------
   0 Au:    0.257945   -0.058558
   1 Au:    0.422204   -0.125615
   2 Au:    0.135163   -0.000985
   3 Au:    0.132797    0.000613
   4 Au:    0.276965   -0.065889
   5 Au:    0.420627   -0.125215
   6 Au:    0.474975   -0.033027
   7 Au:    0.394396   -0.017086
   8 Au:    0.274853   -0.064315
   9 Au:    0.475292   -0.034685
  10 Au:   -0.240996   -0.108691
  11 Au:    0.506560   -0.070374
  12 Au:    0.412975   -0.125201
  13 Au:    0.505246   -0.071899
  14 Cr:   -4.449001    2.900929
Sum of atomic charges         :   -0.0000000

LOEWDIN ATOMIC CHARGES AND SPIN POPULATIONS
-------------------------------------------
   0 Au:    0.088222   -0.073251
   1 Au:    0.139672   -0.132432
   2 Au:   -0.001994   -0.029667
   3 Au:   -0.002178   -0.028394
   4 Au:    0.063477   -0.091346
   5 Au:    0.140104   -0.131916
   6 Au:    0.122192   -0.086895
   7 Au:    0.130242   -0.016497
   8 Au:    0.062450   -0.090215
   9 Au:    0.122853   -0.087784
  10 Au:   -0.043021   -0.069640
  11 Au:    0.127933   -0.113662
  12 Au:    0.137188   -0.107920
  13 Au:    0.127567   -0.114445
  14 Cr:   -1.214708    3.174065

  Mayer bond orders larger than 0.100000
B(  0-Au,  1-Au) :   0.1158 B(  0-Au,  2-Au) :   0.2235 B(  0-Au,  3-Au) :   0.2187
B(  0-Au,  4-Au) :   0.1426 B(  0-Au,  5-Au) :   0.1102 B(  0-Au,  8-Au) :   0.1440
B(  0-Au, 12-Au) :   0.1001 B(  0-Au, 14-Cr) :   0.6264 B(  1-Au,  5-Au) :   0.3029
B(  1-Au,  8-Au) :   0.1550 B(  1-Au,  9-Au) :   0.2358 B(  1-Au, 14-Cr) :   0.6517
B(  2-Au,  3-Au) :   0.1172 B(  2-Au,  4-Au) :   0.3392 B(  2-Au,  7-Au) :   0.3262
B(  2-Au, 10-Au) :   0.2492 B(  2-Au, 14-Cr) :   0.3456 B(  3-Au,  7-Au) :   0.3252
B(  3-Au,  8-Au) :   0.3430 B(  3-Au, 10-Au) :   0.2501 B(  3-Au, 14-Cr) :   0.3457
B(  4-Au,  5-Au) :   0.1546 B(  4-Au,  6-Au) :   0.2098 B(  4-Au, 13-Au) :   0.1823
B(  4-Au, 14-Cr) :   0.6039 B(  5-Au,  6-Au) :   0.2362 B(  5-Au, 14-Cr) :   0.6550
B(  6-Au, 12-Au) :   0.2496 B(  6-Au, 13-Au) :   0.1588 B(  6-Au, 14-Cr) :   0.4871
B(  7-Au, 10-Au) :   0.4163 B(  8-Au,  9-Au) :   0.2081 B(  8-Au, 11-Au) :   0.1827
B(  8-Au, 14-Cr) :   0.6014 B(  9-Au, 11-Au) :   0.1571 B(  9-Au, 12-Au) :   0.2503
B(  9-Au, 14-Cr) :   0.4911 B( 10-Au, 11-Au) :   0.2911 B( 10-Au, 13-Au) :   0.2918
B( 10-Au, 14-Cr) :   0.3378 B( 11-Au, 12-Au) :   0.1124 B( 11-Au, 14-Cr) :   0.6710
B( 12-Au, 13-Au) :   0.1114 B( 12-Au, 14-Cr) :   0.6599 B( 13-Au, 14-Cr) :   0.6706

FINAL SINGLE POINT ENERGY     -2946.311737118292

DIPOLE MOMENT
-------------
                                X             Y             Z
Electronic contribution:    -34.37873       0.05518       4.26501
Nuclear contribution   :     34.54706      -0.02752      -4.20980
                        -----------------------------------------
Total Dipole Moment    :      0.16833       0.02766       0.05521
                        -----------------------------------------
Magnitude (a.u.)       :      0.17930
Magnitude (Debye)      :      0.45573

Rotational constants in cm-1:     0.001271     0.000888     0.000839
Rotational constants in MHz :    38.115682    26.617965    25.162090

                             ****ORCA TERMINATED NORMALLY****
TOTAL RUN TIME: 0 days 0 hours 34 minutes 5 seconds 237 msec
