                         Program Version 5.0.3 -  RELEASE  -
|  1> !RI-B2PLYP def2-TZVP def2-TZVP/C
|  2> !RIJCOSX VERYSLOWCONV
|  3>
|  4> %scf
|  5>   AutoTRAHIter 200
|  6>   maxiter 400
|  7> end
|  8>
|  9>
| 10> %pal nprocs 6 end
| 11>
| 12> *xyzfile 0 5 pbe.xyz
| 13>
| 14> $new_job
| 15>
| 16> !RI-B2PLYP def2-TZVP def2-TZVP/C
| 17> !RIJCOSX VERYSLOWCONV
| 18>
| 19> %scf
| 20>   AutoTRAHIter 200
| 21>   maxiter 400
| 22> end
| 23>
| 24>
| 25> %pal nprocs 6 end
| 26>
| 27> *xyzfile 0 3 pbe.xyz
| 28>
| 29>
| 30>
| 31>
| 32>
| 33>                          ****END OF INPUT****
 Total Charge           Charge          ....    0
 Multiplicity           Mult            ....    5
 Number of Electrons    NEL             ....  216
MP2 TOTAL ENERGY:    -2619.326548451 Eh
FINAL SINGLE POINT ENERGY     -2619.326548451309

CARTESIAN COORDINATES (ANGSTROEM)
---------------------------------
  Au     7.396864    6.375312    6.488323
  Au     8.288566    9.110046    6.948014
  Au     9.434052    7.454374    5.185402
  Au     6.407517    5.482329    8.917534
  Au     4.654632    6.398719    6.896739
  Au     6.003734   10.548342    7.621372
  Au     6.658708    7.396158   10.850816
  Au     7.738378    9.649937    9.620915
  Au     4.794366    9.306435   10.073550
  Au     3.761590    8.902733    7.525188
  Fe     6.197522    8.000707    8.262548

 Multiplicity           Mult            ....    3
 Number of Electrons    NEL             ....  216
 Basis Dimension        Dim             ....  445

ORBITAL ENERGIES
----------------
                 SPIN UP ORBITALS
  NO   OCC          E(Eh)            E(eV)
   0   1.0000    -258.326237     -7029.4143
   1   1.0000     -30.887085      -840.4803
   2   1.0000     -26.602738      -723.8973
   3   1.0000     -26.582614      -723.3497
   4   1.0000     -26.570441      -723.0184
   5   1.0000      -4.398789      -119.6971
   6   1.0000      -4.396500      -119.6348
   7   1.0000      -4.396334      -119.6303
   8   1.0000      -4.395254      -119.6009
   9   1.0000      -4.394661      -119.5848
  10   1.0000      -4.394535      -119.5814
  11   1.0000      -4.388754      -119.4241
  12   1.0000      -4.388691      -119.4224
  13   1.0000      -4.388143      -119.4074
  14   1.0000      -4.374082      -119.0248
  15   1.0000      -3.898283      -106.0777
  16   1.0000      -2.643777       -71.9408
  17   1.0000      -2.600702       -70.7687
  18   1.0000      -2.575934       -70.0947
  19   1.0000      -2.521791       -68.6214
  20   1.0000      -2.519970       -68.5719
  21   1.0000      -2.517245       -68.4977
  22   1.0000      -2.516860       -68.4872
  23   1.0000      -2.516650       -68.4815
  24   1.0000      -2.516192       -68.4691
  25   1.0000      -2.515953       -68.4626
  26   1.0000      -2.514222       -68.4155
  27   1.0000      -2.513701       -68.4013
  28   1.0000      -2.512891       -68.3793
  29   1.0000      -2.512813       -68.3771
  30   1.0000      -2.511868       -68.3514
  31   1.0000      -2.511049       -68.3291
  32   1.0000      -2.510167       -68.3051
  33   1.0000      -2.509975       -68.2999
  34   1.0000      -2.509970       -68.2998
  35   1.0000      -2.509290       -68.2813
  36   1.0000      -2.508905       -68.2708
  37   1.0000      -2.508055       -68.2476
  38   1.0000      -2.507764       -68.2397
  39   1.0000      -2.507704       -68.2381
  40   1.0000      -2.505860       -68.1879
  41   1.0000      -2.504381       -68.1477
  42   1.0000      -2.503842       -68.1330
  43   1.0000      -2.503144       -68.1140
  44   1.0000      -2.501892       -68.0799
  45   1.0000      -2.501748       -68.0760
  46   1.0000      -2.494273       -67.8726
  47   1.0000      -2.490402       -67.7673
  48   1.0000      -2.486206       -67.6531
  49   1.0000      -0.553865       -15.0714
  50   1.0000      -0.547598       -14.9009
  51   1.0000      -0.541896       -14.7457
  52   1.0000      -0.519853       -14.1459
  53   1.0000      -0.495124       -13.4730
  54   1.0000      -0.490661       -13.3516
  55   1.0000      -0.465740       -12.6734
  56   1.0000      -0.462124       -12.5750
  57   1.0000      -0.447356       -12.1732
  58   1.0000      -0.441840       -12.0231
  59   1.0000      -0.438880       -11.9425
  60   1.0000      -0.437105       -11.8942
  61   1.0000      -0.433461       -11.7951
  62   1.0000      -0.430328       -11.7098
  63   1.0000      -0.430096       -11.7035
  64   1.0000      -0.427576       -11.6349
  65   1.0000      -0.427242       -11.6258
  66   1.0000      -0.425281       -11.5725
  67   1.0000      -0.423640       -11.5278
  68   1.0000      -0.422892       -11.5075
  69   1.0000      -0.416459       -11.3324
  70   1.0000      -0.414806       -11.2874
  71   1.0000      -0.410907       -11.1813
  72   1.0000      -0.402267       -10.9462
  73   1.0000      -0.398411       -10.8413
  74   1.0000      -0.396284       -10.7834
  75   1.0000      -0.395104       -10.7513
  76   1.0000      -0.394237       -10.7277
  77   1.0000      -0.391116       -10.6428
  78   1.0000      -0.387507       -10.5446
  79   1.0000      -0.384009       -10.4494
  80   1.0000      -0.380525       -10.3546
  81   1.0000      -0.378620       -10.3028
  82   1.0000      -0.375436       -10.2161
  83   1.0000      -0.371665       -10.1135
  84   1.0000      -0.369499       -10.0546
  85   1.0000      -0.367831       -10.0092
  86   1.0000      -0.367073        -9.9886
  87   1.0000      -0.365623        -9.9491
  88   1.0000      -0.362623        -9.8675
  89   1.0000      -0.362583        -9.8664
  90   1.0000      -0.361266        -9.8306
  91   1.0000      -0.361190        -9.8285
  92   1.0000      -0.356301        -9.6954
  93   1.0000      -0.354690        -9.6516
  94   1.0000      -0.350423        -9.5355
  95   1.0000      -0.350048        -9.5253
  96   1.0000      -0.349283        -9.5045
  97   1.0000      -0.348305        -9.4779
  98   1.0000      -0.340046        -9.2531
  99   1.0000      -0.336729        -9.1628
 100   1.0000      -0.335094        -9.1184
 101   1.0000      -0.329917        -8.9775
 102   1.0000      -0.328890        -8.9495
 103   1.0000      -0.324089        -8.8189
 104   1.0000      -0.321563        -8.7502
 105   1.0000      -0.304948        -8.2981
 106   1.0000      -0.290606        -7.9078
 107   1.0000      -0.262505        -7.1431
 108   1.0000      -0.226981        -6.1765
 109   0.0000      -0.098637        -2.6841
 110   0.0000      -0.094403        -2.5688
 111   0.0000      -0.071554        -1.9471
 112   0.0000      -0.065243        -1.7754
 113   0.0000      -0.060390        -1.6433

                 SPIN DOWN ORBITALS
  NO   OCC          E(Eh)            E(eV)
   0   1.0000    -258.324181     -7029.3583
   1   1.0000     -30.795402      -837.9855
   2   1.0000     -26.506333      -721.2740
   3   1.0000     -26.500929      -721.1270
   4   1.0000     -26.497351      -721.0296
   5   1.0000      -4.398815      -119.6978
   6   1.0000      -4.396687      -119.6399
   7   1.0000      -4.396519      -119.6354
   8   1.0000      -4.395437      -119.6059
   9   1.0000      -4.395050      -119.5954
  10   1.0000      -4.394922      -119.5919
  11   1.0000      -4.389204      -119.4363
  12   1.0000      -4.389136      -119.4345
  13   1.0000      -4.388617      -119.4204
  14   1.0000      -4.374484      -119.0358
  15   1.0000      -3.656974       -99.5113
  16   1.0000      -2.521006       -68.6001
  17   1.0000      -2.519334       -68.5546
  18   1.0000      -2.516000       -68.4638
  19   1.0000      -2.515879       -68.4605
  20   1.0000      -2.515308       -68.4450
  21   1.0000      -2.515167       -68.4412
  22   1.0000      -2.514805       -68.4313
  23   1.0000      -2.513903       -68.4068
  24   1.0000      -2.513573       -68.3978
  25   1.0000      -2.512814       -68.3772
  26   1.0000      -2.512800       -68.3768
  27   1.0000      -2.511504       -68.3415
  28   1.0000      -2.510915       -68.3255
  29   1.0000      -2.510518       -68.3147
  30   1.0000      -2.510246       -68.3073
  31   1.0000      -2.509059       -68.2750
  32   1.0000      -2.509027       -68.2741
  33   1.0000      -2.508610       -68.2628
  34   1.0000      -2.508366       -68.2561
  35   1.0000      -2.507413       -68.2302
  36   1.0000      -2.506927       -68.2170
  37   1.0000      -2.506031       -68.1926
  38   1.0000      -2.505071       -68.1664
  39   1.0000      -2.504330       -68.1463
  40   1.0000      -2.503398       -68.1209
  41   1.0000      -2.502258       -68.0899
  42   1.0000      -2.502119       -68.0861
  43   1.0000      -2.494994       -67.8923
  44   1.0000      -2.491450       -67.7958
  45   1.0000      -2.486320       -67.6562
  46   1.0000      -2.336820       -63.5881
  47   1.0000      -2.333066       -63.4860
  48   1.0000      -2.324109       -63.2422
  49   1.0000      -0.498765       -13.5721
  50   1.0000      -0.475219       -12.9314
  51   1.0000      -0.470585       -12.8053
  52   1.0000      -0.458138       -12.4666
  53   1.0000      -0.454651       -12.3717
  54   1.0000      -0.447313       -12.1720
  55   1.0000      -0.441456       -12.0126
  56   1.0000      -0.439044       -11.9470
  57   1.0000      -0.438182       -11.9235
  58   1.0000      -0.436800       -11.8859
  59   1.0000      -0.434681       -11.8283
  60   1.0000      -0.429450       -11.6859
  61   1.0000      -0.428037       -11.6475
  62   1.0000      -0.427621       -11.6362
  63   1.0000      -0.427182       -11.6242
  64   1.0000      -0.424490       -11.5510
  65   1.0000      -0.424020       -11.5382
  66   1.0000      -0.422550       -11.4982
  67   1.0000      -0.411898       -11.2083
  68   1.0000      -0.409771       -11.1504
  69   1.0000      -0.404089       -10.9958
  70   1.0000      -0.403846       -10.9892
  71   1.0000      -0.399296       -10.8654
  72   1.0000      -0.399145       -10.8613
  73   1.0000      -0.396078       -10.7778
  74   1.0000      -0.395773       -10.7695
  75   1.0000      -0.391584       -10.6555
  76   1.0000      -0.387239       -10.5373
  77   1.0000      -0.377818       -10.2809
  78   1.0000      -0.376022       -10.2321
  79   1.0000      -0.373040       -10.1509
  80   1.0000      -0.372711       -10.1420
  81   1.0000      -0.368585       -10.0297
  82   1.0000      -0.368029       -10.0146
  83   1.0000      -0.367660       -10.0045
  84   1.0000      -0.365090        -9.9346
  85   1.0000      -0.362793        -9.8721
  86   1.0000      -0.361521        -9.8375
  87   1.0000      -0.360158        -9.8004
  88   1.0000      -0.358058        -9.7432
  89   1.0000      -0.353956        -9.6316
  90   1.0000      -0.352959        -9.6045
  91   1.0000      -0.351659        -9.5691
  92   1.0000      -0.350180        -9.5289
  93   1.0000      -0.342469        -9.3191
  94   1.0000      -0.340204        -9.2574
  95   1.0000      -0.338857        -9.2208
  96   1.0000      -0.332990        -9.0611
  97   1.0000      -0.331953        -9.0329
  98   1.0000      -0.327218        -8.9040
  99   1.0000      -0.326264        -8.8781
 100   1.0000      -0.322109        -8.7650
 101   1.0000      -0.314679        -8.5629
 102   1.0000      -0.296363        -8.0644
 103   1.0000      -0.287329        -7.8186
 104   1.0000      -0.236018        -6.4224
 105   1.0000      -0.207879        -5.6567
 106   1.0000      -0.196939        -5.3590
 107   0.0000      -0.078760        -2.1432
 108   0.0000      -0.075094        -2.0434
 109   0.0000      -0.074407        -2.0247
 110   0.0000      -0.041827        -1.1382
 111   0.0000      -0.014701        -0.4000

MULLIKEN ATOMIC CHARGES AND SPIN POPULATIONS
--------------------------------------------
   0 Au:   -0.141735   -0.139103
   1 Au:   -0.165716   -0.063925
   2 Au:    0.270123    0.026966
   3 Au:    0.244511   -0.278236
   4 Au:    0.242345   -0.279581
   5 Au:    0.270543   -0.170235
   6 Au:    0.152811   -0.154268
   7 Au:    0.272562   -0.170388
   8 Au:    0.169783   -0.142238
   9 Au:    0.153865   -0.152975
  10 Fe:   -1.469091    3.523983
Sum of atomic charges         :   -0.0000000

LOEWDIN ATOMIC CHARGES AND SPIN POPULATIONS
-------------------------------------------
   0 Au:   -0.076761   -0.100576
   1 Au:   -0.053667   -0.048853
   2 Au:    0.096997    0.001160
   3 Au:    0.069558   -0.242811
   4 Au:    0.069398   -0.242638
   5 Au:    0.049318   -0.139799
   6 Au:    0.041311   -0.193595
   7 Au:    0.049100   -0.139963
   8 Au:    0.016184   -0.128833
   9 Au:    0.041402   -0.193063
  10 Fe:   -0.302841    3.428971

  Mayer bond orders larger than 0.100000
B(  0-Au,  1-Au) :   0.2630 B(  0-Au,  2-Au) :   0.5537 B(  0-Au,  3-Au) :   0.1847
B(  0-Au,  4-Au) :   0.1819 B(  0-Au, 10-Fe) :   0.4429 B(  1-Au,  2-Au) :   0.5094
B(  1-Au,  5-Au) :   0.2387 B(  1-Au,  7-Au) :   0.2392 B(  1-Au, 10-Fe) :   0.4173
B(  3-Au,  6-Au) :   0.2644 B(  3-Au, 10-Fe) :   0.5520 B(  4-Au,  9-Au) :   0.2649
B(  4-Au, 10-Fe) :   0.5542 B(  5-Au,  7-Au) :   0.1231 B(  5-Au,  9-Au) :   0.1882
B(  5-Au, 10-Fe) :   0.5143 B(  6-Au,  7-Au) :   0.1865 B(  6-Au,  8-Au) :   0.2288
B(  6-Au, 10-Fe) :   0.4513 B(  7-Au, 10-Fe) :   0.5138 B(  8-Au,  9-Au) :   0.2294
B(  8-Au, 10-Fe) :   0.5130 B(  9-Au, 10-Fe) :   0.4495

MP2 TOTAL ENERGY:    -2619.336016875 Eh
FINAL SINGLE POINT ENERGY     -2619.336016874634

DIPOLE MOMENT
-------------
                                X             Y             Z
Electronic contribution:     11.97415       2.37494      -9.44311
Nuclear contribution   :    -11.98154      -2.33828       9.46051
                        -----------------------------------------
Total Dipole Moment    :     -0.00739       0.03666       0.01740
                        -----------------------------------------
Magnitude (a.u.)       :      0.04125
Magnitude (Debye)      :      0.10484

Rotational constants in cm-1:     0.001990     0.001476     0.001349
Rotational constants in MHz :    59.664077    44.256980    40.440593

                             ****ORCA TERMINATED NORMALLY****
TOTAL RUN TIME: 0 days 0 hours 24 minutes 41 seconds 344 msec
