                         Program Version 5.0.3 -  RELEASE  -
|  1> !PBE def2-TZVP VERYSLOWCONV
|  2>
|  3> %scf
|  4>   AutoTRAHIter 200
|  5>   maxiter 400
|  6> end
|  7>
|  8>
|  9> %pal nprocs 6 end
| 10>
| 11> *xyzfile 0 5 pbe.xyz
| 12>
| 13> $new_job
| 14>
| 15> !PBE def2-TZVP VERYSLOWCONV
| 16>
| 17> %scf
| 18>   AutoTRAHIter 200
| 19>   maxiter 400
| 20> end
| 21>
| 22>
| 23> %pal nprocs 6 end
| 24>
| 25> *xyzfile 0 3 pbe.xyz
| 26>
| 27>
| 28>
| 29>
| 30>
| 31>                          ****END OF INPUT****
 Total Charge           Charge          ....    0
 Multiplicity           Mult            ....    5
 Number of Electrons    NEL             ....  216
FINAL SINGLE POINT ENERGY     -2621.716759235345

CARTESIAN COORDINATES (ANGSTROEM)
---------------------------------
  Au     7.396864    6.375312    6.488323
  Au     8.288566    9.110046    6.948014
  Au     9.434052    7.454374    5.185402
  Au     6.407517    5.482329    8.917534
  Au     4.654632    6.398719    6.896739
  Au     6.003734   10.548342    7.621372
  Au     6.658708    7.396158   10.850816
  Au     7.738378    9.649937    9.620915
  Au     4.794366    9.306435   10.073550
  Au     3.761590    8.902733    7.525188
  Fe     6.197522    8.000707    8.262548

 Multiplicity           Mult            ....    3
 Number of Electrons    NEL             ....  216
 Basis Dimension        Dim             ....  445

ORBITAL ENERGIES
----------------
                 SPIN UP ORBITALS
  NO   OCC          E(Eh)            E(eV)
   0   1.0000    -254.738946     -6931.7991
   1   1.0000     -29.575173      -804.7814
   2   1.0000     -25.516909      -694.3504
   3   1.0000     -25.510244      -694.1690
   4   1.0000     -25.506049      -694.0549
   5   1.0000      -4.025810      -109.5479
   6   1.0000      -4.020869      -109.4134
   7   1.0000      -4.020494      -109.4032
   8   1.0000      -4.020380      -109.4001
   9   1.0000      -4.019436      -109.3744
  10   1.0000      -4.019298      -109.3706
  11   1.0000      -4.015106      -109.2566
  12   1.0000      -4.015087      -109.2561
  13   1.0000      -4.012708      -109.1913
  14   1.0000      -4.004894      -108.9787
  15   1.0000      -3.350446       -91.1703
  16   1.0000      -2.245363       -61.0994
  17   1.0000      -2.240490       -60.9668
  18   1.0000      -2.238614       -60.9158
  19   1.0000      -2.237188       -60.8770
  20   1.0000      -2.237132       -60.8755
  21   1.0000      -2.236418       -60.8560
  22   1.0000      -2.236182       -60.8496
  23   1.0000      -2.234588       -60.8062
  24   1.0000      -2.234158       -60.7945
  25   1.0000      -2.233889       -60.7872
  26   1.0000      -2.233780       -60.7842
  27   1.0000      -2.232857       -60.7591
  28   1.0000      -2.232215       -60.7417
  29   1.0000      -2.230956       -60.7074
  30   1.0000      -2.230848       -60.7045
  31   1.0000      -2.230460       -60.6939
  32   1.0000      -2.229564       -60.6695
  33   1.0000      -2.228748       -60.6473
  34   1.0000      -2.228532       -60.6414
  35   1.0000      -2.228313       -60.6355
  36   1.0000      -2.228258       -60.6340
  37   1.0000      -2.228072       -60.6289
  38   1.0000      -2.227164       -60.6042
  39   1.0000      -2.226512       -60.5865
  40   1.0000      -2.224372       -60.5282
  41   1.0000      -2.223838       -60.5137
  42   1.0000      -2.223526       -60.5052
  43   1.0000      -2.221624       -60.4535
  44   1.0000      -2.218445       -60.3670
  45   1.0000      -2.210524       -60.1514
  46   1.0000      -2.176585       -59.2279
  47   1.0000      -2.162381       -58.8414
  48   1.0000      -2.154319       -58.6220
  49   1.0000      -0.413262       -11.2454
  50   1.0000      -0.379408       -10.3242
  51   1.0000      -0.373514       -10.1638
  52   1.0000      -0.360761        -9.8168
  53   1.0000      -0.358294        -9.7497
  54   1.0000      -0.352197        -9.5838
  55   1.0000      -0.342499        -9.3199
  56   1.0000      -0.339462        -9.2372
  57   1.0000      -0.335226        -9.1220
  58   1.0000      -0.333643        -9.0789
  59   1.0000      -0.329274        -8.9600
  60   1.0000      -0.326418        -8.8823
  61   1.0000      -0.325567        -8.8591
  62   1.0000      -0.324932        -8.8419
  63   1.0000      -0.322496        -8.7756
  64   1.0000      -0.320719        -8.7272
  65   1.0000      -0.319335        -8.6896
  66   1.0000      -0.317697        -8.6450
  67   1.0000      -0.311360        -8.4725
  68   1.0000      -0.310713        -8.4549
  69   1.0000      -0.306628        -8.3438
  70   1.0000      -0.306357        -8.3364
  71   1.0000      -0.305377        -8.3097
  72   1.0000      -0.298784        -8.1303
  73   1.0000      -0.298561        -8.1243
  74   1.0000      -0.293061        -7.9746
  75   1.0000      -0.292608        -7.9623
  76   1.0000      -0.288063        -7.8386
  77   1.0000      -0.279841        -7.6148
  78   1.0000      -0.274494        -7.4694
  79   1.0000      -0.274212        -7.4617
  80   1.0000      -0.272469        -7.4142
  81   1.0000      -0.270235        -7.3535
  82   1.0000      -0.269422        -7.3313
  83   1.0000      -0.268476        -7.3056
  84   1.0000      -0.266804        -7.2601
  85   1.0000      -0.264618        -7.2006
  86   1.0000      -0.263632        -7.1738
  87   1.0000      -0.260372        -7.0851
  88   1.0000      -0.259901        -7.0723
  89   1.0000      -0.257531        -7.0078
  90   1.0000      -0.257282        -7.0010
  91   1.0000      -0.255579        -6.9547
  92   1.0000      -0.250762        -6.8236
  93   1.0000      -0.250522        -6.8170
  94   1.0000      -0.249006        -6.7758
  95   1.0000      -0.246706        -6.7132
  96   1.0000      -0.243228        -6.6186
  97   1.0000      -0.242282        -6.5928
  98   1.0000      -0.241588        -6.5739
  99   1.0000      -0.239248        -6.5103
 100   1.0000      -0.237884        -6.4731
 101   1.0000      -0.237477        -6.4621
 102   1.0000      -0.235716        -6.4141
 103   1.0000      -0.232873        -6.3368
 104   1.0000      -0.232126        -6.3165
 105   1.0000      -0.230193        -6.2639
 106   1.0000      -0.224574        -6.1110
 107   1.0000      -0.219472        -5.9721
 108   1.0000      -0.201863        -5.4930
 109   0.0000      -0.165821        -4.5122
 110   0.0000      -0.161809        -4.4030
 111   0.0000      -0.135129        -3.6770
 112   0.0000      -0.133837        -3.6419
 113   0.0000      -0.128353        -3.4927

                 SPIN DOWN ORBITALS
  NO   OCC          E(Eh)            E(eV)
   0   1.0000    -254.738292     -6931.7813
   1   1.0000     -29.521547      -803.3221
   2   1.0000     -25.474317      -693.1914
   3   1.0000     -25.470396      -693.0847
   4   1.0000     -25.466981      -692.9918
   5   1.0000      -4.025422      -109.5373
   6   1.0000      -4.020775      -109.4108
   7   1.0000      -4.020448      -109.4019
   8   1.0000      -4.020337      -109.3989
   9   1.0000      -4.019324      -109.3714
  10   1.0000      -4.019182      -109.3675
  11   1.0000      -4.015303      -109.2620
  12   1.0000      -4.015272      -109.2611
  13   1.0000      -4.012805      -109.1940
  14   1.0000      -4.005283      -108.9893
  15   1.0000      -3.228865       -87.8619
  16   1.0000      -2.244886       -61.0865
  17   1.0000      -2.240247       -60.9602
  18   1.0000      -2.237726       -60.8916
  19   1.0000      -2.236711       -60.8640
  20   1.0000      -2.236653       -60.8624
  21   1.0000      -2.235796       -60.8391
  22   1.0000      -2.235719       -60.8370
  23   1.0000      -2.234621       -60.8071
  24   1.0000      -2.234316       -60.7988
  25   1.0000      -2.233910       -60.7878
  26   1.0000      -2.233765       -60.7838
  27   1.0000      -2.232651       -60.7535
  28   1.0000      -2.232336       -60.7449
  29   1.0000      -2.230694       -60.7003
  30   1.0000      -2.230663       -60.6994
  31   1.0000      -2.230539       -60.6961
  32   1.0000      -2.229760       -60.6749
  33   1.0000      -2.228629       -60.6441
  34   1.0000      -2.228541       -60.6417
  35   1.0000      -2.228502       -60.6406
  36   1.0000      -2.228244       -60.6336
  37   1.0000      -2.228208       -60.6326
  38   1.0000      -2.227122       -60.6031
  39   1.0000      -2.226825       -60.5950
  40   1.0000      -2.224711       -60.5375
  41   1.0000      -2.224178       -60.5230
  42   1.0000      -2.224008       -60.5183
  43   1.0000      -2.222008       -60.4639
  44   1.0000      -2.219132       -60.3857
  45   1.0000      -2.210622       -60.1541
  46   1.0000      -2.051482       -55.8237
  47   1.0000      -2.045593       -55.6634
  48   1.0000      -2.039096       -55.4866
  49   1.0000      -0.408789       -11.1237
  50   1.0000      -0.379550       -10.3281
  51   1.0000      -0.371756       -10.1160
  52   1.0000      -0.355182        -9.6650
  53   1.0000      -0.354932        -9.6582
  54   1.0000      -0.346367        -9.4251
  55   1.0000      -0.338190        -9.2026
  56   1.0000      -0.336888        -9.1672
  57   1.0000      -0.333984        -9.0882
  58   1.0000      -0.332111        -9.0372
  59   1.0000      -0.328283        -8.9330
  60   1.0000      -0.325846        -8.8667
  61   1.0000      -0.325373        -8.8538
  62   1.0000      -0.323142        -8.7932
  63   1.0000      -0.321287        -8.7427
  64   1.0000      -0.319339        -8.6897
  65   1.0000      -0.319267        -8.6877
  66   1.0000      -0.315676        -8.5900
  67   1.0000      -0.307518        -8.3680
  68   1.0000      -0.306292        -8.3346
  69   1.0000      -0.305374        -8.3097
  70   1.0000      -0.303701        -8.2641
  71   1.0000      -0.302364        -8.2277
  72   1.0000      -0.297778        -8.1030
  73   1.0000      -0.297100        -8.0845
  74   1.0000      -0.294078        -8.0023
  75   1.0000      -0.293684        -7.9916
  76   1.0000      -0.288786        -7.8583
  77   1.0000      -0.276153        -7.5145
  78   1.0000      -0.275541        -7.4979
  79   1.0000      -0.273303        -7.4370
  80   1.0000      -0.271207        -7.3799
  81   1.0000      -0.269604        -7.3363
  82   1.0000      -0.268475        -7.3056
  83   1.0000      -0.268353        -7.3023
  84   1.0000      -0.265084        -7.2133
  85   1.0000      -0.264548        -7.1987
  86   1.0000      -0.264177        -7.1886
  87   1.0000      -0.260331        -7.0840
  88   1.0000      -0.259420        -7.0592
  89   1.0000      -0.257943        -7.0190
  90   1.0000      -0.256777        -6.9873
  91   1.0000      -0.255526        -6.9532
  92   1.0000      -0.251134        -6.8337
  93   1.0000      -0.249645        -6.7932
  94   1.0000      -0.248187        -6.7535
  95   1.0000      -0.244583        -6.6555
  96   1.0000      -0.243151        -6.6165
  97   1.0000      -0.240899        -6.5552
  98   1.0000      -0.239520        -6.5177
  99   1.0000      -0.239104        -6.5063
 100   1.0000      -0.236402        -6.4328
 101   1.0000      -0.234378        -6.3777
 102   1.0000      -0.230248        -6.2654
 103   1.0000      -0.211210        -5.7473
 104   1.0000      -0.189723        -5.1626
 105   1.0000      -0.185163        -5.0385
 106   1.0000      -0.171046        -4.6544
 107   0.0000      -0.149763        -4.0753
 108   0.0000      -0.149441        -4.0665
 109   0.0000      -0.144112        -3.9215
 110   0.0000      -0.139353        -3.7920
 111   0.0000      -0.131809        -3.5867

MULLIKEN ATOMIC CHARGES AND SPIN POPULATIONS
--------------------------------------------
   0 Au:   -0.031684   -0.064160
   1 Au:   -0.062770   -0.024142
   2 Au:    0.265595    0.018331
   3 Au:    0.250600   -0.145051
   4 Au:    0.249021   -0.145438
   5 Au:    0.271477   -0.102810
   6 Au:    0.215724   -0.088488
   7 Au:    0.273044   -0.102677
   8 Au:    0.202429   -0.088986
   9 Au:    0.216575   -0.088800
  10 Fe:   -1.850012    2.832221
Sum of atomic charges         :   -0.0000000

LOEWDIN ATOMIC CHARGES AND SPIN POPULATIONS
-------------------------------------------
   0 Au:   -0.031744   -0.041073
   1 Au:   -0.016281   -0.016235
   2 Au:    0.088799    0.002996
   3 Au:    0.101389   -0.133850
   4 Au:    0.101223   -0.133923
   5 Au:    0.073932   -0.087514
   6 Au:    0.073018   -0.121252
   7 Au:    0.073807   -0.087399
   8 Au:    0.044581   -0.086692
   9 Au:    0.072816   -0.121913
  10 Fe:   -0.581539    2.826855

  Mayer bond orders larger than 0.100000
B(  0-Au,  1-Au) :   0.2398 B(  0-Au,  2-Au) :   0.5780 B(  0-Au,  3-Au) :   0.2132
B(  0-Au,  4-Au) :   0.2108 B(  0-Au, 10-Fe) :   0.4738 B(  1-Au,  2-Au) :   0.5177
B(  1-Au,  5-Au) :   0.2403 B(  1-Au,  7-Au) :   0.2409 B(  1-Au, 10-Fe) :   0.4969
B(  2-Au, 10-Fe) :   0.1037 B(  3-Au,  4-Au) :   0.1450 B(  3-Au,  6-Au) :   0.2654
B(  3-Au, 10-Fe) :   0.6307 B(  4-Au,  9-Au) :   0.2662 B(  4-Au, 10-Fe) :   0.6319
B(  5-Au,  7-Au) :   0.1848 B(  5-Au,  9-Au) :   0.2255 B(  5-Au, 10-Fe) :   0.5988
B(  6-Au,  7-Au) :   0.2237 B(  6-Au,  8-Au) :   0.2721 B(  6-Au, 10-Fe) :   0.5199
B(  7-Au, 10-Fe) :   0.5972 B(  8-Au,  9-Au) :   0.2732 B(  8-Au, 10-Fe) :   0.6275
B(  9-Au, 10-Fe) :   0.5171

FINAL SINGLE POINT ENERGY     -2621.726815507767

DIPOLE MOMENT
-------------
                                X             Y             Z
Electronic contribution:     11.96542       2.32526      -9.45284
Nuclear contribution   :    -11.98154      -2.33828       9.46051
                        -----------------------------------------
Total Dipole Moment    :     -0.01612      -0.01302       0.00766
                        -----------------------------------------
Magnitude (a.u.)       :      0.02209
Magnitude (Debye)      :      0.05616

Rotational constants in cm-1:     0.001990     0.001476     0.001349
Rotational constants in MHz :    59.664077    44.256980    40.440593

                             ****ORCA TERMINATED NORMALLY****
TOTAL RUN TIME: 0 days 0 hours 5 minutes 41 seconds 432 msec
