                         Program Version 5.0.3 -  RELEASE  -
|  1> !R2SCAN def2-TZVP VERYSLOWCONV
|  2> !KDIIS
|  3> %scf
|  4>   AutoTRAHIter 200
|  5>   maxiter 400
|  6> end
|  7>
|  8> %pal nprocs 6 end
|  9>
| 10> *xyzfile 0 5 pbe.xyz
| 11>
| 12> $new_job
| 13>
| 14> !R2SCAN def2-TZVP VERYSLOWCONV
| 15> !KDIIS
| 16> %scf
| 17>   AutoTRAHIter 200
| 18>   maxiter 400
| 19> end
| 20>
| 21>
| 22> %pal nprocs 6 end
| 23>
| 24> *xyzfile 0 3 pbe.xyz
| 25>
| 26>
| 27>
| 28>
| 29>
| 30>                          ****END OF INPUT****
 Total Charge           Charge          ....    0
 Multiplicity           Mult            ....    5
 Number of Electrons    NEL             ....  216
FINAL SINGLE POINT ENERGY     -2622.121289706259

CARTESIAN COORDINATES (ANGSTROEM)
---------------------------------
  Au     7.396864    6.375312    6.488323
  Au     8.288566    9.110046    6.948014
  Au     9.434052    7.454374    5.185402
  Au     6.407517    5.482329    8.917534
  Au     4.654632    6.398719    6.896739
  Au     6.003734   10.548342    7.621372
  Au     6.658708    7.396158   10.850816
  Au     7.738378    9.649937    9.620915
  Au     4.794366    9.306435   10.073550
  Au     3.761590    8.902733    7.525188
  Fe     6.197522    8.000707    8.262548

 Multiplicity           Mult            ....    3
 Number of Electrons    NEL             ....  216
 Basis Dimension        Dim             ....  445

ORBITAL ENERGIES
----------------
                 SPIN UP ORBITALS
  NO   OCC          E(Eh)            E(eV)
   0   1.0000    -255.621133     -6955.8047
   1   1.0000     -29.918607      -814.1267
   2   1.0000     -25.756857      -700.8797
   3   1.0000     -25.748386      -700.6492
   4   1.0000     -25.742740      -700.4956
   5   1.0000      -4.116926      -112.0273
   6   1.0000      -4.112072      -111.8952
   7   1.0000      -4.111681      -111.8845
   8   1.0000      -4.111562      -111.8813
   9   1.0000      -4.110755      -111.8593
  10   1.0000      -4.110564      -111.8541
  11   1.0000      -4.105924      -111.7279
  12   1.0000      -4.105876      -111.7266
  13   1.0000      -4.103587      -111.6643
  14   1.0000      -4.095604      -111.4471
  15   1.0000      -3.496209       -95.1367
  16   1.0000      -2.309197       -62.8364
  17   1.0000      -2.304540       -62.7097
  18   1.0000      -2.302599       -62.6569
  19   1.0000      -2.301510       -62.6273
  20   1.0000      -2.301226       -62.6195
  21   1.0000      -2.300650       -62.6039
  22   1.0000      -2.300393       -62.5969
  23   1.0000      -2.298561       -62.5470
  24   1.0000      -2.298058       -62.5333
  25   1.0000      -2.297938       -62.5301
  26   1.0000      -2.297843       -62.5275
  27   1.0000      -2.296842       -62.5003
  28   1.0000      -2.296194       -62.4826
  29   1.0000      -2.294874       -62.4467
  30   1.0000      -2.294545       -62.4378
  31   1.0000      -2.294466       -62.4356
  32   1.0000      -2.293668       -62.4139
  33   1.0000      -2.292640       -62.3859
  34   1.0000      -2.292615       -62.3852
  35   1.0000      -2.292565       -62.3839
  36   1.0000      -2.291872       -62.3650
  37   1.0000      -2.291531       -62.3557
  38   1.0000      -2.291324       -62.3501
  39   1.0000      -2.290029       -62.3149
  40   1.0000      -2.288093       -62.2622
  41   1.0000      -2.287419       -62.2438
  42   1.0000      -2.286506       -62.2190
  43   1.0000      -2.285423       -62.1895
  44   1.0000      -2.281530       -62.0836
  45   1.0000      -2.276948       -61.9589
  46   1.0000      -2.274265       -61.8859
  47   1.0000      -2.258987       -61.4702
  48   1.0000      -2.247693       -61.1628
  49   1.0000      -0.420661       -11.4468
  50   1.0000      -0.387681       -10.5493
  51   1.0000      -0.382699       -10.4138
  52   1.0000      -0.372753       -10.1431
  53   1.0000      -0.368841       -10.0367
  54   1.0000      -0.363246        -9.8844
  55   1.0000      -0.355773        -9.6811
  56   1.0000      -0.349691        -9.5156
  57   1.0000      -0.344805        -9.3826
  58   1.0000      -0.342957        -9.3323
  59   1.0000      -0.339246        -9.2314
  60   1.0000      -0.336349        -9.1525
  61   1.0000      -0.335171        -9.1205
  62   1.0000      -0.334468        -9.1014
  63   1.0000      -0.332452        -9.0465
  64   1.0000      -0.330587        -8.9957
  65   1.0000      -0.328698        -8.9443
  66   1.0000      -0.327508        -8.9119
  67   1.0000      -0.322867        -8.7856
  68   1.0000      -0.320063        -8.7094
  69   1.0000      -0.316583        -8.6147
  70   1.0000      -0.316156        -8.6030
  71   1.0000      -0.314633        -8.5616
  72   1.0000      -0.307336        -8.3630
  73   1.0000      -0.306906        -8.3513
  74   1.0000      -0.301918        -8.2156
  75   1.0000      -0.301721        -8.2102
  76   1.0000      -0.296503        -8.0683
  77   1.0000      -0.291202        -7.9240
  78   1.0000      -0.284123        -7.7314
  79   1.0000      -0.283436        -7.7127
  80   1.0000      -0.282945        -7.6993
  81   1.0000      -0.279513        -7.6059
  82   1.0000      -0.278641        -7.5822
  83   1.0000      -0.277555        -7.5526
  84   1.0000      -0.276177        -7.5152
  85   1.0000      -0.273179        -7.4336
  86   1.0000      -0.272394        -7.4122
  87   1.0000      -0.269300        -7.3280
  88   1.0000      -0.268711        -7.3120
  89   1.0000      -0.267175        -7.2702
  90   1.0000      -0.266172        -7.2429
  91   1.0000      -0.264366        -7.1938
  92   1.0000      -0.261193        -7.1074
  93   1.0000      -0.260376        -7.0852
  94   1.0000      -0.257487        -7.0066
  95   1.0000      -0.256465        -6.9788
  96   1.0000      -0.254143        -6.9156
  97   1.0000      -0.252861        -6.8807
  98   1.0000      -0.249922        -6.8007
  99   1.0000      -0.249047        -6.7769
 100   1.0000      -0.245872        -6.6905
 101   1.0000      -0.244669        -6.6578
 102   1.0000      -0.244069        -6.6415
 103   1.0000      -0.242652        -6.6029
 104   1.0000      -0.241630        -6.5751
 105   1.0000      -0.239806        -6.5255
 106   1.0000      -0.232616        -6.3298
 107   1.0000      -0.227772        -6.1980
 108   1.0000      -0.204377        -5.5614
 109   0.0000      -0.162785        -4.4296
 110   0.0000      -0.158338        -4.3086
 111   0.0000      -0.130045        -3.5387
 112   0.0000      -0.129052        -3.5117
 113   0.0000      -0.123707        -3.3662

                 SPIN DOWN ORBITALS
  NO   OCC          E(Eh)            E(eV)
   0   1.0000    -255.620144     -6955.7777
   1   1.0000     -29.843905      -812.0939
   2   1.0000     -25.695918      -699.2215
   3   1.0000     -25.692115      -699.1180
   4   1.0000     -25.688972      -699.0325
   5   1.0000      -4.116710      -112.0214
   6   1.0000      -4.112175      -111.8980
   7   1.0000      -4.111800      -111.8878
   8   1.0000      -4.111680      -111.8845
   9   1.0000      -4.110867      -111.8624
  10   1.0000      -4.110675      -111.8572
  11   1.0000      -4.106342      -111.7393
  12   1.0000      -4.106314      -111.7385
  13   1.0000      -4.103871      -111.6720
  14   1.0000      -4.096075      -111.4599
  15   1.0000      -3.330976       -90.6405
  16   1.0000      -2.308697       -62.8228
  17   1.0000      -2.304343       -62.7044
  18   1.0000      -2.301684       -62.6320
  19   1.0000      -2.300852       -62.6094
  20   1.0000      -2.300696       -62.6051
  21   1.0000      -2.299901       -62.5835
  22   1.0000      -2.299825       -62.5814
  23   1.0000      -2.298583       -62.5476
  24   1.0000      -2.298251       -62.5386
  25   1.0000      -2.297942       -62.5302
  26   1.0000      -2.297800       -62.5263
  27   1.0000      -2.296760       -62.4980
  28   1.0000      -2.296436       -62.4892
  29   1.0000      -2.294895       -62.4473
  30   1.0000      -2.294511       -62.4368
  31   1.0000      -2.294311       -62.4314
  32   1.0000      -2.293990       -62.4226
  33   1.0000      -2.292823       -62.3909
  34   1.0000      -2.292628       -62.3856
  35   1.0000      -2.292147       -62.3725
  36   1.0000      -2.292095       -62.3711
  37   1.0000      -2.291824       -62.3637
  38   1.0000      -2.291452       -62.3536
  39   1.0000      -2.290577       -62.3298
  40   1.0000      -2.288592       -62.2757
  41   1.0000      -2.287996       -62.2595
  42   1.0000      -2.287127       -62.2359
  43   1.0000      -2.285849       -62.2011
  44   1.0000      -2.282422       -62.1079
  45   1.0000      -2.274480       -61.8917
  46   1.0000      -2.106015       -57.3076
  47   1.0000      -2.098811       -57.1116
  48   1.0000      -2.091823       -56.9214
  49   1.0000      -0.416856       -11.3432
  50   1.0000      -0.388106       -10.5609
  51   1.0000      -0.380271       -10.3477
  52   1.0000      -0.364436        -9.9168
  53   1.0000      -0.363111        -9.8807
  54   1.0000      -0.355330        -9.6690
  55   1.0000      -0.346829        -9.4377
  56   1.0000      -0.345788        -9.4094
  57   1.0000      -0.343738        -9.3536
  58   1.0000      -0.341571        -9.2946
  59   1.0000      -0.338000        -9.1975
  60   1.0000      -0.335487        -9.1291
  61   1.0000      -0.335273        -9.1233
  62   1.0000      -0.332823        -9.0566
  63   1.0000      -0.331268        -9.0143
  64   1.0000      -0.329044        -8.9538
  65   1.0000      -0.328724        -8.9450
  66   1.0000      -0.325396        -8.8545
  67   1.0000      -0.316747        -8.6191
  68   1.0000      -0.315784        -8.5929
  69   1.0000      -0.314813        -8.5665
  70   1.0000      -0.312757        -8.5106
  71   1.0000      -0.311005        -8.4629
  72   1.0000      -0.306527        -8.3410
  73   1.0000      -0.305555        -8.3146
  74   1.0000      -0.303475        -8.2580
  75   1.0000      -0.303191        -8.2502
  76   1.0000      -0.297554        -8.0969
  77   1.0000      -0.284905        -7.7527
  78   1.0000      -0.284815        -7.7502
  79   1.0000      -0.282008        -7.6738
  80   1.0000      -0.280483        -7.6323
  81   1.0000      -0.278376        -7.5750
  82   1.0000      -0.277303        -7.5458
  83   1.0000      -0.276383        -7.5208
  84   1.0000      -0.273541        -7.4434
  85   1.0000      -0.273520        -7.4429
  86   1.0000      -0.272256        -7.4085
  87   1.0000      -0.269011        -7.3202
  88   1.0000      -0.267381        -7.2758
  89   1.0000      -0.266236        -7.2446
  90   1.0000      -0.265291        -7.2189
  91   1.0000      -0.263847        -7.1797
  92   1.0000      -0.259630        -7.0649
  93   1.0000      -0.257821        -7.0157
  94   1.0000      -0.254812        -6.9338
  95   1.0000      -0.252818        -6.8795
  96   1.0000      -0.251253        -6.8370
  97   1.0000      -0.247489        -6.7345
  98   1.0000      -0.247041        -6.7223
  99   1.0000      -0.246866        -6.7176
 100   1.0000      -0.243274        -6.6198
 101   1.0000      -0.242110        -6.5881
 102   1.0000      -0.235816        -6.4169
 103   1.0000      -0.213142        -5.7999
 104   1.0000      -0.190656        -5.1880
 105   1.0000      -0.184841        -5.0298
 106   1.0000      -0.175461        -4.7745
 107   0.0000      -0.142273        -3.8715
 108   0.0000      -0.140356        -3.8193
 109   0.0000      -0.136902        -3.7253
 110   0.0000      -0.129902        -3.5348
 111   0.0000      -0.128933        -3.5085

MULLIKEN ATOMIC CHARGES AND SPIN POPULATIONS
--------------------------------------------
   0 Au:   -0.038935   -0.080658
   1 Au:   -0.067534   -0.027647
   2 Au:    0.239597    0.016505
   3 Au:    0.236306   -0.184370
   4 Au:    0.235005   -0.185296
   5 Au:    0.257863   -0.128752
   6 Au:    0.187881   -0.105985
   7 Au:    0.259506   -0.128356
   8 Au:    0.179949   -0.106225
   9 Au:    0.188899   -0.106919
  10 Fe:   -1.678536    3.037703
Sum of atomic charges         :    0.0000000

LOEWDIN ATOMIC CHARGES AND SPIN POPULATIONS
-------------------------------------------
   0 Au:   -0.036377   -0.057111
   1 Au:   -0.019924   -0.025909
   2 Au:    0.083163   -0.001176
   3 Au:    0.093993   -0.161903
   4 Au:    0.093769   -0.162420
   5 Au:    0.068034   -0.104461
   6 Au:    0.064208   -0.142330
   7 Au:    0.067982   -0.104122
   8 Au:    0.037792   -0.099220
   9 Au:    0.063840   -0.143667
  10 Fe:   -0.516481    3.002320

  Mayer bond orders larger than 0.100000
B(  0-Au,  1-Au) :   0.2216 B(  0-Au,  2-Au) :   0.5697 B(  0-Au,  3-Au) :   0.1998
B(  0-Au,  4-Au) :   0.1972 B(  0-Au, 10-Fe) :   0.4691 B(  1-Au,  2-Au) :   0.5065
B(  1-Au,  5-Au) :   0.2362 B(  1-Au,  7-Au) :   0.2374 B(  1-Au, 10-Fe) :   0.4797
B(  3-Au,  4-Au) :   0.1262 B(  3-Au,  6-Au) :   0.2596 B(  3-Au, 10-Fe) :   0.6141
B(  4-Au,  9-Au) :   0.2607 B(  4-Au, 10-Fe) :   0.6145 B(  5-Au,  7-Au) :   0.1693
B(  5-Au,  9-Au) :   0.2093 B(  5-Au, 10-Fe) :   0.5764 B(  6-Au,  7-Au) :   0.2073
B(  6-Au,  8-Au) :   0.2607 B(  6-Au, 10-Fe) :   0.4969 B(  7-Au, 10-Fe) :   0.5740
B(  8-Au,  9-Au) :   0.2620 B(  8-Au, 10-Fe) :   0.6008 B(  9-Au, 10-Fe) :   0.4939

FINAL SINGLE POINT ENERGY     -2622.125000233599

DIPOLE MOMENT
-------------
                                X             Y             Z
Electronic contribution:     11.96913       2.33423      -9.44873
Nuclear contribution   :    -11.98154      -2.33828       9.46051
                        -----------------------------------------
Total Dipole Moment    :     -0.01241      -0.00405       0.01177
                        -----------------------------------------
Magnitude (a.u.)       :      0.01758
Magnitude (Debye)      :      0.04468

Rotational constants in cm-1:     0.001990     0.001476     0.001349
Rotational constants in MHz :    59.664077    44.256980    40.440593

                             ****ORCA TERMINATED NORMALLY****
TOTAL RUN TIME: 0 days 0 hours 3 minutes 41 seconds 644 msec
