                         Program Version 5.0.3 -  RELEASE  -
|  1> !SC-NEVPT2 def2-TZVP def2-TZVP/C
|  2> !MOREAD RIJCOSX def2/J
|  3> %maxcore 4000
|  4> %moinp "casscf.gbw"
|  5> %pal nprocs 8 end
|  6>
|  7> %casscf
|  8>  mult 5,3
|  9>  bweight 1,1
| 10>  nroots 5,45
| 11>  nel 6
| 12>  norb 5
| 13>  ptsettings
| 14>   d4tpre 1e-14 # default = 1e-10
| 15>   d3tpre 1e-14
| 16>  end
| 17>  rel
| 18>    dosoc true
| 19>    gtensor true
| 20>  end
| 21> end
| 22>
| 23>
| 24> *xyzfile 0 5 pbe.xyz
| 25>
| 26>
| 27>                          ****END OF INPUT****

CARTESIAN COORDINATES (ANGSTROEM)
---------------------------------
  Au    10.746341    5.002736    5.049143
  Au     8.340528    7.443499    9.470186
  Au     7.254991    7.519236    6.774852
  Au     7.827527    5.275404    5.484041
  Au     9.614442    3.545775    7.131058
  Au     9.494827    5.009934    9.397671
  Au    11.075911    7.443816    8.825104
  Au     7.379847    9.760691    8.416175
  Au    11.432212    7.484836    5.884043
  Au     9.659249    9.127979    7.071932
  Fe     9.542505    6.227423    7.116707

 Total Charge           Charge          ....    0
 Multiplicity           Mult            ....    5
 Number of Electrons    NEL             ....  216
 Basis Dimension        Dim             ....  445

ORBITAL ENERGIES
----------------

  NO   OCC          E(Eh)            E(eV)
   0   2.0000    -261.387578     -7112.7176
   1   2.0000     -31.952551      -869.4731
   2   2.0000     -27.432505      -746.4764
   3   2.0000     -27.432254      -746.4696
   4   2.0000     -27.432150      -746.4668
   5   2.0000      -4.735416      -128.8572
   6   2.0000      -4.720470      -128.4505
   7   2.0000      -4.719531      -128.4250
   8   2.0000      -4.716920      -128.3539
   9   2.0000      -4.712760      -128.2407
  10   2.0000      -4.712308      -128.2284
  11   2.0000      -4.709447      -128.1506
  12   2.0000      -4.706683      -128.0754
  13   2.0000      -4.691045      -127.6498
  14   2.0000      -4.690541      -127.6361
  15   2.0000      -4.186286      -113.9146
  16   2.0000      -2.777751       -75.5864
  17   2.0000      -2.771394       -75.4135
  18   2.0000      -2.771154       -75.4069
  19   2.0000      -2.767023       -75.2945
  20   2.0000      -2.765818       -75.2617
  21   2.0000      -2.764417       -75.2236
  22   2.0000      -2.759869       -75.0999
  23   2.0000      -2.757635       -75.0391
  24   2.0000      -2.756823       -75.0170
  25   2.0000      -2.756500       -75.0082
  26   2.0000      -2.755760       -74.9880
  27   2.0000      -2.753869       -74.9366
  28   2.0000      -2.753651       -74.9307
  29   2.0000      -2.752753       -74.9062
  30   2.0000      -2.749832       -74.8267
  31   2.0000      -2.749584       -74.8200
  32   2.0000      -2.748833       -74.7996
  33   2.0000      -2.748321       -74.7856
  34   2.0000      -2.747647       -74.7673
  35   2.0000      -2.746767       -74.7433
  36   2.0000      -2.745823       -74.7176
  37   2.0000      -2.745381       -74.7056
  38   2.0000      -2.743973       -74.6673
  39   2.0000      -2.741763       -74.6072
  40   2.0000      -2.741587       -74.6024
  41   2.0000      -2.739707       -74.5512
  42   2.0000      -2.739557       -74.5471
  43   2.0000      -2.728447       -74.2448
  44   2.0000      -2.727499       -74.2190
  45   2.0000      -2.726927       -74.2035
  46   2.0000      -2.723594       -74.1128
  47   2.0000      -2.722261       -74.0765
  48   2.0000      -2.720608       -74.0315
  49   2.0000      -0.576801       -15.6955
  50   2.0000      -0.560326       -15.2472
  51   2.0000      -0.555573       -15.1179
  52   2.0000      -0.548014       -14.9122
  53   2.0000      -0.542822       -14.7709
  54   2.0000      -0.538936       -14.6652
  55   2.0000      -0.538621       -14.6566
  56   2.0000      -0.532165       -14.4809
  57   2.0000      -0.530583       -14.4379
  58   2.0000      -0.525679       -14.3045
  59   2.0000      -0.523572       -14.2471
  60   2.0000      -0.523247       -14.2383
  61   2.0000      -0.517608       -14.0848
  62   2.0000      -0.516412       -14.0523
  63   2.0000      -0.515854       -14.0371
  64   2.0000      -0.510933       -13.9032
  65   2.0000      -0.502600       -13.6764
  66   2.0000      -0.500288       -13.6135
  67   2.0000      -0.495009       -13.4699
  68   2.0000      -0.493643       -13.4327
  69   2.0000      -0.490467       -13.3463
  70   2.0000      -0.489378       -13.3167
  71   2.0000      -0.489251       -13.3132
  72   2.0000      -0.486143       -13.2286
  73   2.0000      -0.483689       -13.1618
  74   2.0000      -0.474522       -12.9124
  75   2.0000      -0.473938       -12.8965
  76   2.0000      -0.468683       -12.7535
  77   2.0000      -0.468610       -12.7515
  78   2.0000      -0.463669       -12.6171
  79   2.0000      -0.458420       -12.4742
  80   2.0000      -0.456502       -12.4221
  81   2.0000      -0.454256       -12.3609
  82   2.0000      -0.451587       -12.2883
  83   2.0000      -0.447946       -12.1892
  84   2.0000      -0.447450       -12.1757
  85   2.0000      -0.443984       -12.0814
  86   2.0000      -0.443463       -12.0672
  87   2.0000      -0.439933       -11.9712
  88   2.0000      -0.438027       -11.9193
  89   2.0000      -0.436770       -11.8851
  90   2.0000      -0.434836       -11.8325
  91   2.0000      -0.430724       -11.7206
  92   2.0000      -0.428698       -11.6655
  93   2.0000      -0.426006       -11.5922
  94   2.0000      -0.425521       -11.5790
  95   2.0000      -0.422425       -11.4948
  96   2.0000      -0.409331       -11.1385
  97   2.0000      -0.404742       -11.0136
  98   2.0000      -0.400899       -10.9090
  99   2.0000      -0.398025       -10.8308
 100   2.0000      -0.355347        -9.6695
 101   2.0000      -0.313258        -8.5242
 102   2.0000      -0.311795        -8.4844
 103   2.0000      -0.244524        -6.6538
 104   2.0000      -0.211732        -5.7615
 105   1.2000      -0.256642        -6.9836
 106   1.2000      -0.262104        -7.1322
 107   1.2000      -0.266096        -7.2408
 108   1.2000      -0.266289        -7.2461
 109   1.2000      -0.266250        -7.2450
 110   0.0000      -0.036468        -0.9924
 111   0.0000      -0.012597        -0.3428
 112   0.0000      -0.005752        -0.1565
 113   0.0000      -0.002252        -0.0613
 114   0.0000       0.019901         0.5415

MULLIKEN ATOMIC CHARGES AND SPIN DENSITIES
------------------------------------------
   0 Au:    0.021670    0.011061
   1 Au:   -0.179475    0.007575
   2 Au:   -0.087511    0.008542
   3 Au:    0.333264    0.009425
   4 Au:    0.024103    0.011155
   5 Au:    0.351848    0.008779
   6 Au:    0.388005    0.007983
   7 Au:    0.372115    0.003196
   8 Au:    0.355167    0.008822
   9 Au:   -0.176873    0.007517
  10 Fe:   -1.402313    2.915945
Sum of atomic charges       :    0.0000000

LOEWDIN ATOMIC CHARGES AND SPIN DENSITIES
-----------------------------------------
   0 Au:   -0.042577    0.013492
   1 Au:   -0.083973    0.008900
   2 Au:   -0.043690    0.011647
   3 Au:    0.068574    0.012794
   4 Au:   -0.044340    0.013581
   5 Au:    0.052628    0.013183
   6 Au:    0.132919    0.010401
   7 Au:    0.130991    0.004141
   8 Au:    0.057605    0.013216
   9 Au:   -0.083356    0.008894
  10 Fe:   -0.144780    2.889751

  Mayer bond orders larger than 0.100000
B(  0-Au,  8-Au) :   0.3406 B(  0-Au, 10-Fe) :   0.5033 B(  1-Au,  2-Au) :   0.2089
B(  1-Au,  5-Au) :   0.3226 B(  1-Au,  6-Au) :   0.1973 B(  1-Au,  7-Au) :   0.3402
B(  1-Au,  9-Au) :   0.1885 B(  1-Au, 10-Fe) :   0.3792 B(  2-Au,  3-Au) :   0.5172
B(  2-Au,  7-Au) :   0.3169 B(  2-Au,  9-Au) :   0.2133 B(  2-Au, 10-Fe) :   0.4635
B(  3-Au, 10-Fe) :   0.4617 B(  4-Au,  5-Au) :   0.3562 B(  4-Au, 10-Fe) :   0.5063
B(  5-Au,  6-Au) :   0.1469 B(  5-Au, 10-Fe) :   0.3962 B(  6-Au,  8-Au) :   0.1474
B(  6-Au,  9-Au) :   0.1864 B(  6-Au, 10-Fe) :   0.4331 B(  7-Au,  9-Au) :   0.3422
B(  8-Au,  9-Au) :   0.3306 B(  8-Au, 10-Fe) :   0.3931 B(  9-Au, 10-Fe) :   0.3806

FINAL SINGLE POINT ENERGY     -2615.520356402375

DIPOLE MOMENT
-------------
                                X             Y             Z
Electronic contribution:     -9.82624      20.78065       9.21704
Nuclear contribution   :      9.84517     -20.22563      -8.85262
                        -----------------------------------------
Total Dipole Moment    :      0.01893       0.55502       0.36443
                        -----------------------------------------
Magnitude (a.u.)       :      0.66424
Magnitude (Debye)      :      1.68837

Rotational constants in cm-1:     0.002231     0.001434     0.001389
Rotational constants in MHz :    66.892468    42.982824    41.632414

                             ****ORCA TERMINATED NORMALLY****
TOTAL RUN TIME: 0 days 2 hours 21 minutes 34 seconds 243 msec
