                         Program Version 5.0.3 -  RELEASE  -
|  1> !SC-NEVPT2 def2-TZVP def2-TZVP/C
|  2> !MOREAD RIJCOSX def2/J
|  3> %maxcore 4000
|  4> %moinp "casscf.gbw"
|  5> %pal nprocs 6 end
|  6>
|  7> %casscf
|  8>  mult 6,4
|  9>  bweight 1,1
| 10>  nroots 1,24
| 11>  nel 5
| 12>  norb 5
| 13>  ptsettings
| 14>   d4tpre 1e-14 # default = 1e-10
| 15>   d3tpre 1e-14
| 16>  end
| 17>  rel
| 18>    dosoc true
| 19>    gtensor true
| 20>  end
| 21> end
| 22>
| 23>
| 24> *xyzfile 0 6 pbe.xyz
| 25>
| 26>
| 27>                          ****END OF INPUT****

CARTESIAN COORDINATES (ANGSTROEM)
---------------------------------
  Au     7.632504    5.991607    5.833179
  Au     5.753582    4.082658    7.883688
  Au     7.905755    5.890448   10.772996
  Au     8.749385    4.593875    8.634896
  Au     7.908549    3.416436    6.263170
  Au     7.605926    8.236554    4.488624
  Au     5.062597    5.412661   10.055390
  Au     5.826350    7.266973   11.937912
  Au     6.209963    8.585347    9.586665
  Au     6.874283    8.619869    7.036091
  Mn     6.869316    6.394829    8.390372

 Total Charge           Charge          ....    0
 Multiplicity           Mult            ....    6
 Number of Electrons    NEL             ....  215
 Basis Dimension        Dim             ....  445

ORBITAL ENERGIES
----------------

  NO   OCC          E(Eh)            E(eV)
   0   2.0000    -240.540786     -6545.4475
   1   2.0000     -29.120001      -792.3955
   2   2.0000     -24.824727      -675.5152
   3   2.0000     -24.824643      -675.5129
   4   2.0000     -24.823930      -675.4935
   5   2.0000      -4.725187      -128.5789
   6   2.0000      -4.714625      -128.2915
   7   2.0000      -4.712325      -128.2289
   8   2.0000      -4.709740      -128.1586
   9   2.0000      -4.709609      -128.1550
  10   2.0000      -4.705285      -128.0373
  11   2.0000      -4.704889      -128.0265
  12   2.0000      -4.703408      -127.9863
  13   2.0000      -4.701419      -127.9321
  14   2.0000      -4.699408      -127.8774
  15   2.0000      -3.826330      -104.1197
  16   2.0000      -2.766354       -75.2763
  17   2.0000      -2.761962       -75.1568
  18   2.0000      -2.756069       -74.9964
  19   2.0000      -2.753234       -74.9193
  20   2.0000      -2.752641       -74.9032
  21   2.0000      -2.751422       -74.8700
  22   2.0000      -2.750223       -74.8374
  23   2.0000      -2.748981       -74.8036
  24   2.0000      -2.748151       -74.7810
  25   2.0000      -2.748074       -74.7789
  26   2.0000      -2.745605       -74.7117
  27   2.0000      -2.745237       -74.7017
  28   2.0000      -2.743560       -74.6561
  29   2.0000      -2.742391       -74.6242
  30   2.0000      -2.741771       -74.6074
  31   2.0000      -2.741478       -74.5994
  32   2.0000      -2.741393       -74.5971
  33   2.0000      -2.740644       -74.5767
  34   2.0000      -2.740386       -74.5697
  35   2.0000      -2.739537       -74.5466
  36   2.0000      -2.738847       -74.5278
  37   2.0000      -2.738181       -74.5097
  38   2.0000      -2.737329       -74.4865
  39   2.0000      -2.736239       -74.4568
  40   2.0000      -2.735725       -74.4429
  41   2.0000      -2.733879       -74.3926
  42   2.0000      -2.733226       -74.3749
  43   2.0000      -2.733006       -74.3689
  44   2.0000      -2.731993       -74.3413
  45   2.0000      -2.731849       -74.3374
  46   2.0000      -2.494827       -67.8877
  47   2.0000      -2.493130       -67.8415
  48   2.0000      -2.492529       -67.8252
  49   2.0000      -0.559955       -15.2371
  50   2.0000      -0.554677       -15.0935
  51   2.0000      -0.548815       -14.9340
  52   2.0000      -0.542224       -14.7547
  53   2.0000      -0.539442       -14.6790
  54   2.0000      -0.537289       -14.6204
  55   2.0000      -0.530754       -14.4426
  56   2.0000      -0.527879       -14.3643
  57   2.0000      -0.523816       -14.2538
  58   2.0000      -0.519457       -14.1351
  59   2.0000      -0.515473       -14.0267
  60   2.0000      -0.511352       -13.9146
  61   2.0000      -0.507233       -13.8025
  62   2.0000      -0.504162       -13.7190
  63   2.0000      -0.501894       -13.6572
  64   2.0000      -0.500170       -13.6103
  65   2.0000      -0.497123       -13.5274
  66   2.0000      -0.495080       -13.4718
  67   2.0000      -0.489034       -13.3073
  68   2.0000      -0.485662       -13.2155
  69   2.0000      -0.485265       -13.2047
  70   2.0000      -0.483114       -13.1462
  71   2.0000      -0.480059       -13.0631
  72   2.0000      -0.474302       -12.9064
  73   2.0000      -0.467822       -12.7301
  74   2.0000      -0.466535       -12.6951
  75   2.0000      -0.464068       -12.6279
  76   2.0000      -0.463518       -12.6130
  77   2.0000      -0.461932       -12.5698
  78   2.0000      -0.460583       -12.5331
  79   2.0000      -0.458023       -12.4634
  80   2.0000      -0.452602       -12.3159
  81   2.0000      -0.452064       -12.3013
  82   2.0000      -0.450301       -12.2533
  83   2.0000      -0.448539       -12.2054
  84   2.0000      -0.447779       -12.1847
  85   2.0000      -0.441470       -12.0130
  86   2.0000      -0.438581       -11.9344
  87   2.0000      -0.436582       -11.8800
  88   2.0000      -0.436390       -11.8748
  89   2.0000      -0.432587       -11.7713
  90   2.0000      -0.432290       -11.7632
  91   2.0000      -0.429934       -11.6991
  92   2.0000      -0.427722       -11.6389
  93   2.0000      -0.427511       -11.6332
  94   2.0000      -0.421773       -11.4770
  95   2.0000      -0.418926       -11.3996
  96   2.0000      -0.418701       -11.3934
  97   2.0000      -0.407809       -11.0971
  98   2.0000      -0.396674       -10.7941
  99   2.0000      -0.391930       -10.6649
 100   2.0000      -0.359841        -9.7918
 101   2.0000      -0.348158        -9.4739
 102   2.0000      -0.267889        -7.2896
 103   2.0000      -0.258331        -7.0296
 104   2.0000      -0.245547        -6.6817
 105   1.0000      -0.144618        -3.9353
 106   1.0000      -0.142793        -3.8856
 107   1.0000      -0.141695        -3.8557
 108   1.0000      -0.143030        -3.8921
 109   1.0000      -0.146103        -3.9757
 110   0.0000      -0.024049        -0.6544
 111   0.0000      -0.007568        -0.2059
 112   0.0000       0.001817         0.0494
 113   0.0000       0.005491         0.1494
 114   0.0000       0.029261         0.7962

MULLIKEN ATOMIC CHARGES AND SPIN DENSITIES
------------------------------------------
   0 Au:   -0.649617    0.011016
   1 Au:    0.097766    0.012350
   2 Au:    0.063033    0.011236
   3 Au:    0.099250    0.012367
   4 Au:    0.391285    0.004041
   5 Au:    0.466404    0.003119
   6 Au:    0.066981    0.011249
   7 Au:    0.214929    0.003870
   8 Au:    0.170717    0.013235
   9 Au:   -0.104235    0.012219
  10 Mn:   -0.816514    3.905297
Sum of atomic charges       :    0.0000000

LOEWDIN ATOMIC CHARGES AND SPIN DENSITIES
-----------------------------------------
   0 Au:   -0.145219    0.017817
   1 Au:   -0.010347    0.016630
   2 Au:   -0.049851    0.016386
   3 Au:   -0.012364    0.016693
   4 Au:    0.131127    0.004767
   5 Au:    0.144582    0.003918
   6 Au:   -0.049316    0.016418
   7 Au:    0.087117    0.004726
   8 Au:   -0.024517    0.018978
   9 Au:   -0.050151    0.018081
  10 Mn:   -0.021060    3.865584

  Mayer bond orders larger than 0.100000
B(  0-Au,  1-Au) :   0.1192 B(  0-Au,  3-Au) :   0.1243 B(  0-Au,  4-Au) :   0.5761
B(  0-Au,  5-Au) :   0.6161 B(  0-Au,  9-Au) :   0.3596 B(  0-Au, 10-Mn) :   0.3391
B(  1-Au,  4-Au) :   0.1398 B(  1-Au,  6-Au) :   0.5460 B(  1-Au, 10-Mn) :   0.5353
B(  2-Au,  3-Au) :   0.5485 B(  2-Au,  6-Au) :   0.1333 B(  2-Au,  7-Au) :   0.3041
B(  2-Au, 10-Mn) :   0.4688 B(  3-Au,  4-Au) :   0.1421 B(  3-Au, 10-Mn) :   0.5308
B(  5-Au,  9-Au) :   0.2953 B(  6-Au,  7-Au) :   0.3060 B(  6-Au, 10-Mn) :   0.4697
B(  7-Au,  8-Au) :   0.2692 B(  7-Au, 10-Mn) :   0.1030 B(  8-Au,  9-Au) :   0.4544
B(  8-Au, 10-Mn) :   0.5464 B(  9-Au, 10-Mn) :   0.5765

FINAL SINGLE POINT ENERGY     -2502.901638405223

DIPOLE MOMENT
-------------
                                X             Y             Z
Electronic contribution:      3.20598      -6.97731      -5.65446
Nuclear contribution   :     -3.02685       6.70707       5.11077
                        -----------------------------------------
Total Dipole Moment    :      0.17912      -0.27024      -0.54369
                        -----------------------------------------
Magnitude (a.u.)       :      0.63302
Magnitude (Debye)      :      1.60901

Rotational constants in cm-1:     0.002030     0.001357     0.000988
Rotational constants in MHz :    60.860913    40.693668    29.633436

                             ****ORCA TERMINATED NORMALLY****
TOTAL RUN TIME: 0 days 0 hours 43 minutes 42 seconds 740 msec
