                         Program Version 5.0.3 -  RELEASE  -
|  1> !SC-NEVPT2 def2-TZVP def2-TZVP/C
|  2> !MOREAD RIJCOSX def2/J
|  3> %maxcore 4000
|  4> %moinp "casscf.gbw"
|  5> %pal nprocs 6 end
|  6>
|  7> %casscf
|  8>  mult 5,3
|  9>  bweight 1,1
| 10>  nroots 5,45
| 11>  nel 6
| 12>  norb 5
| 13>  ptsettings
| 14>   d4tpre 1e-14 # default = 1e-10
| 15>   d3tpre 1e-14
| 16>  end
| 17>  rel
| 18>    dosoc true
| 19>    gtensor true
| 20>  end
| 21> end
| 22>
| 23>
| 24> *xyzfile 0 5 pbe.xyz
| 25>
| 26>
| 27>                          ****END OF INPUT****

CARTESIAN COORDINATES (ANGSTROEM)
---------------------------------
  Au     9.023081    6.213688    7.079266
  Au     8.362296    8.366166    8.976971
  Au     6.918633    5.974785    8.980674
  Au     6.542715    5.034884    6.330456
  Au     9.293757    9.041493    6.470640
  Au    10.539101    7.042015    4.930472
  Au     9.154281    9.173433    3.646438
  Au     7.795006    6.831498    4.429112
  Au     4.367545    6.481367    7.522559
  Au     4.471562    9.185399    6.579876
  Au     5.542244    8.483135    9.136457
  Au     5.032704    6.902330    4.838924
  Au     7.024320   10.347571    7.524517
  Au     8.200830   11.287058    5.162118
  Au     5.410520   11.605255    5.604612
  Au     6.399490    9.256639    4.393886
  Fe     6.736717    7.676563    6.854290

 Total Charge           Charge          ....    0
 Multiplicity           Mult            ....    5
 Number of Electrons    NEL             ....  330
 Basis Dimension        Dim             ....  685

ORBITAL ENERGIES
----------------

  NO   OCC          E(Eh)            E(eV)
   0   2.0000    -261.401189     -7113.0880
   1   2.0000     -31.962745      -869.7505
   2   2.0000     -27.443165      -746.7665
   3   2.0000     -27.442948      -746.7606
   4   2.0000     -27.442376      -746.7450
   5   2.0000      -4.719408      -128.4216
   6   2.0000      -4.719102      -128.4133
   7   2.0000      -4.718863      -128.4068
   8   2.0000      -4.718564      -128.3987
   9   2.0000      -4.717494      -128.3695
  10   2.0000      -4.717324      -128.3649
  11   2.0000      -4.717048      -128.3574
  12   2.0000      -4.716369      -128.3389
  13   2.0000      -4.715367      -128.3117
  14   2.0000      -4.715030      -128.3025
  15   2.0000      -4.714661      -128.2924
  16   2.0000      -4.714119      -128.2777
  17   2.0000      -4.711845      -128.2158
  18   2.0000      -4.711460      -128.2054
  19   2.0000      -4.707392      -128.0946
  20   2.0000      -4.707381      -128.0944
  21   2.0000      -4.196807      -114.2009
  22   2.0000      -2.776628       -75.5559
  23   2.0000      -2.776142       -75.5427
  24   2.0000      -2.775686       -75.5303
  25   2.0000      -2.759318       -75.0849
  26   2.0000      -2.758658       -75.0669
  27   2.0000      -2.758465       -75.0616
  28   2.0000      -2.757986       -75.0486
  29   2.0000      -2.757268       -75.0291
  30   2.0000      -2.756981       -75.0213
  31   2.0000      -2.756673       -75.0129
  32   2.0000      -2.756372       -75.0047
  33   2.0000      -2.756242       -75.0011
  34   2.0000      -2.755779       -74.9886
  35   2.0000      -2.755276       -74.9749
  36   2.0000      -2.754907       -74.9648
  37   2.0000      -2.753998       -74.9401
  38   2.0000      -2.753841       -74.9358
  39   2.0000      -2.753239       -74.9194
  40   2.0000      -2.753009       -74.9132
  41   2.0000      -2.752712       -74.9051
  42   2.0000      -2.752557       -74.9009
  43   2.0000      -2.752368       -74.8957
  44   2.0000      -2.752153       -74.8899
  45   2.0000      -2.752022       -74.8863
  46   2.0000      -2.751436       -74.8704
  47   2.0000      -2.751217       -74.8644
  48   2.0000      -2.750945       -74.8570
  49   2.0000      -2.750543       -74.8461
  50   2.0000      -2.750469       -74.8441
  51   2.0000      -2.750218       -74.8372
  52   2.0000      -2.750116       -74.8345
  53   2.0000      -2.749650       -74.8218
  54   2.0000      -2.749336       -74.8132
  55   2.0000      -2.749117       -74.8073
  56   2.0000      -2.748822       -74.7992
  57   2.0000      -2.748121       -74.7802
  58   2.0000      -2.747365       -74.7596
  59   2.0000      -2.747227       -74.7558
  60   2.0000      -2.747135       -74.7533
  61   2.0000      -2.746694       -74.7413
  62   2.0000      -2.746631       -74.7396
  63   2.0000      -2.746433       -74.7342
  64   2.0000      -2.746222       -74.7285
  65   2.0000      -2.745967       -74.7216
  66   2.0000      -2.744986       -74.6949
  67   2.0000      -2.744145       -74.6720
  68   2.0000      -2.743867       -74.6644
  69   2.0000      -2.742698       -74.6326
  70   2.0000      -2.742448       -74.6258
  71   2.0000      -2.741412       -74.5976
  72   2.0000      -2.741316       -74.5950
  73   2.0000      -0.598963       -16.2986
  74   2.0000      -0.561735       -15.2856
  75   2.0000      -0.560789       -15.2599
  76   2.0000      -0.557674       -15.1751
  77   2.0000      -0.556650       -15.1472
  78   2.0000      -0.554316       -15.0837
  79   2.0000      -0.553640       -15.0653
  80   2.0000      -0.552548       -15.0356
  81   2.0000      -0.551839       -15.0163
  82   2.0000      -0.551142       -14.9973
  83   2.0000      -0.548589       -14.9279
  84   2.0000      -0.547469       -14.8974
  85   2.0000      -0.546586       -14.8734
  86   2.0000      -0.544395       -14.8137
  87   2.0000      -0.541946       -14.7471
  88   2.0000      -0.541730       -14.7412
  89   2.0000      -0.539553       -14.6820
  90   2.0000      -0.538937       -14.6652
  91   2.0000      -0.538590       -14.6558
  92   2.0000      -0.537527       -14.6269
  93   2.0000      -0.536552       -14.6003
  94   2.0000      -0.531305       -14.4575
  95   2.0000      -0.528512       -14.3815
  96   2.0000      -0.527752       -14.3609
  97   2.0000      -0.526689       -14.3319
  98   2.0000      -0.523453       -14.2439
  99   2.0000      -0.517280       -14.0759
 100   2.0000      -0.513993       -13.9865
 101   2.0000      -0.512319       -13.9409
 102   2.0000      -0.507737       -13.8162
 103   2.0000      -0.504197       -13.7199
 104   2.0000      -0.500755       -13.6262
 105   2.0000      -0.496816       -13.5191
 106   2.0000      -0.495598       -13.4859
 107   2.0000      -0.493927       -13.4404
 108   2.0000      -0.493610       -13.4318
 109   2.0000      -0.491006       -13.3610
 110   2.0000      -0.488407       -13.2902
 111   2.0000      -0.485056       -13.1990
 112   2.0000      -0.483338       -13.1523
 113   2.0000      -0.473712       -12.8904
 114   2.0000      -0.472006       -12.8439
 115   2.0000      -0.468993       -12.7619
 116   2.0000      -0.466967       -12.7068
 117   2.0000      -0.464439       -12.6380
 118   2.0000      -0.464150       -12.6302
 119   2.0000      -0.463364       -12.6088
 120   2.0000      -0.462685       -12.5903
 121   2.0000      -0.460221       -12.5232
 122   2.0000      -0.457642       -12.4531
 123   2.0000      -0.457270       -12.4430
 124   2.0000      -0.453555       -12.3419
 125   2.0000      -0.451983       -12.2991
 126   2.0000      -0.451764       -12.2931
 127   2.0000      -0.450012       -12.2455
 128   2.0000      -0.448819       -12.2130
 129   2.0000      -0.447514       -12.1775
 130   2.0000      -0.446122       -12.1396
 131   2.0000      -0.445523       -12.1233
 132   2.0000      -0.444420       -12.0933
 133   2.0000      -0.442925       -12.0526
 134   2.0000      -0.441788       -12.0217
 135   2.0000      -0.440023       -11.9736
 136   2.0000      -0.439818       -11.9681
 137   2.0000      -0.438156       -11.9228
 138   2.0000      -0.437965       -11.9176
 139   2.0000      -0.434517       -11.8238
 140   2.0000      -0.432434       -11.7671
 141   2.0000      -0.428501       -11.6601
 142   2.0000      -0.428138       -11.6502
 143   2.0000      -0.425157       -11.5691
 144   2.0000      -0.424988       -11.5645
 145   2.0000      -0.420660       -11.4467
 146   2.0000      -0.419652       -11.4193
 147   2.0000      -0.418301       -11.3825
 148   2.0000      -0.414477       -11.2785
 149   2.0000      -0.410578       -11.1724
 150   2.0000      -0.407290       -11.0829
 151   2.0000      -0.397560       -10.8181
 152   2.0000      -0.396842       -10.7986
 153   2.0000      -0.393529       -10.7085
 154   2.0000      -0.389062       -10.5869
 155   2.0000      -0.375872       -10.2280
 156   2.0000      -0.358056        -9.7432
 157   2.0000      -0.268164        -7.2971
 158   2.0000      -0.254388        -6.9223
 159   2.0000      -0.248441        -6.7604
 160   2.0000      -0.232922        -6.3381
 161   2.0000      -0.216289        -5.8855
 162   1.2000      -0.267519        -7.2796
 163   1.2000      -0.276264        -7.5175
 164   1.2000      -0.271120        -7.3776
 165   1.2000      -0.274198        -7.4613
 166   1.2000      -0.277140        -7.5414
 167   0.0000      -0.036618        -0.9964
 168   0.0000      -0.019444        -0.5291
 169   0.0000      -0.016196        -0.4407
 170   0.0000      -0.002769        -0.0754
 171   0.0000       0.004557         0.1240

MULLIKEN ATOMIC CHARGES AND SPIN DENSITIES
------------------------------------------
   0 Au:    0.029873    0.006821
   1 Au:    0.469678    0.005163
   2 Au:    0.305066    0.006404
   3 Au:    0.308293    0.007316
   4 Au:   -0.522047    0.006794
   5 Au:    0.444632    0.003261
   6 Au:    0.355486    0.002885
   7 Au:   -0.292116    0.008456
   8 Au:    0.309973    0.006273
   9 Au:    0.038156    0.006655
  10 Au:    0.309092    0.007294
  11 Au:    0.459917    0.005374
  12 Au:   -0.307241    0.008671
  13 Au:    0.346872    0.002891
  14 Au:    0.447387    0.003243
  15 Au:   -0.505013    0.006639
  16 Fe:   -2.198009    2.905861
Sum of atomic charges       :    0.0000000

LOEWDIN ATOMIC CHARGES AND SPIN DENSITIES
-----------------------------------------
   0 Au:   -0.038955    0.009497
   1 Au:    0.060338    0.007491
   2 Au:    0.054186    0.008070
   3 Au:    0.060435    0.008812
   4 Au:   -0.127487    0.008379
   5 Au:    0.145123    0.003851
   6 Au:    0.074387    0.003673
   7 Au:   -0.090814    0.010036
   8 Au:    0.055906    0.007934
   9 Au:   -0.037601    0.009307
  10 Au:    0.058742    0.008834
  11 Au:    0.055782    0.007712
  12 Au:   -0.092256    0.010188
  13 Au:    0.064915    0.003694
  14 Au:    0.149563    0.003835
  15 Au:   -0.125537    0.008187
  16 Fe:   -0.266727    2.880499

  Mayer bond orders larger than 0.100000
B(  0-Au,  1-Au) :   0.1336 B(  0-Au,  2-Au) :   0.2250 B(  0-Au,  3-Au) :   0.1028
B(  0-Au,  4-Au) :   0.2371 B(  0-Au,  5-Au) :   0.2929 B(  0-Au,  7-Au) :   0.1922
B(  0-Au, 16-Fe) :   0.3544 B(  1-Au,  2-Au) :   0.1726 B(  1-Au,  4-Au) :   0.2503
B(  1-Au, 10-Au) :   0.1009 B(  1-Au, 12-Au) :   0.1354 B(  1-Au, 16-Fe) :   0.3556
B(  2-Au,  3-Au) :   0.1072 B(  2-Au, 10-Au) :   0.1301 B(  2-Au, 16-Fe) :   0.3528
B(  3-Au,  7-Au) :   0.2269 B(  3-Au,  8-Au) :   0.1301 B(  3-Au, 11-Au) :   0.1005
B(  3-Au, 16-Fe) :   0.3845 B(  4-Au,  5-Au) :   0.2280 B(  4-Au,  6-Au) :   0.2256
B(  4-Au,  7-Au) :   0.1904 B(  4-Au, 12-Au) :   0.1880 B(  4-Au, 13-Au) :   0.2574
B(  4-Au, 15-Au) :   0.1161 B(  4-Au, 16-Fe) :   0.3811 B(  5-Au,  6-Au) :   0.1140
B(  5-Au,  7-Au) :   0.2505 B(  6-Au,  7-Au) :   0.2441 B(  6-Au, 13-Au) :   0.1844
B(  6-Au, 15-Au) :   0.2429 B(  7-Au, 11-Au) :   0.1388 B(  7-Au, 15-Au) :   0.1997
B(  7-Au, 16-Fe) :   0.4346 B(  8-Au,  9-Au) :   0.2233 B(  8-Au, 10-Au) :   0.1082
B(  8-Au, 11-Au) :   0.1711 B(  8-Au, 16-Fe) :   0.3503 B(  9-Au, 10-Au) :   0.1024
B(  9-Au, 11-Au) :   0.1381 B(  9-Au, 12-Au) :   0.1936 B(  9-Au, 14-Au) :   0.2852
B(  9-Au, 15-Au) :   0.2317 B(  9-Au, 16-Fe) :   0.3531 B( 10-Au, 12-Au) :   0.2391
B( 10-Au, 16-Fe) :   0.3786 B( 11-Au, 15-Au) :   0.2495 B( 11-Au, 16-Fe) :   0.3629
B( 12-Au, 13-Au) :   0.2475 B( 12-Au, 14-Au) :   0.2533 B( 12-Au, 15-Au) :   0.1876
B( 12-Au, 16-Fe) :   0.4416 B( 13-Au, 14-Au) :   0.1142 B( 13-Au, 15-Au) :   0.2228
B( 14-Au, 15-Au) :   0.2268 B( 15-Au, 16-Fe) :   0.3755

FINAL SINGLE POINT ENERGY     -3427.445402920392

DIPOLE MOMENT
-------------
                                X             Y             Z
Electronic contribution:     15.15745      20.24427     -19.41584
Nuclear contribution   :    -15.04785     -20.09782      19.28437
                        -----------------------------------------
Total Dipole Moment    :      0.10960       0.14646      -0.13146
                        -----------------------------------------
Magnitude (a.u.)       :      0.22527
Magnitude (Debye)      :      0.57258

Rotational constants in cm-1:     0.000949     0.000863     0.000707
Rotational constants in MHz :    28.456729    25.863368    21.207971

                             ****ORCA TERMINATED NORMALLY****
TOTAL RUN TIME: 0 days 2 hours 21 minutes 59 seconds 63 msec
