                         Program Version 5.0.3 -  RELEASE  -
|  1> !RI-B2PLYP def2-TZVP def2-TZVP/C
|  2> !RIJCOSX VERYSLOWCONV
|  3>
|  4> %scf
|  5>   AutoTRAHIter 200
|  6>   maxiter 400
|  7> end
|  8>
|  9>
| 10> %pal nprocs 6 end
| 11>
| 12> *xyzfile 0 6 pbe.xyz
| 13>
| 14> $new_job
| 15>
| 16> !RI-B2PLYP def2-TZVP def2-TZVP/C
| 17> !RIJCOSX VERYSLOWCONV
| 18>
| 19> %scf
| 20>   AutoTRAHIter 200
| 21>   maxiter 400
| 22> end
| 23>
| 24>
| 25> %pal nprocs 6 end
| 26>
| 27> *xyzfile 0 4 pbe.xyz
| 28>
| 29>
| 30>
| 31>
| 32>
| 33>                          ****END OF INPUT****
 Total Charge           Charge          ....    0
 Multiplicity           Mult            ....    6
 Number of Electrons    NEL             ....  253
MP2 TOTAL ENERGY:    -2777.851887258 Eh
FINAL SINGLE POINT ENERGY     -2777.851887258017

CARTESIAN COORDINATES (ANGSTROEM)
---------------------------------
  Au     8.150091   11.302518    7.473943
  Au    10.610899   12.333256    8.054528
  Au     7.223745    7.344487    5.262882
  Au     9.797279    8.105806    4.892847
  Au    10.723922   10.244830    6.274866
  Au    11.198131    7.750164    7.547043
  Au     8.965597    7.480535    9.557476
  Au    10.204033    9.858876    9.170430
  Au     6.711890    6.950602    8.150328
  Au     9.095552    6.002389    6.928256
  Au     4.701061    7.440467    6.345801
  Au     6.179399    9.667208    6.901160
  Mn     8.642297    8.693665    7.214578

 Multiplicity           Mult            ....    4
 Number of Electrons    NEL             ....  253
 Basis Dimension        Dim             ....  525

ORBITAL ENERGIES
----------------
                 SPIN UP ORBITALS
  NO   OCC          E(Eh)            E(eV)
   0   1.0000    -237.616322     -6465.8689
   1   1.0000     -28.120188      -765.1892
   2   1.0000     -24.038076      -654.1093
   3   1.0000     -24.038003      -654.1073
   4   1.0000     -24.037425      -654.0916
   5   1.0000      -4.399362      -119.7127
   6   1.0000      -4.399349      -119.7124
   7   1.0000      -4.399264      -119.7100
   8   1.0000      -4.399233      -119.7092
   9   1.0000      -4.397964      -119.6747
  10   1.0000      -4.397948      -119.6743
  11   1.0000      -4.392816      -119.5346
  12   1.0000      -4.392670      -119.5306
  13   1.0000      -4.392216      -119.5183
  14   1.0000      -4.391812      -119.5073
  15   1.0000      -4.388970      -119.4299
  16   1.0000      -4.388940      -119.4291
  17   1.0000      -3.597536       -97.8939
  18   1.0000      -2.522481       -68.6402
  19   1.0000      -2.522073       -68.6291
  20   1.0000      -2.521875       -68.6237
  21   1.0000      -2.521607       -68.6164
  22   1.0000      -2.519179       -68.5503
  23   1.0000      -2.519098       -68.5481
  24   1.0000      -2.517735       -68.5110
  25   1.0000      -2.517512       -68.5050
  26   1.0000      -2.517056       -68.4926
  27   1.0000      -2.516936       -68.4893
  28   1.0000      -2.516401       -68.4748
  29   1.0000      -2.514940       -68.4350
  30   1.0000      -2.514759       -68.4301
  31   1.0000      -2.513831       -68.4048
  32   1.0000      -2.513708       -68.4015
  33   1.0000      -2.513532       -68.3967
  34   1.0000      -2.513456       -68.3946
  35   1.0000      -2.512746       -68.3753
  36   1.0000      -2.512263       -68.3621
  37   1.0000      -2.511345       -68.3372
  38   1.0000      -2.511088       -68.3302
  39   1.0000      -2.510974       -68.3271
  40   1.0000      -2.510415       -68.3119
  41   1.0000      -2.509684       -68.2920
  42   1.0000      -2.509432       -68.2851
  43   1.0000      -2.507740       -68.2391
  44   1.0000      -2.507641       -68.2364
  45   1.0000      -2.507256       -68.2259
  46   1.0000      -2.506874       -68.2155
  47   1.0000      -2.505840       -68.1874
  48   1.0000      -2.503739       -68.1302
  49   1.0000      -2.503729       -68.1299
  50   1.0000      -2.503668       -68.1283
  51   1.0000      -2.503498       -68.1236
  52   1.0000      -2.503086       -68.1124
  53   1.0000      -2.502903       -68.1074
  54   1.0000      -2.399521       -65.2943
  55   1.0000      -2.398606       -65.2694
  56   1.0000      -2.398128       -65.2564
  57   1.0000      -0.515145       -14.0178
  58   1.0000      -0.513198       -13.9648
  59   1.0000      -0.508478       -13.8364
  60   1.0000      -0.508164       -13.8279
  61   1.0000      -0.507426       -13.8078
  62   1.0000      -0.497115       -13.5272
  63   1.0000      -0.475317       -12.9340
  64   1.0000      -0.466034       -12.6814
  65   1.0000      -0.459445       -12.5021
  66   1.0000      -0.455709       -12.4005
  67   1.0000      -0.452138       -12.3033
  68   1.0000      -0.449289       -12.2258
  69   1.0000      -0.448413       -12.2019
  70   1.0000      -0.448004       -12.1908
  71   1.0000      -0.442917       -12.0524
  72   1.0000      -0.441016       -12.0007
  73   1.0000      -0.438461       -11.9311
  74   1.0000      -0.436358       -11.8739
  75   1.0000      -0.432332       -11.7643
  76   1.0000      -0.428723       -11.6662
  77   1.0000      -0.426039       -11.5931
  78   1.0000      -0.425296       -11.5729
  79   1.0000      -0.423847       -11.5335
  80   1.0000      -0.423195       -11.5157
  81   1.0000      -0.421312       -11.4645
  82   1.0000      -0.420018       -11.4293
  83   1.0000      -0.408337       -11.1114
  84   1.0000      -0.402774       -10.9600
  85   1.0000      -0.397622       -10.8198
  86   1.0000      -0.396651       -10.7934
  87   1.0000      -0.395813       -10.7706
  88   1.0000      -0.393120       -10.6973
  89   1.0000      -0.390364       -10.6224
  90   1.0000      -0.389568       -10.6007
  91   1.0000      -0.386767       -10.5245
  92   1.0000      -0.386444       -10.5157
  93   1.0000      -0.385484       -10.4895
  94   1.0000      -0.381517       -10.3816
  95   1.0000      -0.378659       -10.3038
  96   1.0000      -0.376262       -10.2386
  97   1.0000      -0.373651       -10.1676
  98   1.0000      -0.369734       -10.0610
  99   1.0000      -0.368642       -10.0313
 100   1.0000      -0.365629        -9.9493
 101   1.0000      -0.364710        -9.9243
 102   1.0000      -0.364324        -9.9137
 103   1.0000      -0.363335        -9.8869
 104   1.0000      -0.363324        -9.8865
 105   1.0000      -0.363234        -9.8841
 106   1.0000      -0.360365        -9.8060
 107   1.0000      -0.358612        -9.7583
 108   1.0000      -0.358410        -9.7528
 109   1.0000      -0.357203        -9.7200
 110   1.0000      -0.356392        -9.6979
 111   1.0000      -0.354248        -9.6396
 112   1.0000      -0.351783        -9.5725
 113   1.0000      -0.348753        -9.4901
 114   1.0000      -0.347589        -9.4584
 115   1.0000      -0.344202        -9.3662
 116   1.0000      -0.340703        -9.2710
 117   1.0000      -0.340415        -9.2632
 118   1.0000      -0.340109        -9.2548
 119   1.0000      -0.334600        -9.1049
 120   1.0000      -0.329079        -8.9547
 121   1.0000      -0.325772        -8.8647
 122   1.0000      -0.325410        -8.8549
 123   1.0000      -0.316150        -8.6029
 124   1.0000      -0.302612        -8.2345
 125   1.0000      -0.268442        -7.3047
 126   1.0000      -0.239094        -6.5061
 127   1.0000      -0.219655        -5.9771
 128   0.0000      -0.112818        -3.0699
 129   0.0000      -0.100579        -2.7369
 130   0.0000      -0.075835        -2.0636
 131   0.0000      -0.067215        -1.8290
 132   0.0000      -0.061885        -1.6840

                 SPIN DOWN ORBITALS
  NO   OCC          E(Eh)            E(eV)
   0   1.0000    -237.614209     -6465.8113
   1   1.0000     -28.019822      -762.4581
   2   1.0000     -23.946219      -651.6098
   3   1.0000     -23.945547      -651.5915
   4   1.0000     -23.945201      -651.5820
   5   1.0000      -4.399538      -119.7175
   6   1.0000      -4.399523      -119.7171
   7   1.0000      -4.399442      -119.7149
   8   1.0000      -4.399416      -119.7142
   9   1.0000      -4.397871      -119.6721
  10   1.0000      -4.397849      -119.6715
  11   1.0000      -4.394333      -119.5759
  12   1.0000      -4.394186      -119.5719
  13   1.0000      -4.391401      -119.4961
  14   1.0000      -4.390996      -119.4851
  15   1.0000      -4.389158      -119.4351
  16   1.0000      -4.389117      -119.4339
  17   1.0000      -3.315389       -90.2163
  18   1.0000      -2.521675       -68.6183
  19   1.0000      -2.521213       -68.6057
  20   1.0000      -2.520730       -68.5925
  21   1.0000      -2.520277       -68.5802
  22   1.0000      -2.518024       -68.5189
  23   1.0000      -2.517987       -68.5179
  24   1.0000      -2.516422       -68.4753
  25   1.0000      -2.515910       -68.4614
  26   1.0000      -2.515741       -68.4568
  27   1.0000      -2.515635       -68.4539
  28   1.0000      -2.515451       -68.4489
  29   1.0000      -2.514660       -68.4274
  30   1.0000      -2.514507       -68.4232
  31   1.0000      -2.513775       -68.4033
  32   1.0000      -2.513719       -68.4018
  33   1.0000      -2.513509       -68.3961
  34   1.0000      -2.513102       -68.3850
  35   1.0000      -2.512467       -68.3677
  36   1.0000      -2.511946       -68.3535
  37   1.0000      -2.511542       -68.3425
  38   1.0000      -2.511456       -68.3402
  39   1.0000      -2.510977       -68.3272
  40   1.0000      -2.509578       -68.2891
  41   1.0000      -2.509455       -68.2857
  42   1.0000      -2.509346       -68.2828
  43   1.0000      -2.508704       -68.2653
  44   1.0000      -2.508581       -68.2620
  45   1.0000      -2.507977       -68.2455
  46   1.0000      -2.507261       -68.2260
  47   1.0000      -2.505807       -68.1865
  48   1.0000      -2.504312       -68.1458
  49   1.0000      -2.504271       -68.1447
  50   1.0000      -2.503863       -68.1336
  51   1.0000      -2.503196       -68.1154
  52   1.0000      -2.502889       -68.1071
  53   1.0000      -2.502549       -68.0978
  54   1.0000      -2.076508       -56.5047
  55   1.0000      -2.076268       -56.4981
  56   1.0000      -2.074959       -56.4625
  57   1.0000      -0.500335       -13.6148
  58   1.0000      -0.477508       -12.9937
  59   1.0000      -0.468815       -12.7571
  60   1.0000      -0.466264       -12.6877
  61   1.0000      -0.465937       -12.6788
  62   1.0000      -0.463393       -12.6096
  63   1.0000      -0.461088       -12.5468
  64   1.0000      -0.457322       -12.4444
  65   1.0000      -0.452148       -12.3036
  66   1.0000      -0.448675       -12.2091
  67   1.0000      -0.446386       -12.1468
  68   1.0000      -0.445152       -12.1132
  69   1.0000      -0.444353       -12.0915
  70   1.0000      -0.439192       -11.9510
  71   1.0000      -0.435830       -11.8595
  72   1.0000      -0.435005       -11.8371
  73   1.0000      -0.429106       -11.6766
  74   1.0000      -0.428760       -11.6671
  75   1.0000      -0.428248       -11.6532
  76   1.0000      -0.423125       -11.5138
  77   1.0000      -0.422826       -11.5057
  78   1.0000      -0.420609       -11.4454
  79   1.0000      -0.410627       -11.1737
  80   1.0000      -0.408608       -11.1188
  81   1.0000      -0.407699       -11.0940
  82   1.0000      -0.401179       -10.9166
  83   1.0000      -0.401030       -10.9126
  84   1.0000      -0.398872       -10.8539
  85   1.0000      -0.396645       -10.7933
  86   1.0000      -0.390542       -10.6272
  87   1.0000      -0.390077       -10.6145
  88   1.0000      -0.387667       -10.5489
  89   1.0000      -0.386727       -10.5234
  90   1.0000      -0.382562       -10.4100
  91   1.0000      -0.381028       -10.3683
  92   1.0000      -0.375909       -10.2290
  93   1.0000      -0.374592       -10.1932
  94   1.0000      -0.374135       -10.1807
  95   1.0000      -0.373037       -10.1508
  96   1.0000      -0.371641       -10.1129
  97   1.0000      -0.370552       -10.0832
  98   1.0000      -0.367636       -10.0039
  99   1.0000      -0.366691        -9.9782
 100   1.0000      -0.364703        -9.9241
 101   1.0000      -0.363666        -9.8959
 102   1.0000      -0.360568        -9.8116
 103   1.0000      -0.360395        -9.8068
 104   1.0000      -0.359210        -9.7746
 105   1.0000      -0.357624        -9.7314
 106   1.0000      -0.356198        -9.6926
 107   1.0000      -0.353885        -9.6297
 108   1.0000      -0.353462        -9.6182
 109   1.0000      -0.350684        -9.5426
 110   1.0000      -0.349367        -9.5068
 111   1.0000      -0.342921        -9.3313
 112   1.0000      -0.342102        -9.3091
 113   1.0000      -0.341537        -9.2937
 114   1.0000      -0.338121        -9.2007
 115   1.0000      -0.332604        -9.0506
 116   1.0000      -0.329520        -8.9667
 117   1.0000      -0.327709        -8.9174
 118   1.0000      -0.318248        -8.6600
 119   1.0000      -0.313933        -8.5426
 120   1.0000      -0.295517        -8.0414
 121   1.0000      -0.247205        -6.7268
 122   1.0000      -0.233245        -6.3469
 123   1.0000      -0.213807        -5.8180
 124   1.0000      -0.208468        -5.6727
 125   0.0000      -0.081456        -2.2165
 126   0.0000      -0.076001        -2.0681
 127   0.0000      -0.069002        -1.8776
 128   0.0000      -0.047376        -1.2892
 129   0.0000      -0.041888        -1.1398

MULLIKEN ATOMIC CHARGES AND SPIN POPULATIONS
--------------------------------------------
   0 Au:    0.023502   -0.015855
   1 Au:    0.337616    0.047688
   2 Au:    0.046034   -0.244690
   3 Au:    0.307192   -0.112373
   4 Au:    0.044981   -0.245535
   5 Au:    0.200380   -0.211372
   6 Au:    0.307310   -0.112103
   7 Au:    0.045478   -0.245189
   8 Au:    0.045016   -0.244709
   9 Au:    0.202014   -0.211832
  10 Au:    0.337674    0.048484
  11 Au:    0.019188   -0.015485
  12 Mn:   -1.916385    4.562971
Sum of atomic charges         :   -0.0000000

LOEWDIN ATOMIC CHARGES AND SPIN POPULATIONS
-------------------------------------------
   0 Au:   -0.004811   -0.031530
   1 Au:    0.120245   -0.003426
   2 Au:   -0.032826   -0.140177
   3 Au:    0.085617   -0.203272
   4 Au:   -0.032375   -0.140487
   5 Au:    0.031113   -0.195123
   6 Au:    0.085650   -0.202930
   7 Au:   -0.032512   -0.140326
   8 Au:   -0.032487   -0.140218
   9 Au:    0.030577   -0.195251
  10 Au:    0.120631   -0.002669
  11 Au:   -0.005079   -0.030958
  12 Mn:   -0.333743    4.426366

  Mayer bond orders larger than 0.100000
B(  0-Au,  1-Au) :   0.3255 B(  0-Au,  4-Au) :   0.1166 B(  0-Au,  7-Au) :   0.1173
B(  0-Au, 11-Au) :   0.4445 B(  0-Au, 12-Mn) :   0.5346 B(  1-Au,  4-Au) :   0.3212
B(  1-Au,  7-Au) :   0.3231 B(  2-Au,  3-Au) :   0.3093 B(  2-Au,  8-Au) :   0.1716
B(  2-Au,  9-Au) :   0.1699 B(  2-Au, 10-Au) :   0.3224 B(  2-Au, 11-Au) :   0.1171
B(  2-Au, 12-Mn) :   0.3792 B(  3-Au,  4-Au) :   0.3064 B(  3-Au, 12-Mn) :   0.4588
B(  4-Au,  5-Au) :   0.1699 B(  4-Au,  7-Au) :   0.1699 B(  4-Au, 12-Mn) :   0.3825
B(  5-Au,  7-Au) :   0.1692 B(  5-Au,  9-Au) :   0.2280 B(  5-Au, 12-Mn) :   0.4730
B(  6-Au,  7-Au) :   0.3085 B(  6-Au,  8-Au) :   0.3069 B(  6-Au, 12-Mn) :   0.4602
B(  7-Au, 12-Mn) :   0.3812 B(  8-Au,  9-Au) :   0.1700 B(  8-Au, 10-Au) :   0.3214
B(  8-Au, 11-Au) :   0.1158 B(  8-Au, 12-Mn) :   0.3811 B(  9-Au, 12-Mn) :   0.4728
B( 10-Au, 11-Au) :   0.3259 B( 11-Au, 12-Mn) :   0.5359

MP2 TOTAL ENERGY:    -2777.862479216 Eh
FINAL SINGLE POINT ENERGY     -2777.862479215743

DIPOLE MOMENT
-------------
                                X             Y             Z
Electronic contribution:     -0.37300       0.39165      -0.04487
Nuclear contribution   :      0.44256      -0.47649       0.04661
                        -----------------------------------------
Total Dipole Moment    :      0.06956      -0.08484       0.00174
                        -----------------------------------------
Magnitude (a.u.)       :      0.10972
Magnitude (Debye)      :      0.27890

Rotational constants in cm-1:     0.001723     0.001068     0.000957
Rotational constants in MHz :    51.646989    32.010626    28.689017

                             ****ORCA TERMINATED NORMALLY****
TOTAL RUN TIME: 0 days 0 hours 39 minutes 54 seconds 96 msec
