                         Program Version 5.0.3 -  RELEASE  -
|  1> !PBE def2-TZVP VERYSLOWCONV
|  2> !KDIIS
|  3>
|  4> %scf
|  5>   AutoTRAHIter 200
|  6>   maxiter 400
|  7> end
|  8>
|  9>
| 10> %pal nprocs 6 end
| 11>
| 12> *xyzfile 0 6 pbe.xyz
| 13>
| 14> $new_job
| 15>
| 16> !PBE def2-TZVP VERYSLOWCONV
| 17> !KDIIS
| 18>
| 19> %scf
| 20>   AutoTRAHIter 200
| 21>   maxiter 400
| 22> end
| 23>
| 24>
| 25> %pal nprocs 6 end
| 26>
| 27> *xyzfile 0 4 pbe.xyz
| 28>
| 29>
| 30>
| 31>
| 32>
| 33>                          ****END OF INPUT****
 Total Charge           Charge          ....    0
 Multiplicity           Mult            ....    6
 Number of Electrons    NEL             ....  253
FINAL SINGLE POINT ENERGY     -2780.690723440758

CARTESIAN COORDINATES (ANGSTROEM)
---------------------------------
  Au     8.150091   11.302518    7.473943
  Au    10.610899   12.333256    8.054528
  Au     7.223745    7.344487    5.262882
  Au     9.797279    8.105806    4.892847
  Au    10.723922   10.244830    6.274866
  Au    11.198131    7.750164    7.547043
  Au     8.965597    7.480535    9.557476
  Au    10.204033    9.858876    9.170430
  Au     6.711890    6.950602    8.150328
  Au     9.095552    6.002389    6.928256
  Au     4.701061    7.440467    6.345801
  Au     6.179399    9.667208    6.901160
  Mn     8.642297    8.693665    7.214578

 Multiplicity           Mult            ....    4
 Number of Electrons    NEL             ....  253
 Basis Dimension        Dim             ....  525

ORBITAL ENERGIES
----------------
                 SPIN UP ORBITALS
  NO   OCC          E(Eh)            E(eV)
   0   1.0000    -234.197255     -6372.8313
   1   1.0000     -26.893101      -731.7985
   2   1.0000     -23.042222      -627.0107
   3   1.0000     -23.041978      -627.0041
   4   1.0000     -23.041181      -626.9824
   5   1.0000      -4.027205      -109.5858
   6   1.0000      -4.027191      -109.5854
   7   1.0000      -4.027128      -109.5837
   8   1.0000      -4.027079      -109.5824
   9   1.0000      -4.025154      -109.5300
  10   1.0000      -4.025135      -109.5295
  11   1.0000      -4.022633      -109.4614
  12   1.0000      -4.022320      -109.4529
  13   1.0000      -4.020743      -109.4100
  14   1.0000      -4.020582      -109.4056
  15   1.0000      -4.020036      -109.3908
  16   1.0000      -4.020024      -109.3904
  17   1.0000      -3.099656       -84.3459
  18   1.0000      -2.245923       -61.1147
  19   1.0000      -2.245506       -61.1033
  20   1.0000      -2.245330       -61.0985
  21   1.0000      -2.244805       -61.0843
  22   1.0000      -2.244232       -61.0686
  23   1.0000      -2.241439       -60.9927
  24   1.0000      -2.241404       -60.9917
  25   1.0000      -2.240192       -60.9587
  26   1.0000      -2.240143       -60.9574
  27   1.0000      -2.239901       -60.9508
  28   1.0000      -2.239714       -60.9457
  29   1.0000      -2.239337       -60.9354
  30   1.0000      -2.238780       -60.9203
  31   1.0000      -2.238554       -60.9141
  32   1.0000      -2.237205       -60.8775
  33   1.0000      -2.236807       -60.8666
  34   1.0000      -2.236625       -60.8617
  35   1.0000      -2.236222       -60.8507
  36   1.0000      -2.235733       -60.8374
  37   1.0000      -2.235605       -60.8339
  38   1.0000      -2.235432       -60.8292
  39   1.0000      -2.235375       -60.8276
  40   1.0000      -2.235072       -60.8194
  41   1.0000      -2.234525       -60.8045
  42   1.0000      -2.233838       -60.7858
  43   1.0000      -2.233453       -60.7754
  44   1.0000      -2.233094       -60.7656
  45   1.0000      -2.231547       -60.7235
  46   1.0000      -2.231432       -60.7203
  47   1.0000      -2.231372       -60.7187
  48   1.0000      -2.230845       -60.7044
  49   1.0000      -2.230810       -60.7034
  50   1.0000      -2.230605       -60.6978
  51   1.0000      -2.230476       -60.6943
  52   1.0000      -2.228194       -60.6322
  53   1.0000      -2.227622       -60.6167
  54   1.0000      -2.003016       -54.5048
  55   1.0000      -2.001993       -54.4770
  56   1.0000      -2.001657       -54.4679
  57   1.0000      -0.424399       -11.5485
  58   1.0000      -0.387517       -10.5449
  59   1.0000      -0.384490       -10.4625
  60   1.0000      -0.375994       -10.2313
  61   1.0000      -0.370395       -10.0790
  62   1.0000      -0.370041       -10.0693
  63   1.0000      -0.367847       -10.0096
  64   1.0000      -0.364286        -9.9127
  65   1.0000      -0.350646        -9.5416
  66   1.0000      -0.347949        -9.4682
  67   1.0000      -0.346719        -9.4347
  68   1.0000      -0.342894        -9.3306
  69   1.0000      -0.338521        -9.2116
  70   1.0000      -0.337767        -9.1911
  71   1.0000      -0.332090        -9.0366
  72   1.0000      -0.331826        -9.0294
  73   1.0000      -0.331615        -9.0237
  74   1.0000      -0.329396        -8.9633
  75   1.0000      -0.327378        -8.9084
  76   1.0000      -0.322785        -8.7834
  77   1.0000      -0.322612        -8.7787
  78   1.0000      -0.319966        -8.7067
  79   1.0000      -0.316990        -8.6257
  80   1.0000      -0.314695        -8.5633
  81   1.0000      -0.311160        -8.4671
  82   1.0000      -0.310277        -8.4431
  83   1.0000      -0.302921        -8.2429
  84   1.0000      -0.298558        -8.1242
  85   1.0000      -0.297118        -8.0850
  86   1.0000      -0.295260        -8.0344
  87   1.0000      -0.294530        -8.0146
  88   1.0000      -0.289106        -7.8670
  89   1.0000      -0.287464        -7.8223
  90   1.0000      -0.287190        -7.8148
  91   1.0000      -0.287034        -7.8106
  92   1.0000      -0.285308        -7.7636
  93   1.0000      -0.279167        -7.5965
  94   1.0000      -0.278562        -7.5801
  95   1.0000      -0.278024        -7.5654
  96   1.0000      -0.277899        -7.5620
  97   1.0000      -0.277686        -7.5562
  98   1.0000      -0.275343        -7.4925
  99   1.0000      -0.271544        -7.3891
 100   1.0000      -0.270249        -7.3538
 101   1.0000      -0.267630        -7.2826
 102   1.0000      -0.265325        -7.2199
 103   1.0000      -0.263000        -7.1566
 104   1.0000      -0.262789        -7.1509
 105   1.0000      -0.260732        -7.0949
 106   1.0000      -0.260536        -7.0895
 107   1.0000      -0.259438        -7.0597
 108   1.0000      -0.257384        -7.0038
 109   1.0000      -0.256746        -6.9864
 110   1.0000      -0.256102        -6.9689
 111   1.0000      -0.255122        -6.9422
 112   1.0000      -0.252254        -6.8642
 113   1.0000      -0.251242        -6.8366
 114   1.0000      -0.249290        -6.7835
 115   1.0000      -0.248292        -6.7564
 116   1.0000      -0.245498        -6.6803
 117   1.0000      -0.244883        -6.6636
 118   1.0000      -0.241630        -6.5751
 119   1.0000      -0.241169        -6.5625
 120   1.0000      -0.238296        -6.4844
 121   1.0000      -0.237968        -6.4754
 122   1.0000      -0.236078        -6.4240
 123   1.0000      -0.232578        -6.3288
 124   1.0000      -0.230365        -6.2686
 125   1.0000      -0.228172        -6.2089
 126   1.0000      -0.212817        -5.7910
 127   1.0000      -0.199111        -5.4181
 128   0.0000      -0.175959        -4.7881
 129   0.0000      -0.168113        -4.5746
 130   0.0000      -0.139285        -3.7901
 131   0.0000      -0.131948        -3.5905
 132   0.0000      -0.131436        -3.5766

                 SPIN DOWN ORBITALS
  NO   OCC          E(Eh)            E(eV)
   0   1.0000    -234.196547     -6372.8120
   1   1.0000     -26.829349      -730.0637
   2   1.0000     -22.994505      -625.7123
   3   1.0000     -22.992982      -625.6708
   4   1.0000     -22.992620      -625.6610
   5   1.0000      -4.026952      -109.5789
   6   1.0000      -4.026946      -109.5788
   7   1.0000      -4.026878      -109.5769
   8   1.0000      -4.026835      -109.5758
   9   1.0000      -4.024937      -109.5241
  10   1.0000      -4.024912      -109.5234
  11   1.0000      -4.021722      -109.4366
  12   1.0000      -4.021408      -109.4281
  13   1.0000      -4.021404      -109.4280
  14   1.0000      -4.021246      -109.4237
  15   1.0000      -4.020275      -109.3972
  16   1.0000      -4.020254      -109.3967
  17   1.0000      -2.943569       -80.0986
  18   1.0000      -2.245716       -61.1091
  19   1.0000      -2.245258       -61.0966
  20   1.0000      -2.245003       -61.0896
  21   1.0000      -2.244406       -61.0734
  22   1.0000      -2.243242       -61.0417
  23   1.0000      -2.240773       -60.9745
  24   1.0000      -2.240739       -60.9736
  25   1.0000      -2.239315       -60.9349
  26   1.0000      -2.239284       -60.9340
  27   1.0000      -2.239244       -60.9329
  28   1.0000      -2.239213       -60.9321
  29   1.0000      -2.238931       -60.9244
  30   1.0000      -2.238668       -60.9173
  31   1.0000      -2.237723       -60.8915
  32   1.0000      -2.237025       -60.8725
  33   1.0000      -2.236748       -60.8650
  34   1.0000      -2.236101       -60.8474
  35   1.0000      -2.235938       -60.8430
  36   1.0000      -2.235790       -60.8389
  37   1.0000      -2.235595       -60.8336
  38   1.0000      -2.235439       -60.8294
  39   1.0000      -2.235059       -60.8190
  40   1.0000      -2.234855       -60.8135
  41   1.0000      -2.234498       -60.8038
  42   1.0000      -2.233923       -60.7881
  43   1.0000      -2.233727       -60.7828
  44   1.0000      -2.233322       -60.7718
  45   1.0000      -2.232476       -60.7488
  46   1.0000      -2.232417       -60.7472
  47   1.0000      -2.232332       -60.7449
  48   1.0000      -2.231243       -60.7152
  49   1.0000      -2.231194       -60.7139
  50   1.0000      -2.230800       -60.7032
  51   1.0000      -2.230628       -60.6985
  52   1.0000      -2.227767       -60.6206
  53   1.0000      -2.227191       -60.6050
  54   1.0000      -1.850956       -50.3671
  55   1.0000      -1.848425       -50.2982
  56   1.0000      -1.847757       -50.2800
  57   1.0000      -0.418711       -11.3937
  58   1.0000      -0.387527       -10.5451
  59   1.0000      -0.383218       -10.4279
  60   1.0000      -0.373922       -10.1749
  61   1.0000      -0.366827        -9.9819
  62   1.0000      -0.364972        -9.9314
  63   1.0000      -0.363225        -9.8839
  64   1.0000      -0.357847        -9.7375
  65   1.0000      -0.348291        -9.4775
  66   1.0000      -0.347667        -9.4605
  67   1.0000      -0.342744        -9.3265
  68   1.0000      -0.342606        -9.3228
  69   1.0000      -0.339357        -9.2344
  70   1.0000      -0.335373        -9.1260
  71   1.0000      -0.330731        -8.9997
  72   1.0000      -0.330114        -8.9828
  73   1.0000      -0.327756        -8.9187
  74   1.0000      -0.327021        -8.8987
  75   1.0000      -0.324045        -8.8177
  76   1.0000      -0.323537        -8.8039
  77   1.0000      -0.320456        -8.7201
  78   1.0000      -0.320439        -8.7196
  79   1.0000      -0.315205        -8.5772
  80   1.0000      -0.308369        -8.3912
  81   1.0000      -0.306818        -8.3489
  82   1.0000      -0.305536        -8.3141
  83   1.0000      -0.301020        -8.1912
  84   1.0000      -0.297566        -8.0972
  85   1.0000      -0.296750        -8.0750
  86   1.0000      -0.295460        -8.0399
  87   1.0000      -0.294534        -8.0147
  88   1.0000      -0.288407        -7.8480
  89   1.0000      -0.287657        -7.8275
  90   1.0000      -0.287500        -7.8233
  91   1.0000      -0.284631        -7.7452
  92   1.0000      -0.283802        -7.7227
  93   1.0000      -0.277322        -7.5463
  94   1.0000      -0.276597        -7.5266
  95   1.0000      -0.276574        -7.5260
  96   1.0000      -0.276504        -7.5241
  97   1.0000      -0.276163        -7.5148
  98   1.0000      -0.273875        -7.4525
  99   1.0000      -0.271877        -7.3982
 100   1.0000      -0.269190        -7.3250
 101   1.0000      -0.269176        -7.3246
 102   1.0000      -0.265633        -7.2283
 103   1.0000      -0.264316        -7.1924
 104   1.0000      -0.262902        -7.1539
 105   1.0000      -0.260872        -7.0987
 106   1.0000      -0.260822        -7.0973
 107   1.0000      -0.259995        -7.0748
 108   1.0000      -0.258618        -7.0374
 109   1.0000      -0.257738        -7.0134
 110   1.0000      -0.257439        -7.0053
 111   1.0000      -0.254389        -6.9223
 112   1.0000      -0.252714        -6.8767
 113   1.0000      -0.249538        -6.7903
 114   1.0000      -0.248854        -6.7717
 115   1.0000      -0.246594        -6.7102
 116   1.0000      -0.245781        -6.6880
 117   1.0000      -0.244013        -6.6399
 118   1.0000      -0.239325        -6.5124
 119   1.0000      -0.236655        -6.4397
 120   1.0000      -0.236424        -6.4334
 121   1.0000      -0.222697        -6.0599
 122   1.0000      -0.208608        -5.6765
 123   1.0000      -0.193804        -5.2737
 124   1.0000      -0.188386        -5.1262
 125   0.0000      -0.147812        -4.0222
 126   0.0000      -0.145034        -3.9466
 127   0.0000      -0.139528        -3.7967
 128   0.0000      -0.125141        -3.4053
 129   0.0000      -0.123647        -3.3646

MULLIKEN ATOMIC CHARGES AND SPIN POPULATIONS
--------------------------------------------
   0 Au:    0.052818    0.028276
   1 Au:    0.383486    0.039862
   2 Au:    0.084967   -0.146999
   3 Au:    0.335550   -0.075759
   4 Au:    0.084001   -0.147331
   5 Au:    0.228046   -0.160903
   6 Au:    0.335759   -0.075237
   7 Au:    0.084221   -0.147249
   8 Au:    0.083700   -0.146669
   9 Au:    0.228434   -0.161478
  10 Au:    0.383456    0.040665
  11 Au:    0.050650    0.028989
  12 Mn:   -2.335090    3.923832
Sum of atomic charges         :   -0.0000000

LOEWDIN ATOMIC CHARGES AND SPIN POPULATIONS
-------------------------------------------
   0 Au:    0.034054    0.009799
   1 Au:    0.101825   -0.000887
   2 Au:   -0.006803   -0.087156
   3 Au:    0.109612   -0.128014
   4 Au:   -0.006465   -0.087321
   5 Au:    0.053111   -0.149515
   6 Au:    0.109697   -0.127586
   7 Au:   -0.006443   -0.087049
   8 Au:   -0.006714   -0.087181
   9 Au:    0.052553   -0.149541
  10 Au:    0.102051   -0.000030
  11 Au:    0.034008    0.010585
  12 Mn:   -0.570485    3.883897

  Mayer bond orders larger than 0.100000
B(  0-Au,  1-Au) :   0.3473 B(  0-Au,  4-Au) :   0.1343 B(  0-Au,  7-Au) :   0.1347
B(  0-Au, 11-Au) :   0.4690 B(  0-Au, 12-Mn) :   0.5658 B(  1-Au,  4-Au) :   0.3486
B(  1-Au,  7-Au) :   0.3502 B(  2-Au,  3-Au) :   0.3360 B(  2-Au,  8-Au) :   0.1809
B(  2-Au,  9-Au) :   0.2111 B(  2-Au, 10-Au) :   0.3488 B(  2-Au, 11-Au) :   0.1349
B(  2-Au, 12-Mn) :   0.4453 B(  3-Au,  4-Au) :   0.3349 B(  3-Au, 12-Mn) :   0.5038
B(  4-Au,  5-Au) :   0.2116 B(  4-Au,  7-Au) :   0.1783 B(  4-Au, 12-Mn) :   0.4477
B(  5-Au,  7-Au) :   0.2110 B(  5-Au,  9-Au) :   0.2404 B(  5-Au, 12-Mn) :   0.5325
B(  6-Au,  7-Au) :   0.3357 B(  6-Au,  8-Au) :   0.3350 B(  6-Au, 12-Mn) :   0.5052
B(  7-Au, 12-Mn) :   0.4472 B(  8-Au,  9-Au) :   0.2117 B(  8-Au, 10-Au) :   0.3490
B(  8-Au, 11-Au) :   0.1334 B(  8-Au, 12-Mn) :   0.4458 B(  9-Au, 12-Mn) :   0.5327
B( 10-Au, 11-Au) :   0.3478 B( 11-Au, 12-Mn) :   0.5667

FINAL SINGLE POINT ENERGY     -2780.703610919294

DIPOLE MOMENT
-------------
                                X             Y             Z
Electronic contribution:     -0.39910       0.42443      -0.04583
Nuclear contribution   :      0.44256      -0.47649       0.04661
                        -----------------------------------------
Total Dipole Moment    :      0.04346      -0.05206       0.00078
                        -----------------------------------------
Magnitude (a.u.)       :      0.06782
Magnitude (Debye)      :      0.17239

Rotational constants in cm-1:     0.001723     0.001068     0.000957
Rotational constants in MHz :    51.646989    32.010626    28.689017

                             ****ORCA TERMINATED NORMALLY****
TOTAL RUN TIME: 0 days 0 hours 2 minutes 26 seconds 719 msec
