                         Program Version 5.0.3 -  RELEASE  -
|  1> !R2SCAN def2-TZVP VERYSLOWCONV
|  2> !KDIIS
|  3> %scf
|  4>   AutoTRAHIter 200
|  5>   maxiter 400
|  6> end
|  7>
|  8> %pal nprocs 6 end
|  9>
| 10> *xyzfile 0 6 pbe.xyz
| 11>
| 12> $new_job
| 13>
| 14> !R2SCAN def2-TZVP VERYSLOWCONV
| 15> !KDIIS
| 16> %scf
| 17>   AutoTRAHIter 200
| 18>   maxiter 400
| 19> end
| 20>
| 21>
| 22> %pal nprocs 6 end
| 23>
| 24> *xyzfile 0 4 pbe.xyz
| 25>
| 26>
| 27>
| 28>
| 29>
| 30>                          ****END OF INPUT****
 Total Charge           Charge          ....    0
 Multiplicity           Mult            ....    6
 Number of Electrons    NEL             ....  253
FINAL SINGLE POINT ENERGY     -2781.140803592204

CARTESIAN COORDINATES (ANGSTROEM)
---------------------------------
  Au     8.150091   11.302518    7.473943
  Au    10.610899   12.333256    8.054528
  Au     7.223745    7.344487    5.262882
  Au     9.797279    8.105806    4.892847
  Au    10.723922   10.244830    6.274866
  Au    11.198131    7.750164    7.547043
  Au     8.965597    7.480535    9.557476
  Au    10.204033    9.858876    9.170430
  Au     6.711890    6.950602    8.150328
  Au     9.095552    6.002389    6.928256
  Au     4.701061    7.440467    6.345801
  Au     6.179399    9.667208    6.901160
  Mn     8.642297    8.693665    7.214578

 Multiplicity           Mult            ....    4
 Number of Electrons    NEL             ....  253
 Basis Dimension        Dim             ....  525

ORBITAL ENERGIES
----------------
                 SPIN UP ORBITALS
  NO   OCC          E(Eh)            E(eV)
   0   1.0000    -235.038740     -6395.7293
   1   1.0000     -27.218286      -740.6472
   2   1.0000     -23.265582      -633.0887
   3   1.0000     -23.265413      -633.0841
   4   1.0000     -23.264725      -633.0653
   5   1.0000      -4.118202      -112.0620
   6   1.0000      -4.118189      -112.0616
   7   1.0000      -4.118121      -112.0598
   8   1.0000      -4.118074      -112.0585
   9   1.0000      -4.116922      -112.0271
  10   1.0000      -4.116898      -112.0265
  11   1.0000      -4.113483      -111.9336
  12   1.0000      -4.113132      -111.9240
  13   1.0000      -4.111831      -111.8886
  14   1.0000      -4.111662      -111.8840
  15   1.0000      -4.110765      -111.8596
  16   1.0000      -4.110751      -111.8592
  17   1.0000      -3.238017       -88.1109
  18   1.0000      -2.309920       -62.8561
  19   1.0000      -2.309510       -62.8450
  20   1.0000      -2.309259       -62.8381
  21   1.0000      -2.308792       -62.8254
  22   1.0000      -2.307802       -62.7985
  23   1.0000      -2.305447       -62.7344
  24   1.0000      -2.305398       -62.7331
  25   1.0000      -2.304749       -62.7154
  26   1.0000      -2.304663       -62.7131
  27   1.0000      -2.303886       -62.6919
  28   1.0000      -2.303605       -62.6843
  29   1.0000      -2.303309       -62.6762
  30   1.0000      -2.302721       -62.6602
  31   1.0000      -2.301892       -62.6377
  32   1.0000      -2.301277       -62.6209
  33   1.0000      -2.300843       -62.6091
  34   1.0000      -2.300361       -62.5960
  35   1.0000      -2.299785       -62.5803
  36   1.0000      -2.299748       -62.5793
  37   1.0000      -2.299695       -62.5779
  38   1.0000      -2.299496       -62.5725
  39   1.0000      -2.299018       -62.5595
  40   1.0000      -2.298704       -62.5509
  41   1.0000      -2.298080       -62.5339
  42   1.0000      -2.298041       -62.5329
  43   1.0000      -2.297711       -62.5239
  44   1.0000      -2.297394       -62.5153
  45   1.0000      -2.295481       -62.4632
  46   1.0000      -2.295337       -62.4593
  47   1.0000      -2.295158       -62.4544
  48   1.0000      -2.294173       -62.4276
  49   1.0000      -2.294140       -62.4267
  50   1.0000      -2.293997       -62.4228
  51   1.0000      -2.293830       -62.4183
  52   1.0000      -2.292026       -62.3692
  53   1.0000      -2.291408       -62.3524
  54   1.0000      -2.095272       -57.0153
  55   1.0000      -2.094279       -56.9882
  56   1.0000      -2.094073       -56.9826
  57   1.0000      -0.430722       -11.7205
  58   1.0000      -0.393096       -10.6967
  59   1.0000      -0.392184       -10.6719
  60   1.0000      -0.385295       -10.4844
  61   1.0000      -0.381188       -10.3726
  62   1.0000      -0.380581       -10.3561
  63   1.0000      -0.379437       -10.3250
  64   1.0000      -0.374688       -10.1958
  65   1.0000      -0.361476        -9.8363
  66   1.0000      -0.357789        -9.7359
  67   1.0000      -0.357405        -9.7255
  68   1.0000      -0.352737        -9.5985
  69   1.0000      -0.349314        -9.5053
  70   1.0000      -0.346629        -9.4323
  71   1.0000      -0.342834        -9.3290
  72   1.0000      -0.342687        -9.3250
  73   1.0000      -0.341835        -9.3018
  74   1.0000      -0.340487        -9.2651
  75   1.0000      -0.336892        -9.1673
  76   1.0000      -0.331828        -9.0295
  77   1.0000      -0.331599        -9.0233
  78   1.0000      -0.329147        -8.9565
  79   1.0000      -0.326584        -8.8868
  80   1.0000      -0.325279        -8.8513
  81   1.0000      -0.321971        -8.7613
  82   1.0000      -0.319705        -8.6996
  83   1.0000      -0.314389        -8.5550
  84   1.0000      -0.307811        -8.3760
  85   1.0000      -0.305949        -8.3253
  86   1.0000      -0.304310        -8.2807
  87   1.0000      -0.302446        -8.2300
  88   1.0000      -0.298744        -8.1292
  89   1.0000      -0.296642        -8.0720
  90   1.0000      -0.296396        -8.0653
  91   1.0000      -0.296243        -8.0612
  92   1.0000      -0.293582        -7.9888
  93   1.0000      -0.288388        -7.8474
  94   1.0000      -0.287632        -7.8269
  95   1.0000      -0.287505        -7.8234
  96   1.0000      -0.287397        -7.8205
  97   1.0000      -0.286647        -7.8000
  98   1.0000      -0.284436        -7.7399
  99   1.0000      -0.279782        -7.6132
 100   1.0000      -0.279119        -7.5952
 101   1.0000      -0.276054        -7.5118
 102   1.0000      -0.273516        -7.4428
 103   1.0000      -0.271474        -7.3872
 104   1.0000      -0.271262        -7.3814
 105   1.0000      -0.270322        -7.3558
 106   1.0000      -0.268876        -7.3165
 107   1.0000      -0.268000        -7.2926
 108   1.0000      -0.265036        -7.2120
 109   1.0000      -0.264144        -7.1877
 110   1.0000      -0.263843        -7.1795
 111   1.0000      -0.263514        -7.1706
 112   1.0000      -0.261679        -7.1206
 113   1.0000      -0.261560        -7.1174
 114   1.0000      -0.260048        -7.0763
 115   1.0000      -0.258338        -7.0297
 116   1.0000      -0.253458        -6.8969
 117   1.0000      -0.253403        -6.8955
 118   1.0000      -0.253318        -6.8931
 119   1.0000      -0.251754        -6.8506
 120   1.0000      -0.249043        -6.7768
 121   1.0000      -0.246324        -6.7028
 122   1.0000      -0.245424        -6.6783
 123   1.0000      -0.245241        -6.6733
 124   1.0000      -0.237646        -6.4667
 125   1.0000      -0.234711        -6.3868
 126   1.0000      -0.216823        -5.9000
 127   1.0000      -0.201457        -5.4819
 128   0.0000      -0.174358        -4.7445
 129   0.0000      -0.166091        -4.5196
 130   0.0000      -0.134654        -3.6641
 131   0.0000      -0.127231        -3.4621
 132   0.0000      -0.126503        -3.4423

                 SPIN DOWN ORBITALS
  NO   OCC          E(Eh)            E(eV)
   0   1.0000    -235.037704     -6395.7011
   1   1.0000     -27.132092      -738.3018
   2   1.0000     -23.200014      -631.3045
   3   1.0000     -23.198775      -631.2708
   4   1.0000     -23.198495      -631.2631
   5   1.0000      -4.118160      -112.0608
   6   1.0000      -4.118147      -112.0605
   7   1.0000      -4.118078      -112.0586
   8   1.0000      -4.118038      -112.0575
   9   1.0000      -4.116865      -112.0256
  10   1.0000      -4.116834      -112.0247
  11   1.0000      -4.112900      -111.9177
  12   1.0000      -4.112733      -111.9132
  13   1.0000      -4.112590      -111.9093
  14   1.0000      -4.112236      -111.8996
  15   1.0000      -4.111015      -111.8664
  16   1.0000      -4.110991      -111.8657
  17   1.0000      -3.032539       -82.5196
  18   1.0000      -2.309589       -62.8471
  19   1.0000      -2.309140       -62.8349
  20   1.0000      -2.308789       -62.8253
  21   1.0000      -2.308229       -62.8101
  22   1.0000      -2.306607       -62.7660
  23   1.0000      -2.304833       -62.7177
  24   1.0000      -2.304787       -62.7165
  25   1.0000      -2.303847       -62.6909
  26   1.0000      -2.303768       -62.6887
  27   1.0000      -2.303202       -62.6733
  28   1.0000      -2.303121       -62.6711
  29   1.0000      -2.302916       -62.6655
  30   1.0000      -2.302446       -62.6527
  31   1.0000      -2.301276       -62.6209
  32   1.0000      -2.301004       -62.6135
  33   1.0000      -2.300817       -62.6084
  34   1.0000      -2.300184       -62.5912
  35   1.0000      -2.300108       -62.5891
  36   1.0000      -2.299790       -62.5805
  37   1.0000      -2.299499       -62.5725
  38   1.0000      -2.299278       -62.5665
  39   1.0000      -2.298824       -62.5542
  40   1.0000      -2.298584       -62.5476
  41   1.0000      -2.298413       -62.5430
  42   1.0000      -2.298191       -62.5370
  43   1.0000      -2.297904       -62.5291
  44   1.0000      -2.297201       -62.5100
  45   1.0000      -2.296894       -62.5017
  46   1.0000      -2.296793       -62.4989
  47   1.0000      -2.296313       -62.4859
  48   1.0000      -2.294685       -62.4416
  49   1.0000      -2.294636       -62.4402
  50   1.0000      -2.294229       -62.4292
  51   1.0000      -2.293987       -62.4226
  52   1.0000      -2.291600       -62.3576
  53   1.0000      -2.290973       -62.3405
  54   1.0000      -1.891810       -51.4788
  55   1.0000      -1.890154       -51.4337
  56   1.0000      -1.889357       -51.4120
  57   1.0000      -0.425698       -11.5838
  58   1.0000      -0.393516       -10.7081
  59   1.0000      -0.391058       -10.6412
  60   1.0000      -0.382432       -10.4065
  61   1.0000      -0.375799       -10.2260
  62   1.0000      -0.373825       -10.1723
  63   1.0000      -0.372450       -10.1349
  64   1.0000      -0.366496        -9.9729
  65   1.0000      -0.358004        -9.7418
  66   1.0000      -0.357062        -9.7162
  67   1.0000      -0.352611        -9.5950
  68   1.0000      -0.352466        -9.5911
  69   1.0000      -0.348975        -9.4961
  70   1.0000      -0.345271        -9.3953
  71   1.0000      -0.340750        -9.2723
  72   1.0000      -0.340135        -9.2555
  73   1.0000      -0.336989        -9.1699
  74   1.0000      -0.336774        -9.1641
  75   1.0000      -0.334329        -9.0976
  76   1.0000      -0.333224        -9.0675
  77   1.0000      -0.330199        -8.9852
  78   1.0000      -0.330027        -8.9805
  79   1.0000      -0.323621        -8.8062
  80   1.0000      -0.317333        -8.6351
  81   1.0000      -0.316307        -8.6072
  82   1.0000      -0.314363        -8.5543
  83   1.0000      -0.310572        -8.4511
  84   1.0000      -0.306648        -8.3443
  85   1.0000      -0.306549        -8.3416
  86   1.0000      -0.303736        -8.2651
  87   1.0000      -0.303064        -8.2468
  88   1.0000      -0.298462        -8.1216
  89   1.0000      -0.296570        -8.0701
  90   1.0000      -0.296302        -8.0628
  91   1.0000      -0.292593        -7.9619
  92   1.0000      -0.292247        -7.9524
  93   1.0000      -0.285755        -7.7758
  94   1.0000      -0.285463        -7.7679
  95   1.0000      -0.285201        -7.7607
  96   1.0000      -0.285125        -7.7586
  97   1.0000      -0.284814        -7.7502
  98   1.0000      -0.282978        -7.7002
  99   1.0000      -0.280572        -7.6348
 100   1.0000      -0.278611        -7.5814
 101   1.0000      -0.277902        -7.5621
 102   1.0000      -0.273833        -7.4514
 103   1.0000      -0.273092        -7.4312
 104   1.0000      -0.271525        -7.3886
 105   1.0000      -0.269801        -7.3417
 106   1.0000      -0.268876        -7.3165
 107   1.0000      -0.268789        -7.3141
 108   1.0000      -0.267413        -7.2767
 109   1.0000      -0.266306        -7.2466
 110   1.0000      -0.264586        -7.1998
 111   1.0000      -0.263085        -7.1589
 112   1.0000      -0.259818        -7.0700
 113   1.0000      -0.256615        -6.9829
 114   1.0000      -0.256472        -6.9790
 115   1.0000      -0.254810        -6.9337
 116   1.0000      -0.253934        -6.9099
 117   1.0000      -0.251924        -6.8552
 118   1.0000      -0.246640        -6.7114
 119   1.0000      -0.243251        -6.6192
 120   1.0000      -0.243078        -6.6145
 121   1.0000      -0.225469        -6.1353
 122   1.0000      -0.210603        -5.7308
 123   1.0000      -0.195302        -5.3144
 124   1.0000      -0.190602        -5.1865
 125   0.0000      -0.141737        -3.8569
 126   0.0000      -0.138740        -3.7753
 127   0.0000      -0.132819        -3.6142
 128   0.0000      -0.113579        -3.0907
 129   0.0000      -0.107572        -2.9272

MULLIKEN ATOMIC CHARGES AND SPIN POPULATIONS
--------------------------------------------
   0 Au:    0.044333    0.020934
   1 Au:    0.341718    0.042178
   2 Au:    0.078712   -0.181185
   3 Au:    0.306944   -0.094446
   4 Au:    0.077786   -0.181624
   5 Au:    0.203514   -0.190423
   6 Au:    0.306998   -0.093924
   7 Au:    0.077907   -0.181670
   8 Au:    0.077374   -0.180835
   9 Au:    0.204085   -0.191297
  10 Au:    0.341819    0.043102
  11 Au:    0.041878    0.021592
  12 Mn:   -2.103067    4.167600
Sum of atomic charges         :   -0.0000000

LOEWDIN ATOMIC CHARGES AND SPIN POPULATIONS
-------------------------------------------
   0 Au:    0.025280   -0.000461
   1 Au:    0.097209   -0.003436
   2 Au:   -0.011515   -0.106837
   3 Au:    0.102294   -0.152681
   4 Au:   -0.011264   -0.107076
   5 Au:    0.046837   -0.171839
   6 Au:    0.102342   -0.152228
   7 Au:   -0.011219   -0.106825
   8 Au:   -0.011492   -0.106880
   9 Au:    0.046287   -0.171971
  10 Au:    0.097443   -0.002503
  11 Au:    0.025207    0.000344
  12 Mn:   -0.497409    4.082395

  Mayer bond orders larger than 0.100000
B(  0-Au,  1-Au) :   0.3421 B(  0-Au,  4-Au) :   0.1046 B(  0-Au,  7-Au) :   0.1049
B(  0-Au, 11-Au) :   0.4748 B(  0-Au, 12-Mn) :   0.5734 B(  1-Au,  4-Au) :   0.3397
B(  1-Au,  7-Au) :   0.3414 B(  2-Au,  3-Au) :   0.3363 B(  2-Au,  8-Au) :   0.1588
B(  2-Au,  9-Au) :   0.1988 B(  2-Au, 10-Au) :   0.3400 B(  2-Au, 11-Au) :   0.1051
B(  2-Au, 12-Mn) :   0.4167 B(  3-Au,  4-Au) :   0.3350 B(  3-Au, 12-Mn) :   0.5025
B(  4-Au,  5-Au) :   0.1993 B(  4-Au,  7-Au) :   0.1563 B(  4-Au, 12-Mn) :   0.4189
B(  5-Au,  7-Au) :   0.1987 B(  5-Au,  9-Au) :   0.2367 B(  5-Au, 12-Mn) :   0.5053
B(  6-Au,  7-Au) :   0.3359 B(  6-Au,  8-Au) :   0.3352 B(  6-Au, 12-Mn) :   0.5039
B(  7-Au, 12-Mn) :   0.4185 B(  8-Au,  9-Au) :   0.1993 B(  8-Au, 10-Au) :   0.3400
B(  8-Au, 11-Au) :   0.1037 B(  8-Au, 12-Mn) :   0.4172 B(  9-Au, 12-Mn) :   0.5054
B( 10-Au, 11-Au) :   0.3427 B( 11-Au, 12-Mn) :   0.5746

FINAL SINGLE POINT ENERGY     -2781.153654594832

DIPOLE MOMENT
-------------
                                X             Y             Z
Electronic contribution:     -0.37829       0.39893      -0.04566
Nuclear contribution   :      0.44256      -0.47649       0.04661
                        -----------------------------------------
Total Dipole Moment    :      0.06427      -0.07756       0.00095
                        -----------------------------------------
Magnitude (a.u.)       :      0.10073
Magnitude (Debye)      :      0.25605

Rotational constants in cm-1:     0.001723     0.001068     0.000957
Rotational constants in MHz :    51.646989    32.010626    28.689017

                             ****ORCA TERMINATED NORMALLY****
TOTAL RUN TIME: 0 days 0 hours 3 minutes 58 seconds 394 msec
