                         Program Version 5.0.3 -  RELEASE  -
|  1> !SC-NEVPT2 def2-TZVP def2-TZVP/C
|  2> !MOREAD RIJCOSX def2/J
|  3> %maxcore 4000
|  4> %moinp "casscf.gbw"
|  5> %pal nprocs 8 end
|  6>
|  7> %casscf
|  8>  mult 5,3
|  9>  bweight 1,1
| 10>  nroots 5,45
| 11>  nel 6
| 12>  norb 5
| 13>  ptsettings
| 14>   d4tpre 1e-14 # default = 1e-10
| 15>   d3tpre 1e-14
| 16>  end
| 17>  rel
| 18>    dosoc true
| 19>    gtensor true
| 20>  end
| 21> end
| 22>
| 23>
| 24> *xyzfile 0 5 pbe.xyz
| 25>
| 26>
| 27>                          ****END OF INPUT****

CARTESIAN COORDINATES (ANGSTROEM)
---------------------------------
  Au     6.545212   11.201705    9.597091
  Au     8.993307   11.031737    8.268771
  Au     4.728818    9.086939    9.220240
  Au     8.366220    9.168812   10.281829
  Au     6.505251    7.070260   10.056782
  Au     5.162676    6.811188    7.624285
  Au     5.202944   10.945233    7.163893
  Au     8.952058    6.900899    8.724475
  Au     7.650663   10.777636    5.834486
  Au     7.609091    6.639250    6.291634
  Au     9.422903    8.758966    6.667244
  Au     5.793057    8.674927    5.612529
  Cr     7.077067    8.923292    7.947992

 Total Charge           Charge          ....    0
 Multiplicity           Mult            ....    5
 Number of Electrons    NEL             ....  252
 Basis Dimension        Dim             ....  525

ORBITAL ENERGIES
----------------

  NO   OCC          E(Eh)            E(eV)
   0   2.0000    -220.512343     -6000.4459
   1   2.0000     -26.352931      -717.0997
   2   2.0000     -22.286352      -606.4425
   3   2.0000     -22.286347      -606.4423
   4   2.0000     -22.273172      -606.0838
   5   2.0000      -4.717481      -128.3692
   6   2.0000      -4.717480      -128.3691
   7   2.0000      -4.717438      -128.3680
   8   2.0000      -4.717434      -128.3679
   9   2.0000      -4.704158      -128.0066
  10   2.0000      -4.704123      -128.0057
  11   2.0000      -4.703966      -128.0014
  12   2.0000      -4.703939      -128.0007
  13   2.0000      -4.703924      -128.0003
  14   2.0000      -4.703901      -127.9997
  15   2.0000      -4.703731      -127.9950
  16   2.0000      -4.703716      -127.9946
  17   2.0000      -3.405939       -92.6803
  18   2.0000      -2.756615       -75.0113
  19   2.0000      -2.756566       -75.0100
  20   2.0000      -2.756553       -75.0096
  21   2.0000      -2.756405       -75.0056
  22   2.0000      -2.754436       -74.9520
  23   2.0000      -2.754173       -74.9449
  24   2.0000      -2.754163       -74.9446
  25   2.0000      -2.754109       -74.9431
  26   2.0000      -2.752781       -74.9070
  27   2.0000      -2.752661       -74.9037
  28   2.0000      -2.752655       -74.9036
  29   2.0000      -2.752425       -74.8973
  30   2.0000      -2.742590       -74.6297
  31   2.0000      -2.742480       -74.6267
  32   2.0000      -2.742441       -74.6256
  33   2.0000      -2.742075       -74.6156
  34   2.0000      -2.742068       -74.6155
  35   2.0000      -2.741835       -74.6091
  36   2.0000      -2.741829       -74.6090
  37   2.0000      -2.741600       -74.6027
  38   2.0000      -2.739968       -74.5583
  39   2.0000      -2.739904       -74.5566
  40   2.0000      -2.739873       -74.5557
  41   2.0000      -2.739548       -74.5469
  42   2.0000      -2.739483       -74.5451
  43   2.0000      -2.739464       -74.5446
  44   2.0000      -2.739406       -74.5430
  45   2.0000      -2.739050       -74.5333
  46   2.0000      -2.736923       -74.4755
  47   2.0000      -2.736707       -74.4696
  48   2.0000      -2.736702       -74.4694
  49   2.0000      -2.736558       -74.4655
  50   2.0000      -2.736437       -74.4622
  51   2.0000      -2.736431       -74.4621
  52   2.0000      -2.736068       -74.4522
  53   2.0000      -2.735969       -74.4495
  54   2.0000      -2.170240       -59.0552
  55   2.0000      -2.170233       -59.0550
  56   2.0000      -2.158981       -58.7489
  57   2.0000      -0.558025       -15.1846
  58   2.0000      -0.549251       -14.9459
  59   2.0000      -0.542062       -14.7503
  60   2.0000      -0.542023       -14.7492
  61   2.0000      -0.539510       -14.6808
  62   2.0000      -0.536262       -14.5924
  63   2.0000      -0.533679       -14.5221
  64   2.0000      -0.533402       -14.5146
  65   2.0000      -0.532842       -14.4994
  66   2.0000      -0.532793       -14.4980
  67   2.0000      -0.522008       -14.2046
  68   2.0000      -0.521634       -14.1944
  69   2.0000      -0.521596       -14.1933
  70   2.0000      -0.521135       -14.1808
  71   2.0000      -0.521094       -14.1797
  72   2.0000      -0.520343       -14.1593
  73   2.0000      -0.519038       -14.1237
  74   2.0000      -0.518281       -14.1031
  75   2.0000      -0.510100       -13.8805
  76   2.0000      -0.509162       -13.8550
  77   2.0000      -0.503131       -13.6909
  78   2.0000      -0.503081       -13.6895
  79   2.0000      -0.498206       -13.5569
  80   2.0000      -0.495607       -13.4861
  81   2.0000      -0.495572       -13.4852
  82   2.0000      -0.492327       -13.3969
  83   2.0000      -0.492278       -13.3956
  84   2.0000      -0.489971       -13.3328
  85   2.0000      -0.483727       -13.1629
  86   2.0000      -0.474723       -12.9179
  87   2.0000      -0.474656       -12.9160
  88   2.0000      -0.474215       -12.9040
  89   2.0000      -0.474173       -12.9029
  90   2.0000      -0.465356       -12.6630
  91   2.0000      -0.465294       -12.6613
  92   2.0000      -0.459947       -12.5158
  93   2.0000      -0.459667       -12.5082
  94   2.0000      -0.455169       -12.3858
  95   2.0000      -0.455135       -12.3849
  96   2.0000      -0.450012       -12.2454
  97   2.0000      -0.449992       -12.2449
  98   2.0000      -0.446780       -12.1575
  99   2.0000      -0.444433       -12.0936
 100   2.0000      -0.441261       -12.0073
 101   2.0000      -0.438367       -11.9286
 102   2.0000      -0.438335       -11.9277
 103   2.0000      -0.432193       -11.7606
 104   2.0000      -0.430503       -11.7146
 105   2.0000      -0.428128       -11.6500
 106   2.0000      -0.424503       -11.5513
 107   2.0000      -0.423163       -11.5149
 108   2.0000      -0.421733       -11.4759
 109   2.0000      -0.421729       -11.4758
 110   2.0000      -0.418858       -11.3977
 111   2.0000      -0.418833       -11.3970
 112   2.0000      -0.416772       -11.3409
 113   2.0000      -0.416516       -11.3340
 114   2.0000      -0.414201       -11.2710
 115   2.0000      -0.414161       -11.2699
 116   2.0000      -0.407536       -11.0896
 117   2.0000      -0.378177       -10.2907
 118   2.0000      -0.341201        -9.2845
 119   2.0000      -0.327181        -8.9031
 120   2.0000      -0.327120        -8.9014
 121   2.0000      -0.231899        -6.3103
 122   2.0000      -0.231889        -6.3100
 123   1.2000      -0.163992        -4.4624
 124   1.2000      -0.095374        -2.5953
 125   1.2000      -0.102035        -2.7765
 126   1.2000      -0.110064        -2.9950
 127   1.2000      -0.091327        -2.4851
 128   0.0000      -0.022506        -0.6124
 129   0.0000      -0.003386        -0.0921
 130   0.0000       0.003727         0.1014
 131   0.0000       0.010106         0.2750
 132   0.0000       0.040759         1.1091

MULLIKEN ATOMIC CHARGES AND SPIN DENSITIES
------------------------------------------
   0 Au:    0.507750    0.018372
   1 Au:    0.508623    0.018402
   2 Au:    0.504583    0.015090
   3 Au:    0.507529    0.015140
   4 Au:    0.508353    0.018437
   5 Au:    0.509281    0.018383
   6 Au:    0.510181    0.018521
   7 Au:    0.508727    0.018487
   8 Au:    0.510363    0.018476
   9 Au:    0.511561    0.018392
  10 Au:    0.505638    0.015285
  11 Au:    0.502843    0.015315
  12 Cr:   -6.095432    2.791700
Sum of atomic charges       :    0.0000000

LOEWDIN ATOMIC CHARGES AND SPIN DENSITIES
-----------------------------------------
   0 Au:    0.108791    0.047000
   1 Au:    0.108834    0.046971
   2 Au:    0.117873    0.062060
   3 Au:    0.118172    0.062004
   4 Au:    0.108976    0.047161
   5 Au:    0.108813    0.046895
   6 Au:    0.109146    0.047221
   7 Au:    0.108718    0.047205
   8 Au:    0.109043    0.047145
   9 Au:    0.109062    0.046860
  10 Au:    0.117342    0.062081
  11 Au:    0.117136    0.062142
  12 Cr:   -1.341907    2.375255

  Mayer bond orders larger than 0.100000
B(  0-Au,  1-Au) :   0.1465 B(  0-Au,  2-Au) :   0.1375 B(  0-Au,  3-Au) :   0.1370
B(  0-Au,  6-Au) :   0.1458 B(  0-Au, 12-Cr) :   0.3673 B(  1-Au,  3-Au) :   0.1370
B(  1-Au,  8-Au) :   0.1450 B(  1-Au, 10-Au) :   0.1370 B(  1-Au, 12-Cr) :   0.3688
B(  2-Au,  4-Au) :   0.1370 B(  2-Au,  5-Au) :   0.1372 B(  2-Au,  6-Au) :   0.1373
B(  2-Au, 10-Au) :   0.2111 B(  2-Au, 12-Cr) :   0.2816 B(  3-Au,  4-Au) :   0.1366
B(  3-Au,  7-Au) :   0.1369 B(  3-Au, 11-Au) :   0.2109 B(  3-Au, 12-Cr) :   0.2807
B(  4-Au,  5-Au) :   0.1461 B(  4-Au,  7-Au) :   0.1460 B(  4-Au, 12-Cr) :   0.3683
B(  5-Au,  9-Au) :   0.1447 B(  5-Au, 11-Au) :   0.1371 B(  5-Au, 12-Cr) :   0.3691
B(  6-Au,  8-Au) :   0.1448 B(  6-Au, 11-Au) :   0.1371 B(  6-Au, 12-Cr) :   0.3685
B(  7-Au,  9-Au) :   0.1448 B(  7-Au, 10-Au) :   0.1371 B(  7-Au, 12-Cr) :   0.3688
B(  8-Au, 10-Au) :   0.1373 B(  8-Au, 11-Au) :   0.1368 B(  8-Au, 12-Cr) :   0.3698
B(  9-Au, 10-Au) :   0.1359 B(  9-Au, 11-Au) :   0.1377 B(  9-Au, 12-Cr) :   0.3699
B( 10-Au, 12-Cr) :   0.2812 B( 11-Au, 12-Cr) :   0.2821

FINAL SINGLE POINT ENERGY     -2666.993383497544

DIPOLE MOMENT
-------------
                                X             Y             Z
Electronic contribution:      0.02093      -0.03441      -0.09546
Nuclear contribution   :     -0.02163       0.03495       0.09549
                        -----------------------------------------
Total Dipole Moment    :     -0.00071       0.00054       0.00003
                        -----------------------------------------
Magnitude (a.u.)       :      0.00089
Magnitude (Debye)      :      0.00226

Rotational constants in cm-1:     0.001431     0.001327     0.001327
Rotational constants in MHz :    42.892358    39.779472    39.770916

                             ****ORCA TERMINATED NORMALLY****
TOTAL RUN TIME: 0 days 0 hours 46 minutes 3 seconds 443 msec
