                         Program Version 5.0.3 -  RELEASE  -
|  1> !RI-B2PLYP def2-TZVP def2-TZVP/C
|  2> !RIJCOSX VERYSLOWCONV
|  3>
|  4> %scf
|  5>   AutoTRAHIter 200
|  6>   maxiter 400
|  7> end
|  8>
|  9>
| 10> %pal nprocs 6 end
| 11>
| 12> *xyzfile 0 6 pbe.xyz
| 13>
| 14> $new_job
| 15>
| 16> !RI-B2PLYP def2-TZVP def2-TZVP/C
| 17> !RIJCOSX VERYSLOWCONV
| 18>
| 19> %scf
| 20>   AutoTRAHIter 200
| 21>   maxiter 400
| 22> end
| 23>
| 24>
| 25> %pal nprocs 6 end
| 26>
| 27> *xyzfile 0 4 pbe.xyz
| 28>
| 29>
| 30>
| 31>
| 32>
| 33>                          ****END OF INPUT****
 Total Charge           Charge          ....    0
 Multiplicity           Mult            ....    6
 Number of Electrons    NEL             ....  253
MP2 TOTAL ENERGY:    -2777.865849132 Eh
FINAL SINGLE POINT ENERGY     -2777.865849132095

CARTESIAN COORDINATES (ANGSTROEM)
---------------------------------
  Au     7.417110    9.258081   11.010102
  Au     9.609528    7.826416   10.099715
  Au     6.890647    6.887966    9.812046
  Au     9.910898    7.518022    7.398954
  Au     7.879064    5.601272    7.585409
  Au     5.258956    6.269961    7.672617
  Au     6.363091   10.608970    8.504176
  Au     8.927729    9.988193    8.490614
  Au     8.259902    7.075855    5.213766
  Au     4.832975    8.916559   10.096035
  Au     4.333225    8.888456    7.409754
  Au     5.596092    7.692673    5.247413
  Mn     7.148356    8.276394    7.407525

 Multiplicity           Mult            ....    4
 Number of Electrons    NEL             ....  253
 Basis Dimension        Dim             ....  525

ORBITAL ENERGIES
----------------
                 SPIN UP ORBITALS
  NO   OCC          E(Eh)            E(eV)
   0   1.0000    -237.630666     -6466.2592
   1   1.0000     -28.132436      -765.5225
   2   1.0000     -24.051008      -654.4612
   3   1.0000     -24.049843      -654.4295
   4   1.0000     -24.049752      -654.4270
   5   1.0000      -4.410649      -120.0199
   6   1.0000      -4.402613      -119.8012
   7   1.0000      -4.402301      -119.7927
   8   1.0000      -4.400251      -119.7369
   9   1.0000      -4.400187      -119.7352
  10   1.0000      -4.399887      -119.7270
  11   1.0000      -4.399821      -119.7252
  12   1.0000      -4.390452      -119.4703
  13   1.0000      -4.389940      -119.4563
  14   1.0000      -4.388864      -119.4271
  15   1.0000      -4.388680      -119.4221
  16   1.0000      -4.387645      -119.3939
  17   1.0000      -3.610443       -98.2451
  18   1.0000      -2.531561       -68.8873
  19   1.0000      -2.528179       -68.7952
  20   1.0000      -2.525972       -68.7352
  21   1.0000      -2.523992       -68.6813
  22   1.0000      -2.523162       -68.6587
  23   1.0000      -2.522234       -68.6335
  24   1.0000      -2.522162       -68.6315
  25   1.0000      -2.520225       -68.5788
  26   1.0000      -2.520105       -68.5756
  27   1.0000      -2.519930       -68.5708
  28   1.0000      -2.519090       -68.5479
  29   1.0000      -2.518363       -68.5282
  30   1.0000      -2.517988       -68.5179
  31   1.0000      -2.517889       -68.5152
  32   1.0000      -2.517246       -68.4977
  33   1.0000      -2.516668       -68.4820
  34   1.0000      -2.515209       -68.4423
  35   1.0000      -2.515131       -68.4402
  36   1.0000      -2.514442       -68.4215
  37   1.0000      -2.514310       -68.4179
  38   1.0000      -2.513121       -68.3855
  39   1.0000      -2.511062       -68.3295
  40   1.0000      -2.509747       -68.2937
  41   1.0000      -2.509183       -68.2783
  42   1.0000      -2.508615       -68.2629
  43   1.0000      -2.508219       -68.2521
  44   1.0000      -2.505887       -68.1887
  45   1.0000      -2.505515       -68.1785
  46   1.0000      -2.504633       -68.1545
  47   1.0000      -2.504535       -68.1519
  48   1.0000      -2.504363       -68.1472
  49   1.0000      -2.503818       -68.1323
  50   1.0000      -2.503620       -68.1270
  51   1.0000      -2.503314       -68.1186
  52   1.0000      -2.503000       -68.1101
  53   1.0000      -2.502477       -68.0959
  54   1.0000      -2.413110       -65.6641
  55   1.0000      -2.411498       -65.6202
  56   1.0000      -2.411305       -65.6149
  57   1.0000      -0.517780       -14.0895
  58   1.0000      -0.517392       -14.0790
  59   1.0000      -0.515459       -14.0263
  60   1.0000      -0.512295       -13.9403
  61   1.0000      -0.506962       -13.7951
  62   1.0000      -0.495751       -13.4901
  63   1.0000      -0.469623       -12.7791
  64   1.0000      -0.460437       -12.5291
  65   1.0000      -0.459206       -12.4956
  66   1.0000      -0.457448       -12.4478
  67   1.0000      -0.456400       -12.4193
  68   1.0000      -0.450177       -12.2499
  69   1.0000      -0.448937       -12.2162
  70   1.0000      -0.445523       -12.1233
  71   1.0000      -0.444872       -12.1056
  72   1.0000      -0.443451       -12.0669
  73   1.0000      -0.443186       -12.0597
  74   1.0000      -0.439767       -11.9667
  75   1.0000      -0.437948       -11.9172
  76   1.0000      -0.436204       -11.8697
  77   1.0000      -0.434373       -11.8199
  78   1.0000      -0.431479       -11.7411
  79   1.0000      -0.430688       -11.7196
  80   1.0000      -0.424527       -11.5520
  81   1.0000      -0.423200       -11.5159
  82   1.0000      -0.422431       -11.4949
  83   1.0000      -0.420288       -11.4366
  84   1.0000      -0.417866       -11.3707
  85   1.0000      -0.414206       -11.2711
  86   1.0000      -0.410999       -11.1839
  87   1.0000      -0.406940       -11.0734
  88   1.0000      -0.404348       -11.0029
  89   1.0000      -0.400688       -10.9033
  90   1.0000      -0.397549       -10.8178
  91   1.0000      -0.391748       -10.6600
  92   1.0000      -0.390114       -10.6156
  93   1.0000      -0.387418       -10.5422
  94   1.0000      -0.385531       -10.4908
  95   1.0000      -0.385218       -10.4823
  96   1.0000      -0.379285       -10.3209
  97   1.0000      -0.376758       -10.2521
  98   1.0000      -0.373915       -10.1747
  99   1.0000      -0.372378       -10.1329
 100   1.0000      -0.371436       -10.1073
 101   1.0000      -0.369103       -10.0438
 102   1.0000      -0.368333       -10.0228
 103   1.0000      -0.365282        -9.9398
 104   1.0000      -0.363332        -9.8868
 105   1.0000      -0.362356        -9.8602
 106   1.0000      -0.361164        -9.8278
 107   1.0000      -0.360469        -9.8089
 108   1.0000      -0.359027        -9.7696
 109   1.0000      -0.354360        -9.6426
 110   1.0000      -0.352162        -9.5828
 111   1.0000      -0.352007        -9.5786
 112   1.0000      -0.349670        -9.5150
 113   1.0000      -0.344334        -9.3698
 114   1.0000      -0.343881        -9.3575
 115   1.0000      -0.343044        -9.3347
 116   1.0000      -0.342764        -9.3271
 117   1.0000      -0.341772        -9.3001
 118   1.0000      -0.339589        -9.2407
 119   1.0000      -0.338026        -9.1981
 120   1.0000      -0.330536        -8.9944
 121   1.0000      -0.325295        -8.8517
 122   1.0000      -0.319811        -8.7025
 123   1.0000      -0.314853        -8.5676
 124   1.0000      -0.301745        -8.2109
 125   1.0000      -0.267183        -7.2704
 126   1.0000      -0.227565        -6.1924
 127   1.0000      -0.220431        -5.9982
 128   0.0000      -0.133490        -3.6324
 129   0.0000      -0.096130        -2.6158
 130   0.0000      -0.091255        -2.4832
 131   0.0000      -0.062720        -1.7067
 132   0.0000      -0.055289        -1.5045

                 SPIN DOWN ORBITALS
  NO   OCC          E(Eh)            E(eV)
   0   1.0000    -237.628593     -6466.2027
   1   1.0000     -28.031099      -762.7650
   2   1.0000     -23.957547      -651.9180
   3   1.0000     -23.957037      -651.9041
   4   1.0000     -23.956836      -651.8986
   5   1.0000      -4.409689      -119.9937
   6   1.0000      -4.402880      -119.8085
   7   1.0000      -4.402587      -119.8005
   8   1.0000      -4.400954      -119.7560
   9   1.0000      -4.400648      -119.7477
  10   1.0000      -4.400401      -119.7410
  11   1.0000      -4.400032      -119.7310
  12   1.0000      -4.390397      -119.4688
  13   1.0000      -4.389852      -119.4540
  14   1.0000      -4.389712      -119.4501
  15   1.0000      -4.389307      -119.4391
  16   1.0000      -4.389139      -119.4345
  17   1.0000      -3.325407       -90.4889
  18   1.0000      -2.530167       -68.8494
  19   1.0000      -2.526046       -68.7372
  20   1.0000      -2.525873       -68.7325
  21   1.0000      -2.523429       -68.6660
  22   1.0000      -2.522669       -68.6453
  23   1.0000      -2.521763       -68.6207
  24   1.0000      -2.521466       -68.6126
  25   1.0000      -2.519754       -68.5660
  26   1.0000      -2.519624       -68.5625
  27   1.0000      -2.519359       -68.5552
  28   1.0000      -2.518746       -68.5386
  29   1.0000      -2.518203       -68.5238
  30   1.0000      -2.517593       -68.5072
  31   1.0000      -2.517337       -68.5002
  32   1.0000      -2.517243       -68.4977
  33   1.0000      -2.516519       -68.4780
  34   1.0000      -2.515273       -68.4440
  35   1.0000      -2.515101       -68.4394
  36   1.0000      -2.514598       -68.4257
  37   1.0000      -2.514081       -68.4116
  38   1.0000      -2.512668       -68.3732
  39   1.0000      -2.510755       -68.3211
  40   1.0000      -2.509362       -68.2832
  41   1.0000      -2.509257       -68.2803
  42   1.0000      -2.508067       -68.2480
  43   1.0000      -2.507767       -68.2398
  44   1.0000      -2.507316       -68.2275
  45   1.0000      -2.506803       -68.2136
  46   1.0000      -2.506353       -68.2013
  47   1.0000      -2.505644       -68.1820
  48   1.0000      -2.504832       -68.1599
  49   1.0000      -2.504479       -68.1503
  50   1.0000      -2.504402       -68.1482
  51   1.0000      -2.503808       -68.1321
  52   1.0000      -2.503464       -68.1227
  53   1.0000      -2.502740       -68.1030
  54   1.0000      -2.086352       -56.7725
  55   1.0000      -2.085892       -56.7600
  56   1.0000      -2.084871       -56.7322
  57   1.0000      -0.495652       -13.4874
  58   1.0000      -0.476652       -12.9704
  59   1.0000      -0.466970       -12.7069
  60   1.0000      -0.464695       -12.6450
  61   1.0000      -0.463114       -12.6020
  62   1.0000      -0.462423       -12.5832
  63   1.0000      -0.460249       -12.5240
  64   1.0000      -0.458800       -12.4846
  65   1.0000      -0.457156       -12.4399
  66   1.0000      -0.450772       -12.2661
  67   1.0000      -0.449741       -12.2381
  68   1.0000      -0.448685       -12.2093
  69   1.0000      -0.446496       -12.1498
  70   1.0000      -0.443135       -12.0583
  71   1.0000      -0.441009       -12.0005
  72   1.0000      -0.437553       -11.9064
  73   1.0000      -0.437121       -11.8947
  74   1.0000      -0.434099       -11.8124
  75   1.0000      -0.430695       -11.7198
  76   1.0000      -0.428367       -11.6565
  77   1.0000      -0.426832       -11.6147
  78   1.0000      -0.423720       -11.5300
  79   1.0000      -0.421757       -11.4766
  80   1.0000      -0.420566       -11.4442
  81   1.0000      -0.414061       -11.2672
  82   1.0000      -0.411308       -11.1923
  83   1.0000      -0.410180       -11.1616
  84   1.0000      -0.404852       -11.0166
  85   1.0000      -0.398738       -10.8502
  86   1.0000      -0.397897       -10.8273
  87   1.0000      -0.394505       -10.7350
  88   1.0000      -0.393318       -10.7027
  89   1.0000      -0.391183       -10.6446
  90   1.0000      -0.390045       -10.6137
  91   1.0000      -0.386944       -10.5293
  92   1.0000      -0.384660       -10.4671
  93   1.0000      -0.380002       -10.3404
  94   1.0000      -0.375168       -10.2088
  95   1.0000      -0.374173       -10.1818
  96   1.0000      -0.371444       -10.1075
  97   1.0000      -0.370569       -10.0837
  98   1.0000      -0.368538       -10.0284
  99   1.0000      -0.368219       -10.0198
 100   1.0000      -0.365851        -9.9553
 101   1.0000      -0.365265        -9.9394
 102   1.0000      -0.361536        -9.8379
 103   1.0000      -0.359667        -9.7870
 104   1.0000      -0.358069        -9.7435
 105   1.0000      -0.355828        -9.6826
 106   1.0000      -0.353149        -9.6097
 107   1.0000      -0.352528        -9.5928
 108   1.0000      -0.348977        -9.4962
 109   1.0000      -0.347552        -9.4574
 110   1.0000      -0.346897        -9.4395
 111   1.0000      -0.343881        -9.3575
 112   1.0000      -0.343491        -9.3469
 113   1.0000      -0.342891        -9.3305
 114   1.0000      -0.339041        -9.2258
 115   1.0000      -0.333713        -9.0808
 116   1.0000      -0.327539        -8.9128
 117   1.0000      -0.323857        -8.8126
 118   1.0000      -0.317945        -8.6517
 119   1.0000      -0.316080        -8.6010
 120   1.0000      -0.288220        -7.8429
 121   1.0000      -0.240622        -6.5477
 122   1.0000      -0.233387        -6.3508
 123   1.0000      -0.230722        -6.2783
 124   1.0000      -0.188662        -5.1338
 125   0.0000      -0.094462        -2.5704
 126   0.0000      -0.070819        -1.9271
 127   0.0000      -0.063086        -1.7166
 128   0.0000      -0.054624        -1.4864
 129   0.0000      -0.049581        -1.3492

MULLIKEN ATOMIC CHARGES AND SPIN POPULATIONS
--------------------------------------------
   0 Au:    0.072235    0.098224
   1 Au:    0.170189   -0.160416
   2 Au:   -0.196860   -0.063020
   3 Au:    0.157765   -0.317590
   4 Au:    0.168050   -0.155659
   5 Au:    0.160995   -0.159891
   6 Au:    0.064090   -0.228513
   7 Au:    0.070294   -0.235415
   8 Au:    0.175588    0.043234
   9 Au:    0.151019   -0.203864
  10 Au:    0.184518   -0.309133
  11 Au:    0.170351    0.044606
  12 Mn:   -1.348234    4.647439
Sum of atomic charges         :   -0.0000000

LOEWDIN ATOMIC CHARGES AND SPIN POPULATIONS
-------------------------------------------
   0 Au:   -0.015938    0.006813
   1 Au:    0.022477   -0.156140
   2 Au:   -0.058386   -0.063974
   3 Au:    0.004054   -0.220848
   4 Au:    0.032237   -0.128062
   5 Au:    0.028233   -0.128049
   6 Au:    0.025444   -0.209482
   7 Au:    0.021174   -0.204009
   8 Au:    0.040107   -0.013739
   9 Au:    0.018020   -0.176404
  10 Au:    0.008204   -0.222566
  11 Au:    0.034542   -0.006946
  12 Mn:   -0.160168    4.523406

  Mayer bond orders larger than 0.100000
B(  0-Au,  1-Au) :   0.2998 B(  0-Au,  2-Au) :   0.4338 B(  0-Au,  6-Au) :   0.1003
B(  0-Au,  9-Au) :   0.3146 B(  0-Au, 12-Mn) :   0.1337 B(  1-Au,  2-Au) :   0.2737
B(  1-Au,  3-Au) :   0.2492 B(  1-Au,  7-Au) :   0.2195 B(  1-Au, 12-Mn) :   0.1323
B(  2-Au,  4-Au) :   0.3393 B(  2-Au,  5-Au) :   0.3289 B(  2-Au,  9-Au) :   0.2613
B(  2-Au, 12-Mn) :   0.2975 B(  3-Au,  4-Au) :   0.1932 B(  3-Au,  7-Au) :   0.2186
B(  3-Au,  8-Au) :   0.2321 B(  3-Au, 12-Mn) :   0.3977 B(  4-Au,  5-Au) :   0.1774
B(  4-Au,  8-Au) :   0.1610 B(  4-Au, 12-Mn) :   0.4221 B(  5-Au, 10-Au) :   0.1973
B(  5-Au, 11-Au) :   0.1533 B(  5-Au, 12-Mn) :   0.4239 B(  6-Au,  7-Au) :   0.2314
B(  6-Au,  9-Au) :   0.2133 B(  6-Au, 10-Au) :   0.2121 B(  6-Au, 12-Mn) :   0.4987
B(  7-Au, 12-Mn) :   0.4887 B(  8-Au, 11-Au) :   0.2795 B(  8-Au, 12-Mn) :   0.4436
B(  9-Au, 10-Au) :   0.2383 B(  9-Au, 12-Mn) :   0.1493 B( 10-Au, 11-Au) :   0.2296
B( 10-Au, 12-Mn) :   0.3861 B( 11-Au, 12-Mn) :   0.4577

MP2 TOTAL ENERGY:    -2777.841462947 Eh
FINAL SINGLE POINT ENERGY     -2777.841462947416

DIPOLE MOMENT
-------------
                                X             Y             Z
Electronic contribution:     -1.55015      -8.57033      29.18018
Nuclear contribution   :      1.51912       8.44168     -29.25852
                        -----------------------------------------
Total Dipole Moment    :     -0.03103      -0.12866      -0.07834
                        -----------------------------------------
Magnitude (a.u.)       :      0.15379
Magnitude (Debye)      :      0.39091

Rotational constants in cm-1:     0.001478     0.001380     0.001033
Rotational constants in MHz :    44.305732    41.361868    30.974659

                             ****ORCA TERMINATED NORMALLY****
TOTAL RUN TIME: 0 days 0 hours 38 minutes 46 seconds 861 msec
