                         Program Version 5.0.3 -  RELEASE  -
|  1> !PBE def2-TZVP VERYSLOWCONV
|  2> !KDIIS
|  3>
|  4> %scf
|  5>   AutoTRAHIter 200
|  6>   maxiter 400
|  7> end
|  8>
|  9>
| 10> %pal nprocs 6 end
| 11>
| 12> *xyzfile 0 6 pbe.xyz
| 13>
| 14> $new_job
| 15>
| 16> !PBE def2-TZVP VERYSLOWCONV
| 17> !KDIIS
| 18>
| 19> %scf
| 20>   AutoTRAHIter 200
| 21>   maxiter 400
| 22> end
| 23>
| 24>
| 25> %pal nprocs 6 end
| 26>
| 27> *xyzfile 0 4 pbe.xyz
| 28>
| 29>
| 30>
| 31>
| 32>
| 33>                          ****END OF INPUT****
 Total Charge           Charge          ....    0
 Multiplicity           Mult            ....    6
 Number of Electrons    NEL             ....  253
FINAL SINGLE POINT ENERGY     -2780.693498168865

CARTESIAN COORDINATES (ANGSTROEM)
---------------------------------
  Au     7.417110    9.258081   11.010102
  Au     9.609528    7.826416   10.099715
  Au     6.890647    6.887966    9.812046
  Au     9.910898    7.518022    7.398954
  Au     7.879064    5.601272    7.585409
  Au     5.258956    6.269961    7.672617
  Au     6.363091   10.608970    8.504176
  Au     8.927729    9.988193    8.490614
  Au     8.259902    7.075855    5.213766
  Au     4.832975    8.916559   10.096035
  Au     4.333225    8.888456    7.409754
  Au     5.596092    7.692673    5.247413
  Mn     7.148356    8.276394    7.407525

 Multiplicity           Mult            ....    4
 Number of Electrons    NEL             ....  253
 Basis Dimension        Dim             ....  525

ORBITAL ENERGIES
----------------
                 SPIN UP ORBITALS
  NO   OCC          E(Eh)            E(eV)
   0   1.0000    -234.204538     -6373.0295
   1   1.0000     -26.898006      -731.9319
   2   1.0000     -23.047656      -627.1586
   3   1.0000     -23.046581      -627.1294
   4   1.0000     -23.045451      -627.0986
   5   1.0000      -4.038784      -109.9009
   6   1.0000      -4.030413      -109.6731
   7   1.0000      -4.030063      -109.6636
   8   1.0000      -4.028654      -109.6252
   9   1.0000      -4.028333      -109.6165
  10   1.0000      -4.027642      -109.5977
  11   1.0000      -4.027360      -109.5900
  12   1.0000      -4.021119      -109.4202
  13   1.0000      -4.019668      -109.3807
  14   1.0000      -4.019031      -109.3634
  15   1.0000      -4.019013      -109.3629
  16   1.0000      -4.018159      -109.3397
  17   1.0000      -3.107494       -84.5592
  18   1.0000      -2.255555       -61.3768
  19   1.0000      -2.250645       -61.2432
  20   1.0000      -2.249712       -61.2178
  21   1.0000      -2.247140       -61.1478
  22   1.0000      -2.246950       -61.1426
  23   1.0000      -2.244702       -61.0814
  24   1.0000      -2.244491       -61.0757
  25   1.0000      -2.243984       -61.0619
  26   1.0000      -2.243316       -61.0437
  27   1.0000      -2.243055       -61.0366
  28   1.0000      -2.242560       -61.0232
  29   1.0000      -2.242394       -61.0187
  30   1.0000      -2.241253       -60.9876
  31   1.0000      -2.241212       -60.9865
  32   1.0000      -2.240155       -60.9577
  33   1.0000      -2.240037       -60.9545
  34   1.0000      -2.239591       -60.9424
  35   1.0000      -2.238451       -60.9114
  36   1.0000      -2.237732       -60.8918
  37   1.0000      -2.237330       -60.8809
  38   1.0000      -2.237256       -60.8788
  39   1.0000      -2.236510       -60.8585
  40   1.0000      -2.236192       -60.8499
  41   1.0000      -2.235499       -60.8310
  42   1.0000      -2.234439       -60.8022
  43   1.0000      -2.234103       -60.7930
  44   1.0000      -2.233226       -60.7692
  45   1.0000      -2.232093       -60.7383
  46   1.0000      -2.231611       -60.7252
  47   1.0000      -2.231075       -60.7106
  48   1.0000      -2.230827       -60.7039
  49   1.0000      -2.229982       -60.6809
  50   1.0000      -2.229639       -60.6716
  51   1.0000      -2.228904       -60.6516
  52   1.0000      -2.228552       -60.6420
  53   1.0000      -2.227623       -60.6167
  54   1.0000      -2.012895       -54.7737
  55   1.0000      -2.009512       -54.6816
  56   1.0000      -2.007886       -54.6373
  57   1.0000      -0.421671       -11.4742
  58   1.0000      -0.382803       -10.4166
  59   1.0000      -0.380890       -10.3645
  60   1.0000      -0.376265       -10.2387
  61   1.0000      -0.366800        -9.9811
  62   1.0000      -0.365863        -9.9556
  63   1.0000      -0.362890        -9.8747
  64   1.0000      -0.361232        -9.8296
  65   1.0000      -0.357157        -9.7187
  66   1.0000      -0.350549        -9.5389
  67   1.0000      -0.347793        -9.4639
  68   1.0000      -0.345403        -9.3989
  69   1.0000      -0.343907        -9.3582
  70   1.0000      -0.341679        -9.2976
  71   1.0000      -0.338670        -9.2157
  72   1.0000      -0.336905        -9.1676
  73   1.0000      -0.336037        -9.1440
  74   1.0000      -0.332905        -9.0588
  75   1.0000      -0.332152        -9.0383
  76   1.0000      -0.327803        -8.9200
  77   1.0000      -0.327675        -8.9165
  78   1.0000      -0.324766        -8.8373
  79   1.0000      -0.322712        -8.7814
  80   1.0000      -0.320269        -8.7150
  81   1.0000      -0.317486        -8.6392
  82   1.0000      -0.314977        -8.5710
  83   1.0000      -0.311547        -8.4776
  84   1.0000      -0.308133        -8.3847
  85   1.0000      -0.307653        -8.3717
  86   1.0000      -0.305293        -8.3074
  87   1.0000      -0.300899        -8.1879
  88   1.0000      -0.298771        -8.1300
  89   1.0000      -0.295624        -8.0444
  90   1.0000      -0.294180        -8.0051
  91   1.0000      -0.290952        -7.9172
  92   1.0000      -0.289962        -7.8903
  93   1.0000      -0.284942        -7.7537
  94   1.0000      -0.280799        -7.6409
  95   1.0000      -0.279053        -7.5934
  96   1.0000      -0.276673        -7.5287
  97   1.0000      -0.275074        -7.4852
  98   1.0000      -0.272774        -7.4225
  99   1.0000      -0.272033        -7.4024
 100   1.0000      -0.270227        -7.3533
 101   1.0000      -0.269343        -7.3292
 102   1.0000      -0.268048        -7.2939
 103   1.0000      -0.264516        -7.1979
 104   1.0000      -0.262814        -7.1515
 105   1.0000      -0.262305        -7.1377
 106   1.0000      -0.257984        -7.0201
 107   1.0000      -0.257034        -6.9942
 108   1.0000      -0.256060        -6.9677
 109   1.0000      -0.254840        -6.9345
 110   1.0000      -0.254742        -6.9319
 111   1.0000      -0.253219        -6.8904
 112   1.0000      -0.251087        -6.8324
 113   1.0000      -0.250885        -6.8269
 114   1.0000      -0.250116        -6.8060
 115   1.0000      -0.249476        -6.7886
 116   1.0000      -0.247794        -6.7428
 117   1.0000      -0.246363        -6.7039
 118   1.0000      -0.245925        -6.6920
 119   1.0000      -0.244676        -6.6580
 120   1.0000      -0.244444        -6.6517
 121   1.0000      -0.240401        -6.5416
 122   1.0000      -0.239959        -6.5296
 123   1.0000      -0.239140        -6.5073
 124   1.0000      -0.229796        -6.2531
 125   1.0000      -0.229046        -6.2327
 126   1.0000      -0.206551        -5.6205
 127   1.0000      -0.202624        -5.5137
 128   0.0000      -0.194075        -5.2810
 129   0.0000      -0.162405        -4.4193
 130   0.0000      -0.154256        -4.1975
 131   0.0000      -0.128617        -3.4998
 132   0.0000      -0.122829        -3.3424

                 SPIN DOWN ORBITALS
  NO   OCC          E(Eh)            E(eV)
   0   1.0000    -234.203828     -6373.0102
   1   1.0000     -26.832217      -730.1418
   2   1.0000     -22.997602      -625.7966
   3   1.0000     -22.996293      -625.7610
   4   1.0000     -22.995913      -625.7506
   5   1.0000      -4.038106      -109.8825
   6   1.0000      -4.030368      -109.6719
   7   1.0000      -4.030054      -109.6633
   8   1.0000      -4.028627      -109.6245
   9   1.0000      -4.028281      -109.6151
  10   1.0000      -4.027965      -109.6065
  11   1.0000      -4.027728      -109.6001
  12   1.0000      -4.022103      -109.4470
  13   1.0000      -4.020044      -109.3910
  14   1.0000      -4.019151      -109.3667
  15   1.0000      -4.019073      -109.3645
  16   1.0000      -4.018388      -109.3459
  17   1.0000      -2.945835       -80.1602
  18   1.0000      -2.254810       -61.3565
  19   1.0000      -2.249770       -61.2194
  20   1.0000      -2.249194       -61.2037
  21   1.0000      -2.247146       -61.1479
  22   1.0000      -2.247074       -61.1460
  23   1.0000      -2.244556       -61.0775
  24   1.0000      -2.244307       -61.0707
  25   1.0000      -2.244068       -61.0642
  26   1.0000      -2.243296       -61.0432
  27   1.0000      -2.242957       -61.0340
  28   1.0000      -2.242479       -61.0210
  29   1.0000      -2.242357       -61.0176
  30   1.0000      -2.241485       -60.9939
  31   1.0000      -2.241164       -60.9852
  32   1.0000      -2.240358       -60.9632
  33   1.0000      -2.240214       -60.9593
  34   1.0000      -2.239690       -60.9451
  35   1.0000      -2.238470       -60.9119
  36   1.0000      -2.238125       -60.9025
  37   1.0000      -2.237862       -60.8953
  38   1.0000      -2.237786       -60.8933
  39   1.0000      -2.237049       -60.8732
  40   1.0000      -2.236854       -60.8679
  41   1.0000      -2.234474       -60.8031
  42   1.0000      -2.234268       -60.7975
  43   1.0000      -2.233824       -60.7854
  44   1.0000      -2.233282       -60.7707
  45   1.0000      -2.233045       -60.7643
  46   1.0000      -2.232790       -60.7573
  47   1.0000      -2.232068       -60.7377
  48   1.0000      -2.231461       -60.7211
  49   1.0000      -2.230507       -60.6952
  50   1.0000      -2.230417       -60.6927
  51   1.0000      -2.229754       -60.6747
  52   1.0000      -2.228234       -60.6333
  53   1.0000      -2.227309       -60.6082
  54   1.0000      -1.853585       -50.4386
  55   1.0000      -1.851561       -50.3835
  56   1.0000      -1.848940       -50.3122
  57   1.0000      -0.416943       -11.3456
  58   1.0000      -0.381206       -10.3731
  59   1.0000      -0.378018       -10.2864
  60   1.0000      -0.375678       -10.2227
  61   1.0000      -0.363094        -9.8803
  62   1.0000      -0.362675        -9.8689
  63   1.0000      -0.362080        -9.8527
  64   1.0000      -0.357746        -9.7348
  65   1.0000      -0.356467        -9.7000
  66   1.0000      -0.349374        -9.5070
  67   1.0000      -0.346708        -9.4344
  68   1.0000      -0.345772        -9.4089
  69   1.0000      -0.344101        -9.3635
  70   1.0000      -0.342227        -9.3125
  71   1.0000      -0.338529        -9.2118
  72   1.0000      -0.337791        -9.1918
  73   1.0000      -0.334549        -9.1035
  74   1.0000      -0.332165        -9.0387
  75   1.0000      -0.331930        -9.0323
  76   1.0000      -0.326506        -8.8847
  77   1.0000      -0.324889        -8.8407
  78   1.0000      -0.323035        -8.7902
  79   1.0000      -0.322122        -8.7654
  80   1.0000      -0.319106        -8.6833
  81   1.0000      -0.316629        -8.6159
  82   1.0000      -0.311416        -8.4741
  83   1.0000      -0.308950        -8.4070
  84   1.0000      -0.306397        -8.3375
  85   1.0000      -0.302608        -8.2344
  86   1.0000      -0.300154        -8.1676
  87   1.0000      -0.298631        -8.1262
  88   1.0000      -0.297312        -8.0903
  89   1.0000      -0.293424        -7.9845
  90   1.0000      -0.292570        -7.9612
  91   1.0000      -0.288794        -7.8585
  92   1.0000      -0.286894        -7.8068
  93   1.0000      -0.283069        -7.7027
  94   1.0000      -0.277729        -7.5574
  95   1.0000      -0.276724        -7.5300
  96   1.0000      -0.275588        -7.4991
  97   1.0000      -0.274234        -7.4623
  98   1.0000      -0.273061        -7.4304
  99   1.0000      -0.272585        -7.4174
 100   1.0000      -0.270075        -7.3491
 101   1.0000      -0.269226        -7.3260
 102   1.0000      -0.268608        -7.3092
 103   1.0000      -0.265174        -7.2157
 104   1.0000      -0.262802        -7.1512
 105   1.0000      -0.262106        -7.1323
 106   1.0000      -0.258202        -7.0260
 107   1.0000      -0.257842        -7.0162
 108   1.0000      -0.256865        -6.9897
 109   1.0000      -0.255373        -6.9491
 110   1.0000      -0.253288        -6.8923
 111   1.0000      -0.252723        -6.8770
 112   1.0000      -0.252412        -6.8685
 113   1.0000      -0.250647        -6.8204
 114   1.0000      -0.249568        -6.7911
 115   1.0000      -0.248333        -6.7575
 116   1.0000      -0.245158        -6.6711
 117   1.0000      -0.242052        -6.5866
 118   1.0000      -0.241455        -6.5703
 119   1.0000      -0.235248        -6.4014
 120   1.0000      -0.232093        -6.3156
 121   1.0000      -0.218058        -5.9337
 122   1.0000      -0.210841        -5.7373
 123   1.0000      -0.208434        -5.6718
 124   1.0000      -0.178437        -4.8555
 125   0.0000      -0.158630        -4.3165
 126   0.0000      -0.138638        -3.7725
 127   0.0000      -0.136886        -3.7249
 128   0.0000      -0.129728        -3.5301
 129   0.0000      -0.127093        -3.4584

MULLIKEN ATOMIC CHARGES AND SPIN POPULATIONS
--------------------------------------------
   0 Au:    0.086852    0.026100
   1 Au:    0.194710   -0.125987
   2 Au:   -0.190817   -0.033032
   3 Au:    0.148977   -0.173621
   4 Au:    0.198260   -0.117940
   5 Au:    0.192972   -0.121808
   6 Au:    0.123491   -0.186440
   7 Au:    0.126600   -0.193601
   8 Au:    0.238116    0.047839
   9 Au:    0.172463   -0.156268
  10 Au:    0.179901   -0.168474
  11 Au:    0.227586    0.056233
  12 Mn:   -1.699111    4.146998
Sum of atomic charges         :   -0.0000000

LOEWDIN ATOMIC CHARGES AND SPIN POPULATIONS
-------------------------------------------
   0 Au:   -0.004992   -0.028027
   1 Au:    0.022950   -0.124432
   2 Au:   -0.020684   -0.035600
   3 Au:    0.017111   -0.141530
   4 Au:    0.050338   -0.093399
   5 Au:    0.046341   -0.092640
   6 Au:    0.055380   -0.160278
   7 Au:    0.051461   -0.156971
   8 Au:    0.061612    0.014026
   9 Au:    0.020070   -0.139990
  10 Au:    0.020537   -0.142412
  11 Au:    0.056915    0.022091
  12 Mn:   -0.377039    4.079163

  Mayer bond orders larger than 0.100000
B(  0-Au,  1-Au) :   0.3280 B(  0-Au,  2-Au) :   0.4127 B(  0-Au,  6-Au) :   0.1470
B(  0-Au,  7-Au) :   0.1464 B(  0-Au,  9-Au) :   0.3415 B(  0-Au, 12-Mn) :   0.1554
B(  1-Au,  2-Au) :   0.2942 B(  1-Au,  3-Au) :   0.3102 B(  1-Au,  7-Au) :   0.2533
B(  1-Au, 12-Mn) :   0.1460 B(  2-Au,  4-Au) :   0.3415 B(  2-Au,  5-Au) :   0.3335
B(  2-Au,  9-Au) :   0.2837 B(  2-Au, 12-Mn) :   0.3453 B(  3-Au,  4-Au) :   0.2387
B(  3-Au,  7-Au) :   0.2176 B(  3-Au,  8-Au) :   0.2574 B(  3-Au, 12-Mn) :   0.4492
B(  4-Au,  5-Au) :   0.2153 B(  4-Au,  8-Au) :   0.1935 B(  4-Au, 12-Mn) :   0.4753
B(  5-Au, 10-Au) :   0.2424 B(  5-Au, 11-Au) :   0.1854 B(  5-Au, 12-Mn) :   0.4780
B(  6-Au,  7-Au) :   0.2755 B(  6-Au,  9-Au) :   0.2499 B(  6-Au, 10-Au) :   0.2143
B(  6-Au, 12-Mn) :   0.5449 B(  7-Au, 12-Mn) :   0.5376 B(  8-Au, 11-Au) :   0.3058
B(  8-Au, 12-Mn) :   0.4712 B(  9-Au, 10-Au) :   0.3040 B(  9-Au, 12-Mn) :   0.1663
B( 10-Au, 11-Au) :   0.2527 B( 10-Au, 12-Mn) :   0.4354 B( 11-Au, 12-Mn) :   0.4898

FINAL SINGLE POINT ENERGY     -2780.675709708652

DIPOLE MOMENT
-------------
                                X             Y             Z
Electronic contribution:     -1.53895      -8.53211      29.27625
Nuclear contribution   :      1.51912       8.44168     -29.25852
                        -----------------------------------------
Total Dipole Moment    :     -0.01983      -0.09043       0.01773
                        -----------------------------------------
Magnitude (a.u.)       :      0.09426
Magnitude (Debye)      :      0.23959

Rotational constants in cm-1:     0.001478     0.001380     0.001033
Rotational constants in MHz :    44.305732    41.361868    30.974659

                             ****ORCA TERMINATED NORMALLY****
TOTAL RUN TIME: 0 days 0 hours 4 minutes 19 seconds 192 msec
