                         Program Version 5.0.3 -  RELEASE  -
|  1> !R2SCAN def2-TZVP VERYSLOWCONV
|  2> !KDIIS
|  3> %scf
|  4>   AutoTRAHIter 200
|  5>   maxiter 400
|  6> end
|  7>
|  8> %pal nprocs 6 end
|  9>
| 10> *xyzfile 0 6 pbe.xyz
| 11>
| 12> $new_job
| 13>
| 14> !R2SCAN def2-TZVP VERYSLOWCONV
| 15> !KDIIS
| 16> %scf
| 17>   AutoTRAHIter 200
| 18>   maxiter 400
| 19> end
| 20>
| 21>
| 22> %pal nprocs 6 end
| 23>
| 24> *xyzfile 0 4 pbe.xyz
| 25>
| 26>
| 27>
| 28>
| 29>
| 30>                          ****END OF INPUT****
 Total Charge           Charge          ....    0
 Multiplicity           Mult            ....    6
 Number of Electrons    NEL             ....  253
FINAL SINGLE POINT ENERGY     -2781.149514602152

CARTESIAN COORDINATES (ANGSTROEM)
---------------------------------
  Au     7.417110    9.258081   11.010102
  Au     9.609528    7.826416   10.099715
  Au     6.890647    6.887966    9.812046
  Au     9.910898    7.518022    7.398954
  Au     7.879064    5.601272    7.585409
  Au     5.258956    6.269961    7.672617
  Au     6.363091   10.608970    8.504176
  Au     8.927729    9.988193    8.490614
  Au     8.259902    7.075855    5.213766
  Au     4.832975    8.916559   10.096035
  Au     4.333225    8.888456    7.409754
  Au     5.596092    7.692673    5.247413
  Mn     7.148356    8.276394    7.407525

 Multiplicity           Mult            ....    4
 Number of Electrons    NEL             ....  253
 Basis Dimension        Dim             ....  525

ORBITAL ENERGIES
----------------
                 SPIN UP ORBITALS
  NO   OCC          E(Eh)            E(eV)
   0   1.0000    -235.048333     -6395.9903
   1   1.0000     -27.226054      -740.8586
   2   1.0000     -23.274001      -633.3178
   3   1.0000     -23.272446      -633.2754
   4   1.0000     -23.271883      -633.2601
   5   1.0000      -4.130436      -112.3949
   6   1.0000      -4.121688      -112.1568
   7   1.0000      -4.121352      -112.1477
   8   1.0000      -4.120303      -112.1192
   9   1.0000      -4.119941      -112.1093
  10   1.0000      -4.118517      -112.0705
  11   1.0000      -4.118211      -112.0622
  12   1.0000      -4.111576      -111.8817
  13   1.0000      -4.110561      -111.8541
  14   1.0000      -4.109964      -111.8378
  15   1.0000      -4.109357      -111.8213
  16   1.0000      -4.108521      -111.7985
  17   1.0000      -3.248411       -88.3937
  18   1.0000      -2.319992       -63.1302
  19   1.0000      -2.315364       -63.0043
  20   1.0000      -2.314049       -62.9685
  21   1.0000      -2.311504       -62.8992
  22   1.0000      -2.311361       -62.8953
  23   1.0000      -2.308884       -62.8279
  24   1.0000      -2.308723       -62.8236
  25   1.0000      -2.307881       -62.8006
  26   1.0000      -2.307833       -62.7993
  27   1.0000      -2.307601       -62.7930
  28   1.0000      -2.306365       -62.7594
  29   1.0000      -2.306130       -62.7530
  30   1.0000      -2.305364       -62.7321
  31   1.0000      -2.305282       -62.7299
  32   1.0000      -2.304111       -62.6980
  33   1.0000      -2.303959       -62.6939
  34   1.0000      -2.303547       -62.6827
  35   1.0000      -2.302912       -62.6654
  36   1.0000      -2.301986       -62.6402
  37   1.0000      -2.301134       -62.6170
  38   1.0000      -2.300986       -62.6130
  39   1.0000      -2.299873       -62.5827
  40   1.0000      -2.299476       -62.5719
  41   1.0000      -2.299253       -62.5659
  42   1.0000      -2.297990       -62.5315
  43   1.0000      -2.297619       -62.5214
  44   1.0000      -2.296238       -62.4838
  45   1.0000      -2.295028       -62.4509
  46   1.0000      -2.294734       -62.4429
  47   1.0000      -2.294383       -62.4333
  48   1.0000      -2.293973       -62.4222
  49   1.0000      -2.293169       -62.4003
  50   1.0000      -2.292922       -62.3936
  51   1.0000      -2.292252       -62.3753
  52   1.0000      -2.292178       -62.3733
  53   1.0000      -2.291336       -62.3504
  54   1.0000      -2.107591       -57.3505
  55   1.0000      -2.103972       -57.2520
  56   1.0000      -2.103223       -57.2316
  57   1.0000      -0.427499       -11.6328
  58   1.0000      -0.392649       -10.6845
  59   1.0000      -0.387802       -10.5526
  60   1.0000      -0.383533       -10.4365
  61   1.0000      -0.377641       -10.2761
  62   1.0000      -0.377531       -10.2731
  63   1.0000      -0.373152       -10.1540
  64   1.0000      -0.370193       -10.0735
  65   1.0000      -0.366867        -9.9830
  66   1.0000      -0.360700        -9.8152
  67   1.0000      -0.358260        -9.7487
  68   1.0000      -0.355290        -9.6679
  69   1.0000      -0.353952        -9.6315
  70   1.0000      -0.350999        -9.5512
  71   1.0000      -0.348753        -9.4901
  72   1.0000      -0.346314        -9.4237
  73   1.0000      -0.345470        -9.4007
  74   1.0000      -0.343034        -9.3344
  75   1.0000      -0.342353        -9.3159
  76   1.0000      -0.338658        -9.2153
  77   1.0000      -0.337689        -9.1890
  78   1.0000      -0.334799        -9.1104
  79   1.0000      -0.332935        -9.0596
  80   1.0000      -0.330089        -8.9822
  81   1.0000      -0.327029        -8.8989
  82   1.0000      -0.325879        -8.8676
  83   1.0000      -0.322744        -8.7823
  84   1.0000      -0.318184        -8.6582
  85   1.0000      -0.317235        -8.6324
  86   1.0000      -0.316608        -8.6153
  87   1.0000      -0.311105        -8.4656
  88   1.0000      -0.308071        -8.3830
  89   1.0000      -0.305408        -8.3106
  90   1.0000      -0.304377        -8.2825
  91   1.0000      -0.301988        -8.2175
  92   1.0000      -0.299702        -8.1553
  93   1.0000      -0.294545        -8.0150
  94   1.0000      -0.291589        -7.9345
  95   1.0000      -0.288865        -7.8604
  96   1.0000      -0.285772        -7.7762
  97   1.0000      -0.283996        -7.7279
  98   1.0000      -0.281518        -7.6605
  99   1.0000      -0.281266        -7.6536
 100   1.0000      -0.278938        -7.5903
 101   1.0000      -0.278053        -7.5662
 102   1.0000      -0.276279        -7.5179
 103   1.0000      -0.274247        -7.4626
 104   1.0000      -0.272664        -7.4196
 105   1.0000      -0.271531        -7.3887
 106   1.0000      -0.270973        -7.3735
 107   1.0000      -0.267269        -7.2728
 108   1.0000      -0.266266        -7.2455
 109   1.0000      -0.264952        -7.2097
 110   1.0000      -0.263305        -7.1649
 111   1.0000      -0.263066        -7.1584
 112   1.0000      -0.260959        -7.1010
 113   1.0000      -0.259584        -7.0636
 114   1.0000      -0.258896        -7.0449
 115   1.0000      -0.258204        -7.0261
 116   1.0000      -0.257699        -7.0123
 117   1.0000      -0.257101        -6.9961
 118   1.0000      -0.254837        -6.9345
 119   1.0000      -0.254294        -6.9197
 120   1.0000      -0.253828        -6.9070
 121   1.0000      -0.250096        -6.8055
 122   1.0000      -0.246819        -6.7163
 123   1.0000      -0.245543        -6.6816
 124   1.0000      -0.236484        -6.4351
 125   1.0000      -0.232786        -6.3344
 126   1.0000      -0.209373        -5.6973
 127   1.0000      -0.204407        -5.5622
 128   0.0000      -0.193168        -5.2564
 129   0.0000      -0.158926        -4.3246
 130   0.0000      -0.151227        -4.1151
 131   0.0000      -0.124113        -3.3773
 132   0.0000      -0.118651        -3.2287

                 SPIN DOWN ORBITALS
  NO   OCC          E(Eh)            E(eV)
   0   1.0000    -235.047327     -6395.9629
   1   1.0000     -27.137745      -738.4556
   2   1.0000     -23.205786      -631.4615
   3   1.0000     -23.204807      -631.4349
   4   1.0000     -23.204539      -631.4276
   5   1.0000      -4.129724      -112.3755
   6   1.0000      -4.121835      -112.1608
   7   1.0000      -4.121529      -112.1525
   8   1.0000      -4.120583      -112.1268
   9   1.0000      -4.120191      -112.1161
  10   1.0000      -4.119041      -112.0848
  11   1.0000      -4.118777      -112.0776
  12   1.0000      -4.112612      -111.9099
  13   1.0000      -4.110718      -111.8583
  14   1.0000      -4.109973      -111.8380
  15   1.0000      -4.109811      -111.8336
  16   1.0000      -4.109325      -111.8204
  17   1.0000      -3.037350       -82.6505
  18   1.0000      -2.319084       -63.1055
  19   1.0000      -2.314061       -62.9688
  20   1.0000      -2.313771       -62.9609
  21   1.0000      -2.311682       -62.9041
  22   1.0000      -2.311344       -62.8949
  23   1.0000      -2.308784       -62.8252
  24   1.0000      -2.308451       -62.8161
  25   1.0000      -2.308035       -62.8048
  26   1.0000      -2.307687       -62.7954
  27   1.0000      -2.307185       -62.7817
  28   1.0000      -2.306490       -62.7628
  29   1.0000      -2.306313       -62.7580
  30   1.0000      -2.305610       -62.7388
  31   1.0000      -2.305279       -62.7298
  32   1.0000      -2.304373       -62.7052
  33   1.0000      -2.304268       -62.7023
  34   1.0000      -2.303788       -62.6893
  35   1.0000      -2.303039       -62.6689
  36   1.0000      -2.302156       -62.6449
  37   1.0000      -2.301743       -62.6336
  38   1.0000      -2.301618       -62.6302
  39   1.0000      -2.300766       -62.6070
  40   1.0000      -2.300326       -62.5950
  41   1.0000      -2.297943       -62.5302
  42   1.0000      -2.297532       -62.5190
  43   1.0000      -2.297233       -62.5109
  44   1.0000      -2.296782       -62.4986
  45   1.0000      -2.296523       -62.4916
  46   1.0000      -2.296069       -62.4792
  47   1.0000      -2.295733       -62.4701
  48   1.0000      -2.294886       -62.4470
  49   1.0000      -2.293939       -62.4213
  50   1.0000      -2.293690       -62.4145
  51   1.0000      -2.293168       -62.4003
  52   1.0000      -2.291934       -62.3667
  53   1.0000      -2.291023       -62.3419
  54   1.0000      -1.896645       -51.6103
  55   1.0000      -1.895376       -51.5758
  56   1.0000      -1.893289       -51.5190
  57   1.0000      -0.423463       -11.5230
  58   1.0000      -0.389054       -10.5867
  59   1.0000      -0.385583       -10.4922
  60   1.0000      -0.382535       -10.4093
  61   1.0000      -0.372845       -10.1456
  62   1.0000      -0.372396       -10.1334
  63   1.0000      -0.370329       -10.0772
  64   1.0000      -0.367180        -9.9915
  65   1.0000      -0.366058        -9.9609
  66   1.0000      -0.358577        -9.7574
  67   1.0000      -0.356351        -9.6968
  68   1.0000      -0.355455        -9.6724
  69   1.0000      -0.353942        -9.6313
  70   1.0000      -0.351721        -9.5708
  71   1.0000      -0.348059        -9.4712
  72   1.0000      -0.347455        -9.4547
  73   1.0000      -0.344700        -9.3798
  74   1.0000      -0.341838        -9.3019
  75   1.0000      -0.341419        -9.2905
  76   1.0000      -0.336125        -9.1464
  77   1.0000      -0.334903        -9.1132
  78   1.0000      -0.332831        -9.0568
  79   1.0000      -0.331509        -9.0208
  80   1.0000      -0.328503        -8.9390
  81   1.0000      -0.325934        -8.8691
  82   1.0000      -0.320838        -8.7304
  83   1.0000      -0.318468        -8.6659
  84   1.0000      -0.315741        -8.5917
  85   1.0000      -0.311574        -8.4784
  86   1.0000      -0.309108        -8.4112
  87   1.0000      -0.307732        -8.3738
  88   1.0000      -0.306229        -8.3329
  89   1.0000      -0.302308        -8.2262
  90   1.0000      -0.301762        -8.2114
  91   1.0000      -0.297772        -8.1028
  92   1.0000      -0.295953        -8.0533
  93   1.0000      -0.291956        -7.9445
  94   1.0000      -0.286697        -7.8014
  95   1.0000      -0.285504        -7.7690
  96   1.0000      -0.284340        -7.7373
  97   1.0000      -0.282981        -7.7003
  98   1.0000      -0.281863        -7.6699
  99   1.0000      -0.281284        -7.6541
 100   1.0000      -0.278647        -7.5824
 101   1.0000      -0.277762        -7.5583
 102   1.0000      -0.276918        -7.5353
 103   1.0000      -0.273417        -7.4400
 104   1.0000      -0.271376        -7.3845
 105   1.0000      -0.270695        -7.3660
 106   1.0000      -0.266491        -7.2516
 107   1.0000      -0.266120        -7.2415
 108   1.0000      -0.265102        -7.2138
 109   1.0000      -0.263726        -7.1763
 110   1.0000      -0.261303        -7.1104
 111   1.0000      -0.261166        -7.1067
 112   1.0000      -0.260496        -7.0885
 113   1.0000      -0.258506        -7.0343
 114   1.0000      -0.256684        -6.9847
 115   1.0000      -0.255861        -6.9623
 116   1.0000      -0.252581        -6.8731
 117   1.0000      -0.248995        -6.7755
 118   1.0000      -0.248507        -6.7622
 119   1.0000      -0.240884        -6.5548
 120   1.0000      -0.238776        -6.4974
 121   1.0000      -0.220246        -5.9932
 122   1.0000      -0.212762        -5.7895
 123   1.0000      -0.211617        -5.7584
 124   1.0000      -0.178285        -4.8514
 125   0.0000      -0.154853        -4.2138
 126   0.0000      -0.132157        -3.5962
 127   0.0000      -0.129189        -3.5154
 128   0.0000      -0.114071        -3.1040
 129   0.0000      -0.112765        -3.0685

MULLIKEN ATOMIC CHARGES AND SPIN POPULATIONS
--------------------------------------------
   0 Au:    0.068613    0.043211
   1 Au:    0.170973   -0.152611
   2 Au:   -0.158294   -0.028313
   3 Au:    0.140901   -0.204480
   4 Au:    0.179563   -0.138866
   5 Au:    0.175053   -0.142973
   6 Au:    0.112171   -0.215514
   7 Au:    0.116173   -0.222689
   8 Au:    0.203827    0.051257
   9 Au:    0.151772   -0.185147
  10 Au:    0.169786   -0.199780
  11 Au:    0.192615    0.059042
  12 Mn:   -1.523153    4.336863
Sum of atomic charges         :    0.0000000

LOEWDIN ATOMIC CHARGES AND SPIN POPULATIONS
-------------------------------------------
   0 Au:   -0.008852   -0.023822
   1 Au:    0.018908   -0.142229
   2 Au:   -0.024593   -0.042809
   3 Au:    0.011136   -0.161124
   4 Au:    0.045307   -0.106942
   5 Au:    0.041348   -0.106595
   6 Au:    0.048495   -0.186666
   7 Au:    0.044683   -0.182809
   8 Au:    0.051528    0.008687
   9 Au:    0.015976   -0.158709
  10 Au:    0.014536   -0.162523
  11 Au:    0.046664    0.016367
  12 Mn:   -0.305136    4.249176

  Mayer bond orders larger than 0.100000
B(  0-Au,  1-Au) :   0.3166 B(  0-Au,  2-Au) :   0.4099 B(  0-Au,  6-Au) :   0.1211
B(  0-Au,  7-Au) :   0.1201 B(  0-Au,  9-Au) :   0.3310 B(  0-Au, 12-Mn) :   0.1410
B(  1-Au,  2-Au) :   0.2799 B(  1-Au,  3-Au) :   0.2909 B(  1-Au,  7-Au) :   0.2338
B(  1-Au, 12-Mn) :   0.1323 B(  2-Au,  4-Au) :   0.3417 B(  2-Au,  5-Au) :   0.3312
B(  2-Au,  9-Au) :   0.2669 B(  2-Au, 12-Mn) :   0.3205 B(  3-Au,  4-Au) :   0.2202
B(  3-Au,  7-Au) :   0.2110 B(  3-Au,  8-Au) :   0.2460 B(  3-Au, 12-Mn) :   0.4295
B(  4-Au,  5-Au) :   0.1999 B(  4-Au,  8-Au) :   0.1765 B(  4-Au, 12-Mn) :   0.4543
B(  5-Au, 10-Au) :   0.2237 B(  5-Au, 11-Au) :   0.1684 B(  5-Au, 12-Mn) :   0.4566
B(  6-Au,  7-Au) :   0.2531 B(  6-Au,  9-Au) :   0.2297 B(  6-Au, 10-Au) :   0.2077
B(  6-Au, 12-Mn) :   0.5335 B(  7-Au, 12-Mn) :   0.5259 B(  8-Au, 11-Au) :   0.2993
B(  8-Au, 12-Mn) :   0.4613 B(  9-Au, 10-Au) :   0.2822 B(  9-Au, 12-Mn) :   0.1513
B( 10-Au, 11-Au) :   0.2418 B( 10-Au, 12-Mn) :   0.4158 B( 11-Au, 12-Mn) :   0.4795

FINAL SINGLE POINT ENERGY     -2781.128991322297

DIPOLE MOMENT
-------------
                                X             Y             Z
Electronic contribution:     -1.53839      -8.53078      29.27036
Nuclear contribution   :      1.51912       8.44168     -29.25852
                        -----------------------------------------
Total Dipole Moment    :     -0.01927      -0.08911       0.01184
                        -----------------------------------------
Magnitude (a.u.)       :      0.09193
Magnitude (Debye)      :      0.23367

Rotational constants in cm-1:     0.001478     0.001380     0.001033
Rotational constants in MHz :    44.305732    41.361868    30.974659

                             ****ORCA TERMINATED NORMALLY****
TOTAL RUN TIME: 0 days 0 hours 7 minutes 49 seconds 234 msec
