                         Program Version 5.0.3 -  RELEASE  -
|  1> !SC-NEVPT2 def2-TZVP def2-TZVP/C
|  2> !MOREAD RIJCOSX def2/J
|  3> %maxcore 4000
|  4> %moinp "casscf.gbw"
|  5> %pal nprocs 6 end
|  6>
|  7> %casscf
|  8>  mult 6,4
|  9>  bweight 1,1
| 10>  nroots 1,24
| 11>  nel 5
| 12>  norb 5
| 13>  ptsettings
| 14>   d4tpre 1e-14 # default = 1e-10
| 15>   d3tpre 1e-14
| 16>  end
| 17>  rel
| 18>    dosoc true
| 19>    gtensor true
| 20>  end
| 21> end
| 22>
| 23>
| 24> *xyzfile 0 6 pbe.xyz
| 25>
| 26>
| 27>                          ****END OF INPUT****

CARTESIAN COORDINATES (ANGSTROEM)
---------------------------------
  Au     9.999113    9.213203    9.693395
  Au     9.112231    9.340542    5.895819
  Au     7.937514    5.951040   10.223289
  Au     5.285767    9.422539    8.797638
  Au     5.380812    6.974239   10.214465
  Au     7.411910    8.823627   10.439638
  Au     7.944600   10.425135    8.207311
  Au    10.489542    6.523246    9.467348
  Au     8.911483    4.914423    7.798995
  Au     6.111525    4.882478    8.455595
  Au     4.712821    7.068535    7.345973
  Au     6.455320    8.953650    6.348186
  Au     9.608310    6.648537    5.709457
  Au     6.976726    6.080958    6.126237
  Mn     8.429976    7.674876    8.002825

 Total Charge           Charge          ....    0
 Multiplicity           Mult            ....    6
 Number of Electrons    NEL             ....  291
 Basis Dimension        Dim             ....  605

ORBITAL ENERGIES
----------------

  NO   OCC          E(Eh)            E(eV)
   0   2.0000    -240.568378     -6546.1984
   1   2.0000     -29.141506      -792.9807
   2   2.0000     -24.847011      -676.1215
   3   2.0000     -24.846377      -676.1043
   4   2.0000     -24.846161      -676.0984
   5   2.0000      -4.723567      -128.5348
   6   2.0000      -4.723259      -128.5264
   7   2.0000      -4.722733      -128.5121
   8   2.0000      -4.722641      -128.5096
   9   2.0000      -4.713959      -128.2733
  10   2.0000      -4.713632      -128.2645
  11   2.0000      -4.713088      -128.2496
  12   2.0000      -4.713062      -128.2489
  13   2.0000      -4.712828      -128.2426
  14   2.0000      -4.712808      -128.2420
  15   2.0000      -4.710143      -128.1695
  16   2.0000      -4.710020      -128.1662
  17   2.0000      -4.706612      -128.0734
  18   2.0000      -4.705624      -128.0465
  19   2.0000      -3.846504      -104.6687
  20   2.0000      -2.762268       -75.1651
  21   2.0000      -2.761944       -75.1563
  22   2.0000      -2.761473       -75.1435
  23   2.0000      -2.761222       -75.1367
  24   2.0000      -2.760557       -75.1186
  25   2.0000      -2.760342       -75.1127
  26   2.0000      -2.759745       -75.0965
  27   2.0000      -2.759653       -75.0940
  28   2.0000      -2.759364       -75.0861
  29   2.0000      -2.759222       -75.0822
  30   2.0000      -2.756424       -75.0061
  31   2.0000      -2.756323       -75.0034
  32   2.0000      -2.751734       -74.8785
  33   2.0000      -2.751651       -74.8762
  34   2.0000      -2.751572       -74.8741
  35   2.0000      -2.751522       -74.8727
  36   2.0000      -2.750595       -74.8475
  37   2.0000      -2.750375       -74.8415
  38   2.0000      -2.749526       -74.8184
  39   2.0000      -2.749376       -74.8143
  40   2.0000      -2.747812       -74.7718
  41   2.0000      -2.747740       -74.7698
  42   2.0000      -2.747507       -74.7635
  43   2.0000      -2.747337       -74.7588
  44   2.0000      -2.746974       -74.7490
  45   2.0000      -2.746830       -74.7451
  46   2.0000      -2.746398       -74.7333
  47   2.0000      -2.746244       -74.7291
  48   2.0000      -2.746213       -74.7283
  49   2.0000      -2.745676       -74.7137
  50   2.0000      -2.745410       -74.7064
  51   2.0000      -2.745364       -74.7051
  52   2.0000      -2.745106       -74.6981
  53   2.0000      -2.743857       -74.6642
  54   2.0000      -2.743300       -74.6490
  55   2.0000      -2.743074       -74.6428
  56   2.0000      -2.742095       -74.6162
  57   2.0000      -2.741406       -74.5974
  58   2.0000      -2.741183       -74.5914
  59   2.0000      -2.740843       -74.5821
  60   2.0000      -2.740642       -74.5767
  61   2.0000      -2.739774       -74.5531
  62   2.0000      -2.515085       -68.4389
  63   2.0000      -2.514781       -68.4307
  64   2.0000      -2.514544       -68.4242
  65   2.0000      -0.573768       -15.6130
  66   2.0000      -0.556178       -15.1344
  67   2.0000      -0.555599       -15.1186
  68   2.0000      -0.554121       -15.0784
  69   2.0000      -0.552805       -15.0426
  70   2.0000      -0.552159       -15.0250
  71   2.0000      -0.547775       -14.9057
  72   2.0000      -0.547061       -14.8863
  73   2.0000      -0.546872       -14.8812
  74   2.0000      -0.546262       -14.8645
  75   2.0000      -0.544658       -14.8209
  76   2.0000      -0.542850       -14.7717
  77   2.0000      -0.541409       -14.7325
  78   2.0000      -0.537457       -14.6249
  79   2.0000      -0.533236       -14.5101
  80   2.0000      -0.532793       -14.4980
  81   2.0000      -0.530214       -14.4279
  82   2.0000      -0.529432       -14.4066
  83   2.0000      -0.525215       -14.2918
  84   2.0000      -0.519195       -14.1280
  85   2.0000      -0.517495       -14.0817
  86   2.0000      -0.515542       -14.0286
  87   2.0000      -0.514315       -13.9952
  88   2.0000      -0.513816       -13.9816
  89   2.0000      -0.513425       -13.9710
  90   2.0000      -0.509951       -13.8765
  91   2.0000      -0.508794       -13.8450
  92   2.0000      -0.506484       -13.7821
  93   2.0000      -0.506097       -13.7716
  94   2.0000      -0.496983       -13.5236
  95   2.0000      -0.495586       -13.4856
  96   2.0000      -0.493816       -13.4374
  97   2.0000      -0.489227       -13.3125
  98   2.0000      -0.486448       -13.2369
  99   2.0000      -0.483553       -13.1581
 100   2.0000      -0.482905       -13.1405
 101   2.0000      -0.477567       -12.9953
 102   2.0000      -0.477239       -12.9863
 103   2.0000      -0.472055       -12.8453
 104   2.0000      -0.470842       -12.8123
 105   2.0000      -0.466749       -12.7009
 106   2.0000      -0.464454       -12.6384
 107   2.0000      -0.461093       -12.5470
 108   2.0000      -0.460704       -12.5364
 109   2.0000      -0.456128       -12.4119
 110   2.0000      -0.454351       -12.3635
 111   2.0000      -0.453731       -12.3466
 112   2.0000      -0.452496       -12.3130
 113   2.0000      -0.448845       -12.2137
 114   2.0000      -0.448584       -12.2066
 115   2.0000      -0.448219       -12.1966
 116   2.0000      -0.442003       -12.0275
 117   2.0000      -0.440160       -11.9774
 118   2.0000      -0.439386       -11.9563
 119   2.0000      -0.439057       -11.9473
 120   2.0000      -0.433666       -11.8007
 121   2.0000      -0.432090       -11.7578
 122   2.0000      -0.432016       -11.7557
 123   2.0000      -0.429347       -11.6831
 124   2.0000      -0.428519       -11.6606
 125   2.0000      -0.428469       -11.6592
 126   2.0000      -0.421819       -11.4783
 127   2.0000      -0.420922       -11.4539
 128   2.0000      -0.419707       -11.4208
 129   2.0000      -0.419170       -11.4062
 130   2.0000      -0.417937       -11.3727
 131   2.0000      -0.409284       -11.1372
 132   2.0000      -0.407945       -11.1007
 133   2.0000      -0.405446       -11.0328
 134   2.0000      -0.402754       -10.9595
 135   2.0000      -0.388586       -10.5740
 136   2.0000      -0.368759       -10.0344
 137   2.0000      -0.357021        -9.7150
 138   2.0000      -0.354868        -9.6565
 139   2.0000      -0.255847        -6.9620
 140   2.0000      -0.244228        -6.6458
 141   2.0000      -0.235262        -6.4018
 142   2.0000      -0.224011        -6.0957
 143   1.0000      -0.160383        -4.3642
 144   1.0000      -0.161693        -4.3999
 145   1.0000      -0.167304        -4.5526
 146   1.0000      -0.166121        -4.5204
 147   1.0000      -0.162745        -4.4285
 148   0.0000      -0.056337        -1.5330
 149   0.0000      -0.017443        -0.4747
 150   0.0000      -0.002277        -0.0619
 151   0.0000      -0.001483        -0.0403
 152   0.0000       0.006027         0.1640

MULLIKEN ATOMIC CHARGES AND SPIN DENSITIES
------------------------------------------
   0 Au:    0.264500    0.008573
   1 Au:    0.264789    0.008589
   2 Au:   -0.003198    0.007956
   3 Au:    0.072191    0.003927
   4 Au:    0.136196    0.004569
   5 Au:   -0.000203    0.007685
   6 Au:    0.122579    0.008105
   7 Au:    0.269332    0.008491
   8 Au:    0.114004    0.007950
   9 Au:    0.069910    0.003915
  10 Au:    0.130898    0.004579
  11 Au:    0.002048    0.007709
  12 Au:    0.267837    0.008531
  13 Au:    0.003440    0.007884
  14 Mn:   -1.714322    3.901536
Sum of atomic charges       :    0.0000000

LOEWDIN ATOMIC CHARGES AND SPIN DENSITIES
-----------------------------------------
   0 Au:    0.083337    0.011595
   1 Au:    0.083741    0.011604
   2 Au:   -0.038568    0.011065
   3 Au:   -0.002373    0.005436
   4 Au:    0.028176    0.005086
   5 Au:   -0.039819    0.010691
   6 Au:   -0.043176    0.011316
   7 Au:    0.083655    0.011463
   8 Au:   -0.044800    0.011084
   9 Au:   -0.001466    0.005435
  10 Au:    0.025680    0.005102
  11 Au:   -0.039087    0.010735
  12 Au:    0.083044    0.011511
  13 Au:   -0.037498    0.010980
  14 Mn:   -0.140848    3.866897

  Mayer bond orders larger than 0.100000
B(  0-Au,  5-Au) :   0.3165 B(  0-Au,  6-Au) :   0.1587 B(  0-Au,  7-Au) :   0.2030
B(  0-Au, 14-Mn) :   0.3999 B(  1-Au,  6-Au) :   0.1602 B(  1-Au, 11-Au) :   0.3146
B(  1-Au, 12-Au) :   0.2026 B(  1-Au, 14-Mn) :   0.4003 B(  2-Au,  4-Au) :   0.3747
B(  2-Au,  5-Au) :   0.1001 B(  2-Au,  7-Au) :   0.3173 B(  2-Au,  8-Au) :   0.2050
B(  2-Au,  9-Au) :   0.2919 B(  2-Au, 14-Mn) :   0.3637 B(  3-Au,  4-Au) :   0.1781
B(  3-Au,  5-Au) :   0.2914 B(  3-Au,  6-Au) :   0.2486 B(  3-Au, 10-Au) :   0.1806
B(  3-Au, 11-Au) :   0.2902 B(  3-Au, 14-Mn) :   0.1639 B(  4-Au,  5-Au) :   0.3650
B(  4-Au,  9-Au) :   0.1757 B(  5-Au,  6-Au) :   0.2125 B(  5-Au, 14-Mn) :   0.3577
B(  6-Au, 11-Au) :   0.2112 B(  6-Au, 14-Mn) :   0.3692 B(  7-Au,  8-Au) :   0.1620
B(  7-Au, 14-Mn) :   0.3957 B(  8-Au,  9-Au) :   0.2603 B(  8-Au, 12-Au) :   0.1623
B(  8-Au, 13-Au) :   0.2042 B(  8-Au, 14-Mn) :   0.3673 B(  9-Au, 10-Au) :   0.1780
B(  9-Au, 13-Au) :   0.2899 B(  9-Au, 14-Mn) :   0.1709 B( 10-Au, 11-Au) :   0.3666
B( 10-Au, 13-Au) :   0.3728 B( 11-Au, 14-Mn) :   0.3588 B( 12-Au, 13-Au) :   0.3147
B( 12-Au, 14-Mn) :   0.3976 B( 13-Au, 14-Mn) :   0.3618

FINAL SINGLE POINT ENERGY     -3044.142762509869

DIPOLE MOMENT
-------------
                                X             Y             Z
Electronic contribution:    -30.03629      -5.73779       6.90201
Nuclear contribution   :     30.45745       5.80395      -6.99722
                        -----------------------------------------
Total Dipole Moment    :      0.42116       0.06616      -0.09521
                        -----------------------------------------
Magnitude (a.u.)       :      0.43682
Magnitude (Debye)      :      1.11032

Rotational constants in cm-1:     0.001075     0.001035     0.000971
Rotational constants in MHz :    32.223867    31.017240    29.114727

                             ****ORCA TERMINATED NORMALLY****
TOTAL RUN TIME: 0 days 2 hours 11 minutes 54 seconds 529 msec
