                         Program Version 5.0.3 -  RELEASE  -
|  1> !RI-B2PLYP def2-TZVP def2-TZVP/C
|  2> !RIJCOSX VERYSLOWCONV
|  3>
|  4> %scf
|  5>   AutoTRAHIter 200
|  6>   maxiter 400
|  7> end
|  8>
|  9>
| 10> %pal nprocs 6 end
| 11>
| 12> *xyzfile 0 5 pbe.xyz
| 13>
| 14> $new_job
| 15>
| 16> !RI-B2PLYP def2-TZVP def2-TZVP/C
| 17> !RIJCOSX VERYSLOWCONV
| 18>
| 19> %scf
| 20>   AutoTRAHIter 200
| 21>   maxiter 400
| 22> end
| 23>
| 24>
| 25> %pal nprocs 6 end
| 26>
| 27> *xyzfile 0 3 pbe.xyz
| 28>
| 29>
| 30>
| 31>
| 32>
| 33>                          ****END OF INPUT****
 Total Charge           Charge          ....    0
 Multiplicity           Mult            ....    5
 Number of Electrons    NEL             ....  290
MP2 TOTAL ENERGY:    -2942.518042089 Eh
FINAL SINGLE POINT ENERGY     -2942.518042088873

CARTESIAN COORDINATES (ANGSTROEM)
---------------------------------
  Au     5.579424    7.471784   11.125606
  Au     9.502226    8.071671    5.793329
  Au     7.731477    4.698717    7.294677
  Au     4.883658    7.032808    8.502997
  Au     9.511052    9.497135    8.255395
  Au     9.368312    6.732360    8.225067
  Au     7.295367    5.866263    9.728241
  Au     7.084494    8.686610    9.187964
  Au     5.782392    8.962818    4.692164
  Au     7.172694    9.936223    6.732737
  Au     4.451290    6.769169    5.936810
  Au     7.801553    7.129650    3.976831
  Au     5.097980    6.671246    3.231487
  Au     6.441347    4.908036    4.987801
  Cr     7.038181    7.230568    6.645528

 Multiplicity           Mult            ....    3
 Number of Electrons    NEL             ....  290
 Basis Dimension        Dim             ....  605

ORBITAL ENERGIES
----------------
                 SPIN UP ORBITALS
  NO   OCC          E(Eh)            E(eV)
   0   1.0000    -217.766350     -5925.7236
   1   1.0000     -25.453079      -692.6135
   2   1.0000     -21.592859      -587.5716
   3   1.0000     -21.592083      -587.5505
   4   1.0000     -21.586313      -587.3934
   5   1.0000      -4.406760      -119.9140
   6   1.0000      -4.405149      -119.8702
   7   1.0000      -4.400343      -119.7394
   8   1.0000      -4.400098      -119.7328
   9   1.0000      -4.398413      -119.6869
  10   1.0000      -4.395622      -119.6109
  11   1.0000      -4.394294      -119.5748
  12   1.0000      -4.393703      -119.5587
  13   1.0000      -4.393472      -119.5525
  14   1.0000      -4.393074      -119.5416
  15   1.0000      -4.391590      -119.5012
  16   1.0000      -4.390880      -119.4819
  17   1.0000      -4.387379      -119.3867
  18   1.0000      -4.386022      -119.3497
  19   1.0000      -3.240768       -88.1858
  20   1.0000      -2.529002       -68.8176
  21   1.0000      -2.525471       -68.7216
  22   1.0000      -2.525445       -68.7208
  23   1.0000      -2.523768       -68.6752
  24   1.0000      -2.523237       -68.6608
  25   1.0000      -2.522002       -68.6272
  26   1.0000      -2.520147       -68.5767
  27   1.0000      -2.518808       -68.5403
  28   1.0000      -2.517951       -68.5169
  29   1.0000      -2.517610       -68.5077
  30   1.0000      -2.517491       -68.5044
  31   1.0000      -2.516958       -68.4899
  32   1.0000      -2.516723       -68.4835
  33   1.0000      -2.515421       -68.4481
  34   1.0000      -2.515373       -68.4468
  35   1.0000      -2.515026       -68.4373
  36   1.0000      -2.514711       -68.4288
  37   1.0000      -2.514470       -68.4222
  38   1.0000      -2.513462       -68.3948
  39   1.0000      -2.512459       -68.3675
  40   1.0000      -2.512312       -68.3635
  41   1.0000      -2.511619       -68.3446
  42   1.0000      -2.511148       -68.3318
  43   1.0000      -2.510999       -68.3278
  44   1.0000      -2.510546       -68.3154
  45   1.0000      -2.509545       -68.2882
  46   1.0000      -2.509367       -68.2834
  47   1.0000      -2.508773       -68.2672
  48   1.0000      -2.508463       -68.2587
  49   1.0000      -2.508266       -68.2534
  50   1.0000      -2.508028       -68.2469
  51   1.0000      -2.506423       -68.2032
  52   1.0000      -2.505932       -68.1899
  53   1.0000      -2.505565       -68.1799
  54   1.0000      -2.505341       -68.1738
  55   1.0000      -2.504750       -68.1577
  56   1.0000      -2.504660       -68.1553
  57   1.0000      -2.503986       -68.1369
  58   1.0000      -2.503238       -68.1166
  59   1.0000      -2.501199       -68.0611
  60   1.0000      -2.500593       -68.0446
  61   1.0000      -2.500371       -68.0386
  62   1.0000      -2.132634       -58.0319
  63   1.0000      -2.121840       -57.7382
  64   1.0000      -2.120909       -57.7129
  65   1.0000      -0.491624       -13.3778
  66   1.0000      -0.482243       -13.1225
  67   1.0000      -0.479719       -13.0538
  68   1.0000      -0.473166       -12.8755
  69   1.0000      -0.472569       -12.8592
  70   1.0000      -0.467182       -12.7127
  71   1.0000      -0.464234       -12.6324
  72   1.0000      -0.460982       -12.5440
  73   1.0000      -0.456312       -12.4169
  74   1.0000      -0.454142       -12.3578
  75   1.0000      -0.451824       -12.2947
  76   1.0000      -0.450121       -12.2484
  77   1.0000      -0.446773       -12.1573
  78   1.0000      -0.445577       -12.1248
  79   1.0000      -0.444208       -12.0875
  80   1.0000      -0.441758       -12.0208
  81   1.0000      -0.441545       -12.0151
  82   1.0000      -0.440288       -11.9808
  83   1.0000      -0.437887       -11.9155
  84   1.0000      -0.434621       -11.8266
  85   1.0000      -0.432801       -11.7771
  86   1.0000      -0.430382       -11.7113
  87   1.0000      -0.428189       -11.6516
  88   1.0000      -0.426848       -11.6151
  89   1.0000      -0.424424       -11.5492
  90   1.0000      -0.420583       -11.4446
  91   1.0000      -0.416901       -11.3445
  92   1.0000      -0.410397       -11.1675
  93   1.0000      -0.408625       -11.1193
  94   1.0000      -0.408234       -11.1086
  95   1.0000      -0.406706       -11.0670
  96   1.0000      -0.403350       -10.9757
  97   1.0000      -0.401491       -10.9251
  98   1.0000      -0.399183       -10.8623
  99   1.0000      -0.396707       -10.7950
 100   1.0000      -0.395075       -10.7505
 101   1.0000      -0.392864       -10.6904
 102   1.0000      -0.390652       -10.6302
 103   1.0000      -0.389338       -10.5944
 104   1.0000      -0.386739       -10.5237
 105   1.0000      -0.385238       -10.4828
 106   1.0000      -0.385190       -10.4815
 107   1.0000      -0.380596       -10.3565
 108   1.0000      -0.377762       -10.2794
 109   1.0000      -0.376133       -10.2351
 110   1.0000      -0.375319       -10.2129
 111   1.0000      -0.374063       -10.1788
 112   1.0000      -0.372976       -10.1492
 113   1.0000      -0.370623       -10.0852
 114   1.0000      -0.368199       -10.0192
 115   1.0000      -0.366939        -9.9849
 116   1.0000      -0.363718        -9.8973
 117   1.0000      -0.362789        -9.8720
 118   1.0000      -0.361631        -9.8405
 119   1.0000      -0.360545        -9.8109
 120   1.0000      -0.359561        -9.7842
 121   1.0000      -0.356645        -9.7048
 122   1.0000      -0.354676        -9.6512
 123   1.0000      -0.354319        -9.6415
 124   1.0000      -0.353395        -9.6164
 125   1.0000      -0.351480        -9.5643
 126   1.0000      -0.350685        -9.5426
 127   1.0000      -0.348408        -9.4807
 128   1.0000      -0.346653        -9.4329
 129   1.0000      -0.344448        -9.3729
 130   1.0000      -0.340929        -9.2772
 131   1.0000      -0.336854        -9.1663
 132   1.0000      -0.335946        -9.1416
 133   1.0000      -0.332880        -9.0581
 134   1.0000      -0.330724        -8.9995
 135   1.0000      -0.330285        -8.9875
 136   1.0000      -0.327995        -8.9252
 137   1.0000      -0.326813        -8.8930
 138   1.0000      -0.318743        -8.6734
 139   1.0000      -0.315165        -8.5761
 140   1.0000      -0.313659        -8.5351
 141   1.0000      -0.308681        -8.3996
 142   1.0000      -0.288592        -7.8530
 143   1.0000      -0.244014        -6.6400
 144   1.0000      -0.237212        -6.4549
 145   1.0000      -0.234716        -6.3870
 146   0.0000      -0.132365        -3.6018
 147   0.0000      -0.092200        -2.5089
 148   0.0000      -0.082659        -2.2493
 149   0.0000      -0.071193        -1.9372
 150   0.0000      -0.065886        -1.7928

                 SPIN DOWN ORBITALS
  NO   OCC          E(Eh)            E(eV)
   0   1.0000    -217.765073     -5925.6889
   1   1.0000     -25.382748      -690.6997
   2   1.0000     -21.534020      -585.9705
   3   1.0000     -21.531097      -585.8909
   4   1.0000     -21.511223      -585.3501
   5   1.0000      -4.406780      -119.9146
   6   1.0000      -4.405263      -119.8733
   7   1.0000      -4.401406      -119.7683
   8   1.0000      -4.400543      -119.7449
   9   1.0000      -4.399359      -119.7126
  10   1.0000      -4.396034      -119.6222
  11   1.0000      -4.395255      -119.6010
  12   1.0000      -4.394746      -119.5871
  13   1.0000      -4.393669      -119.5578
  14   1.0000      -4.393293      -119.5476
  15   1.0000      -4.392155      -119.5166
  16   1.0000      -4.391700      -119.5042
  17   1.0000      -4.388013      -119.4039
  18   1.0000      -4.387738      -119.3964
  19   1.0000      -3.026138       -82.3454
  20   1.0000      -2.528783       -68.8117
  21   1.0000      -2.525535       -68.7233
  22   1.0000      -2.524541       -68.6962
  23   1.0000      -2.523901       -68.6788
  24   1.0000      -2.523272       -68.6617
  25   1.0000      -2.522722       -68.6468
  26   1.0000      -2.520383       -68.5831
  27   1.0000      -2.519312       -68.5540
  28   1.0000      -2.518061       -68.5199
  29   1.0000      -2.517708       -68.5103
  30   1.0000      -2.517132       -68.4946
  31   1.0000      -2.517062       -68.4928
  32   1.0000      -2.516287       -68.4717
  33   1.0000      -2.515597       -68.4529
  34   1.0000      -2.515418       -68.4480
  35   1.0000      -2.515208       -68.4423
  36   1.0000      -2.514860       -68.4328
  37   1.0000      -2.514388       -68.4200
  38   1.0000      -2.513818       -68.4045
  39   1.0000      -2.513095       -68.3848
  40   1.0000      -2.512335       -68.3641
  41   1.0000      -2.512156       -68.3592
  42   1.0000      -2.511633       -68.3450
  43   1.0000      -2.511433       -68.3396
  44   1.0000      -2.511119       -68.3310
  45   1.0000      -2.510696       -68.3195
  46   1.0000      -2.509834       -68.2960
  47   1.0000      -2.509333       -68.2824
  48   1.0000      -2.509272       -68.2808
  49   1.0000      -2.508688       -68.2649
  50   1.0000      -2.508062       -68.2478
  51   1.0000      -2.506867       -68.2153
  52   1.0000      -2.506503       -68.2054
  53   1.0000      -2.506307       -68.2001
  54   1.0000      -2.506128       -68.1952
  55   1.0000      -2.505635       -68.1818
  56   1.0000      -2.504946       -68.1631
  57   1.0000      -2.504229       -68.1435
  58   1.0000      -2.503716       -68.1296
  59   1.0000      -2.502372       -68.0930
  60   1.0000      -2.501613       -68.0723
  61   1.0000      -2.501268       -68.0630
  62   1.0000      -1.898039       -51.6483
  63   1.0000      -1.890438       -51.4414
  64   1.0000      -1.846414       -50.2435
  65   1.0000      -0.494739       -13.4625
  66   1.0000      -0.483123       -13.1464
  67   1.0000      -0.476012       -12.9529
  68   1.0000      -0.471572       -12.8321
  69   1.0000      -0.468457       -12.7474
  70   1.0000      -0.463290       -12.6068
  71   1.0000      -0.458593       -12.4790
  72   1.0000      -0.457280       -12.4432
  73   1.0000      -0.454216       -12.3599
  74   1.0000      -0.453965       -12.3530
  75   1.0000      -0.450047       -12.2464
  76   1.0000      -0.447946       -12.1892
  77   1.0000      -0.445745       -12.1294
  78   1.0000      -0.444032       -12.0827
  79   1.0000      -0.443669       -12.0729
  80   1.0000      -0.442822       -12.0498
  81   1.0000      -0.439781       -11.9670
  82   1.0000      -0.437009       -11.8916
  83   1.0000      -0.436473       -11.8770
  84   1.0000      -0.433289       -11.7904
  85   1.0000      -0.431255       -11.7350
  86   1.0000      -0.428849       -11.6696
  87   1.0000      -0.426371       -11.6021
  88   1.0000      -0.423022       -11.5110
  89   1.0000      -0.420114       -11.4319
  90   1.0000      -0.415968       -11.3191
  91   1.0000      -0.414335       -11.2746
  92   1.0000      -0.411027       -11.1846
  93   1.0000      -0.410298       -11.1648
  94   1.0000      -0.407321       -11.0838
  95   1.0000      -0.404088       -10.9958
  96   1.0000      -0.401972       -10.9382
  97   1.0000      -0.398240       -10.8367
  98   1.0000      -0.396265       -10.7829
  99   1.0000      -0.395976       -10.7750
 100   1.0000      -0.393163       -10.6985
 101   1.0000      -0.390633       -10.6297
 102   1.0000      -0.388362       -10.5679
 103   1.0000      -0.386573       -10.5192
 104   1.0000      -0.386222       -10.5096
 105   1.0000      -0.384794       -10.4708
 106   1.0000      -0.379407       -10.3242
 107   1.0000      -0.378730       -10.3058
 108   1.0000      -0.377507       -10.2725
 109   1.0000      -0.376012       -10.2318
 110   1.0000      -0.375329       -10.2132
 111   1.0000      -0.374244       -10.1837
 112   1.0000      -0.372848       -10.1457
 113   1.0000      -0.368828       -10.0363
 114   1.0000      -0.366982        -9.9861
 115   1.0000      -0.364513        -9.9189
 116   1.0000      -0.363491        -9.8911
 117   1.0000      -0.362717        -9.8700
 118   1.0000      -0.359899        -9.7934
 119   1.0000      -0.357602        -9.7308
 120   1.0000      -0.356653        -9.7050
 121   1.0000      -0.355258        -9.6670
 122   1.0000      -0.354416        -9.6441
 123   1.0000      -0.353721        -9.6252
 124   1.0000      -0.351858        -9.5745
 125   1.0000      -0.350370        -9.5340
 126   1.0000      -0.347928        -9.4676
 127   1.0000      -0.344604        -9.3771
 128   1.0000      -0.343424        -9.3450
 129   1.0000      -0.339709        -9.2440
 130   1.0000      -0.338679        -9.2159
 131   1.0000      -0.335881        -9.1398
 132   1.0000      -0.333802        -9.0832
 133   1.0000      -0.331933        -9.0323
 134   1.0000      -0.323479        -8.8023
 135   1.0000      -0.321990        -8.7618
 136   1.0000      -0.319922        -8.7055
 137   1.0000      -0.313528        -8.5315
 138   1.0000      -0.304258        -8.2793
 139   1.0000      -0.260222        -7.0810
 140   1.0000      -0.244599        -6.6559
 141   1.0000      -0.239668        -6.5217
 142   1.0000      -0.232640        -6.3305
 143   1.0000      -0.178359        -4.8534
 144   0.0000      -0.092253        -2.5103
 145   0.0000      -0.074023        -2.0143
 146   0.0000      -0.071268        -1.9393
 147   0.0000      -0.065421        -1.7802
 148   0.0000      -0.059669        -1.6237

MULLIKEN ATOMIC CHARGES AND SPIN POPULATIONS
--------------------------------------------
   0 Au:    0.375267   -0.364679
   1 Au:    0.276707   -0.124591
   2 Au:    0.186088   -0.077970
   3 Au:    0.068156   -0.009002
   4 Au:    0.414515   -0.108074
   5 Au:    0.318914   -0.141281
   6 Au:    0.318116   -0.018147
   7 Au:   -0.169715   -0.052875
   8 Au:    0.301797   -0.143031
   9 Au:    0.325725   -0.114498
  10 Au:    0.135345   -0.063465
  11 Au:    0.175807   -0.120849
  12 Au:    0.356038   -0.000391
  13 Au:    0.327970   -0.338527
  14 Cr:   -3.410729    3.677379
Sum of atomic charges         :   -0.0000000

LOEWDIN ATOMIC CHARGES AND SPIN POPULATIONS
-------------------------------------------
   0 Au:    0.122050   -0.249556
   1 Au:    0.074273   -0.099895
   2 Au:    0.140843   -0.156841
   3 Au:    0.032549   -0.067820
   4 Au:    0.130909   -0.156927
   5 Au:    0.056172   -0.099665
   6 Au:    0.031503   -0.067215
   7 Au:   -0.053864   -0.094502
   8 Au:    0.037703   -0.103946
   9 Au:    0.083922   -0.099783
  10 Au:    0.045099   -0.067537
  11 Au:    0.038716   -0.092648
  12 Au:    0.136832   -0.049137
  13 Au:    0.063939   -0.232231
  14 Cr:   -0.940645    3.637702

  Mayer bond orders larger than 0.100000
B(  0-Au,  3-Au) :   0.3219 B(  0-Au,  6-Au) :   0.3110 B(  0-Au,  7-Au) :   0.3205
B(  1-Au,  4-Au) :   0.2073 B(  1-Au,  5-Au) :   0.1635 B(  1-Au, 11-Au) :   0.3153
B(  1-Au, 14-Cr) :   0.6394 B(  2-Au,  5-Au) :   0.2529 B(  2-Au,  6-Au) :   0.2184
B(  2-Au, 13-Au) :   0.2952 B(  2-Au, 14-Cr) :   0.6050 B(  3-Au,  6-Au) :   0.1261
B(  3-Au,  7-Au) :   0.1996 B(  3-Au, 10-Au) :   0.4886 B(  3-Au, 14-Cr) :   0.5830
B(  4-Au,  5-Au) :   0.2188 B(  4-Au,  7-Au) :   0.2716 B(  4-Au,  9-Au) :   0.1184
B(  4-Au, 14-Cr) :   0.3180 B(  5-Au,  6-Au) :   0.2442 B(  5-Au, 14-Cr) :   0.3501
B(  6-Au,  7-Au) :   0.1928 B(  6-Au, 14-Cr) :   0.2695 B(  7-Au,  9-Au) :   0.2252
B(  7-Au, 14-Cr) :   0.3791 B(  8-Au,  9-Au) :   0.3535 B(  8-Au, 10-Au) :   0.1244
B(  8-Au, 11-Au) :   0.1316 B(  8-Au, 12-Au) :   0.2017 B(  8-Au, 14-Cr) :   0.4248
B(  9-Au, 14-Cr) :   0.5452 B( 10-Au, 12-Au) :   0.2365 B( 10-Au, 13-Au) :   0.1051
B( 10-Au, 14-Cr) :   0.5190 B( 11-Au, 12-Au) :   0.1897 B( 11-Au, 13-Au) :   0.1499
B( 11-Au, 14-Cr) :   0.5111 B( 12-Au, 13-Au) :   0.2076 B( 12-Au, 14-Cr) :   0.2834
B( 13-Au, 14-Cr) :   0.3351

MP2 TOTAL ENERGY:    -2942.483492779 Eh
FINAL SINGLE POINT ENERGY     -2942.483492779268

DIPOLE MOMENT
-------------
                                X             Y             Z
Electronic contribution:     -1.93477       2.88934      11.63910
Nuclear contribution   :      2.09065      -3.03450     -11.65393
                        -----------------------------------------
Total Dipole Moment    :      0.15588      -0.14515      -0.01483
                        -----------------------------------------
Magnitude (a.u.)       :      0.21351
Magnitude (Debye)      :      0.54271

Rotational constants in cm-1:     0.001245     0.000853     0.000762
Rotational constants in MHz :    37.315197    25.579018    22.851191

                             ****ORCA TERMINATED NORMALLY****
TOTAL RUN TIME: 0 days 2 hours 16 minutes 55 seconds 758 msec
