                         Program Version 5.0.3 -  RELEASE  -
|  1> !PBE def2-TZVP VERYSLOWCONV
|  2>
|  3> %scf
|  4>   AutoTRAHIter 200
|  5>   maxiter 400
|  6> end
|  7>
|  8>
|  9> %pal nprocs 6 end
| 10>
| 11> *xyzfile 0 5 pbe.xyz
| 12>
| 13> $new_job
| 14>
| 15> !PBE def2-TZVP VERYSLOWCONV
| 16>
| 17> %scf
| 18>   AutoTRAHIter 200
| 19>   maxiter 400
| 20> end
| 21>
| 22>
| 23> %pal nprocs 6 end
| 24>
| 25> *xyzfile 0 3 pbe.xyz
| 26>
| 27>
| 28>
| 29>
| 30>
| 31>                          ****END OF INPUT****
 Total Charge           Charge          ....    0
 Multiplicity           Mult            ....    5
 Number of Electrons    NEL             ....  290
FINAL SINGLE POINT ENERGY     -2945.830009224915

CARTESIAN COORDINATES (ANGSTROEM)
---------------------------------
  Au     5.579424    7.471784   11.125606
  Au     9.502226    8.071671    5.793329
  Au     7.731477    4.698717    7.294677
  Au     4.883658    7.032808    8.502997
  Au     9.511052    9.497135    8.255395
  Au     9.368312    6.732360    8.225067
  Au     7.295367    5.866263    9.728241
  Au     7.084494    8.686610    9.187964
  Au     5.782392    8.962818    4.692164
  Au     7.172694    9.936223    6.732737
  Au     4.451290    6.769169    5.936810
  Au     7.801553    7.129650    3.976831
  Au     5.097980    6.671246    3.231487
  Au     6.441347    4.908036    4.987801
  Cr     7.038181    7.230568    6.645528

 Multiplicity           Mult            ....    3
 Number of Electrons    NEL             ....  290
 Basis Dimension        Dim             ....  605

ORBITAL ENERGIES
----------------
                 SPIN UP ORBITALS
  NO   OCC          E(Eh)            E(eV)
   0   1.0000    -214.506652     -5837.0228
   1   1.0000     -24.307845      -661.4501
   2   1.0000     -20.674678      -562.5866
   3   1.0000     -20.669715      -562.4515
   4   1.0000     -20.669176      -562.4369
   5   1.0000      -4.033335      -109.7526
   6   1.0000      -4.031606      -109.7056
   7   1.0000      -4.029514      -109.6486
   8   1.0000      -4.026920      -109.5781
   9   1.0000      -4.026798      -109.5747
  10   1.0000      -4.026291      -109.5610
  11   1.0000      -4.025811      -109.5479
  12   1.0000      -4.023319      -109.4801
  13   1.0000      -4.022727      -109.4640
  14   1.0000      -4.022145      -109.4481
  15   1.0000      -4.021836      -109.4397
  16   1.0000      -4.021488      -109.4303
  17   1.0000      -4.020906      -109.4144
  18   1.0000      -4.016910      -109.3057
  19   1.0000      -2.808751       -76.4300
  20   1.0000      -2.251182       -61.2578
  21   1.0000      -2.248071       -61.1731
  22   1.0000      -2.247774       -61.1650
  23   1.0000      -2.247237       -61.1504
  24   1.0000      -2.246434       -61.1286
  25   1.0000      -2.246199       -61.1222
  26   1.0000      -2.244511       -61.0763
  27   1.0000      -2.244047       -61.0636
  28   1.0000      -2.242965       -61.0342
  29   1.0000      -2.242588       -61.0239
  30   1.0000      -2.242105       -61.0108
  31   1.0000      -2.240678       -60.9720
  32   1.0000      -2.240486       -60.9667
  33   1.0000      -2.240351       -60.9631
  34   1.0000      -2.239771       -60.9473
  35   1.0000      -2.239110       -60.9293
  36   1.0000      -2.238897       -60.9235
  37   1.0000      -2.238136       -60.9028
  38   1.0000      -2.238014       -60.8994
  39   1.0000      -2.237696       -60.8908
  40   1.0000      -2.237124       -60.8753
  41   1.0000      -2.236949       -60.8705
  42   1.0000      -2.236696       -60.8636
  43   1.0000      -2.236019       -60.8452
  44   1.0000      -2.235751       -60.8379
  45   1.0000      -2.234989       -60.8171
  46   1.0000      -2.234607       -60.8067
  47   1.0000      -2.234080       -60.7924
  48   1.0000      -2.234061       -60.7919
  49   1.0000      -2.233897       -60.7874
  50   1.0000      -2.233538       -60.7776
  51   1.0000      -2.233391       -60.7737
  52   1.0000      -2.233185       -60.7681
  53   1.0000      -2.232944       -60.7615
  54   1.0000      -2.232698       -60.7548
  55   1.0000      -2.231860       -60.7320
  56   1.0000      -2.231662       -60.7266
  57   1.0000      -2.230803       -60.7032
  58   1.0000      -2.230110       -60.6844
  59   1.0000      -2.229762       -60.6749
  60   1.0000      -2.227662       -60.6178
  61   1.0000      -2.226746       -60.5929
  62   1.0000      -1.802564       -49.0502
  63   1.0000      -1.796292       -48.8796
  64   1.0000      -1.794596       -48.8334
  65   1.0000      -0.420050       -11.4301
  66   1.0000      -0.392284       -10.6746
  67   1.0000      -0.386553       -10.5187
  68   1.0000      -0.382337       -10.4039
  69   1.0000      -0.370651       -10.0859
  70   1.0000      -0.366409        -9.9705
  71   1.0000      -0.361737        -9.8434
  72   1.0000      -0.360332        -9.8051
  73   1.0000      -0.359597        -9.7851
  74   1.0000      -0.350264        -9.5312
  75   1.0000      -0.346585        -9.4311
  76   1.0000      -0.345423        -9.3994
  77   1.0000      -0.344965        -9.3870
  78   1.0000      -0.341632        -9.2963
  79   1.0000      -0.341018        -9.2796
  80   1.0000      -0.339722        -9.2443
  81   1.0000      -0.338155        -9.2017
  82   1.0000      -0.336271        -9.1504
  83   1.0000      -0.335596        -9.1320
  84   1.0000      -0.333559        -9.0766
  85   1.0000      -0.331338        -9.0162
  86   1.0000      -0.328393        -8.9360
  87   1.0000      -0.326867        -8.8945
  88   1.0000      -0.326604        -8.8873
  89   1.0000      -0.324854        -8.8397
  90   1.0000      -0.322072        -8.7640
  91   1.0000      -0.316913        -8.6237
  92   1.0000      -0.312457        -8.5024
  93   1.0000      -0.310708        -8.4548
  94   1.0000      -0.309249        -8.4151
  95   1.0000      -0.305002        -8.2995
  96   1.0000      -0.302311        -8.2263
  97   1.0000      -0.301422        -8.2021
  98   1.0000      -0.299780        -8.1574
  99   1.0000      -0.297187        -8.0869
 100   1.0000      -0.296512        -8.0685
 101   1.0000      -0.291999        -7.9457
 102   1.0000      -0.291172        -7.9232
 103   1.0000      -0.289275        -7.8716
 104   1.0000      -0.287591        -7.8257
 105   1.0000      -0.286732        -7.8024
 106   1.0000      -0.285689        -7.7740
 107   1.0000      -0.282448        -7.6858
 108   1.0000      -0.280200        -7.6246
 109   1.0000      -0.280066        -7.6210
 110   1.0000      -0.277984        -7.5643
 111   1.0000      -0.276629        -7.5274
 112   1.0000      -0.274711        -7.4753
 113   1.0000      -0.273005        -7.4288
 114   1.0000      -0.270176        -7.3519
 115   1.0000      -0.269288        -7.3277
 116   1.0000      -0.268387        -7.3032
 117   1.0000      -0.266534        -7.2528
 118   1.0000      -0.264508        -7.1976
 119   1.0000      -0.264475        -7.1967
 120   1.0000      -0.263526        -7.1709
 121   1.0000      -0.261709        -7.1215
 122   1.0000      -0.260219        -7.0809
 123   1.0000      -0.258964        -7.0468
 124   1.0000      -0.257531        -7.0078
 125   1.0000      -0.256833        -6.9888
 126   1.0000      -0.255697        -6.9579
 127   1.0000      -0.253267        -6.8917
 128   1.0000      -0.251726        -6.8498
 129   1.0000      -0.251362        -6.8399
 130   1.0000      -0.250292        -6.8108
 131   1.0000      -0.248458        -6.7609
 132   1.0000      -0.246795        -6.7156
 133   1.0000      -0.245266        -6.6740
 134   1.0000      -0.242879        -6.6091
 135   1.0000      -0.239126        -6.5069
 136   1.0000      -0.237142        -6.4529
 137   1.0000      -0.234349        -6.3770
 138   1.0000      -0.230443        -6.2707
 139   1.0000      -0.229194        -6.2367
 140   1.0000      -0.224459        -6.1078
 141   1.0000      -0.223200        -6.0736
 142   1.0000      -0.218406        -5.9431
 143   1.0000      -0.214376        -5.8335
 144   1.0000      -0.201728        -5.4893
 145   1.0000      -0.198763        -5.4086
 146   0.0000      -0.188603        -5.1321
 147   0.0000      -0.174770        -4.7557
 148   0.0000      -0.155102        -4.2205
 149   0.0000      -0.147569        -4.0156
 150   0.0000      -0.134599        -3.6626

                 SPIN DOWN ORBITALS
  NO   OCC          E(Eh)            E(eV)
   0   1.0000    -214.506252     -5837.0119
   1   1.0000     -24.262306      -660.2109
   2   1.0000     -20.642538      -561.7120
   3   1.0000     -20.634012      -561.4800
   4   1.0000     -20.632652      -561.4430
   5   1.0000      -4.033191      -109.7487
   6   1.0000      -4.031241      -109.6957
   7   1.0000      -4.030205      -109.6675
   8   1.0000      -4.027159      -109.5846
   9   1.0000      -4.026585      -109.5689
  10   1.0000      -4.026456      -109.5655
  11   1.0000      -4.025720      -109.5454
  12   1.0000      -4.023617      -109.4882
  13   1.0000      -4.023224      -109.4775
  14   1.0000      -4.022463      -109.4568
  15   1.0000      -4.021822      -109.4393
  16   1.0000      -4.021736      -109.4370
  17   1.0000      -4.021610      -109.4336
  18   1.0000      -4.017732      -109.3281
  19   1.0000      -2.686281       -73.0974
  20   1.0000      -2.251205       -61.2584
  21   1.0000      -2.249053       -61.1998
  22   1.0000      -2.248004       -61.1713
  23   1.0000      -2.246742       -61.1370
  24   1.0000      -2.246694       -61.1357
  25   1.0000      -2.245614       -61.1063
  26   1.0000      -2.244678       -61.0808
  27   1.0000      -2.244299       -61.0705
  28   1.0000      -2.242939       -61.0335
  29   1.0000      -2.242650       -61.0256
  30   1.0000      -2.242250       -61.0147
  31   1.0000      -2.240770       -60.9745
  32   1.0000      -2.240286       -60.9613
  33   1.0000      -2.240250       -60.9603
  34   1.0000      -2.239661       -60.9443
  35   1.0000      -2.239614       -60.9430
  36   1.0000      -2.238942       -60.9247
  37   1.0000      -2.238454       -60.9114
  38   1.0000      -2.238286       -60.9069
  39   1.0000      -2.238042       -60.9002
  40   1.0000      -2.237269       -60.8792
  41   1.0000      -2.236968       -60.8710
  42   1.0000      -2.236845       -60.8676
  43   1.0000      -2.235992       -60.8444
  44   1.0000      -2.235861       -60.8409
  45   1.0000      -2.235429       -60.8291
  46   1.0000      -2.235264       -60.8246
  47   1.0000      -2.235110       -60.8204
  48   1.0000      -2.234266       -60.7975
  49   1.0000      -2.234146       -60.7942
  50   1.0000      -2.233855       -60.7863
  51   1.0000      -2.233712       -60.7824
  52   1.0000      -2.233595       -60.7792
  53   1.0000      -2.233068       -60.7649
  54   1.0000      -2.232870       -60.7595
  55   1.0000      -2.232393       -60.7465
  56   1.0000      -2.231999       -60.7358
  57   1.0000      -2.231144       -60.7125
  58   1.0000      -2.230198       -60.6868
  59   1.0000      -2.230096       -60.6840
  60   1.0000      -2.228439       -60.6389
  61   1.0000      -2.227636       -60.6171
  62   1.0000      -1.690583       -46.0031
  63   1.0000      -1.672033       -45.4983
  64   1.0000      -1.668881       -45.4126
  65   1.0000      -0.417993       -11.3742
  66   1.0000      -0.392051       -10.6682
  67   1.0000      -0.387251       -10.5376
  68   1.0000      -0.382631       -10.4119
  69   1.0000      -0.367943       -10.0122
  70   1.0000      -0.366141        -9.9632
  71   1.0000      -0.360256        -9.8031
  72   1.0000      -0.359761        -9.7896
  73   1.0000      -0.359018        -9.7694
  74   1.0000      -0.351364        -9.5611
  75   1.0000      -0.347025        -9.4430
  76   1.0000      -0.345441        -9.3999
  77   1.0000      -0.343337        -9.3427
  78   1.0000      -0.341572        -9.2947
  79   1.0000      -0.340876        -9.2757
  80   1.0000      -0.339091        -9.2271
  81   1.0000      -0.338820        -9.2198
  82   1.0000      -0.336817        -9.1652
  83   1.0000      -0.334072        -9.0906
  84   1.0000      -0.333101        -9.0641
  85   1.0000      -0.331218        -9.0129
  86   1.0000      -0.328966        -8.9516
  87   1.0000      -0.326653        -8.8887
  88   1.0000      -0.323472        -8.8021
  89   1.0000      -0.322572        -8.7776
  90   1.0000      -0.318978        -8.6798
  91   1.0000      -0.316824        -8.6212
  92   1.0000      -0.312975        -8.5165
  93   1.0000      -0.311785        -8.4841
  94   1.0000      -0.309979        -8.4349
  95   1.0000      -0.306020        -8.3272
  96   1.0000      -0.302219        -8.2238
  97   1.0000      -0.300438        -8.1753
  98   1.0000      -0.299844        -8.1592
  99   1.0000      -0.298148        -8.1130
 100   1.0000      -0.295783        -8.0487
 101   1.0000      -0.292626        -7.9628
 102   1.0000      -0.290619        -7.9081
 103   1.0000      -0.289117        -7.8673
 104   1.0000      -0.287579        -7.8254
 105   1.0000      -0.287019        -7.8102
 106   1.0000      -0.286484        -7.7956
 107   1.0000      -0.283099        -7.7035
 108   1.0000      -0.281028        -7.6472
 109   1.0000      -0.280083        -7.6215
 110   1.0000      -0.278315        -7.5733
 111   1.0000      -0.276918        -7.5353
 112   1.0000      -0.275951        -7.5090
 113   1.0000      -0.274279        -7.4635
 114   1.0000      -0.271167        -7.3788
 115   1.0000      -0.269888        -7.3440
 116   1.0000      -0.269421        -7.3313
 117   1.0000      -0.267329        -7.2744
 118   1.0000      -0.265960        -7.2371
 119   1.0000      -0.264977        -7.2104
 120   1.0000      -0.264353        -7.1934
 121   1.0000      -0.262334        -7.1385
 122   1.0000      -0.261176        -7.1070
 123   1.0000      -0.259732        -7.0677
 124   1.0000      -0.258731        -7.0404
 125   1.0000      -0.257492        -7.0067
 126   1.0000      -0.255702        -6.9580
 127   1.0000      -0.254210        -6.9174
 128   1.0000      -0.252778        -6.8784
 129   1.0000      -0.252191        -6.8625
 130   1.0000      -0.251236        -6.8365
 131   1.0000      -0.249164        -6.7801
 132   1.0000      -0.248061        -6.7501
 133   1.0000      -0.246415        -6.7053
 134   1.0000      -0.244077        -6.6417
 135   1.0000      -0.240493        -6.5441
 136   1.0000      -0.238540        -6.4910
 137   1.0000      -0.235238        -6.4012
 138   1.0000      -0.230258        -6.2656
 139   1.0000      -0.226494        -6.1632
 140   1.0000      -0.221047        -6.0150
 141   1.0000      -0.212375        -5.7790
 142   1.0000      -0.204974        -5.5776
 143   1.0000      -0.168169        -4.5761
 144   0.0000      -0.156979        -4.2716
 145   0.0000      -0.137986        -3.7548
 146   0.0000      -0.135837        -3.6963
 147   0.0000      -0.128316        -3.4916
 148   0.0000      -0.124276        -3.3817

MULLIKEN ATOMIC CHARGES AND SPIN POPULATIONS
--------------------------------------------
   0 Au:    0.417214   -0.247365
   1 Au:    0.297400   -0.123054
   2 Au:    0.209405   -0.043247
   3 Au:    0.075255   -0.049576
   4 Au:    0.419795   -0.098494
   5 Au:    0.301730   -0.058272
   6 Au:    0.309862   -0.045767
   7 Au:   -0.102844   -0.090912
   8 Au:    0.303062   -0.126326
   9 Au:    0.311000   -0.079083
  10 Au:    0.138305   -0.028999
  11 Au:    0.205029   -0.069844
  12 Au:    0.389327    0.017609
  13 Au:    0.308317   -0.177857
  14 Cr:   -3.582858    3.221187
Sum of atomic charges         :   -0.0000000

LOEWDIN ATOMIC CHARGES AND SPIN POPULATIONS
-------------------------------------------
   0 Au:    0.109787   -0.212957
   1 Au:    0.106811   -0.094162
   2 Au:    0.154779   -0.070215
   3 Au:    0.061444   -0.070716
   4 Au:    0.108601   -0.128124
   5 Au:    0.071365   -0.063360
   6 Au:    0.031865   -0.071738
   7 Au:   -0.042141   -0.077130
   8 Au:    0.074193   -0.104010
   9 Au:    0.115717   -0.083971
  10 Au:    0.069913   -0.034980
  11 Au:    0.061887   -0.058378
  12 Au:    0.103316   -0.022277
  13 Au:    0.066088   -0.127889
  14 Cr:   -1.093625    3.219906

  Mayer bond orders larger than 0.100000
B(  0-Au,  3-Au) :   0.3537 B(  0-Au,  6-Au) :   0.3672 B(  0-Au,  7-Au) :   0.3878
B(  1-Au,  4-Au) :   0.2293 B(  1-Au,  5-Au) :   0.1836 B(  1-Au, 11-Au) :   0.3480
B(  1-Au, 14-Cr) :   0.6899 B(  2-Au,  5-Au) :   0.2421 B(  2-Au,  6-Au) :   0.2536
B(  2-Au, 13-Au) :   0.3648 B(  2-Au, 14-Cr) :   0.6351 B(  3-Au,  6-Au) :   0.1426
B(  3-Au,  7-Au) :   0.2012 B(  3-Au, 10-Au) :   0.5347 B(  3-Au, 14-Cr) :   0.5861
B(  4-Au,  5-Au) :   0.2523 B(  4-Au,  7-Au) :   0.3142 B(  4-Au,  9-Au) :   0.1833
B(  4-Au, 14-Cr) :   0.2929 B(  5-Au,  6-Au) :   0.2995 B(  5-Au,  7-Au) :   0.1216
B(  5-Au, 14-Cr) :   0.4154 B(  6-Au,  7-Au) :   0.1962 B(  6-Au, 14-Cr) :   0.2648
B(  7-Au,  9-Au) :   0.2096 B(  7-Au, 14-Cr) :   0.3940 B(  8-Au,  9-Au) :   0.3556
B(  8-Au, 10-Au) :   0.1546 B(  8-Au, 11-Au) :   0.1944 B(  8-Au, 12-Au) :   0.2504
B(  8-Au, 14-Cr) :   0.4917 B(  9-Au, 14-Cr) :   0.6583 B( 10-Au, 12-Au) :   0.2702
B( 10-Au, 13-Au) :   0.1489 B( 10-Au, 14-Cr) :   0.5305 B( 11-Au, 12-Au) :   0.2137
B( 11-Au, 13-Au) :   0.1892 B( 11-Au, 14-Cr) :   0.5042 B( 12-Au, 13-Au) :   0.2375
B( 12-Au, 14-Cr) :   0.2222 B( 13-Au, 14-Cr) :   0.4547

FINAL SINGLE POINT ENERGY     -2945.810288940335

DIPOLE MOMENT
-------------
                                X             Y             Z
Electronic contribution:     -1.94222       3.06184      11.52998
Nuclear contribution   :      2.09065      -3.03450     -11.65393
                        -----------------------------------------
Total Dipole Moment    :      0.14843       0.02734      -0.12395
                        -----------------------------------------
Magnitude (a.u.)       :      0.19530
Magnitude (Debye)      :      0.49642

Rotational constants in cm-1:     0.001245     0.000853     0.000762
Rotational constants in MHz :    37.315197    25.579018    22.851191

                             ****ORCA TERMINATED NORMALLY****
TOTAL RUN TIME: 0 days 1 hours 16 minutes 8 seconds 396 msec
