                         Program Version 5.0.3 -  RELEASE  -
|  1> !R2SCAN def2-TZVP VERYSLOWCONV
|  2> !KDIIS
|  3> %scf
|  4>   AutoTRAHIter 200
|  5>   maxiter 400
|  6> end
|  7>
|  8> %pal nprocs 6 end
|  9>
| 10> *xyzfile 0 5 pbe.xyz
| 11>
| 12> $new_job
| 13>
| 14> !R2SCAN def2-TZVP VERYSLOWCONV
| 15> !KDIIS
| 16> %scf
| 17>   AutoTRAHIter 200
| 18>   maxiter 400
| 19> end
| 20>
| 21>
| 22> %pal nprocs 6 end
| 23>
| 24> *xyzfile 0 3 pbe.xyz
| 25>
| 26>
| 27>
| 28>
| 29>
| 30>                          ****END OF INPUT****
 Total Charge           Charge          ....    0
 Multiplicity           Mult            ....    5
 Number of Electrons    NEL             ....  290
FINAL SINGLE POINT ENERGY     -2946.313184192864

CARTESIAN COORDINATES (ANGSTROEM)
---------------------------------
  Au     5.579424    7.471784   11.125606
  Au     9.502226    8.071671    5.793329
  Au     7.731477    4.698717    7.294677
  Au     4.883658    7.032808    8.502997
  Au     9.511052    9.497135    8.255395
  Au     9.368312    6.732360    8.225067
  Au     7.295367    5.866263    9.728241
  Au     7.084494    8.686610    9.187964
  Au     5.782392    8.962818    4.692164
  Au     7.172694    9.936223    6.732737
  Au     4.451290    6.769169    5.936810
  Au     7.801553    7.129650    3.976831
  Au     5.097980    6.671246    3.231487
  Au     6.441347    4.908036    4.987801
  Cr     7.038181    7.230568    6.645528

 Multiplicity           Mult            ....    3
 Number of Electrons    NEL             ....  290
 Basis Dimension        Dim             ....  605

ORBITAL ENERGIES
----------------
                 SPIN UP ORBITALS
  NO   OCC          E(Eh)            E(eV)
   0   1.0000    -215.304862     -5858.7432
   1   1.0000     -24.606372      -669.5734
   2   1.0000     -20.875109      -568.0406
   3   1.0000     -20.871425      -567.9403
   4   1.0000     -20.870780      -567.9228
   5   1.0000      -4.124617      -112.2365
   6   1.0000      -4.122643      -112.1828
   7   1.0000      -4.120143      -112.1148
   8   1.0000      -4.118400      -112.0674
   9   1.0000      -4.116820      -112.0244
  10   1.0000      -4.116717      -112.0216
  11   1.0000      -4.116495      -112.0155
  12   1.0000      -4.113995      -111.9475
  13   1.0000      -4.112997      -111.9203
  14   1.0000      -4.112923      -111.9183
  15   1.0000      -4.112468      -111.9059
  16   1.0000      -4.112052      -111.8946
  17   1.0000      -4.111881      -111.8900
  18   1.0000      -4.107460      -111.7697
  19   1.0000      -2.923913       -79.5637
  20   1.0000      -2.315319       -63.0030
  21   1.0000      -2.311923       -62.9106
  22   1.0000      -2.311200       -62.8909
  23   1.0000      -2.311023       -62.8861
  24   1.0000      -2.309939       -62.8566
  25   1.0000      -2.309358       -62.8408
  26   1.0000      -2.308651       -62.8216
  27   1.0000      -2.307098       -62.7793
  28   1.0000      -2.306844       -62.7724
  29   1.0000      -2.306457       -62.7619
  30   1.0000      -2.305496       -62.7357
  31   1.0000      -2.304190       -62.7002
  32   1.0000      -2.303688       -62.6865
  33   1.0000      -2.303299       -62.6759
  34   1.0000      -2.303172       -62.6725
  35   1.0000      -2.303011       -62.6681
  36   1.0000      -2.302556       -62.6557
  37   1.0000      -2.301738       -62.6335
  38   1.0000      -2.301628       -62.6305
  39   1.0000      -2.301248       -62.6201
  40   1.0000      -2.300872       -62.6099
  41   1.0000      -2.300179       -62.5911
  42   1.0000      -2.299784       -62.5803
  43   1.0000      -2.299403       -62.5699
  44   1.0000      -2.299246       -62.5657
  45   1.0000      -2.298470       -62.5445
  46   1.0000      -2.298425       -62.5433
  47   1.0000      -2.297701       -62.5236
  48   1.0000      -2.297350       -62.5141
  49   1.0000      -2.297221       -62.5106
  50   1.0000      -2.297121       -62.5078
  51   1.0000      -2.296948       -62.5031
  52   1.0000      -2.296412       -62.4886
  53   1.0000      -2.296324       -62.4862
  54   1.0000      -2.296148       -62.4814
  55   1.0000      -2.295646       -62.4677
  56   1.0000      -2.294957       -62.4490
  57   1.0000      -2.294262       -62.4301
  58   1.0000      -2.293810       -62.4177
  59   1.0000      -2.292795       -62.3901
  60   1.0000      -2.290998       -62.3412
  61   1.0000      -2.290084       -62.3164
  62   1.0000      -1.872505       -50.9535
  63   1.0000      -1.869684       -50.8767
  64   1.0000      -1.868565       -50.8462
  65   1.0000      -0.424783       -11.5589
  66   1.0000      -0.397847       -10.8260
  67   1.0000      -0.393239       -10.7006
  68   1.0000      -0.389186       -10.5903
  69   1.0000      -0.379185       -10.3182
  70   1.0000      -0.374751       -10.1975
  71   1.0000      -0.370460       -10.0807
  72   1.0000      -0.368483       -10.0269
  73   1.0000      -0.367941       -10.0122
  74   1.0000      -0.359234        -9.7753
  75   1.0000      -0.355702        -9.6791
  76   1.0000      -0.355071        -9.6620
  77   1.0000      -0.353967        -9.6319
  78   1.0000      -0.350819        -9.5463
  79   1.0000      -0.349959        -9.5229
  80   1.0000      -0.348143        -9.4734
  81   1.0000      -0.347246        -9.4490
  82   1.0000      -0.345101        -9.3907
  83   1.0000      -0.344897        -9.3851
  84   1.0000      -0.342915        -9.3312
  85   1.0000      -0.339916        -9.2496
  86   1.0000      -0.337076        -9.1723
  87   1.0000      -0.335676        -9.1342
  88   1.0000      -0.335386        -9.1263
  89   1.0000      -0.333544        -9.0762
  90   1.0000      -0.331123        -9.0103
  91   1.0000      -0.325558        -8.8589
  92   1.0000      -0.320931        -8.7330
  93   1.0000      -0.319275        -8.6879
  94   1.0000      -0.317434        -8.6378
  95   1.0000      -0.313416        -8.5285
  96   1.0000      -0.311213        -8.4685
  97   1.0000      -0.310378        -8.4458
  98   1.0000      -0.308101        -8.3839
  99   1.0000      -0.305642        -8.3169
 100   1.0000      -0.305267        -8.3067
 101   1.0000      -0.300770        -8.1844
 102   1.0000      -0.299722        -8.1559
 103   1.0000      -0.297613        -8.0985
 104   1.0000      -0.296326        -8.0634
 105   1.0000      -0.294678        -8.0186
 106   1.0000      -0.293934        -7.9983
 107   1.0000      -0.290519        -7.9054
 108   1.0000      -0.288891        -7.8611
 109   1.0000      -0.288441        -7.8489
 110   1.0000      -0.286564        -7.7978
 111   1.0000      -0.285160        -7.7596
 112   1.0000      -0.282945        -7.6993
 113   1.0000      -0.280570        -7.6347
 114   1.0000      -0.278597        -7.5810
 115   1.0000      -0.277487        -7.5508
 116   1.0000      -0.276071        -7.5123
 117   1.0000      -0.274713        -7.4753
 118   1.0000      -0.272856        -7.4248
 119   1.0000      -0.272031        -7.4023
 120   1.0000      -0.271088        -7.3767
 121   1.0000      -0.269802        -7.3417
 122   1.0000      -0.267891        -7.2897
 123   1.0000      -0.266883        -7.2623
 124   1.0000      -0.264972        -7.2102
 125   1.0000      -0.264265        -7.1910
 126   1.0000      -0.262988        -7.1563
 127   1.0000      -0.260635        -7.0922
 128   1.0000      -0.259082        -7.0500
 129   1.0000      -0.258685        -7.0392
 130   1.0000      -0.257296        -7.0014
 131   1.0000      -0.255136        -6.9426
 132   1.0000      -0.253799        -6.9062
 133   1.0000      -0.251834        -6.8528
 134   1.0000      -0.249267        -6.7829
 135   1.0000      -0.245540        -6.6815
 136   1.0000      -0.242950        -6.6110
 137   1.0000      -0.242323        -6.5939
 138   1.0000      -0.240584        -6.5466
 139   1.0000      -0.235639        -6.4121
 140   1.0000      -0.233734        -6.3602
 141   1.0000      -0.229370        -6.2415
 142   1.0000      -0.221059        -6.0153
 143   1.0000      -0.218659        -5.9500
 144   1.0000      -0.209576        -5.7029
 145   1.0000      -0.206292        -5.6135
 146   0.0000      -0.187725        -5.1083
 147   0.0000      -0.173399        -4.7184
 148   0.0000      -0.150811        -4.1038
 149   0.0000      -0.143729        -3.9111
 150   0.0000      -0.130321        -3.5462

                 SPIN DOWN ORBITALS
  NO   OCC          E(Eh)            E(eV)
   0   1.0000    -215.304283     -5858.7274
   1   1.0000     -24.544543      -667.8910
   2   1.0000     -20.830596      -566.8293
   3   1.0000     -20.823110      -566.6256
   4   1.0000     -20.820835      -566.5637
   5   1.0000      -4.124558      -112.2349
   6   1.0000      -4.122339      -112.1746
   7   1.0000      -4.121215      -112.1440
   8   1.0000      -4.118707      -112.0757
   9   1.0000      -4.116852      -112.0252
  10   1.0000      -4.116791      -112.0236
  11   1.0000      -4.116683      -112.0206
  12   1.0000      -4.114456      -111.9600
  13   1.0000      -4.113740      -111.9406
  14   1.0000      -4.113594      -111.9366
  15   1.0000      -4.113178      -111.9253
  16   1.0000      -4.112589      -111.9092
  17   1.0000      -4.111931      -111.8913
  18   1.0000      -4.108688      -111.8031
  19   1.0000      -2.763357       -75.1948
  20   1.0000      -2.315220       -63.0003
  21   1.0000      -2.312817       -62.9350
  22   1.0000      -2.311706       -62.9047
  23   1.0000      -2.310768       -62.8792
  24   1.0000      -2.309672       -62.8494
  25   1.0000      -2.309393       -62.8418
  26   1.0000      -2.308745       -62.8241
  27   1.0000      -2.307322       -62.7854
  28   1.0000      -2.306926       -62.7746
  29   1.0000      -2.306438       -62.7614
  30   1.0000      -2.305773       -62.7433
  31   1.0000      -2.304146       -62.6990
  32   1.0000      -2.304123       -62.6984
  33   1.0000      -2.303470       -62.6806
  34   1.0000      -2.303303       -62.6761
  35   1.0000      -2.302722       -62.6602
  36   1.0000      -2.302603       -62.6570
  37   1.0000      -2.302260       -62.6477
  38   1.0000      -2.301831       -62.6360
  39   1.0000      -2.301318       -62.6221
  40   1.0000      -2.301235       -62.6198
  41   1.0000      -2.300537       -62.6008
  42   1.0000      -2.300229       -62.5924
  43   1.0000      -2.299706       -62.5782
  44   1.0000      -2.299627       -62.5760
  45   1.0000      -2.299192       -62.5642
  46   1.0000      -2.298988       -62.5586
  47   1.0000      -2.298639       -62.5491
  48   1.0000      -2.297794       -62.5262
  49   1.0000      -2.297540       -62.5192
  50   1.0000      -2.297469       -62.5173
  51   1.0000      -2.297196       -62.5099
  52   1.0000      -2.296979       -62.5040
  53   1.0000      -2.296540       -62.4920
  54   1.0000      -2.296491       -62.4907
  55   1.0000      -2.296197       -62.4827
  56   1.0000      -2.295359       -62.4599
  57   1.0000      -2.294759       -62.4436
  58   1.0000      -2.293992       -62.4227
  59   1.0000      -2.293303       -62.4040
  60   1.0000      -2.291984       -62.3681
  61   1.0000      -2.291127       -62.3447
  62   1.0000      -1.722163       -46.8624
  63   1.0000      -1.705973       -46.4219
  64   1.0000      -1.701132       -46.2902
  65   1.0000      -0.423529       -11.5248
  66   1.0000      -0.398388       -10.8407
  67   1.0000      -0.394283       -10.7290
  68   1.0000      -0.389764       -10.6060
  69   1.0000      -0.376780       -10.2527
  70   1.0000      -0.374587       -10.1930
  71   1.0000      -0.368475       -10.0267
  72   1.0000      -0.368138       -10.0175
  73   1.0000      -0.367599       -10.0029
  74   1.0000      -0.360826        -9.8186
  75   1.0000      -0.356318        -9.6959
  76   1.0000      -0.354887        -9.6570
  77   1.0000      -0.352571        -9.5939
  78   1.0000      -0.350740        -9.5441
  79   1.0000      -0.350109        -9.5270
  80   1.0000      -0.348533        -9.4841
  81   1.0000      -0.347954        -9.4683
  82   1.0000      -0.346008        -9.4154
  83   1.0000      -0.343142        -9.3374
  84   1.0000      -0.342598        -9.3226
  85   1.0000      -0.340328        -9.2608
  86   1.0000      -0.337941        -9.1958
  87   1.0000      -0.335746        -9.1361
  88   1.0000      -0.332325        -9.0430
  89   1.0000      -0.331496        -9.0205
  90   1.0000      -0.327433        -8.9099
  91   1.0000      -0.325793        -8.8653
  92   1.0000      -0.321917        -8.7598
  93   1.0000      -0.320751        -8.7281
  94   1.0000      -0.318561        -8.6685
  95   1.0000      -0.314845        -8.5674
  96   1.0000      -0.311417        -8.4741
  97   1.0000      -0.309373        -8.4185
  98   1.0000      -0.308547        -8.3960
  99   1.0000      -0.307113        -8.3570
 100   1.0000      -0.304214        -8.2781
 101   1.0000      -0.301571        -8.2062
 102   1.0000      -0.299315        -8.1448
 103   1.0000      -0.297872        -8.1055
 104   1.0000      -0.295961        -8.0535
 105   1.0000      -0.295635        -8.0446
 106   1.0000      -0.295525        -8.0416
 107   1.0000      -0.291276        -7.9260
 108   1.0000      -0.289783        -7.8854
 109   1.0000      -0.288886        -7.8610
 110   1.0000      -0.287156        -7.8139
 111   1.0000      -0.285591        -7.7713
 112   1.0000      -0.284657        -7.7459
 113   1.0000      -0.282386        -7.6841
 114   1.0000      -0.280151        -7.6233
 115   1.0000      -0.278419        -7.5762
 116   1.0000      -0.277123        -7.5409
 117   1.0000      -0.275828        -7.5057
 118   1.0000      -0.274206        -7.4615
 119   1.0000      -0.273495        -7.4422
 120   1.0000      -0.272289        -7.4093
 121   1.0000      -0.270634        -7.3643
 122   1.0000      -0.269325        -7.3287
 123   1.0000      -0.268024        -7.2933
 124   1.0000      -0.266903        -7.2628
 125   1.0000      -0.265248        -7.2178
 126   1.0000      -0.262983        -7.1561
 127   1.0000      -0.261996        -7.1293
 128   1.0000      -0.260581        -7.0908
 129   1.0000      -0.259745        -7.0680
 130   1.0000      -0.258576        -7.0362
 131   1.0000      -0.256218        -6.9720
 132   1.0000      -0.255767        -6.9598
 133   1.0000      -0.253616        -6.9012
 134   1.0000      -0.251075        -6.8321
 135   1.0000      -0.247492        -6.7346
 136   1.0000      -0.245549        -6.6817
 137   1.0000      -0.241936        -6.5834
 138   1.0000      -0.236758        -6.4425
 139   1.0000      -0.229620        -6.2483
 140   1.0000      -0.224000        -6.0954
 141   1.0000      -0.215345        -5.8598
 142   1.0000      -0.207541        -5.6475
 143   1.0000      -0.168237        -4.5780
 144   0.0000      -0.153600        -4.1797
 145   0.0000      -0.133294        -3.6271
 146   0.0000      -0.132045        -3.5931
 147   0.0000      -0.124583        -3.3901
 148   0.0000      -0.115436        -3.1412

MULLIKEN ATOMIC CHARGES AND SPIN POPULATIONS
--------------------------------------------
   0 Au:    0.376390   -0.315203
   1 Au:    0.273307   -0.150833
   2 Au:    0.183509   -0.052925
   3 Au:    0.067543   -0.047153
   4 Au:    0.383283   -0.115268
   5 Au:    0.279550   -0.073549
   6 Au:    0.294815   -0.048747
   7 Au:   -0.117063   -0.084144
   8 Au:    0.277820   -0.172135
   9 Au:    0.286830   -0.097445
  10 Au:    0.128414   -0.035193
  11 Au:    0.182243   -0.092463
  12 Au:    0.347454    0.017780
  13 Au:    0.283167   -0.230815
  14 Cr:   -3.247262    3.498094
Sum of atomic charges         :   -0.0000000

LOEWDIN ATOMIC CHARGES AND SPIN POPULATIONS
-------------------------------------------
   0 Au:    0.102679   -0.242477
   1 Au:    0.101705   -0.109262
   2 Au:    0.148637   -0.086587
   3 Au:    0.057661   -0.077823
   4 Au:    0.107680   -0.140594
   5 Au:    0.069709   -0.074671
   6 Au:    0.035822   -0.078834
   7 Au:   -0.043501   -0.085022
   8 Au:    0.069698   -0.126139
   9 Au:    0.108803   -0.097055
  10 Au:    0.062945   -0.043524
  11 Au:    0.054845   -0.073510
  12 Au:    0.102606   -0.026033
  13 Au:    0.063792   -0.151919
  14 Cr:   -1.043081    3.413451

  Mayer bond orders larger than 0.100000
B(  0-Au,  3-Au) :   0.3391 B(  0-Au,  6-Au) :   0.3536 B(  0-Au,  7-Au) :   0.3547
B(  1-Au,  4-Au) :   0.2233 B(  1-Au,  5-Au) :   0.1725 B(  1-Au, 11-Au) :   0.3444
B(  1-Au, 14-Cr) :   0.6625 B(  2-Au,  5-Au) :   0.2375 B(  2-Au,  6-Au) :   0.2453
B(  2-Au, 13-Au) :   0.3675 B(  2-Au, 14-Cr) :   0.6185 B(  3-Au,  6-Au) :   0.1251
B(  3-Au,  7-Au) :   0.1835 B(  3-Au, 10-Au) :   0.5401 B(  3-Au, 14-Cr) :   0.5805
B(  4-Au,  5-Au) :   0.2514 B(  4-Au,  7-Au) :   0.3058 B(  4-Au,  9-Au) :   0.1684
B(  4-Au, 14-Cr) :   0.2783 B(  5-Au,  6-Au) :   0.2985 B(  5-Au,  7-Au) :   0.1042
B(  5-Au, 14-Cr) :   0.4136 B(  6-Au,  7-Au) :   0.1879 B(  6-Au, 14-Cr) :   0.2594
B(  7-Au,  9-Au) :   0.2030 B(  7-Au, 14-Cr) :   0.3982 B(  8-Au,  9-Au) :   0.3656
B(  8-Au, 10-Au) :   0.1345 B(  8-Au, 11-Au) :   0.1668 B(  8-Au, 12-Au) :   0.2380
B(  8-Au, 14-Cr) :   0.4720 B(  9-Au, 14-Cr) :   0.6351 B( 10-Au, 12-Au) :   0.2635
B( 10-Au, 13-Au) :   0.1258 B( 10-Au, 14-Cr) :   0.5262 B( 11-Au, 12-Au) :   0.2026
B( 11-Au, 13-Au) :   0.1654 B( 11-Au, 14-Cr) :   0.5131 B( 12-Au, 13-Au) :   0.2298
B( 12-Au, 14-Cr) :   0.2168 B( 13-Au, 14-Cr) :   0.4382

FINAL SINGLE POINT ENERGY     -2946.289621215006

DIPOLE MOMENT
-------------
                                X             Y             Z
Electronic contribution:     -1.92098       3.05083      11.55013
Nuclear contribution   :      2.09065      -3.03450     -11.65393
                        -----------------------------------------
Total Dipole Moment    :      0.16968       0.01633      -0.10380
                        -----------------------------------------
Magnitude (a.u.)       :      0.19958
Magnitude (Debye)      :      0.50728

Rotational constants in cm-1:     0.001245     0.000853     0.000762
Rotational constants in MHz :    37.315197    25.579018    22.851191

                             ****ORCA TERMINATED NORMALLY****
TOTAL RUN TIME: 0 days 0 hours 29 minutes 25 seconds 850 msec
