                         Program Version 5.0.3 -  RELEASE  -
|  1> !PBE def2-TZVP VERYSLOWCONV
|  2>
|  3> %pal nprocs 16 end
|  4>
|  5> *xyzfile 0 5 pbe.xyz
|  6>
|  7> $new_job
|  8>
|  9> !PBE def2-TZVP VERYSLOWCONV
| 10>
| 11>
| 12> %pal nprocs 16 end
| 13>
| 14> *xyzfile 0 3 pbe.xyz
| 15>
| 16>
| 17>
| 18>
| 19>
| 20>                          ****END OF INPUT****
 Total Charge           Charge          ....    0
 Multiplicity           Mult            ....    5
 Number of Electrons    NEL             ....  292
FINAL SINGLE POINT ENERGY     -3165.080466475683

CARTESIAN COORDINATES (ANGSTROEM)
---------------------------------
  Au     7.906042   10.145211    8.678672
  Au     4.890535    7.775164    6.130346
  Au    10.042471    7.184934    4.766870
  Au    11.257324    7.344692    7.381809
  Au     9.370920    9.210146    6.547045
  Au     7.335871    7.413834    4.870400
  Au     6.744672    9.937294    6.128250
  Au     9.052897    5.720642    6.915451
  Au     6.337011    5.367212    6.665146
  Au     6.846473    8.084630   10.347899
  Au     5.173981    9.443895    8.449295
  Au     7.522423    5.566566    9.204852
  Au     4.928526    6.641748    8.766414
  Au     9.408508    7.745616    9.335835
  Fe     7.245842    7.737485    7.615433

 Multiplicity           Mult            ....    3
 Number of Electrons    NEL             ....  292
 Basis Dimension        Dim             ....  605

ORBITAL ENERGIES
----------------
                 SPIN UP ORBITALS
  NO   OCC          E(Eh)            E(eV)
   0   1.0000    -254.749556     -6932.0878
   1   1.0000     -29.584567      -805.0370
   2   1.0000     -25.525978      -694.5972
   3   1.0000     -25.523968      -694.5425
   4   1.0000     -25.511068      -694.1915
   5   1.0000      -4.032965      -109.7425
   6   1.0000      -4.032923      -109.7414
   7   1.0000      -4.032473      -109.7292
   8   1.0000      -4.032402      -109.7272
   9   1.0000      -4.030260      -109.6689
  10   1.0000      -4.030208      -109.6675
  11   1.0000      -4.027366      -109.5902
  12   1.0000      -4.027321      -109.5890
  13   1.0000      -4.025821      -109.5482
  14   1.0000      -4.025811      -109.5479
  15   1.0000      -4.025652      -109.5436
  16   1.0000      -4.025556      -109.5409
  17   1.0000      -4.019210      -109.3683
  18   1.0000      -4.019066      -109.3643
  19   1.0000      -3.361904       -91.4821
  20   1.0000      -2.250180       -61.2305
  21   1.0000      -2.250145       -61.2296
  22   1.0000      -2.247622       -61.1609
  23   1.0000      -2.247567       -61.1594
  24   1.0000      -2.247228       -61.1502
  25   1.0000      -2.247175       -61.1487
  26   1.0000      -2.245790       -61.1110
  27   1.0000      -2.245758       -61.1102
  28   1.0000      -2.245259       -61.0966
  29   1.0000      -2.245012       -61.0899
  30   1.0000      -2.244652       -61.0801
  31   1.0000      -2.244612       -61.0790
  32   1.0000      -2.243941       -61.0607
  33   1.0000      -2.243234       -61.0415
  34   1.0000      -2.242755       -61.0285
  35   1.0000      -2.242261       -61.0150
  36   1.0000      -2.241541       -60.9954
  37   1.0000      -2.241444       -60.9928
  38   1.0000      -2.241264       -60.9879
  39   1.0000      -2.240919       -60.9785
  40   1.0000      -2.240584       -60.9694
  41   1.0000      -2.240540       -60.9682
  42   1.0000      -2.240063       -60.9552
  43   1.0000      -2.239917       -60.9512
  44   1.0000      -2.239377       -60.9365
  45   1.0000      -2.239221       -60.9323
  46   1.0000      -2.238920       -60.9241
  47   1.0000      -2.238409       -60.9102
  48   1.0000      -2.238388       -60.9096
  49   1.0000      -2.238046       -60.9003
  50   1.0000      -2.237965       -60.8981
  51   1.0000      -2.237453       -60.8842
  52   1.0000      -2.237382       -60.8823
  53   1.0000      -2.237092       -60.8744
  54   1.0000      -2.235445       -60.8296
  55   1.0000      -2.235426       -60.8290
  56   1.0000      -2.232671       -60.7541
  57   1.0000      -2.232221       -60.7418
  58   1.0000      -2.232088       -60.7382
  59   1.0000      -2.230940       -60.7070
  60   1.0000      -2.230770       -60.7023
  61   1.0000      -2.230609       -60.6980
  62   1.0000      -2.187756       -59.5319
  63   1.0000      -2.183405       -59.4135
  64   1.0000      -2.156570       -58.6833
  65   1.0000      -0.441516       -12.0143
  66   1.0000      -0.391628       -10.6567
  67   1.0000      -0.391120       -10.6429
  68   1.0000      -0.386497       -10.5171
  69   1.0000      -0.382478       -10.4078
  70   1.0000      -0.376228       -10.2377
  71   1.0000      -0.372623       -10.1396
  72   1.0000      -0.372126       -10.1261
  73   1.0000      -0.368030       -10.0146
  74   1.0000      -0.361237        -9.8298
  75   1.0000      -0.356744        -9.7075
  76   1.0000      -0.355868        -9.6837
  77   1.0000      -0.351367        -9.5612
  78   1.0000      -0.350365        -9.5339
  79   1.0000      -0.349101        -9.4995
  80   1.0000      -0.347350        -9.4519
  81   1.0000      -0.345536        -9.4025
  82   1.0000      -0.344558        -9.3759
  83   1.0000      -0.343125        -9.3369
  84   1.0000      -0.341687        -9.2978
  85   1.0000      -0.340075        -9.2539
  86   1.0000      -0.337225        -9.1764
  87   1.0000      -0.336750        -9.1634
  88   1.0000      -0.335940        -9.1414
  89   1.0000      -0.335593        -9.1319
  90   1.0000      -0.327331        -8.9071
  91   1.0000      -0.322399        -8.7729
  92   1.0000      -0.321626        -8.7519
  93   1.0000      -0.315924        -8.5967
  94   1.0000      -0.315416        -8.5829
  95   1.0000      -0.314718        -8.5639
  96   1.0000      -0.313846        -8.5402
  97   1.0000      -0.311940        -8.4883
  98   1.0000      -0.307130        -8.3574
  99   1.0000      -0.300218        -8.1694
 100   1.0000      -0.299308        -8.1446
 101   1.0000      -0.297624        -8.0988
 102   1.0000      -0.297479        -8.0948
 103   1.0000      -0.294861        -8.0236
 104   1.0000      -0.291429        -7.9302
 105   1.0000      -0.289581        -7.8799
 106   1.0000      -0.286210        -7.7882
 107   1.0000      -0.280986        -7.6460
 108   1.0000      -0.280792        -7.6407
 109   1.0000      -0.278468        -7.5775
 110   1.0000      -0.276762        -7.5311
 111   1.0000      -0.275757        -7.5037
 112   1.0000      -0.275117        -7.4863
 113   1.0000      -0.274786        -7.4773
 114   1.0000      -0.272315        -7.4101
 115   1.0000      -0.270370        -7.3571
 116   1.0000      -0.269932        -7.3452
 117   1.0000      -0.268863        -7.3161
 118   1.0000      -0.266666        -7.2563
 119   1.0000      -0.265660        -7.2290
 120   1.0000      -0.263798        -7.1783
 121   1.0000      -0.263296        -7.1647
 122   1.0000      -0.261905        -7.1268
 123   1.0000      -0.260843        -7.0979
 124   1.0000      -0.260555        -7.0901
 125   1.0000      -0.260064        -7.0767
 126   1.0000      -0.255871        -6.9626
 127   1.0000      -0.255376        -6.9491
 128   1.0000      -0.254096        -6.9143
 129   1.0000      -0.253106        -6.8874
 130   1.0000      -0.252913        -6.8821
 131   1.0000      -0.251278        -6.8376
 132   1.0000      -0.251146        -6.8340
 133   1.0000      -0.248590        -6.7645
 134   1.0000      -0.248134        -6.7521
 135   1.0000      -0.247594        -6.7374
 136   1.0000      -0.247433        -6.7330
 137   1.0000      -0.247029        -6.7220
 138   1.0000      -0.246899        -6.7185
 139   1.0000      -0.242250        -6.5920
 140   1.0000      -0.241428        -6.5696
 141   1.0000      -0.234873        -6.3912
 142   1.0000      -0.233417        -6.3516
 143   1.0000      -0.231590        -6.3019
 144   1.0000      -0.209960        -5.7133
 145   1.0000      -0.204788        -5.5726
 146   1.0000      -0.192177        -5.2294
 147   0.0000      -0.188377        -5.1260
 148   0.0000      -0.181990        -4.9522
 149   0.0000      -0.141925        -3.8620
 150   0.0000      -0.129886        -3.5344
 151   0.0000      -0.124580        -3.3900

                 SPIN DOWN ORBITALS
  NO   OCC          E(Eh)            E(eV)
   0   1.0000    -254.748930     -6932.0708
   1   1.0000     -29.529146      -803.5289
   2   1.0000     -25.481255      -693.3802
   3   1.0000     -25.481048      -693.3746
   4   1.0000     -25.473199      -693.1610
   5   1.0000      -4.033133      -109.7471
   6   1.0000      -4.033098      -109.7462
   7   1.0000      -4.032643      -109.7338
   8   1.0000      -4.032577      -109.7320
   9   1.0000      -4.030738      -109.6820
  10   1.0000      -4.030684      -109.6805
  11   1.0000      -4.027420      -109.5917
  12   1.0000      -4.027380      -109.5906
  13   1.0000      -4.026282      -109.5607
  14   1.0000      -4.026187      -109.5581
  15   1.0000      -4.025738      -109.5459
  16   1.0000      -4.025729      -109.5457
  17   1.0000      -4.020316      -109.3984
  18   1.0000      -4.020169      -109.3944
  19   1.0000      -3.236257       -88.0630
  20   1.0000      -2.250484       -61.2388
  21   1.0000      -2.250455       -61.2380
  22   1.0000      -2.247645       -61.1615
  23   1.0000      -2.247635       -61.1612
  24   1.0000      -2.247389       -61.1546
  25   1.0000      -2.247341       -61.1533
  26   1.0000      -2.246020       -61.1173
  27   1.0000      -2.245961       -61.1157
  28   1.0000      -2.245300       -61.0977
  29   1.0000      -2.245231       -61.0958
  30   1.0000      -2.245080       -61.0917
  31   1.0000      -2.244947       -61.0881
  32   1.0000      -2.244038       -61.0634
  33   1.0000      -2.243548       -61.0501
  34   1.0000      -2.242661       -61.0259
  35   1.0000      -2.242459       -61.0204
  36   1.0000      -2.242120       -61.0112
  37   1.0000      -2.241997       -61.0078
  38   1.0000      -2.241466       -60.9934
  39   1.0000      -2.241126       -60.9841
  40   1.0000      -2.240770       -60.9744
  41   1.0000      -2.240646       -60.9711
  42   1.0000      -2.240086       -60.9558
  43   1.0000      -2.239845       -60.9493
  44   1.0000      -2.239829       -60.9489
  45   1.0000      -2.239745       -60.9466
  46   1.0000      -2.239312       -60.9348
  47   1.0000      -2.238831       -60.9217
  48   1.0000      -2.238432       -60.9108
  49   1.0000      -2.238292       -60.9070
  50   1.0000      -2.238070       -60.9010
  51   1.0000      -2.237693       -60.8907
  52   1.0000      -2.237419       -60.8833
  53   1.0000      -2.237373       -60.8820
  54   1.0000      -2.236044       -60.8459
  55   1.0000      -2.236020       -60.8452
  56   1.0000      -2.233963       -60.7892
  57   1.0000      -2.233448       -60.7752
  58   1.0000      -2.232756       -60.7564
  59   1.0000      -2.232507       -60.7496
  60   1.0000      -2.232338       -60.7450
  61   1.0000      -2.231291       -60.7165
  62   1.0000      -2.058327       -56.0099
  63   1.0000      -2.056154       -55.9508
  64   1.0000      -2.044227       -55.6262
  65   1.0000      -0.438206       -11.9242
  66   1.0000      -0.392778       -10.6880
  67   1.0000      -0.391926       -10.6648
  68   1.0000      -0.385984       -10.5031
  69   1.0000      -0.375882       -10.2283
  70   1.0000      -0.371188       -10.1005
  71   1.0000      -0.371037       -10.0964
  72   1.0000      -0.364530        -9.9194
  73   1.0000      -0.362523        -9.8648
  74   1.0000      -0.361184        -9.8283
  75   1.0000      -0.356374        -9.6974
  76   1.0000      -0.356281        -9.6949
  77   1.0000      -0.352154        -9.5826
  78   1.0000      -0.351456        -9.5636
  79   1.0000      -0.350051        -9.5254
  80   1.0000      -0.347138        -9.4461
  81   1.0000      -0.346998        -9.4423
  82   1.0000      -0.345098        -9.3906
  83   1.0000      -0.343547        -9.3484
  84   1.0000      -0.341974        -9.3056
  85   1.0000      -0.339685        -9.2433
  86   1.0000      -0.338619        -9.2143
  87   1.0000      -0.338169        -9.2020
  88   1.0000      -0.336215        -9.1489
  89   1.0000      -0.335350        -9.1253
  90   1.0000      -0.328158        -8.9296
  91   1.0000      -0.321973        -8.7613
  92   1.0000      -0.321875        -8.7587
  93   1.0000      -0.316838        -8.6216
  94   1.0000      -0.316003        -8.5989
  95   1.0000      -0.313358        -8.5269
  96   1.0000      -0.311179        -8.4676
  97   1.0000      -0.310170        -8.4401
  98   1.0000      -0.305393        -8.3102
  99   1.0000      -0.301385        -8.2011
 100   1.0000      -0.300600        -8.1797
 101   1.0000      -0.290216        -7.8972
 102   1.0000      -0.289430        -7.8758
 103   1.0000      -0.288801        -7.8587
 104   1.0000      -0.287624        -7.8266
 105   1.0000      -0.283822        -7.7232
 106   1.0000      -0.282686        -7.6923
 107   1.0000      -0.282064        -7.6754
 108   1.0000      -0.279804        -7.6138
 109   1.0000      -0.277666        -7.5557
 110   1.0000      -0.276672        -7.5286
 111   1.0000      -0.275963        -7.5093
 112   1.0000      -0.275866        -7.5067
 113   1.0000      -0.273989        -7.4556
 114   1.0000      -0.273624        -7.4457
 115   1.0000      -0.270221        -7.3531
 116   1.0000      -0.269955        -7.3458
 117   1.0000      -0.269780        -7.3411
 118   1.0000      -0.266882        -7.2622
 119   1.0000      -0.265607        -7.2275
 120   1.0000      -0.264300        -7.1920
 121   1.0000      -0.263759        -7.1772
 122   1.0000      -0.262586        -7.1453
 123   1.0000      -0.262457        -7.1418
 124   1.0000      -0.261460        -7.1147
 125   1.0000      -0.260968        -7.1013
 126   1.0000      -0.255851        -6.9621
 127   1.0000      -0.255832        -6.9615
 128   1.0000      -0.254567        -6.9271
 129   1.0000      -0.253713        -6.9039
 130   1.0000      -0.252400        -6.8682
 131   1.0000      -0.252118        -6.8605
 132   1.0000      -0.248675        -6.7668
 133   1.0000      -0.248251        -6.7553
 134   1.0000      -0.247738        -6.7413
 135   1.0000      -0.244054        -6.6411
 136   1.0000      -0.243693        -6.6312
 137   1.0000      -0.237387        -6.4596
 138   1.0000      -0.233368        -6.3503
 139   1.0000      -0.221956        -6.0397
 140   1.0000      -0.211843        -5.7645
 141   1.0000      -0.207022        -5.6334
 142   1.0000      -0.202856        -5.5200
 143   1.0000      -0.200372        -5.4524
 144   1.0000      -0.171610        -4.6698
 145   0.0000      -0.155859        -4.2411
 146   0.0000      -0.154257        -4.1976
 147   0.0000      -0.149074        -4.0565
 148   0.0000      -0.143724        -3.9109
 149   0.0000      -0.139036        -3.7834

MULLIKEN ATOMIC CHARGES AND SPIN POPULATIONS
--------------------------------------------
   0 Au:    0.339601   -0.097541
   1 Au:    0.272972    0.039764
   2 Au:    0.355260   -0.055388
   3 Au:    0.356527   -0.057762
   4 Au:   -0.097723   -0.135116
   5 Au:   -0.032363    0.078063
   6 Au:    0.350143   -0.108390
   7 Au:   -0.097007   -0.136891
   8 Au:    0.340526   -0.097203
   9 Au:    0.273178    0.040521
  10 Au:    0.260212   -0.137053
  11 Au:    0.349419   -0.108399
  12 Au:    0.259739   -0.135746
  13 Au:   -0.032289    0.078294
  14 Fe:   -2.898198    2.832849
Sum of atomic charges         :   -0.0000000

LOEWDIN ATOMIC CHARGES AND SPIN POPULATIONS
-------------------------------------------
   0 Au:    0.091881   -0.088162
   1 Au:    0.061841   -0.025967
   2 Au:    0.067071   -0.072723
   3 Au:    0.067955   -0.073903
   4 Au:   -0.026039   -0.090152
   5 Au:    0.012942    0.002232
   6 Au:    0.092311   -0.088872
   7 Au:   -0.025877   -0.090986
   8 Au:    0.092047   -0.087945
   9 Au:    0.061982   -0.025669
  10 Au:    0.058721   -0.107469
  11 Au:    0.092267   -0.089085
  12 Au:    0.058578   -0.106759
  13 Au:    0.012876    0.002350
  14 Fe:   -0.718556    2.943110

  Mayer bond orders larger than 0.100000
B(  0-Au,  4-Au) :   0.2658 B(  0-Au,  6-Au) :   0.1935 B(  0-Au,  9-Au) :   0.1477
B(  0-Au, 10-Au) :   0.1896 B(  0-Au, 13-Au) :   0.1129 B(  0-Au, 14-Fe) :   0.4843
B(  1-Au,  5-Au) :   0.2781 B(  1-Au,  6-Au) :   0.1550 B(  1-Au,  8-Au) :   0.1464
B(  1-Au, 10-Au) :   0.1746 B(  1-Au, 12-Au) :   0.1741 B(  1-Au, 14-Fe) :   0.4331
B(  2-Au,  3-Au) :   0.1981 B(  2-Au,  4-Au) :   0.2977 B(  2-Au,  5-Au) :   0.3639
B(  2-Au,  7-Au) :   0.2966 B(  3-Au,  4-Au) :   0.2970 B(  3-Au,  7-Au) :   0.2988
B(  3-Au, 13-Au) :   0.3640 B(  4-Au,  5-Au) :   0.1185 B(  4-Au,  6-Au) :   0.2508
B(  4-Au,  7-Au) :   0.1534 B(  4-Au, 13-Au) :   0.1195 B(  4-Au, 14-Fe) :   0.3964
B(  5-Au,  6-Au) :   0.1227 B(  5-Au,  7-Au) :   0.1185 B(  5-Au,  8-Au) :   0.1144
B(  5-Au, 14-Fe) :   0.5397 B(  6-Au, 10-Au) :   0.1786 B(  6-Au, 14-Fe) :   0.4871
B(  7-Au,  8-Au) :   0.2646 B(  7-Au, 11-Au) :   0.2510 B(  7-Au, 13-Au) :   0.1200
B(  7-Au, 14-Fe) :   0.3961 B(  8-Au, 11-Au) :   0.1936 B(  8-Au, 12-Au) :   0.1885
B(  8-Au, 14-Fe) :   0.4853 B(  9-Au, 10-Au) :   0.1737 B(  9-Au, 11-Au) :   0.1550
B(  9-Au, 12-Au) :   0.1732 B(  9-Au, 13-Au) :   0.2782 B(  9-Au, 14-Fe) :   0.4343
B( 10-Au, 12-Au) :   0.2488 B( 10-Au, 14-Fe) :   0.3912 B( 11-Au, 12-Au) :   0.1807
B( 11-Au, 13-Au) :   0.1222 B( 11-Au, 14-Fe) :   0.4861 B( 12-Au, 14-Fe) :   0.3918
B( 13-Au, 14-Fe) :   0.5397

FINAL SINGLE POINT ENERGY     -3165.064551085749

DIPOLE MOMENT
-------------
                                X             Y             Z
Electronic contribution:     14.54440      -2.01082      -6.56663
Nuclear contribution   :    -14.66029       2.02678       6.62067
                        -----------------------------------------
Total Dipole Moment    :     -0.11589       0.01596       0.05405
                        -----------------------------------------
Magnitude (a.u.)       :      0.12887
Magnitude (Debye)      :      0.32756

Rotational constants in cm-1:     0.001284     0.000989     0.000950
Rotational constants in MHz :    38.485350    29.651388    28.493723

                             ****ORCA TERMINATED NORMALLY****
TOTAL RUN TIME: 0 days 0 hours 5 minutes 31 seconds 629 msec
