                         Program Version 5.0.3 -  RELEASE  -
|  1> !R2SCAN def2-TZVP VERYSLOWCONV
|  2>
|  3> %pal nprocs 16 end
|  4>
|  5> %scf
|  6>   AutoTRAHIter 100
|  7>   maxiter 400
|  8> end
|  9>
| 10> *xyzfile 0 5 pbe.xyz
| 11>
| 12> $new_job
| 13>
| 14> !R2SCAN def2-TZVP VERYSLOWCONV
| 15>
| 16>
| 17> %pal nprocs 16 end
| 18>
| 19> %scf
| 20>   AutoTRAHIter 100
| 21>   maxiter 400
| 22> end
| 23>
| 24> *xyzfile 0 3 pbe.xyz
| 25>
| 26>
| 27>
| 28>
| 29>
| 30>                          ****END OF INPUT****
 Total Charge           Charge          ....    0
 Multiplicity           Mult            ....    5
 Number of Electrons    NEL             ....  292
FINAL SINGLE POINT ENERGY     -3165.574314414761

CARTESIAN COORDINATES (ANGSTROEM)
---------------------------------
  Au     7.906042   10.145211    8.678672
  Au     4.890535    7.775164    6.130346
  Au    10.042471    7.184934    4.766870
  Au    11.257324    7.344692    7.381809
  Au     9.370920    9.210146    6.547045
  Au     7.335871    7.413834    4.870400
  Au     6.744672    9.937294    6.128250
  Au     9.052897    5.720642    6.915451
  Au     6.337011    5.367212    6.665146
  Au     6.846473    8.084630   10.347899
  Au     5.173981    9.443895    8.449295
  Au     7.522423    5.566566    9.204852
  Au     4.928526    6.641748    8.766414
  Au     9.408508    7.745616    9.335835
  Fe     7.245842    7.737485    7.615433

 Multiplicity           Mult            ....    3
 Number of Electrons    NEL             ....  292
 Basis Dimension        Dim             ....  605

ORBITAL ENERGIES
----------------
                 SPIN UP ORBITALS
  NO   OCC          E(Eh)            E(eV)
   0   1.0000    -255.632504     -6956.1141
   1   1.0000     -29.928473      -814.3951
   2   1.0000     -25.764967      -701.1004
   3   1.0000     -25.764009      -701.0743
   4   1.0000     -25.748181      -700.6436
   5   1.0000      -4.124442      -112.2318
   6   1.0000      -4.124392      -112.2304
   7   1.0000      -4.123968      -112.2189
   8   1.0000      -4.123900      -112.2170
   9   1.0000      -4.121069      -112.1400
  10   1.0000      -4.121062      -112.1398
  11   1.0000      -4.118170      -112.0611
  12   1.0000      -4.118116      -112.0596
  13   1.0000      -4.116455      -112.0144
  14   1.0000      -4.116438      -112.0140
  15   1.0000      -4.116345      -112.0115
  16   1.0000      -4.116235      -112.0084
  17   1.0000      -4.109876      -111.8354
  18   1.0000      -4.109709      -111.8309
  19   1.0000      -3.508236       -95.4640
  20   1.0000      -2.314683       -62.9857
  21   1.0000      -2.314537       -62.9818
  22   1.0000      -2.312177       -62.9175
  23   1.0000      -2.312039       -62.9138
  24   1.0000      -2.311503       -62.8992
  25   1.0000      -2.311477       -62.8985
  26   1.0000      -2.310023       -62.8589
  27   1.0000      -2.309985       -62.8579
  28   1.0000      -2.309428       -62.8427
  29   1.0000      -2.309259       -62.8381
  30   1.0000      -2.308536       -62.8184
  31   1.0000      -2.308510       -62.8178
  32   1.0000      -2.307838       -62.7995
  33   1.0000      -2.307345       -62.7861
  34   1.0000      -2.306276       -62.7570
  35   1.0000      -2.305947       -62.7480
  36   1.0000      -2.305162       -62.7266
  37   1.0000      -2.305050       -62.7236
  38   1.0000      -2.305032       -62.7231
  39   1.0000      -2.304883       -62.7191
  40   1.0000      -2.304506       -62.7088
  41   1.0000      -2.304259       -62.7021
  42   1.0000      -2.303494       -62.6813
  43   1.0000      -2.303226       -62.6740
  44   1.0000      -2.302880       -62.6646
  45   1.0000      -2.302777       -62.6617
  46   1.0000      -2.302408       -62.6517
  47   1.0000      -2.302006       -62.6408
  48   1.0000      -2.301941       -62.6390
  49   1.0000      -2.301582       -62.6292
  50   1.0000      -2.301434       -62.6252
  51   1.0000      -2.300886       -62.6103
  52   1.0000      -2.300779       -62.6074
  53   1.0000      -2.300439       -62.5981
  54   1.0000      -2.298716       -62.5512
  55   1.0000      -2.298698       -62.5508
  56   1.0000      -2.296005       -62.4775
  57   1.0000      -2.295543       -62.4649
  58   1.0000      -2.295397       -62.4609
  59   1.0000      -2.294154       -62.4271
  60   1.0000      -2.293964       -62.4219
  61   1.0000      -2.293849       -62.4188
  62   1.0000      -2.285834       -62.2007
  63   1.0000      -2.283792       -62.1451
  64   1.0000      -2.250544       -61.2404
  65   1.0000      -0.447484       -12.1766
  66   1.0000      -0.398117       -10.8333
  67   1.0000      -0.397915       -10.8278
  68   1.0000      -0.393551       -10.7091
  69   1.0000      -0.393116       -10.6972
  70   1.0000      -0.387979       -10.5575
  71   1.0000      -0.385019       -10.4769
  72   1.0000      -0.381081       -10.3697
  73   1.0000      -0.379557       -10.3283
  74   1.0000      -0.369795       -10.0626
  75   1.0000      -0.365830        -9.9547
  76   1.0000      -0.365232        -9.9385
  77   1.0000      -0.360993        -9.8231
  78   1.0000      -0.359701        -9.7880
  79   1.0000      -0.358630        -9.7588
  80   1.0000      -0.357197        -9.7198
  81   1.0000      -0.355210        -9.6658
  82   1.0000      -0.353817        -9.6278
  83   1.0000      -0.352676        -9.5968
  84   1.0000      -0.351555        -9.5663
  85   1.0000      -0.349565        -9.5122
  86   1.0000      -0.346174        -9.4199
  87   1.0000      -0.345796        -9.4096
  88   1.0000      -0.345233        -9.3943
  89   1.0000      -0.344942        -9.3863
  90   1.0000      -0.336098        -9.1457
  91   1.0000      -0.331918        -9.0319
  92   1.0000      -0.330602        -8.9961
  93   1.0000      -0.326504        -8.8846
  94   1.0000      -0.324915        -8.8414
  95   1.0000      -0.324503        -8.8302
  96   1.0000      -0.323516        -8.8033
  97   1.0000      -0.322052        -8.7635
  98   1.0000      -0.318218        -8.6591
  99   1.0000      -0.310017        -8.4360
 100   1.0000      -0.309355        -8.4180
 101   1.0000      -0.309147        -8.4123
 102   1.0000      -0.308148        -8.3851
 103   1.0000      -0.305342        -8.3088
 104   1.0000      -0.305105        -8.3023
 105   1.0000      -0.299617        -8.1530
 106   1.0000      -0.294381        -8.0105
 107   1.0000      -0.289949        -7.8899
 108   1.0000      -0.289295        -7.8721
 109   1.0000      -0.286835        -7.8052
 110   1.0000      -0.285296        -7.7633
 111   1.0000      -0.284465        -7.7407
 112   1.0000      -0.283619        -7.7177
 113   1.0000      -0.282756        -7.6942
 114   1.0000      -0.280829        -7.6417
 115   1.0000      -0.278938        -7.5903
 116   1.0000      -0.278411        -7.5759
 117   1.0000      -0.277395        -7.5483
 118   1.0000      -0.275666        -7.5013
 119   1.0000      -0.273974        -7.4552
 120   1.0000      -0.272494        -7.4149
 121   1.0000      -0.271833        -7.3969
 122   1.0000      -0.271172        -7.3790
 123   1.0000      -0.268972        -7.3191
 124   1.0000      -0.268781        -7.3139
 125   1.0000      -0.268066        -7.2945
 126   1.0000      -0.267570        -7.2809
 127   1.0000      -0.266682        -7.2568
 128   1.0000      -0.264821        -7.2062
 129   1.0000      -0.262418        -7.1408
 130   1.0000      -0.261255        -7.1091
 131   1.0000      -0.260920        -7.1000
 132   1.0000      -0.260768        -7.0958
 133   1.0000      -0.259322        -7.0565
 134   1.0000      -0.258860        -7.0439
 135   1.0000      -0.258613        -7.0372
 136   1.0000      -0.254487        -6.9250
 137   1.0000      -0.253380        -6.8948
 138   1.0000      -0.252843        -6.8802
 139   1.0000      -0.249598        -6.7919
 140   1.0000      -0.248843        -6.7714
 141   1.0000      -0.246235        -6.7004
 142   1.0000      -0.241373        -6.5681
 143   1.0000      -0.238439        -6.4882
 144   1.0000      -0.214358        -5.8330
 145   1.0000      -0.206615        -5.6223
 146   1.0000      -0.194052        -5.2804
 147   0.0000      -0.186944        -5.0870
 148   0.0000      -0.179726        -4.8906
 149   0.0000      -0.137287        -3.7358
 150   0.0000      -0.126303        -3.4369
 151   0.0000      -0.120330        -3.2743

                 SPIN DOWN ORBITALS
  NO   OCC          E(Eh)            E(eV)
   0   1.0000    -255.631561     -6956.0884
   1   1.0000     -29.852206      -812.3198
   2   1.0000     -25.703486      -699.4274
   3   1.0000     -25.702954      -699.4129
   4   1.0000     -25.696223      -699.2298
   5   1.0000      -4.124788      -112.2412
   6   1.0000      -4.124744      -112.2400
   7   1.0000      -4.124312      -112.2282
   8   1.0000      -4.124249      -112.2265
   9   1.0000      -4.121874      -112.1619
  10   1.0000      -4.121865      -112.1617
  11   1.0000      -4.118272      -112.0639
  12   1.0000      -4.118223      -112.0626
  13   1.0000      -4.117281      -112.0369
  14   1.0000      -4.117176      -112.0341
  15   1.0000      -4.116398      -112.0129
  16   1.0000      -4.116382      -112.0125
  17   1.0000      -4.111166      -111.8705
  18   1.0000      -4.110994      -111.8658
  19   1.0000      -3.338879       -90.8555
  20   1.0000      -2.314986       -62.9940
  21   1.0000      -2.314976       -62.9937
  22   1.0000      -2.312044       -62.9139
  23   1.0000      -2.312031       -62.9136
  24   1.0000      -2.311802       -62.9073
  25   1.0000      -2.311769       -62.9064
  26   1.0000      -2.310309       -62.8667
  27   1.0000      -2.310237       -62.8647
  28   1.0000      -2.309558       -62.8463
  29   1.0000      -2.309463       -62.8437
  30   1.0000      -2.309191       -62.8363
  31   1.0000      -2.309142       -62.8350
  32   1.0000      -2.308151       -62.8080
  33   1.0000      -2.307857       -62.8000
  34   1.0000      -2.306278       -62.7570
  35   1.0000      -2.306215       -62.7553
  36   1.0000      -2.305858       -62.7456
  37   1.0000      -2.305716       -62.7417
  38   1.0000      -2.305512       -62.7362
  39   1.0000      -2.305204       -62.7278
  40   1.0000      -2.304873       -62.7188
  41   1.0000      -2.304342       -62.7043
  42   1.0000      -2.303678       -62.6863
  43   1.0000      -2.303411       -62.6790
  44   1.0000      -2.303397       -62.6786
  45   1.0000      -2.303204       -62.6734
  46   1.0000      -2.302975       -62.6671
  47   1.0000      -2.302566       -62.6560
  48   1.0000      -2.302011       -62.6409
  49   1.0000      -2.301913       -62.6382
  50   1.0000      -2.301788       -62.6348
  51   1.0000      -2.301145       -62.6173
  52   1.0000      -2.300890       -62.6104
  53   1.0000      -2.300832       -62.6088
  54   1.0000      -2.299401       -62.5699
  55   1.0000      -2.299381       -62.5693
  56   1.0000      -2.297608       -62.5211
  57   1.0000      -2.297032       -62.5054
  58   1.0000      -2.296225       -62.4835
  59   1.0000      -2.296048       -62.4786
  60   1.0000      -2.295855       -62.4734
  61   1.0000      -2.294688       -62.4416
  62   1.0000      -2.112976       -57.4970
  63   1.0000      -2.110596       -57.4322
  64   1.0000      -2.097594       -57.0784
  65   1.0000      -0.445328       -12.1180
  66   1.0000      -0.400481       -10.8976
  67   1.0000      -0.398303       -10.8384
  68   1.0000      -0.392892       -10.6911
  69   1.0000      -0.384431       -10.4609
  70   1.0000      -0.379914       -10.3380
  71   1.0000      -0.379609       -10.3297
  72   1.0000      -0.372994       -10.1497
  73   1.0000      -0.370757       -10.0888
  74   1.0000      -0.370391       -10.0788
  75   1.0000      -0.366054        -9.9608
  76   1.0000      -0.365563        -9.9475
  77   1.0000      -0.361869        -9.8470
  78   1.0000      -0.361183        -9.8283
  79   1.0000      -0.359853        -9.7921
  80   1.0000      -0.357274        -9.7219
  81   1.0000      -0.357027        -9.7152
  82   1.0000      -0.354314        -9.6414
  83   1.0000      -0.353030        -9.6064
  84   1.0000      -0.351701        -9.5703
  85   1.0000      -0.349379        -9.5071
  86   1.0000      -0.347998        -9.4695
  87   1.0000      -0.347908        -9.4671
  88   1.0000      -0.345572        -9.4035
  89   1.0000      -0.345169        -9.3925
  90   1.0000      -0.337313        -9.1787
  91   1.0000      -0.331277        -9.0145
  92   1.0000      -0.330918        -9.0047
  93   1.0000      -0.326043        -8.8721
  94   1.0000      -0.325293        -8.8517
  95   1.0000      -0.322544        -8.7769
  96   1.0000      -0.320428        -8.7193
  97   1.0000      -0.319418        -8.6918
  98   1.0000      -0.314265        -8.5516
  99   1.0000      -0.310625        -8.4525
 100   1.0000      -0.309875        -8.4321
 101   1.0000      -0.298894        -8.1333
 102   1.0000      -0.297680        -8.1003
 103   1.0000      -0.297389        -8.0924
 104   1.0000      -0.295787        -8.0488
 105   1.0000      -0.292281        -7.9534
 106   1.0000      -0.291328        -7.9274
 107   1.0000      -0.290634        -7.9085
 108   1.0000      -0.288667        -7.8550
 109   1.0000      -0.285631        -7.7724
 110   1.0000      -0.285175        -7.7600
 111   1.0000      -0.284677        -7.7464
 112   1.0000      -0.284268        -7.7353
 113   1.0000      -0.282602        -7.6900
 114   1.0000      -0.281803        -7.6682
 115   1.0000      -0.278837        -7.5875
 116   1.0000      -0.278431        -7.5765
 117   1.0000      -0.278401        -7.5757
 118   1.0000      -0.275439        -7.4951
 119   1.0000      -0.273594        -7.4449
 120   1.0000      -0.272908        -7.4262
 121   1.0000      -0.271968        -7.4006
 122   1.0000      -0.271189        -7.3794
 123   1.0000      -0.270687        -7.3658
 124   1.0000      -0.270127        -7.3505
 125   1.0000      -0.268896        -7.3170
 126   1.0000      -0.264196        -7.1891
 127   1.0000      -0.263859        -7.1800
 128   1.0000      -0.262634        -7.1466
 129   1.0000      -0.261330        -7.1111
 130   1.0000      -0.260833        -7.0976
 131   1.0000      -0.260483        -7.0881
 132   1.0000      -0.255697        -6.9579
 133   1.0000      -0.255392        -6.9496
 134   1.0000      -0.254824        -6.9341
 135   1.0000      -0.251282        -6.8377
 136   1.0000      -0.250824        -6.8253
 137   1.0000      -0.244647        -6.6572
 138   1.0000      -0.240099        -6.5334
 139   1.0000      -0.225137        -6.1263
 140   1.0000      -0.213262        -5.8032
 141   1.0000      -0.207970        -5.6591
 142   1.0000      -0.203626        -5.5409
 143   1.0000      -0.201025        -5.4702
 144   1.0000      -0.177543        -4.8312
 145   0.0000      -0.148451        -4.0396
 146   0.0000      -0.146287        -3.9807
 147   0.0000      -0.137891        -3.7522
 148   0.0000      -0.135396        -3.6843
 149   0.0000      -0.127075        -3.4579

MULLIKEN ATOMIC CHARGES AND SPIN POPULATIONS
--------------------------------------------
   0 Au:    0.320693   -0.119322
   1 Au:    0.237500    0.039792
   2 Au:    0.319327   -0.051733
   3 Au:    0.320987   -0.054250
   4 Au:   -0.079698   -0.158171
   5 Au:   -0.051868    0.078502
   6 Au:    0.331386   -0.131035
   7 Au:   -0.078273   -0.161848
   8 Au:    0.321345   -0.118883
   9 Au:    0.237766    0.040728
  10 Au:    0.233371   -0.164879
  11 Au:    0.330788   -0.130624
  12 Au:    0.232532   -0.161073
  13 Au:   -0.051865    0.078664
  14 Fe:   -2.623992    3.014133
Sum of atomic charges         :    0.0000000

LOEWDIN ATOMIC CHARGES AND SPIN POPULATIONS
-------------------------------------------
   0 Au:    0.087991   -0.104636
   1 Au:    0.053356   -0.034834
   2 Au:    0.064208   -0.071906
   3 Au:    0.065244   -0.073078
   4 Au:   -0.028932   -0.103789
   5 Au:    0.003262   -0.006398
   6 Au:    0.088451   -0.105040
   7 Au:   -0.028842   -0.105867
   8 Au:    0.088155   -0.104213
   9 Au:    0.053508   -0.034488
  10 Au:    0.052613   -0.124218
  11 Au:    0.088455   -0.105005
  12 Au:    0.052539   -0.121987
  13 Au:    0.003217   -0.006281
  14 Fe:   -0.643226    3.101740

  Mayer bond orders larger than 0.100000
B(  0-Au,  4-Au) :   0.2658 B(  0-Au,  6-Au) :   0.1878 B(  0-Au,  9-Au) :   0.1319
B(  0-Au, 10-Au) :   0.1781 B(  0-Au, 14-Fe) :   0.4872 B(  1-Au,  5-Au) :   0.2813
B(  1-Au,  6-Au) :   0.1402 B(  1-Au,  8-Au) :   0.1305 B(  1-Au, 10-Au) :   0.1598
B(  1-Au, 12-Au) :   0.1594 B(  1-Au, 14-Fe) :   0.4220 B(  2-Au,  3-Au) :   0.1759
B(  2-Au,  4-Au) :   0.2897 B(  2-Au,  5-Au) :   0.3661 B(  2-Au,  7-Au) :   0.2892
B(  3-Au,  4-Au) :   0.2891 B(  3-Au,  7-Au) :   0.2913 B(  3-Au, 13-Au) :   0.3661
B(  4-Au,  6-Au) :   0.2504 B(  4-Au,  7-Au) :   0.1294 B(  4-Au, 14-Fe) :   0.3761
B(  5-Au,  6-Au) :   0.1077 B(  5-Au, 14-Fe) :   0.5244 B(  6-Au, 10-Au) :   0.1668
B(  6-Au, 14-Fe) :   0.4908 B(  7-Au,  8-Au) :   0.2646 B(  7-Au, 11-Au) :   0.2507
B(  7-Au, 14-Fe) :   0.3742 B(  8-Au, 11-Au) :   0.1880 B(  8-Au, 12-Au) :   0.1769
B(  8-Au, 14-Fe) :   0.4885 B(  9-Au, 10-Au) :   0.1592 B(  9-Au, 11-Au) :   0.1399
B(  9-Au, 12-Au) :   0.1582 B(  9-Au, 13-Au) :   0.2814 B(  9-Au, 14-Fe) :   0.4234
B( 10-Au, 12-Au) :   0.2432 B( 10-Au, 14-Fe) :   0.3703 B( 11-Au, 12-Au) :   0.1688
B( 11-Au, 13-Au) :   0.1072 B( 11-Au, 14-Fe) :   0.4897 B( 12-Au, 14-Fe) :   0.3727
B( 13-Au, 14-Fe) :   0.5248

FINAL SINGLE POINT ENERGY     -3165.559743455907

DIPOLE MOMENT
-------------
                                X             Y             Z
Electronic contribution:     14.55586      -2.01199      -6.57103
Nuclear contribution   :    -14.66029       2.02678       6.62067
                        -----------------------------------------
Total Dipole Moment    :     -0.10443       0.01479       0.04965
                        -----------------------------------------
Magnitude (a.u.)       :      0.11657
Magnitude (Debye)      :      0.29631

Rotational constants in cm-1:     0.001284     0.000989     0.000950
Rotational constants in MHz :    38.485350    29.651388    28.493723

                             ****ORCA TERMINATED NORMALLY****
TOTAL RUN TIME: 0 days 0 hours 4 minutes 53 seconds 829 msec
