                         Program Version 5.0.3 -  RELEASE  -
|  1> %pal nprocs 1 end
|  2>
|  3> !PBE def2-TZVP OPT UNO
|  4> !SLOWCONV KDIIS
|  5>
|  6> %geom maxiter 300 end
|  7>
|  8> *xyzfile 0 4 0.xyz                           ****END OF INPUT****
 Total Charge           Charge          ....    0
 Multiplicity           Mult            ....    4
 Number of Electrons    NEL             ....  253
FINAL SINGLE POINT ENERGY     -2780.692727574448
FINAL SINGLE POINT ENERGY     -2780.697899585742
FINAL SINGLE POINT ENERGY     -2780.701483042009
FINAL SINGLE POINT ENERGY     -2780.703104982512
FINAL SINGLE POINT ENERGY     -2780.703082586333
FINAL SINGLE POINT ENERGY     -2780.703370339224
FINAL SINGLE POINT ENERGY     -2780.703408037645
FINAL SINGLE POINT ENERGY     -2780.703459576024
FINAL SINGLE POINT ENERGY     -2780.703530763785
FINAL SINGLE POINT ENERGY     -2780.703541015147
FINAL SINGLE POINT ENERGY     -2780.703582632915
FINAL SINGLE POINT ENERGY     -2780.703601977745
FINAL SINGLE POINT ENERGY     -2780.703606078948
FINAL SINGLE POINT ENERGY     -2780.703609517545
                    ***********************HURRAY********************

CARTESIAN COORDINATES (ANGSTROEM)
---------------------------------
  Au     8.150091   11.302518    7.473943
  Au    10.610899   12.333256    8.054528
  Au     7.223745    7.344487    5.262882
  Au     9.797279    8.105806    4.892847
  Au    10.723922   10.244830    6.274866
  Au    11.198131    7.750164    7.547043
  Au     8.965597    7.480535    9.557476
  Au    10.204033    9.858876    9.170430
  Au     6.711890    6.950602    8.150328
  Au     9.095552    6.002389    6.928256
  Au     4.701061    7.440467    6.345801
  Au     6.179399    9.667208    6.901160
  Mn     8.642297    8.693665    7.214578

 Multiplicity           Mult            ....    4
 Number of Electrons    NEL             ....  253
 Basis Dimension        Dim             ....  525

ORBITAL ENERGIES
----------------
                 SPIN UP ORBITALS
  NO   OCC          E(Eh)            E(eV)
   0   1.0000    -234.197516     -6372.8384
   1   1.0000     -26.893346      -731.8051
   2   1.0000     -23.042467      -627.0174
   3   1.0000     -23.042226      -627.0109
   4   1.0000     -23.041428      -626.9891
   5   1.0000      -4.027186      -109.5853
   6   1.0000      -4.027175      -109.5850
   7   1.0000      -4.027110      -109.5832
   8   1.0000      -4.027064      -109.5820
   9   1.0000      -4.025218      -109.5318
  10   1.0000      -4.025199      -109.5312
  11   1.0000      -4.022627      -109.4612
  12   1.0000      -4.022315      -109.4527
  13   1.0000      -4.020697      -109.4087
  14   1.0000      -4.020534      -109.4043
  15   1.0000      -4.019940      -109.3881
  16   1.0000      -4.019926      -109.3877
  17   1.0000      -3.099828       -84.3506
  18   1.0000      -2.245917       -61.1145
  19   1.0000      -2.245503       -61.1032
  20   1.0000      -2.245317       -61.0982
  21   1.0000      -2.244797       -61.0840
  22   1.0000      -2.244225       -61.0685
  23   1.0000      -2.241417       -60.9921
  24   1.0000      -2.241386       -60.9912
  25   1.0000      -2.240239       -60.9600
  26   1.0000      -2.240190       -60.9587
  27   1.0000      -2.239892       -60.9506
  28   1.0000      -2.239699       -60.9453
  29   1.0000      -2.239359       -60.9360
  30   1.0000      -2.238813       -60.9212
  31   1.0000      -2.238554       -60.9141
  32   1.0000      -2.237179       -60.8767
  33   1.0000      -2.236782       -60.8659
  34   1.0000      -2.236593       -60.8608
  35   1.0000      -2.236185       -60.8497
  36   1.0000      -2.235697       -60.8364
  37   1.0000      -2.235592       -60.8335
  38   1.0000      -2.235415       -60.8287
  39   1.0000      -2.235324       -60.8262
  40   1.0000      -2.235038       -60.8185
  41   1.0000      -2.234487       -60.8035
  42   1.0000      -2.233823       -60.7854
  43   1.0000      -2.233501       -60.7767
  44   1.0000      -2.233133       -60.7666
  45   1.0000      -2.231514       -60.7226
  46   1.0000      -2.231393       -60.7193
  47   1.0000      -2.231331       -60.7176
  48   1.0000      -2.230758       -60.7020
  49   1.0000      -2.230723       -60.7010
  50   1.0000      -2.230517       -60.6954
  51   1.0000      -2.230390       -60.6920
  52   1.0000      -2.228185       -60.6320
  53   1.0000      -2.227614       -60.6165
  54   1.0000      -2.003186       -54.5095
  55   1.0000      -2.002152       -54.4813
  56   1.0000      -2.001828       -54.4725
  57   1.0000      -0.424404       -11.5486
  58   1.0000      -0.387500       -10.5444
  59   1.0000      -0.384475       -10.4621
  60   1.0000      -0.376001       -10.2315
  61   1.0000      -0.370398       -10.0791
  62   1.0000      -0.370041       -10.0693
  63   1.0000      -0.367867       -10.0102
  64   1.0000      -0.364289        -9.9128
  65   1.0000      -0.350660        -9.5419
  66   1.0000      -0.347936        -9.4678
  67   1.0000      -0.346728        -9.4350
  68   1.0000      -0.342881        -9.3303
  69   1.0000      -0.338521        -9.2116
  70   1.0000      -0.337749        -9.1906
  71   1.0000      -0.332078        -9.0363
  72   1.0000      -0.331826        -9.0294
  73   1.0000      -0.331619        -9.0238
  74   1.0000      -0.329401        -8.9635
  75   1.0000      -0.327372        -8.9083
  76   1.0000      -0.322771        -8.7831
  77   1.0000      -0.322607        -8.7786
  78   1.0000      -0.319952        -8.7063
  79   1.0000      -0.316973        -8.6253
  80   1.0000      -0.314696        -8.5633
  81   1.0000      -0.311171        -8.4674
  82   1.0000      -0.310265        -8.4427
  83   1.0000      -0.302930        -8.2432
  84   1.0000      -0.298548        -8.1239
  85   1.0000      -0.297093        -8.0843
  86   1.0000      -0.295255        -8.0343
  87   1.0000      -0.294506        -8.0139
  88   1.0000      -0.289101        -7.8668
  89   1.0000      -0.287428        -7.8213
  90   1.0000      -0.287201        -7.8151
  91   1.0000      -0.287020        -7.8102
  92   1.0000      -0.285300        -7.7634
  93   1.0000      -0.279147        -7.5960
  94   1.0000      -0.278567        -7.5802
  95   1.0000      -0.278022        -7.5654
  96   1.0000      -0.277879        -7.5615
  97   1.0000      -0.277680        -7.5561
  98   1.0000      -0.275314        -7.4917
  99   1.0000      -0.271517        -7.3884
 100   1.0000      -0.270212        -7.3529
 101   1.0000      -0.267617        -7.2822
 102   1.0000      -0.265299        -7.2191
 103   1.0000      -0.262979        -7.1560
 104   1.0000      -0.262775        -7.1505
 105   1.0000      -0.260734        -7.0949
 106   1.0000      -0.260526        -7.0893
 107   1.0000      -0.259431        -7.0595
 108   1.0000      -0.257365        -7.0033
 109   1.0000      -0.256731        -6.9860
 110   1.0000      -0.256083        -6.9684
 111   1.0000      -0.255108        -6.9419
 112   1.0000      -0.252242        -6.8639
 113   1.0000      -0.251248        -6.8368
 114   1.0000      -0.249275        -6.7831
 115   1.0000      -0.248333        -6.7575
 116   1.0000      -0.245482        -6.6799
 117   1.0000      -0.244878        -6.6635
 118   1.0000      -0.241637        -6.5753
 119   1.0000      -0.241214        -6.5638
 120   1.0000      -0.238290        -6.4842
 121   1.0000      -0.237981        -6.4758
 122   1.0000      -0.236141        -6.4257
 123   1.0000      -0.232645        -6.3306
 124   1.0000      -0.230380        -6.2689
 125   1.0000      -0.228190        -6.2094
 126   1.0000      -0.212832        -5.7915
 127   1.0000      -0.199115        -5.4182
 128   0.0000      -0.175962        -4.7882
 129   0.0000      -0.168124        -4.5749
 130   0.0000      -0.139285        -3.7901
 131   0.0000      -0.131934        -3.5901
 132   0.0000      -0.131429        -3.5764

                 SPIN DOWN ORBITALS
  NO   OCC          E(Eh)            E(eV)
   0   1.0000    -234.196808     -6372.8191
   1   1.0000     -26.829577      -730.0699
   2   1.0000     -22.994742      -625.7187
   3   1.0000     -22.993219      -625.6773
   4   1.0000     -22.992849      -625.6672
   5   1.0000      -4.026934      -109.5784
   6   1.0000      -4.026928      -109.5783
   7   1.0000      -4.026859      -109.5764
   8   1.0000      -4.026821      -109.5754
   9   1.0000      -4.025002      -109.5259
  10   1.0000      -4.024977      -109.5252
  11   1.0000      -4.021715      -109.4364
  12   1.0000      -4.021402      -109.4279
  13   1.0000      -4.021361      -109.4268
  14   1.0000      -4.021202      -109.4225
  15   1.0000      -4.020179      -109.3946
  16   1.0000      -4.020157      -109.3940
  17   1.0000      -2.943696       -80.1020
  18   1.0000      -2.245710       -61.1089
  19   1.0000      -2.245257       -61.0965
  20   1.0000      -2.244988       -61.0892
  21   1.0000      -2.244396       -61.0731
  22   1.0000      -2.243232       -61.0414
  23   1.0000      -2.240750       -60.9739
  24   1.0000      -2.240719       -60.9731
  25   1.0000      -2.239352       -60.9359
  26   1.0000      -2.239332       -60.9353
  27   1.0000      -2.239273       -60.9337
  28   1.0000      -2.239218       -60.9322
  29   1.0000      -2.238928       -60.9243
  30   1.0000      -2.238687       -60.9178
  31   1.0000      -2.237702       -60.8910
  32   1.0000      -2.236999       -60.8718
  33   1.0000      -2.236722       -60.8643
  34   1.0000      -2.236039       -60.8457
  35   1.0000      -2.235901       -60.8420
  36   1.0000      -2.235778       -60.8386
  37   1.0000      -2.235579       -60.8332
  38   1.0000      -2.235397       -60.8282
  39   1.0000      -2.235026       -60.8182
  40   1.0000      -2.234826       -60.8127
  41   1.0000      -2.234483       -60.8034
  42   1.0000      -2.233903       -60.7876
  43   1.0000      -2.233764       -60.7838
  44   1.0000      -2.233378       -60.7733
  45   1.0000      -2.232445       -60.7479
  46   1.0000      -2.232379       -60.7461
  47   1.0000      -2.232315       -60.7444
  48   1.0000      -2.231155       -60.7128
  49   1.0000      -2.231107       -60.7115
  50   1.0000      -2.230713       -60.7008
  51   1.0000      -2.230544       -60.6962
  52   1.0000      -2.227759       -60.6204
  53   1.0000      -2.227184       -60.6048
  54   1.0000      -1.851086       -50.3706
  55   1.0000      -1.848552       -50.3017
  56   1.0000      -1.847863       -50.2829
  57   1.0000      -0.418710       -11.3937
  58   1.0000      -0.387507       -10.5446
  59   1.0000      -0.383201       -10.4274
  60   1.0000      -0.373923       -10.1750
  61   1.0000      -0.366815        -9.9815
  62   1.0000      -0.364966        -9.9312
  63   1.0000      -0.363228        -9.8839
  64   1.0000      -0.357839        -9.7373
  65   1.0000      -0.348281        -9.4772
  66   1.0000      -0.347668        -9.4605
  67   1.0000      -0.342729        -9.3261
  68   1.0000      -0.342607        -9.3228
  69   1.0000      -0.339343        -9.2340
  70   1.0000      -0.335356        -9.1255
  71   1.0000      -0.330728        -8.9996
  72   1.0000      -0.330114        -8.9829
  73   1.0000      -0.327732        -8.9180
  74   1.0000      -0.327011        -8.8984
  75   1.0000      -0.324041        -8.8176
  76   1.0000      -0.323523        -8.8035
  77   1.0000      -0.320450        -8.7199
  78   1.0000      -0.320446        -8.7198
  79   1.0000      -0.315178        -8.5764
  80   1.0000      -0.308354        -8.3907
  81   1.0000      -0.306822        -8.3490
  82   1.0000      -0.305523        -8.3137
  83   1.0000      -0.301013        -8.1910
  84   1.0000      -0.297541        -8.0965
  85   1.0000      -0.296750        -8.0750
  86   1.0000      -0.295437        -8.0393
  87   1.0000      -0.294530        -8.0146
  88   1.0000      -0.288422        -7.8484
  89   1.0000      -0.287624        -7.8267
  90   1.0000      -0.287484        -7.8228
  91   1.0000      -0.284605        -7.7445
  92   1.0000      -0.283797        -7.7225
  93   1.0000      -0.277297        -7.5456
  94   1.0000      -0.276578        -7.5261
  95   1.0000      -0.276544        -7.5251
  96   1.0000      -0.276490        -7.5237
  97   1.0000      -0.276156        -7.5146
  98   1.0000      -0.273875        -7.4525
  99   1.0000      -0.271854        -7.3975
 100   1.0000      -0.269168        -7.3244
 101   1.0000      -0.269160        -7.3242
 102   1.0000      -0.265609        -7.2276
 103   1.0000      -0.264298        -7.1919
 104   1.0000      -0.262893        -7.1537
 105   1.0000      -0.260863        -7.0985
 106   1.0000      -0.260813        -7.0971
 107   1.0000      -0.259987        -7.0746
 108   1.0000      -0.258602        -7.0369
 109   1.0000      -0.257716        -7.0128
 110   1.0000      -0.257424        -7.0049
 111   1.0000      -0.254389        -6.9223
 112   1.0000      -0.252687        -6.8760
 113   1.0000      -0.249522        -6.7898
 114   1.0000      -0.248828        -6.7709
 115   1.0000      -0.246578        -6.7097
 116   1.0000      -0.245775        -6.6879
 117   1.0000      -0.244023        -6.6402
 118   1.0000      -0.239317        -6.5121
 119   1.0000      -0.236636        -6.4392
 120   1.0000      -0.236416        -6.4332
 121   1.0000      -0.222679        -6.0594
 122   1.0000      -0.208601        -5.6763
 123   1.0000      -0.193807        -5.2738
 124   1.0000      -0.188406        -5.1268
 125   0.0000      -0.147826        -4.0225
 126   0.0000      -0.145054        -3.9471
 127   0.0000      -0.139538        -3.7970
 128   0.0000      -0.125191        -3.4066
 129   0.0000      -0.123693        -3.3659

MULLIKEN ATOMIC CHARGES AND SPIN POPULATIONS
--------------------------------------------
   0 Au:    0.052725    0.028910
   1 Au:    0.383625    0.039917
   2 Au:    0.084897   -0.147031
   3 Au:    0.335468   -0.076485
   4 Au:    0.083911   -0.147341
   5 Au:    0.228171   -0.161407
   6 Au:    0.335672   -0.075960
   7 Au:    0.084129   -0.147237
   8 Au:    0.083638   -0.146705
   9 Au:    0.228500   -0.161776
  10 Au:    0.383619    0.040672
  11 Au:    0.050466    0.029525
  12 Mn:   -2.334820    3.924918
Sum of atomic charges         :   -0.0000000

LOEWDIN ATOMIC CHARGES AND SPIN POPULATIONS
-------------------------------------------
   0 Au:    0.034012    0.010230
   1 Au:    0.101820   -0.000801
   2 Au:   -0.006853   -0.087288
   3 Au:    0.109666   -0.128551
   4 Au:   -0.006516   -0.087450
   5 Au:    0.053148   -0.149839
   6 Au:    0.109751   -0.128117
   7 Au:   -0.006497   -0.087169
   8 Au:   -0.006761   -0.087317
   9 Au:    0.052589   -0.149785
  10 Au:    0.102051    0.000010
  11 Au:    0.033978    0.010961
  12 Mn:   -0.570388    3.885115

  Mayer bond orders larger than 0.100000
B(  0-Au,  1-Au) :   0.3472 B(  0-Au,  4-Au) :   0.1344 B(  0-Au,  7-Au) :   0.1347
B(  0-Au, 11-Au) :   0.4696 B(  0-Au, 12-Mn) :   0.5658 B(  1-Au,  4-Au) :   0.3486
B(  1-Au,  7-Au) :   0.3502 B(  2-Au,  3-Au) :   0.3361 B(  2-Au,  8-Au) :   0.1810
B(  2-Au,  9-Au) :   0.2111 B(  2-Au, 10-Au) :   0.3488 B(  2-Au, 11-Au) :   0.1350
B(  2-Au, 12-Mn) :   0.4450 B(  3-Au,  4-Au) :   0.3350 B(  3-Au, 12-Mn) :   0.5037
B(  4-Au,  5-Au) :   0.2116 B(  4-Au,  7-Au) :   0.1784 B(  4-Au, 12-Mn) :   0.4474
B(  5-Au,  7-Au) :   0.2110 B(  5-Au,  9-Au) :   0.2403 B(  5-Au, 12-Mn) :   0.5327
B(  6-Au,  7-Au) :   0.3358 B(  6-Au,  8-Au) :   0.3351 B(  6-Au, 12-Mn) :   0.5051
B(  7-Au, 12-Mn) :   0.4468 B(  8-Au,  9-Au) :   0.2116 B(  8-Au, 10-Au) :   0.3490
B(  8-Au, 11-Au) :   0.1335 B(  8-Au, 12-Mn) :   0.4455 B(  9-Au, 12-Mn) :   0.5329
B( 10-Au, 11-Au) :   0.3477 B( 11-Au, 12-Mn) :   0.5668

FINAL SINGLE POINT ENERGY     -2780.703611611395

DIPOLE MOMENT
-------------
                                X             Y             Z
Electronic contribution:     -0.39853       0.42362      -0.04583
Nuclear contribution   :      0.44256      -0.47649       0.04661
                        -----------------------------------------
Total Dipole Moment    :      0.04403      -0.05287       0.00078
                        -----------------------------------------
Magnitude (a.u.)       :      0.06880
Magnitude (Debye)      :      0.17488

Rotational constants in cm-1:     0.001723     0.001068     0.000957
Rotational constants in MHz :    51.646989    32.010626    28.689017

                             ****ORCA TERMINATED NORMALLY****
TOTAL RUN TIME: 0 days 2 hours 34 minutes 6 seconds 849 msec
