                         Program Version 5.0.3 -  RELEASE  -
|  1> !RI-B2PLYP def2-TZVP def2-TZVP/C
|  2> !RIJCOSX VERYSLOWCONV
|  3>
|  4> %scf
|  5>   AutoTRAHIter 200
|  6>   maxiter 400
|  7> end
|  8>
|  9>
| 10> %pal nprocs 6 end
| 11>
| 12> *xyzfile 0 6 pbe.xyz
| 13>
| 14> $new_job
| 15>
| 16> !RI-B2PLYP def2-TZVP def2-TZVP/C
| 17> !RIJCOSX VERYSLOWCONV
| 18>
| 19> %scf
| 20>   AutoTRAHIter 200
| 21>   maxiter 400
| 22> end
| 23>
| 24>
| 25> %pal nprocs 6 end
| 26>
| 27> *xyzfile 0 4 pbe.xyz
| 28>
| 29>
| 30>
| 31>
| 32>
| 33>                          ****END OF INPUT****
 Total Charge           Charge          ....    0
 Multiplicity           Mult            ....    6
 Number of Electrons    NEL             ....  329
MP2 TOTAL ENERGY:    -3320.287676556 Eh
FINAL SINGLE POINT ENERGY     -3320.287676555621

CARTESIAN COORDINATES (ANGSTROEM)
---------------------------------
  Au     7.861906    5.881458    9.814884
  Au     5.324278    4.679755    9.679840
  Au     9.714946    4.885973    7.830305
  Au     6.913016    4.902612    7.354493
  Au     5.960364    6.208704    5.116806
  Au     4.414771    6.187760    7.548932
  Au     5.762350   10.042913    9.790397
  Au     3.688737    8.678343    8.537416
  Au     9.490290    7.591013    8.404027
  Au     7.919679    9.850347    8.011409
  Au     9.721211    9.038723    6.044701
  Au     7.917474    8.557475   10.556023
  Au     8.612045    6.514659    5.862904
  Au     6.998486    8.803659    5.521910
  Au     4.288012    8.325276    5.784527
  Au     5.421780   10.531069    7.032682
  Mn     5.616470    7.341045    9.772739

 Multiplicity           Mult            ....    4
 Number of Electrons    NEL             ....  329
 Basis Dimension        Dim             ....  685

ORBITAL ENERGIES
----------------
                 SPIN UP ORBITALS
  NO   OCC          E(Eh)            E(eV)
   0   1.0000    -237.638256     -6466.4657
   1   1.0000     -28.141604      -765.7720
   2   1.0000     -24.060776      -654.7270
   3   1.0000     -24.058564      -654.6668
   4   1.0000     -24.058134      -654.6551
   5   1.0000      -4.409306      -119.9833
   6   1.0000      -4.405999      -119.8933
   7   1.0000      -4.404072      -119.8409
   8   1.0000      -4.403937      -119.8372
   9   1.0000      -4.403208      -119.8174
  10   1.0000      -4.399809      -119.7249
  11   1.0000      -4.399615      -119.7196
  12   1.0000      -4.398310      -119.6841
  13   1.0000      -4.398258      -119.6827
  14   1.0000      -4.398055      -119.6772
  15   1.0000      -4.397853      -119.6717
  16   1.0000      -4.396607      -119.6378
  17   1.0000      -4.391551      -119.5002
  18   1.0000      -4.389823      -119.4532
  19   1.0000      -4.387036      -119.3773
  20   1.0000      -4.382135      -119.2439
  21   1.0000      -3.619829       -98.5006
  22   1.0000      -2.528821       -68.8127
  23   1.0000      -2.527947       -68.7889
  24   1.0000      -2.526744       -68.7562
  25   1.0000      -2.524930       -68.7068
  26   1.0000      -2.524605       -68.6980
  27   1.0000      -2.524086       -68.6839
  28   1.0000      -2.523052       -68.6557
  29   1.0000      -2.522458       -68.6396
  30   1.0000      -2.521827       -68.6224
  31   1.0000      -2.521453       -68.6122
  32   1.0000      -2.521021       -68.6005
  33   1.0000      -2.520811       -68.5948
  34   1.0000      -2.520696       -68.5916
  35   1.0000      -2.519981       -68.5722
  36   1.0000      -2.519625       -68.5625
  37   1.0000      -2.518644       -68.5358
  38   1.0000      -2.518583       -68.5341
  39   1.0000      -2.518304       -68.5265
  40   1.0000      -2.518042       -68.5194
  41   1.0000      -2.517722       -68.5107
  42   1.0000      -2.517229       -68.4973
  43   1.0000      -2.516924       -68.4890
  44   1.0000      -2.516440       -68.4758
  45   1.0000      -2.516321       -68.4726
  46   1.0000      -2.515335       -68.4457
  47   1.0000      -2.514943       -68.4351
  48   1.0000      -2.514519       -68.4235
  49   1.0000      -2.513730       -68.4021
  50   1.0000      -2.513552       -68.3972
  51   1.0000      -2.513286       -68.3900
  52   1.0000      -2.512727       -68.3748
  53   1.0000      -2.512442       -68.3670
  54   1.0000      -2.512260       -68.3621
  55   1.0000      -2.511911       -68.3526
  56   1.0000      -2.511785       -68.3491
  57   1.0000      -2.511199       -68.3332
  58   1.0000      -2.510503       -68.3143
  59   1.0000      -2.508188       -68.2513
  60   1.0000      -2.507853       -68.2421
  61   1.0000      -2.507307       -68.2273
  62   1.0000      -2.506070       -68.1936
  63   1.0000      -2.504828       -68.1598
  64   1.0000      -2.504751       -68.1577
  65   1.0000      -2.503735       -68.1301
  66   1.0000      -2.501889       -68.0799
  67   1.0000      -2.500838       -68.0513
  68   1.0000      -2.498886       -67.9981
  69   1.0000      -2.498179       -67.9789
  70   1.0000      -2.423872       -65.9569
  71   1.0000      -2.419763       -65.8451
  72   1.0000      -2.419353       -65.8339
  73   1.0000      -0.522284       -14.2121
  74   1.0000      -0.518554       -14.1106
  75   1.0000      -0.515461       -14.0264
  76   1.0000      -0.512578       -13.9480
  77   1.0000      -0.511360       -13.9148
  78   1.0000      -0.479543       -13.0490
  79   1.0000      -0.472898       -12.8682
  80   1.0000      -0.472093       -12.8463
  81   1.0000      -0.471061       -12.8182
  82   1.0000      -0.466166       -12.6850
  83   1.0000      -0.464526       -12.6404
  84   1.0000      -0.464108       -12.6290
  85   1.0000      -0.460711       -12.5366
  86   1.0000      -0.459694       -12.5089
  87   1.0000      -0.457219       -12.4416
  88   1.0000      -0.456882       -12.4324
  89   1.0000      -0.454885       -12.3780
  90   1.0000      -0.453290       -12.3346
  91   1.0000      -0.452235       -12.3059
  92   1.0000      -0.448958       -12.2168
  93   1.0000      -0.448799       -12.2124
  94   1.0000      -0.447899       -12.1880
  95   1.0000      -0.445899       -12.1335
  96   1.0000      -0.445153       -12.1132
  97   1.0000      -0.442510       -12.0413
  98   1.0000      -0.439994       -11.9728
  99   1.0000      -0.438678       -11.9370
 100   1.0000      -0.436473       -11.8770
 101   1.0000      -0.435979       -11.8636
 102   1.0000      -0.433471       -11.7953
 103   1.0000      -0.431579       -11.7439
 104   1.0000      -0.429709       -11.6930
 105   1.0000      -0.428458       -11.6589
 106   1.0000      -0.422446       -11.4953
 107   1.0000      -0.418412       -11.3856
 108   1.0000      -0.417078       -11.3493
 109   1.0000      -0.414123       -11.2689
 110   1.0000      -0.412008       -11.2113
 111   1.0000      -0.409904       -11.1541
 112   1.0000      -0.409046       -11.1307
 113   1.0000      -0.405149       -11.0247
 114   1.0000      -0.403706       -10.9854
 115   1.0000      -0.401231       -10.9180
 116   1.0000      -0.399459       -10.8698
 117   1.0000      -0.396578       -10.7914
 118   1.0000      -0.395245       -10.7552
 119   1.0000      -0.392203       -10.6724
 120   1.0000      -0.390849       -10.6355
 121   1.0000      -0.388614       -10.5747
 122   1.0000      -0.386188       -10.5087
 123   1.0000      -0.384613       -10.4659
 124   1.0000      -0.382106       -10.3976
 125   1.0000      -0.379088       -10.3155
 126   1.0000      -0.377696       -10.2776
 127   1.0000      -0.376945       -10.2572
 128   1.0000      -0.375471       -10.2171
 129   1.0000      -0.371391       -10.1061
 130   1.0000      -0.369263       -10.0482
 131   1.0000      -0.368113       -10.0169
 132   1.0000      -0.367037        -9.9876
 133   1.0000      -0.365254        -9.9391
 134   1.0000      -0.363369        -9.8878
 135   1.0000      -0.362950        -9.8764
 136   1.0000      -0.362245        -9.8572
 137   1.0000      -0.358791        -9.7632
 138   1.0000      -0.357023        -9.7151
 139   1.0000      -0.356093        -9.6898
 140   1.0000      -0.355166        -9.6645
 141   1.0000      -0.352403        -9.5894
 142   1.0000      -0.352145        -9.5823
 143   1.0000      -0.351565        -9.5666
 144   1.0000      -0.348857        -9.4929
 145   1.0000      -0.348364        -9.4795
 146   1.0000      -0.346247        -9.4219
 147   1.0000      -0.345909        -9.4127
 148   1.0000      -0.344342        -9.3700
 149   1.0000      -0.343298        -9.3416
 150   1.0000      -0.341765        -9.2999
 151   1.0000      -0.339036        -9.2256
 152   1.0000      -0.338188        -9.2026
 153   1.0000      -0.335089        -9.1182
 154   1.0000      -0.332108        -9.0371
 155   1.0000      -0.325081        -8.8459
 156   1.0000      -0.322068        -8.7639
 157   1.0000      -0.320951        -8.7335
 158   1.0000      -0.319145        -8.6844
 159   1.0000      -0.317006        -8.6262
 160   1.0000      -0.312374        -8.5001
 161   1.0000      -0.311382        -8.4731
 162   1.0000      -0.262469        -7.1421
 163   1.0000      -0.248463        -6.7610
 164   1.0000      -0.233096        -6.3429
 165   1.0000      -0.230089        -6.2610
 166   0.0000      -0.133084        -3.6214
 167   0.0000      -0.089690        -2.4406
 168   0.0000      -0.080196        -2.1823
 169   0.0000      -0.073438        -1.9983
 170   0.0000      -0.067842        -1.8461

                 SPIN DOWN ORBITALS
  NO   OCC          E(Eh)            E(eV)
   0   1.0000    -237.636297     -6466.4124
   1   1.0000     -28.039992      -763.0070
   2   1.0000     -23.966600      -652.1643
   3   1.0000     -23.965691      -652.1396
   4   1.0000     -23.965284      -652.1285
   5   1.0000      -4.409290      -119.9829
   6   1.0000      -4.406631      -119.9105
   7   1.0000      -4.404686      -119.8576
   8   1.0000      -4.403810      -119.8338
   9   1.0000      -4.402551      -119.7995
  10   1.0000      -4.400926      -119.7553
  11   1.0000      -4.400739      -119.7502
  12   1.0000      -4.400242      -119.7367
  13   1.0000      -4.398502      -119.6893
  14   1.0000      -4.398342      -119.6850
  15   1.0000      -4.397690      -119.6672
  16   1.0000      -4.397435      -119.6603
  17   1.0000      -4.392233      -119.5187
  18   1.0000      -4.390482      -119.4711
  19   1.0000      -4.387328      -119.3853
  20   1.0000      -4.382943      -119.2659
  21   1.0000      -3.333636       -90.7129
  22   1.0000      -2.528316       -68.7990
  23   1.0000      -2.527391       -68.7738
  24   1.0000      -2.527262       -68.7703
  25   1.0000      -2.524781       -68.7028
  26   1.0000      -2.524113       -68.6846
  27   1.0000      -2.523705       -68.6735
  28   1.0000      -2.522933       -68.6525
  29   1.0000      -2.522888       -68.6513
  30   1.0000      -2.522260       -68.6342
  31   1.0000      -2.521849       -68.6230
  32   1.0000      -2.521035       -68.6009
  33   1.0000      -2.520772       -68.5937
  34   1.0000      -2.520515       -68.5867
  35   1.0000      -2.520414       -68.5840
  36   1.0000      -2.519659       -68.5634
  37   1.0000      -2.519153       -68.5496
  38   1.0000      -2.519002       -68.5455
  39   1.0000      -2.518582       -68.5341
  40   1.0000      -2.518221       -68.5243
  41   1.0000      -2.517938       -68.5166
  42   1.0000      -2.517355       -68.5007
  43   1.0000      -2.517133       -68.4947
  44   1.0000      -2.516828       -68.4864
  45   1.0000      -2.516627       -68.4809
  46   1.0000      -2.515871       -68.4603
  47   1.0000      -2.515637       -68.4540
  48   1.0000      -2.515261       -68.4437
  49   1.0000      -2.514805       -68.4313
  50   1.0000      -2.513947       -68.4080
  51   1.0000      -2.513755       -68.4027
  52   1.0000      -2.513340       -68.3915
  53   1.0000      -2.513025       -68.3829
  54   1.0000      -2.512499       -68.3686
  55   1.0000      -2.512217       -68.3609
  56   1.0000      -2.511427       -68.3394
  57   1.0000      -2.511245       -68.3344
  58   1.0000      -2.510450       -68.3128
  59   1.0000      -2.509218       -68.2793
  60   1.0000      -2.508955       -68.2721
  61   1.0000      -2.508101       -68.2489
  62   1.0000      -2.506630       -68.2089
  63   1.0000      -2.505465       -68.1772
  64   1.0000      -2.505083       -68.1668
  65   1.0000      -2.504184       -68.1423
  66   1.0000      -2.502023       -68.0835
  67   1.0000      -2.501319       -68.0644
  68   1.0000      -2.498902       -67.9986
  69   1.0000      -2.498599       -67.9903
  70   1.0000      -2.094733       -57.0006
  71   1.0000      -2.092628       -56.9433
  72   1.0000      -2.092078       -56.9283
  73   1.0000      -0.487644       -13.2695
  74   1.0000      -0.476586       -12.9686
  75   1.0000      -0.474907       -12.9229
  76   1.0000      -0.473922       -12.8961
  77   1.0000      -0.469800       -12.7839
  78   1.0000      -0.469131       -12.7657
  79   1.0000      -0.466412       -12.6917
  80   1.0000      -0.465344       -12.6627
  81   1.0000      -0.463359       -12.6086
  82   1.0000      -0.460644       -12.5348
  83   1.0000      -0.459724       -12.5097
  84   1.0000      -0.459458       -12.5025
  85   1.0000      -0.457915       -12.4605
  86   1.0000      -0.454564       -12.3693
  87   1.0000      -0.453597       -12.3430
  88   1.0000      -0.451484       -12.2855
  89   1.0000      -0.451049       -12.2737
  90   1.0000      -0.449265       -12.2251
  91   1.0000      -0.447564       -12.1788
  92   1.0000      -0.446051       -12.1377
  93   1.0000      -0.443917       -12.0796
  94   1.0000      -0.441982       -12.0270
  95   1.0000      -0.439580       -11.9616
  96   1.0000      -0.438834       -11.9413
  97   1.0000      -0.438447       -11.9307
  98   1.0000      -0.435154       -11.8411
  99   1.0000      -0.434607       -11.8263
 100   1.0000      -0.432932       -11.7807
 101   1.0000      -0.425973       -11.5913
 102   1.0000      -0.424628       -11.5547
 103   1.0000      -0.422720       -11.5028
 104   1.0000      -0.418868       -11.3980
 105   1.0000      -0.414099       -11.2682
 106   1.0000      -0.412589       -11.2271
 107   1.0000      -0.411391       -11.1945
 108   1.0000      -0.407244       -11.0817
 109   1.0000      -0.406487       -11.0611
 110   1.0000      -0.402728       -10.9588
 111   1.0000      -0.400700       -10.9036
 112   1.0000      -0.400396       -10.8953
 113   1.0000      -0.398976       -10.8567
 114   1.0000      -0.396558       -10.7909
 115   1.0000      -0.393634       -10.7113
 116   1.0000      -0.391348       -10.6491
 117   1.0000      -0.390376       -10.6227
 118   1.0000      -0.386570       -10.5191
 119   1.0000      -0.386408       -10.5147
 120   1.0000      -0.385050       -10.4777
 121   1.0000      -0.382599       -10.4110
 122   1.0000      -0.379225       -10.3192
 123   1.0000      -0.377867       -10.2823
 124   1.0000      -0.376487       -10.2447
 125   1.0000      -0.371283       -10.1031
 126   1.0000      -0.370357       -10.0779
 127   1.0000      -0.368630       -10.0309
 128   1.0000      -0.367907       -10.0112
 129   1.0000      -0.365452        -9.9445
 130   1.0000      -0.364787        -9.9264
 131   1.0000      -0.364055        -9.9065
 132   1.0000      -0.360588        -9.8121
 133   1.0000      -0.359845        -9.7919
 134   1.0000      -0.357444        -9.7265
 135   1.0000      -0.356525        -9.7015
 136   1.0000      -0.354478        -9.6458
 137   1.0000      -0.353991        -9.6326
 138   1.0000      -0.353298        -9.6137
 139   1.0000      -0.350652        -9.5417
 140   1.0000      -0.349606        -9.5133
 141   1.0000      -0.349090        -9.4992
 142   1.0000      -0.347261        -9.4495
 143   1.0000      -0.346168        -9.4197
 144   1.0000      -0.345145        -9.3919
 145   1.0000      -0.343582        -9.3493
 146   1.0000      -0.341597        -9.2953
 147   1.0000      -0.340289        -9.2597
 148   1.0000      -0.337884        -9.1943
 149   1.0000      -0.335450        -9.1281
 150   1.0000      -0.328380        -8.9357
 151   1.0000      -0.325767        -8.8646
 152   1.0000      -0.325038        -8.8447
 153   1.0000      -0.324466        -8.8292
 154   1.0000      -0.321341        -8.7441
 155   1.0000      -0.320395        -8.7184
 156   1.0000      -0.315054        -8.5730
 157   1.0000      -0.271590        -7.3903
 158   1.0000      -0.259484        -7.0609
 159   1.0000      -0.242133        -6.5888
 160   1.0000      -0.238652        -6.4941
 161   1.0000      -0.212374        -5.7790
 162   1.0000      -0.170267        -4.6332
 163   0.0000      -0.089587        -2.4378
 164   0.0000      -0.083432        -2.2703
 165   0.0000      -0.075023        -2.0415
 166   0.0000      -0.069604        -1.8940
 167   0.0000      -0.066665        -1.8141

MULLIKEN ATOMIC CHARGES AND SPIN POPULATIONS
--------------------------------------------
   0 Au:   -0.046714   -0.088478
   1 Au:    0.307479   -0.252357
   2 Au:    0.344968   -0.290488
   3 Au:   -0.420441   -0.069942
   4 Au:    0.186377   -0.010655
   5 Au:   -0.179267   -0.149994
   6 Au:    0.219055   -0.095922
   7 Au:    0.138882   -0.064181
   8 Au:   -0.312191   -0.013545
   9 Au:   -0.464845   -0.202227
  10 Au:    0.530725   -0.055617
  11 Au:    0.225628   -0.127927
  12 Au:   -0.129215   -0.086929
  13 Au:   -0.455973   -0.159088
  14 Au:    0.133624   -0.091261
  15 Au:    0.164029    0.036266
  16 Mn:   -0.242122    4.722347
Sum of atomic charges         :   -0.0000000

LOEWDIN ATOMIC CHARGES AND SPIN POPULATIONS
-------------------------------------------
   0 Au:   -0.069614   -0.074942
   1 Au:    0.097021   -0.205150
   2 Au:    0.087738   -0.177945
   3 Au:   -0.106467   -0.087794
   4 Au:    0.053467   -0.094650
   5 Au:   -0.084006   -0.104796
   6 Au:   -0.015930   -0.116549
   7 Au:   -0.002272   -0.031112
   8 Au:   -0.104477   -0.079530
   9 Au:   -0.094271   -0.106208
  10 Au:    0.168630   -0.092759
  11 Au:    0.033971   -0.146910
  12 Au:   -0.090129   -0.110858
  13 Au:   -0.089604   -0.105670
  14 Au:   -0.025805   -0.085089
  15 Au:    0.005415   -0.011323
  16 Mn:    0.236332    4.631285

  Mayer bond orders larger than 0.100000
B(  0-Au,  1-Au) :   0.1331 B(  0-Au,  2-Au) :   0.1536 B(  0-Au,  3-Au) :   0.3113
B(  0-Au,  8-Au) :   0.3439 B(  0-Au, 11-Au) :   0.1783 B(  0-Au, 16-Mn) :   0.4489
B(  1-Au,  3-Au) :   0.2002 B(  1-Au,  5-Au) :   0.2936 B(  1-Au, 16-Mn) :   0.4148
B(  2-Au,  3-Au) :   0.2015 B(  2-Au,  8-Au) :   0.2518 B(  2-Au, 12-Au) :   0.2340
B(  3-Au,  4-Au) :   0.3673 B(  3-Au,  5-Au) :   0.2716 B(  3-Au,  8-Au) :   0.1015
B(  3-Au, 12-Au) :   0.3470 B(  4-Au,  5-Au) :   0.2171 B(  4-Au, 12-Au) :   0.2842
B(  4-Au, 13-Au) :   0.2359 B(  4-Au, 14-Au) :   0.2289 B(  5-Au,  7-Au) :   0.2432
B(  5-Au, 14-Au) :   0.3272 B(  5-Au, 16-Mn) :   0.4000 B(  6-Au,  7-Au) :   0.1703
B(  6-Au,  9-Au) :   0.2913 B(  6-Au, 11-Au) :   0.2628 B(  6-Au, 15-Au) :   0.1900
B(  6-Au, 16-Mn) :   0.4332 B(  7-Au, 14-Au) :   0.1876 B(  7-Au, 15-Au) :   0.1447
B(  7-Au, 16-Mn) :   0.4928 B(  8-Au,  9-Au) :   0.3752 B(  8-Au, 10-Au) :   0.1866
B(  8-Au, 11-Au) :   0.2646 B(  8-Au, 12-Au) :   0.3154 B(  9-Au, 10-Au) :   0.2708
B(  9-Au, 11-Au) :   0.2027 B(  9-Au, 13-Au) :   0.3870 B(  9-Au, 15-Au) :   0.3529
B(  9-Au, 16-Mn) :   0.1118 B( 10-Au, 12-Au) :   0.2010 B( 10-Au, 13-Au) :   0.2670
B( 11-Au, 16-Mn) :   0.3713 B( 12-Au, 13-Au) :   0.3511 B( 13-Au, 14-Au) :   0.3950
B( 13-Au, 15-Au) :   0.3312 B( 14-Au, 15-Au) :   0.2252

MP2 TOTAL ENERGY:    -3320.252321625 Eh
FINAL SINGLE POINT ENERGY     -3320.252321624932

DIPOLE MOMENT
-------------
                                X             Y             Z
Electronic contribution:     46.07706       7.31452     -76.15762
Nuclear contribution   :    -46.07140      -7.37069      76.54824
                        -----------------------------------------
Total Dipole Moment    :      0.00566      -0.05617       0.39062
                        -----------------------------------------
Magnitude (a.u.)       :      0.39468
Magnitude (Debye)      :      1.00320

Rotational constants in cm-1:     0.000888     0.000782     0.000733
Rotational constants in MHz :    26.629884    23.439977    21.983610

                             ****ORCA TERMINATED NORMALLY****
TOTAL RUN TIME: 0 days 1 hours 33 minutes 1 seconds 238 msec
