                         Program Version 5.0.3 -  RELEASE  -
|  1> !PBE def2-TZVP VERYSLOWCONV
|  2> !KDIIS
|  3>
|  4> %scf
|  5>   AutoTRAHIter 200
|  6>   maxiter 400
|  7> end
|  8>
|  9>
| 10> %pal nprocs 6 end
| 11>
| 12> *xyzfile 0 6 pbe.xyz
| 13>
| 14> $new_job
| 15>
| 16> !PBE def2-TZVP VERYSLOWCONV
| 17> !KDIIS
| 18>
| 19> %scf
| 20>   AutoTRAHIter 200
| 21>   maxiter 400
| 22> end
| 23>
| 24>
| 25> %pal nprocs 6 end
| 26>
| 27> *xyzfile 0 4 pbe.xyz
| 28>
| 29>
| 30>
| 31>
| 32>
| 33>                          ****END OF INPUT****
 Total Charge           Charge          ....    0
 Multiplicity           Mult            ....    6
 Number of Electrons    NEL             ....  329
FINAL SINGLE POINT ENERGY     -3324.043959249334

CARTESIAN COORDINATES (ANGSTROEM)
---------------------------------
  Au     7.861906    5.881458    9.814884
  Au     5.324278    4.679755    9.679840
  Au     9.714946    4.885973    7.830305
  Au     6.913016    4.902612    7.354493
  Au     5.960364    6.208704    5.116806
  Au     4.414771    6.187760    7.548932
  Au     5.762350   10.042913    9.790397
  Au     3.688737    8.678343    8.537416
  Au     9.490290    7.591013    8.404027
  Au     7.919679    9.850347    8.011409
  Au     9.721211    9.038723    6.044701
  Au     7.917474    8.557475   10.556023
  Au     8.612045    6.514659    5.862904
  Au     6.998486    8.803659    5.521910
  Au     4.288012    8.325276    5.784527
  Au     5.421780   10.531069    7.032682
  Mn     5.616470    7.341045    9.772739

 Multiplicity           Mult            ....    4
 Number of Electrons    NEL             ....  329
 Basis Dimension        Dim             ....  685

ORBITAL ENERGIES
----------------
                 SPIN UP ORBITALS
  NO   OCC          E(Eh)            E(eV)
   0   1.0000    -234.203099     -6372.9903
   1   1.0000     -26.896086      -731.8797
   2   1.0000     -23.049661      -627.2132
   3   1.0000     -23.042346      -627.0141
   4   1.0000     -23.041862      -627.0009
   5   1.0000      -4.037601      -109.8687
   6   1.0000      -4.034506      -109.7845
   7   1.0000      -4.033179      -109.7484
   8   1.0000      -4.033002      -109.7436
   9   1.0000      -4.031669      -109.7073
  10   1.0000      -4.029634      -109.6519
  11   1.0000      -4.028635      -109.6247
  12   1.0000      -4.028305      -109.6157
  13   1.0000      -4.028130      -109.6110
  14   1.0000      -4.027122      -109.5836
  15   1.0000      -4.026543      -109.5678
  16   1.0000      -4.024856      -109.5219
  17   1.0000      -4.022995      -109.4713
  18   1.0000      -4.022360      -109.4540
  19   1.0000      -4.017433      -109.3199
  20   1.0000      -4.014683      -109.2451
  21   1.0000      -3.107192       -84.5510
  22   1.0000      -2.253285       -61.3150
  23   1.0000      -2.252160       -61.2844
  24   1.0000      -2.251043       -61.2540
  25   1.0000      -2.249267       -61.2057
  26   1.0000      -2.248694       -61.1901
  27   1.0000      -2.247652       -61.1617
  28   1.0000      -2.247294       -61.1520
  29   1.0000      -2.247019       -61.1445
  30   1.0000      -2.246780       -61.1380
  31   1.0000      -2.246342       -61.1261
  32   1.0000      -2.245996       -61.1167
  33   1.0000      -2.245446       -61.1017
  34   1.0000      -2.245280       -61.0972
  35   1.0000      -2.244763       -61.0831
  36   1.0000      -2.244356       -61.0720
  37   1.0000      -2.244041       -61.0635
  38   1.0000      -2.243707       -61.0544
  39   1.0000      -2.243673       -61.0535
  40   1.0000      -2.242993       -61.0349
  41   1.0000      -2.242777       -61.0291
  42   1.0000      -2.242627       -61.0250
  43   1.0000      -2.242477       -61.0209
  44   1.0000      -2.242293       -61.0159
  45   1.0000      -2.242086       -61.0103
  46   1.0000      -2.241376       -60.9909
  47   1.0000      -2.241085       -60.9830
  48   1.0000      -2.239518       -60.9404
  49   1.0000      -2.239177       -60.9311
  50   1.0000      -2.238852       -60.9223
  51   1.0000      -2.237368       -60.8819
  52   1.0000      -2.237187       -60.8770
  53   1.0000      -2.236716       -60.8641
  54   1.0000      -2.236413       -60.8559
  55   1.0000      -2.236063       -60.8464
  56   1.0000      -2.235964       -60.8437
  57   1.0000      -2.235767       -60.8383
  58   1.0000      -2.235506       -60.8312
  59   1.0000      -2.235221       -60.8235
  60   1.0000      -2.235002       -60.8175
  61   1.0000      -2.233945       -60.7887
  62   1.0000      -2.232836       -60.7585
  63   1.0000      -2.232290       -60.7437
  64   1.0000      -2.231557       -60.7238
  65   1.0000      -2.231268       -60.7159
  66   1.0000      -2.229462       -60.6668
  67   1.0000      -2.227076       -60.6018
  68   1.0000      -2.226686       -60.5912
  69   1.0000      -2.226153       -60.5767
  70   1.0000      -2.021231       -55.0005
  71   1.0000      -2.005028       -54.5596
  72   1.0000      -2.003719       -54.5240
  73   1.0000      -0.418204       -11.3799
  74   1.0000      -0.392408       -10.6780
  75   1.0000      -0.386349       -10.5131
  76   1.0000      -0.385921       -10.5014
  77   1.0000      -0.372136       -10.1263
  78   1.0000      -0.370440       -10.0802
  79   1.0000      -0.367361        -9.9964
  80   1.0000      -0.366474        -9.9723
  81   1.0000      -0.365363        -9.9420
  82   1.0000      -0.363842        -9.9006
  83   1.0000      -0.362521        -9.8647
  84   1.0000      -0.360779        -9.8173
  85   1.0000      -0.357657        -9.7323
  86   1.0000      -0.355329        -9.6690
  87   1.0000      -0.353769        -9.6265
  88   1.0000      -0.351136        -9.5549
  89   1.0000      -0.349490        -9.5101
  90   1.0000      -0.348650        -9.4872
  91   1.0000      -0.345336        -9.3971
  92   1.0000      -0.344554        -9.3758
  93   1.0000      -0.343553        -9.3485
  94   1.0000      -0.341430        -9.2908
  95   1.0000      -0.339168        -9.2292
  96   1.0000      -0.338885        -9.2215
  97   1.0000      -0.337330        -9.1792
  98   1.0000      -0.335203        -9.1213
  99   1.0000      -0.332226        -9.0403
 100   1.0000      -0.331267        -9.0142
 101   1.0000      -0.327023        -8.8987
 102   1.0000      -0.326689        -8.8897
 103   1.0000      -0.323695        -8.8082
 104   1.0000      -0.321225        -8.7410
 105   1.0000      -0.314714        -8.5638
 106   1.0000      -0.314104        -8.5472
 107   1.0000      -0.311302        -8.4710
 108   1.0000      -0.310710        -8.4549
 109   1.0000      -0.308232        -8.3874
 110   1.0000      -0.306965        -8.3530
 111   1.0000      -0.305333        -8.3085
 112   1.0000      -0.303355        -8.2547
 113   1.0000      -0.302060        -8.2195
 114   1.0000      -0.300663        -8.1815
 115   1.0000      -0.297843        -8.1047
 116   1.0000      -0.295769        -8.0483
 117   1.0000      -0.294803        -8.0220
 118   1.0000      -0.294341        -8.0094
 119   1.0000      -0.290212        -7.8971
 120   1.0000      -0.288451        -7.8491
 121   1.0000      -0.287080        -7.8118
 122   1.0000      -0.286034        -7.7834
 123   1.0000      -0.284414        -7.7393
 124   1.0000      -0.280489        -7.6325
 125   1.0000      -0.279999        -7.6192
 126   1.0000      -0.276817        -7.5326
 127   1.0000      -0.275061        -7.4848
 128   1.0000      -0.273777        -7.4498
 129   1.0000      -0.273626        -7.4457
 130   1.0000      -0.272108        -7.4044
 131   1.0000      -0.268739        -7.3128
 132   1.0000      -0.267929        -7.2907
 133   1.0000      -0.266926        -7.2634
 134   1.0000      -0.265942        -7.2367
 135   1.0000      -0.262771        -7.1504
 136   1.0000      -0.262248        -7.1361
 137   1.0000      -0.261638        -7.1195
 138   1.0000      -0.260796        -7.0966
 139   1.0000      -0.259824        -7.0702
 140   1.0000      -0.259575        -7.0634
 141   1.0000      -0.257970        -7.0197
 142   1.0000      -0.257727        -7.0131
 143   1.0000      -0.256295        -6.9742
 144   1.0000      -0.255284        -6.9466
 145   1.0000      -0.253536        -6.8991
 146   1.0000      -0.252567        -6.8727
 147   1.0000      -0.252181        -6.8622
 148   1.0000      -0.251734        -6.8500
 149   1.0000      -0.251195        -6.8354
 150   1.0000      -0.249670        -6.7939
 151   1.0000      -0.248298        -6.7565
 152   1.0000      -0.247628        -6.7383
 153   1.0000      -0.246191        -6.6992
 154   1.0000      -0.244618        -6.6564
 155   1.0000      -0.243796        -6.6340
 156   1.0000      -0.242038        -6.5862
 157   1.0000      -0.241836        -6.5807
 158   1.0000      -0.236496        -6.4354
 159   1.0000      -0.235145        -6.3986
 160   1.0000      -0.233445        -6.3524
 161   1.0000      -0.231131        -6.2894
 162   1.0000      -0.225921        -6.1476
 163   1.0000      -0.222954        -6.0669
 164   1.0000      -0.209834        -5.7099
 165   1.0000      -0.208915        -5.6849
 166   0.0000      -0.190538        -5.1848
 167   0.0000      -0.152057        -4.1377
 168   0.0000      -0.143302        -3.8995
 169   0.0000      -0.138927        -3.7804
 170   0.0000      -0.132313        -3.6004

                 SPIN DOWN ORBITALS
  NO   OCC          E(Eh)            E(eV)
   0   1.0000    -234.202407     -6372.9715
   1   1.0000     -26.830075      -730.0835
   2   1.0000     -22.996644      -625.7705
   3   1.0000     -22.993596      -625.6876
   4   1.0000     -22.993300      -625.6795
   5   1.0000      -4.037159      -109.8567
   6   1.0000      -4.034463      -109.7833
   7   1.0000      -4.033009      -109.7438
   8   1.0000      -4.032775      -109.7374
   9   1.0000      -4.031766      -109.7099
  10   1.0000      -4.030444      -109.6739
  11   1.0000      -4.029758      -109.6553
  12   1.0000      -4.028901      -109.6320
  13   1.0000      -4.028632      -109.6246
  14   1.0000      -4.027393      -109.5909
  15   1.0000      -4.025854      -109.5490
  16   1.0000      -4.025632      -109.5430
  17   1.0000      -4.023439      -109.4833
  18   1.0000      -4.023124      -109.4748
  19   1.0000      -4.017678      -109.3266
  20   1.0000      -4.014979      -109.2531
  21   1.0000      -2.943976       -80.1097
  22   1.0000      -2.252783       -61.3013
  23   1.0000      -2.251783       -61.2741
  24   1.0000      -2.251238       -61.2593
  25   1.0000      -2.248947       -61.1970
  26   1.0000      -2.248564       -61.1865
  27   1.0000      -2.248214       -61.1770
  28   1.0000      -2.247564       -61.1593
  29   1.0000      -2.246978       -61.1434
  30   1.0000      -2.246805       -61.1387
  31   1.0000      -2.246769       -61.1377
  32   1.0000      -2.246343       -61.1261
  33   1.0000      -2.245887       -61.1137
  34   1.0000      -2.245620       -61.1064
  35   1.0000      -2.245197       -61.0949
  36   1.0000      -2.244572       -61.0779
  37   1.0000      -2.244335       -61.0715
  38   1.0000      -2.244242       -61.0689
  39   1.0000      -2.244075       -61.0644
  40   1.0000      -2.243542       -61.0499
  41   1.0000      -2.243160       -61.0395
  42   1.0000      -2.242815       -61.0301
  43   1.0000      -2.242733       -61.0279
  44   1.0000      -2.242638       -61.0253
  45   1.0000      -2.241562       -60.9960
  46   1.0000      -2.241386       -60.9912
  47   1.0000      -2.241192       -60.9859
  48   1.0000      -2.240441       -60.9655
  49   1.0000      -2.239614       -60.9430
  50   1.0000      -2.238536       -60.9137
  51   1.0000      -2.238378       -60.9094
  52   1.0000      -2.237769       -60.8928
  53   1.0000      -2.237296       -60.8799
  54   1.0000      -2.237034       -60.8728
  55   1.0000      -2.236566       -60.8601
  56   1.0000      -2.236471       -60.8575
  57   1.0000      -2.236326       -60.8535
  58   1.0000      -2.236135       -60.8483
  59   1.0000      -2.235740       -60.8376
  60   1.0000      -2.234573       -60.8058
  61   1.0000      -2.234096       -60.7928
  62   1.0000      -2.233574       -60.7786
  63   1.0000      -2.232708       -60.7551
  64   1.0000      -2.231818       -60.7309
  65   1.0000      -2.231530       -60.7230
  66   1.0000      -2.229828       -60.6767
  67   1.0000      -2.227264       -60.6069
  68   1.0000      -2.226827       -60.5951
  69   1.0000      -2.226532       -60.5870
  70   1.0000      -1.851889       -50.3925
  71   1.0000      -1.848708       -50.3059
  72   1.0000      -1.848351       -50.2962
  73   1.0000      -0.418118       -11.3776
  74   1.0000      -0.392492       -10.6803
  75   1.0000      -0.387045       -10.5320
  76   1.0000      -0.383871       -10.4457
  77   1.0000      -0.372631       -10.1398
  78   1.0000      -0.370638       -10.0856
  79   1.0000      -0.367707       -10.0058
  80   1.0000      -0.366336        -9.9685
  81   1.0000      -0.365482        -9.9453
  82   1.0000      -0.363098        -9.8804
  83   1.0000      -0.362422        -9.8620
  84   1.0000      -0.358579        -9.7574
  85   1.0000      -0.356971        -9.7137
  86   1.0000      -0.354251        -9.6397
  87   1.0000      -0.353336        -9.6148
  88   1.0000      -0.351555        -9.5663
  89   1.0000      -0.348971        -9.4960
  90   1.0000      -0.348055        -9.4711
  91   1.0000      -0.345342        -9.3972
  92   1.0000      -0.343679        -9.3520
  93   1.0000      -0.341697        -9.2981
  94   1.0000      -0.339986        -9.2515
  95   1.0000      -0.339235        -9.2311
  96   1.0000      -0.338027        -9.1982
  97   1.0000      -0.336694        -9.1619
  98   1.0000      -0.332849        -9.0573
  99   1.0000      -0.332161        -9.0386
 100   1.0000      -0.331613        -9.0237
 101   1.0000      -0.325473        -8.8566
 102   1.0000      -0.323797        -8.8110
 103   1.0000      -0.323179        -8.7941
 104   1.0000      -0.318723        -8.6729
 105   1.0000      -0.313731        -8.5370
 106   1.0000      -0.313375        -8.5274
 107   1.0000      -0.312140        -8.4938
 108   1.0000      -0.309451        -8.4206
 109   1.0000      -0.306621        -8.3436
 110   1.0000      -0.304305        -8.2806
 111   1.0000      -0.303685        -8.2637
 112   1.0000      -0.302595        -8.2340
 113   1.0000      -0.301752        -8.2111
 114   1.0000      -0.298959        -8.1351
 115   1.0000      -0.297079        -8.0839
 116   1.0000      -0.295769        -8.0483
 117   1.0000      -0.294577        -8.0158
 118   1.0000      -0.291886        -7.9426
 119   1.0000      -0.289011        -7.8644
 120   1.0000      -0.287847        -7.8327
 121   1.0000      -0.287206        -7.8153
 122   1.0000      -0.285309        -7.7636
 123   1.0000      -0.282842        -7.6965
 124   1.0000      -0.280197        -7.6246
 125   1.0000      -0.278524        -7.5790
 126   1.0000      -0.276250        -7.5171
 127   1.0000      -0.274915        -7.4808
 128   1.0000      -0.273339        -7.4379
 129   1.0000      -0.272314        -7.4100
 130   1.0000      -0.270148        -7.3511
 131   1.0000      -0.269286        -7.3276
 132   1.0000      -0.266059        -7.2398
 133   1.0000      -0.264631        -7.2010
 134   1.0000      -0.263438        -7.1685
 135   1.0000      -0.262708        -7.1486
 136   1.0000      -0.262123        -7.1327
 137   1.0000      -0.260757        -7.0955
 138   1.0000      -0.259403        -7.0587
 139   1.0000      -0.259136        -7.0515
 140   1.0000      -0.258019        -7.0211
 141   1.0000      -0.256909        -6.9909
 142   1.0000      -0.255554        -6.9540
 143   1.0000      -0.254033        -6.9126
 144   1.0000      -0.253546        -6.8993
 145   1.0000      -0.252621        -6.8742
 146   1.0000      -0.251843        -6.8530
 147   1.0000      -0.249698        -6.7946
 148   1.0000      -0.249261        -6.7827
 149   1.0000      -0.248397        -6.7592
 150   1.0000      -0.246476        -6.7070
 151   1.0000      -0.245997        -6.6939
 152   1.0000      -0.243566        -6.6278
 153   1.0000      -0.241115        -6.5611
 154   1.0000      -0.239645        -6.5211
 155   1.0000      -0.237119        -6.4523
 156   1.0000      -0.232912        -6.3378
 157   1.0000      -0.232274        -6.3205
 158   1.0000      -0.226435        -6.1616
 159   1.0000      -0.214929        -5.8485
 160   1.0000      -0.211347        -5.7510
 161   1.0000      -0.193963        -5.2780
 162   1.0000      -0.167264        -4.5515
 163   0.0000      -0.154632        -4.2077
 164   0.0000      -0.148343        -4.0366
 165   0.0000      -0.140720        -3.8292
 166   0.0000      -0.139434        -3.7942
 167   0.0000      -0.135993        -3.7006

MULLIKEN ATOMIC CHARGES AND SPIN POPULATIONS
--------------------------------------------
   0 Au:   -0.046389   -0.084237
   1 Au:    0.392722   -0.127288
   2 Au:    0.411878   -0.171154
   3 Au:   -0.442481   -0.109469
   4 Au:    0.229028   -0.044524
   5 Au:   -0.207610   -0.116801
   6 Au:    0.269964   -0.053534
   7 Au:    0.189706   -0.033761
   8 Au:   -0.345298   -0.024578
   9 Au:   -0.506202   -0.186165
  10 Au:    0.555375   -0.079101
  11 Au:    0.288586   -0.079671
  12 Au:   -0.163048   -0.081985
  13 Au:   -0.512203   -0.112926
  14 Au:    0.174463   -0.050108
  15 Au:    0.200740    0.010051
  16 Mn:   -0.489230    4.345249
Sum of atomic charges         :   -0.0000000

LOEWDIN ATOMIC CHARGES AND SPIN POPULATIONS
-------------------------------------------
   0 Au:   -0.038418   -0.042168
   1 Au:    0.134343   -0.123713
   2 Au:    0.094757   -0.122350
   3 Au:   -0.099801   -0.092777
   4 Au:    0.051295   -0.088140
   5 Au:   -0.051306   -0.059734
   6 Au:    0.027838   -0.067946
   7 Au:    0.030316   -0.003816
   8 Au:   -0.095955   -0.069250
   9 Au:   -0.090406   -0.094912
  10 Au:    0.148419   -0.104205
  11 Au:    0.070825   -0.092005
  12 Au:   -0.083293   -0.095646
  13 Au:   -0.082309   -0.083724
  14 Au:   -0.013718   -0.058326
  15 Au:    0.000460   -0.022694
  16 Mn:   -0.003046    4.221408

  Mayer bond orders larger than 0.100000
B(  0-Au,  1-Au) :   0.1767 B(  0-Au,  2-Au) :   0.1945 B(  0-Au,  3-Au) :   0.3421
B(  0-Au,  8-Au) :   0.3598 B(  0-Au, 11-Au) :   0.2030 B(  0-Au, 16-Mn) :   0.5033
B(  1-Au,  3-Au) :   0.2309 B(  1-Au,  5-Au) :   0.3172 B(  1-Au, 16-Mn) :   0.4727
B(  2-Au,  3-Au) :   0.2329 B(  2-Au,  8-Au) :   0.2635 B(  2-Au, 12-Au) :   0.2615
B(  3-Au,  4-Au) :   0.3747 B(  3-Au,  5-Au) :   0.3233 B(  3-Au,  8-Au) :   0.1092
B(  3-Au, 12-Au) :   0.3633 B(  3-Au, 16-Mn) :   0.1065 B(  4-Au,  5-Au) :   0.2410
B(  4-Au, 12-Au) :   0.3122 B(  4-Au, 13-Au) :   0.2660 B(  4-Au, 14-Au) :   0.2595
B(  5-Au,  7-Au) :   0.2584 B(  5-Au, 14-Au) :   0.3521 B(  5-Au, 16-Mn) :   0.4603
B(  6-Au,  7-Au) :   0.2162 B(  6-Au,  9-Au) :   0.3121 B(  6-Au, 11-Au) :   0.2693
B(  6-Au, 15-Au) :   0.2293 B(  6-Au, 16-Mn) :   0.4623 B(  7-Au, 14-Au) :   0.2371
B(  7-Au, 15-Au) :   0.1805 B(  7-Au, 16-Mn) :   0.5320 B(  8-Au,  9-Au) :   0.4166
B(  8-Au, 10-Au) :   0.2160 B(  8-Au, 11-Au) :   0.2863 B(  8-Au, 12-Au) :   0.3474
B(  9-Au, 10-Au) :   0.3006 B(  9-Au, 11-Au) :   0.2255 B(  9-Au, 13-Au) :   0.4073
B(  9-Au, 15-Au) :   0.3684 B(  9-Au, 16-Mn) :   0.1140 B( 10-Au, 12-Au) :   0.2337
B( 10-Au, 13-Au) :   0.2992 B( 11-Au, 16-Mn) :   0.4219 B( 12-Au, 13-Au) :   0.3873
B( 13-Au, 14-Au) :   0.4056 B( 13-Au, 15-Au) :   0.3460 B( 14-Au, 15-Au) :   0.2721

FINAL SINGLE POINT ENERGY     -3324.020613011680

DIPOLE MOMENT
-------------
                                X             Y             Z
Electronic contribution:     46.08736       7.20476     -76.12820
Nuclear contribution   :    -46.07140      -7.37069      76.54824
                        -----------------------------------------
Total Dipole Moment    :      0.01596      -0.16593       0.42004
                        -----------------------------------------
Magnitude (a.u.)       :      0.45191
Magnitude (Debye)      :      1.14867

Rotational constants in cm-1:     0.000888     0.000782     0.000733
Rotational constants in MHz :    26.629884    23.439977    21.983610

                             ****ORCA TERMINATED NORMALLY****
TOTAL RUN TIME: 0 days 0 hours 11 minutes 10 seconds 117 msec
