                         Program Version 5.0.3 -  RELEASE  -
|  1> !R2SCAN def2-TZVP VERYSLOWCONV
|  2> !KDIIS
|  3> %scf
|  4>   AutoTRAHIter 200
|  5>   maxiter 400
|  6> end
|  7>
|  8> %pal nprocs 6 end
|  9>
| 10> *xyzfile 0 6 pbe.xyz
| 11>
| 12> $new_job
| 13>
| 14> !R2SCAN def2-TZVP VERYSLOWCONV
| 15> !KDIIS
| 16> %scf
| 17>   AutoTRAHIter 200
| 18>   maxiter 400
| 19> end
| 20>
| 21>
| 22> %pal nprocs 6 end
| 23>
| 24> *xyzfile 0 4 pbe.xyz
| 25>
| 26>
| 27>
| 28>
| 29>
| 30>                          ****END OF INPUT****
 Total Charge           Charge          ....    0
 Multiplicity           Mult            ....    6
 Number of Electrons    NEL             ....  329
FINAL SINGLE POINT ENERGY     -3324.593551274610

CARTESIAN COORDINATES (ANGSTROEM)
---------------------------------
  Au     7.861906    5.881458    9.814884
  Au     5.324278    4.679755    9.679840
  Au     9.714946    4.885973    7.830305
  Au     6.913016    4.902612    7.354493
  Au     5.960364    6.208704    5.116806
  Au     4.414771    6.187760    7.548932
  Au     5.762350   10.042913    9.790397
  Au     3.688737    8.678343    8.537416
  Au     9.490290    7.591013    8.404027
  Au     7.919679    9.850347    8.011409
  Au     9.721211    9.038723    6.044701
  Au     7.917474    8.557475   10.556023
  Au     8.612045    6.514659    5.862904
  Au     6.998486    8.803659    5.521910
  Au     4.288012    8.325276    5.784527
  Au     5.421780   10.531069    7.032682
  Mn     5.616470    7.341045    9.772739

 Multiplicity           Mult            ....    4
 Number of Electrons    NEL             ....  329
 Basis Dimension        Dim             ....  685

ORBITAL ENERGIES
----------------
                 SPIN UP ORBITALS
  NO   OCC          E(Eh)            E(eV)
   0   1.0000    -235.048450     -6395.9935
   1   1.0000     -27.226594      -740.8733
   2   1.0000     -23.277365      -633.4093
   3   1.0000     -23.271427      -633.2477
   4   1.0000     -23.270938      -633.2344
   5   1.0000      -4.129308      -112.3642
   6   1.0000      -4.125608      -112.2635
   7   1.0000      -4.124424      -112.2313
   8   1.0000      -4.124216      -112.2256
   9   1.0000      -4.123214      -112.1983
  10   1.0000      -4.120445      -112.1230
  11   1.0000      -4.119367      -112.0937
  12   1.0000      -4.119332      -112.0927
  13   1.0000      -4.118776      -112.0776
  14   1.0000      -4.118147      -112.0605
  15   1.0000      -4.117770      -112.0502
  16   1.0000      -4.116070      -112.0040
  17   1.0000      -4.113132      -111.9240
  18   1.0000      -4.112911      -111.9180
  19   1.0000      -4.107947      -111.7829
  20   1.0000      -4.104475      -111.6884
  21   1.0000      -3.250120       -88.4403
  22   1.0000      -2.317634       -63.0660
  23   1.0000      -2.316511       -63.0355
  24   1.0000      -2.314888       -62.9913
  25   1.0000      -2.313438       -62.9519
  26   1.0000      -2.312656       -62.9306
  27   1.0000      -2.311754       -62.9060
  28   1.0000      -2.311279       -62.8931
  29   1.0000      -2.311094       -62.8881
  30   1.0000      -2.310927       -62.8835
  31   1.0000      -2.310193       -62.8635
  32   1.0000      -2.309711       -62.8504
  33   1.0000      -2.309323       -62.8399
  34   1.0000      -2.308915       -62.8288
  35   1.0000      -2.308570       -62.8194
  36   1.0000      -2.308101       -62.8066
  37   1.0000      -2.307921       -62.8017
  38   1.0000      -2.307449       -62.7889
  39   1.0000      -2.307300       -62.7848
  40   1.0000      -2.306699       -62.7685
  41   1.0000      -2.306628       -62.7665
  42   1.0000      -2.306369       -62.7595
  43   1.0000      -2.306310       -62.7579
  44   1.0000      -2.305949       -62.7481
  45   1.0000      -2.305783       -62.7435
  46   1.0000      -2.305247       -62.7290
  47   1.0000      -2.304636       -62.7123
  48   1.0000      -2.303074       -62.6698
  49   1.0000      -2.302866       -62.6642
  50   1.0000      -2.301963       -62.6396
  51   1.0000      -2.301412       -62.6246
  52   1.0000      -2.301057       -62.6149
  53   1.0000      -2.300336       -62.5953
  54   1.0000      -2.300092       -62.5887
  55   1.0000      -2.299975       -62.5855
  56   1.0000      -2.299640       -62.5764
  57   1.0000      -2.299480       -62.5720
  58   1.0000      -2.299319       -62.5677
  59   1.0000      -2.298719       -62.5513
  60   1.0000      -2.298421       -62.5432
  61   1.0000      -2.298022       -62.5324
  62   1.0000      -2.296321       -62.4861
  63   1.0000      -2.295409       -62.4613
  64   1.0000      -2.294782       -62.4442
  65   1.0000      -2.294369       -62.4330
  66   1.0000      -2.292029       -62.3693
  67   1.0000      -2.290202       -62.3196
  68   1.0000      -2.289705       -62.3060
  69   1.0000      -2.288831       -62.2823
  70   1.0000      -2.116165       -57.5838
  71   1.0000      -2.102655       -57.2161
  72   1.0000      -2.101415       -57.1824
  73   1.0000      -0.423036       -11.5114
  74   1.0000      -0.398785       -10.8515
  75   1.0000      -0.393124       -10.6974
  76   1.0000      -0.391451       -10.6519
  77   1.0000      -0.381393       -10.3782
  78   1.0000      -0.379572       -10.3287
  79   1.0000      -0.376856       -10.2548
  80   1.0000      -0.375301       -10.2125
  81   1.0000      -0.374947       -10.2028
  82   1.0000      -0.373111       -10.1529
  83   1.0000      -0.371098       -10.0981
  84   1.0000      -0.370138       -10.0720
  85   1.0000      -0.367920       -10.0116
  86   1.0000      -0.365207        -9.9378
  87   1.0000      -0.363880        -9.9017
  88   1.0000      -0.360481        -9.8092
  89   1.0000      -0.360115        -9.7992
  90   1.0000      -0.358581        -9.7575
  91   1.0000      -0.355394        -9.6708
  92   1.0000      -0.354095        -9.6354
  93   1.0000      -0.353577        -9.6213
  94   1.0000      -0.351761        -9.5719
  95   1.0000      -0.348777        -9.4907
  96   1.0000      -0.348635        -9.4868
  97   1.0000      -0.346704        -9.4343
  98   1.0000      -0.345781        -9.4092
  99   1.0000      -0.342057        -9.3079
 100   1.0000      -0.340916        -9.2768
 101   1.0000      -0.337750        -9.1906
 102   1.0000      -0.337365        -9.1802
 103   1.0000      -0.333408        -9.0725
 104   1.0000      -0.332127        -9.0376
 105   1.0000      -0.325121        -8.8470
 106   1.0000      -0.323967        -8.8156
 107   1.0000      -0.321577        -8.7506
 108   1.0000      -0.319812        -8.7025
 109   1.0000      -0.317837        -8.6488
 110   1.0000      -0.317239        -8.6325
 111   1.0000      -0.314839        -8.5672
 112   1.0000      -0.312701        -8.5090
 113   1.0000      -0.310820        -8.4578
 114   1.0000      -0.310075        -8.4376
 115   1.0000      -0.307529        -8.3683
 116   1.0000      -0.306340        -8.3359
 117   1.0000      -0.304626        -8.2893
 118   1.0000      -0.303443        -8.2571
 119   1.0000      -0.302299        -8.2260
 120   1.0000      -0.299511        -8.1501
 121   1.0000      -0.295852        -8.0505
 122   1.0000      -0.295564        -8.0427
 123   1.0000      -0.293281        -7.9806
 124   1.0000      -0.291402        -7.9294
 125   1.0000      -0.290093        -7.8938
 126   1.0000      -0.288849        -7.8600
 127   1.0000      -0.285571        -7.7708
 128   1.0000      -0.284314        -7.7366
 129   1.0000      -0.283363        -7.7107
 130   1.0000      -0.281568        -7.6618
 131   1.0000      -0.279383        -7.6024
 132   1.0000      -0.278114        -7.5679
 133   1.0000      -0.277019        -7.5381
 134   1.0000      -0.275377        -7.4934
 135   1.0000      -0.272331        -7.4105
 136   1.0000      -0.272189        -7.4067
 137   1.0000      -0.270687        -7.3658
 138   1.0000      -0.270047        -7.3484
 139   1.0000      -0.268820        -7.3150
 140   1.0000      -0.268100        -7.2954
 141   1.0000      -0.266985        -7.2650
 142   1.0000      -0.266133        -7.2419
 143   1.0000      -0.265369        -7.2211
 144   1.0000      -0.263554        -7.1717
 145   1.0000      -0.263324        -7.1654
 146   1.0000      -0.261310        -7.1106
 147   1.0000      -0.260644        -7.0925
 148   1.0000      -0.259980        -7.0744
 149   1.0000      -0.259194        -7.0530
 150   1.0000      -0.258625        -7.0376
 151   1.0000      -0.256538        -6.9807
 152   1.0000      -0.255119        -6.9421
 153   1.0000      -0.253921        -6.9095
 154   1.0000      -0.253172        -6.8892
 155   1.0000      -0.250749        -6.8232
 156   1.0000      -0.250289        -6.8107
 157   1.0000      -0.249129        -6.7792
 158   1.0000      -0.243720        -6.6320
 159   1.0000      -0.243231        -6.6187
 160   1.0000      -0.241210        -6.5637
 161   1.0000      -0.235391        -6.4053
 162   1.0000      -0.233422        -6.3517
 163   1.0000      -0.225935        -6.1480
 164   1.0000      -0.211615        -5.7583
 165   1.0000      -0.211547        -5.7565
 166   0.0000      -0.189560        -5.1582
 167   0.0000      -0.148144        -4.0312
 168   0.0000      -0.139948        -3.8082
 169   0.0000      -0.135138        -3.6773
 170   0.0000      -0.128916        -3.5080

                 SPIN DOWN ORBITALS
  NO   OCC          E(Eh)            E(eV)
   0   1.0000    -235.047511     -6395.9679
   1   1.0000     -27.138292      -738.4705
   2   1.0000     -23.207076      -631.4966
   3   1.0000     -23.205004      -631.4402
   4   1.0000     -23.204629      -631.4300
   5   1.0000      -4.129003      -112.3559
   6   1.0000      -4.125852      -112.2701
   7   1.0000      -4.124338      -112.2290
   8   1.0000      -4.123976      -112.2191
   9   1.0000      -4.123553      -112.2076
  10   1.0000      -4.121428      -112.1498
  11   1.0000      -4.120863      -112.1344
  12   1.0000      -4.120147      -112.1149
  13   1.0000      -4.119351      -112.0932
  14   1.0000      -4.118499      -112.0701
  15   1.0000      -4.117235      -112.0357
  16   1.0000      -4.116912      -112.0269
  17   1.0000      -4.113811      -111.9425
  18   1.0000      -4.113614      -111.9371
  19   1.0000      -4.108215      -111.7902
  20   1.0000      -4.104984      -111.7023
  21   1.0000      -3.038076       -82.6703
  22   1.0000      -2.317121       -63.0521
  23   1.0000      -2.316146       -63.0255
  24   1.0000      -2.315304       -63.0026
  25   1.0000      -2.312928       -62.9380
  26   1.0000      -2.312697       -62.9317
  27   1.0000      -2.312180       -62.9176
  28   1.0000      -2.311626       -62.9025
  29   1.0000      -2.310995       -62.8854
  30   1.0000      -2.310795       -62.8799
  31   1.0000      -2.310705       -62.8775
  32   1.0000      -2.310284       -62.8660
  33   1.0000      -2.309664       -62.8492
  34   1.0000      -2.309583       -62.8470
  35   1.0000      -2.309003       -62.8312
  36   1.0000      -2.308632       -62.8211
  37   1.0000      -2.308073       -62.8058
  38   1.0000      -2.307944       -62.8024
  39   1.0000      -2.307785       -62.7980
  40   1.0000      -2.307329       -62.7856
  41   1.0000      -2.307084       -62.7789
  42   1.0000      -2.306707       -62.7687
  43   1.0000      -2.306558       -62.7646
  44   1.0000      -2.306532       -62.7639
  45   1.0000      -2.305693       -62.7411
  46   1.0000      -2.305216       -62.7281
  47   1.0000      -2.305018       -62.7227
  48   1.0000      -2.304382       -62.7054
  49   1.0000      -2.302798       -62.6623
  50   1.0000      -2.302479       -62.6536
  51   1.0000      -2.302077       -62.6427
  52   1.0000      -2.301920       -62.6384
  53   1.0000      -2.301144       -62.6173
  54   1.0000      -2.300713       -62.6056
  55   1.0000      -2.300565       -62.6015
  56   1.0000      -2.300156       -62.5904
  57   1.0000      -2.299935       -62.5844
  58   1.0000      -2.299589       -62.5750
  59   1.0000      -2.299540       -62.5737
  60   1.0000      -2.298546       -62.5466
  61   1.0000      -2.298038       -62.5328
  62   1.0000      -2.297247       -62.5113
  63   1.0000      -2.295907       -62.4748
  64   1.0000      -2.295081       -62.4523
  65   1.0000      -2.294714       -62.4423
  66   1.0000      -2.292520       -62.3826
  67   1.0000      -2.290364       -62.3240
  68   1.0000      -2.289934       -62.3123
  69   1.0000      -2.289275       -62.2943
  70   1.0000      -1.897517       -51.6341
  71   1.0000      -1.895089       -51.5680
  72   1.0000      -1.894668       -51.5565
  73   1.0000      -0.423561       -11.5257
  74   1.0000      -0.398793       -10.8517
  75   1.0000      -0.393391       -10.7047
  76   1.0000      -0.390619       -10.6293
  77   1.0000      -0.381556       -10.3827
  78   1.0000      -0.379523       -10.3273
  79   1.0000      -0.376531       -10.2459
  80   1.0000      -0.375201       -10.2097
  81   1.0000      -0.374113       -10.1801
  82   1.0000      -0.372385       -10.1331
  83   1.0000      -0.370870       -10.0919
  84   1.0000      -0.367862       -10.0100
  85   1.0000      -0.366352        -9.9689
  86   1.0000      -0.363719        -9.8973
  87   1.0000      -0.362622        -9.8674
  88   1.0000      -0.361054        -9.8248
  89   1.0000      -0.358700        -9.7607
  90   1.0000      -0.357393        -9.7251
  91   1.0000      -0.354669        -9.6510
  92   1.0000      -0.353348        -9.6151
  93   1.0000      -0.351333        -9.5603
  94   1.0000      -0.349493        -9.5102
  95   1.0000      -0.348821        -9.4919
  96   1.0000      -0.347345        -9.4517
  97   1.0000      -0.346401        -9.4261
  98   1.0000      -0.343009        -9.3337
  99   1.0000      -0.341870        -9.3028
 100   1.0000      -0.341114        -9.2822
 101   1.0000      -0.334884        -9.1126
 102   1.0000      -0.333314        -9.0699
 103   1.0000      -0.332515        -9.0482
 104   1.0000      -0.328311        -8.9338
 105   1.0000      -0.322922        -8.7871
 106   1.0000      -0.322522        -8.7763
 107   1.0000      -0.321186        -8.7399
 108   1.0000      -0.318350        -8.6628
 109   1.0000      -0.315854        -8.5948
 110   1.0000      -0.313252        -8.5240
 111   1.0000      -0.312606        -8.5064
 112   1.0000      -0.311476        -8.4757
 113   1.0000      -0.310772        -8.4565
 114   1.0000      -0.307933        -8.3793
 115   1.0000      -0.306176        -8.3315
 116   1.0000      -0.304254        -8.2792
 117   1.0000      -0.303275        -8.2525
 118   1.0000      -0.300745        -8.1837
 119   1.0000      -0.297989        -8.1087
 120   1.0000      -0.296721        -8.0742
 121   1.0000      -0.295877        -8.0512
 122   1.0000      -0.294190        -8.0053
 123   1.0000      -0.291388        -7.9291
 124   1.0000      -0.288964        -7.8631
 125   1.0000      -0.286385        -7.7929
 126   1.0000      -0.284779        -7.7492
 127   1.0000      -0.283268        -7.7081
 128   1.0000      -0.281916        -7.6713
 129   1.0000      -0.280692        -7.6380
 130   1.0000      -0.278601        -7.5811
 131   1.0000      -0.278002        -7.5648
 132   1.0000      -0.274374        -7.4661
 133   1.0000      -0.273264        -7.4359
 134   1.0000      -0.271447        -7.3864
 135   1.0000      -0.271005        -7.3744
 136   1.0000      -0.270384        -7.3575
 137   1.0000      -0.268801        -7.3144
 138   1.0000      -0.267750        -7.2859
 139   1.0000      -0.267238        -7.2719
 140   1.0000      -0.266177        -7.2431
 141   1.0000      -0.265041        -7.2121
 142   1.0000      -0.263381        -7.1670
 143   1.0000      -0.262206        -7.1350
 144   1.0000      -0.261558        -7.1174
 145   1.0000      -0.260857        -7.0983
 146   1.0000      -0.259768        -7.0686
 147   1.0000      -0.257466        -7.0060
 148   1.0000      -0.256971        -6.9925
 149   1.0000      -0.255817        -6.9611
 150   1.0000      -0.253666        -6.9026
 151   1.0000      -0.253306        -6.8928
 152   1.0000      -0.250904        -6.8275
 153   1.0000      -0.247940        -6.7468
 154   1.0000      -0.246583        -6.7099
 155   1.0000      -0.243905        -6.6370
 156   1.0000      -0.239155        -6.5077
 157   1.0000      -0.237083        -6.4514
 158   1.0000      -0.230153        -6.2628
 159   1.0000      -0.217559        -5.9201
 160   1.0000      -0.214516        -5.8373
 161   1.0000      -0.195534        -5.3207
 162   1.0000      -0.165880        -4.5138
 163   0.0000      -0.150161        -4.0861
 164   0.0000      -0.143964        -3.9175
 165   0.0000      -0.136779        -3.7219
 166   0.0000      -0.132358        -3.6016
 167   0.0000      -0.126078        -3.4307

MULLIKEN ATOMIC CHARGES AND SPIN POPULATIONS
--------------------------------------------
   0 Au:   -0.063799   -0.088001
   1 Au:    0.364525   -0.167025
   2 Au:    0.373863   -0.223166
   3 Au:   -0.419546   -0.101630
   4 Au:    0.218249   -0.034960
   5 Au:   -0.202901   -0.122564
   6 Au:    0.238840   -0.062055
   7 Au:    0.160228   -0.048454
   8 Au:   -0.313774   -0.019073
   9 Au:   -0.476430   -0.189907
  10 Au:    0.532329   -0.078148
  11 Au:    0.263637   -0.090677
  12 Au:   -0.149340   -0.078136
  13 Au:   -0.480461   -0.117873
  14 Au:    0.153833   -0.069441
  15 Au:    0.184886    0.016185
  16 Mn:   -0.384138    4.474923
Sum of atomic charges         :   -0.0000000

LOEWDIN ATOMIC CHARGES AND SPIN POPULATIONS
-------------------------------------------
   0 Au:   -0.044625   -0.051859
   1 Au:    0.121506   -0.150919
   2 Au:    0.086643   -0.146992
   3 Au:   -0.099056   -0.095488
   4 Au:    0.050497   -0.088241
   5 Au:   -0.057582   -0.072512
   6 Au:    0.016557   -0.078962
   7 Au:    0.020477   -0.016534
   8 Au:   -0.094975   -0.073146
   9 Au:   -0.088805   -0.098215
  10 Au:    0.149287   -0.105121
  11 Au:    0.060561   -0.104747
  12 Au:   -0.082089   -0.099289
  13 Au:   -0.080045   -0.087519
  14 Au:   -0.018346   -0.067439
  15 Au:   -0.000603   -0.020438
  16 Mn:    0.060596    4.357421

  Mayer bond orders larger than 0.100000
B(  0-Au,  1-Au) :   0.1537 B(  0-Au,  2-Au) :   0.1707 B(  0-Au,  3-Au) :   0.3210
B(  0-Au,  8-Au) :   0.3478 B(  0-Au, 11-Au) :   0.1940 B(  0-Au, 16-Mn) :   0.5074
B(  1-Au,  3-Au) :   0.2070 B(  1-Au,  5-Au) :   0.3045 B(  1-Au, 16-Mn) :   0.4660
B(  2-Au,  3-Au) :   0.2139 B(  2-Au,  8-Au) :   0.2589 B(  2-Au, 12-Au) :   0.2527
B(  3-Au,  4-Au) :   0.3691 B(  3-Au,  5-Au) :   0.3021 B(  3-Au, 12-Au) :   0.3517
B(  4-Au,  5-Au) :   0.2255 B(  4-Au, 12-Au) :   0.3025 B(  4-Au, 13-Au) :   0.2522
B(  4-Au, 14-Au) :   0.2437 B(  5-Au,  7-Au) :   0.2530 B(  5-Au, 14-Au) :   0.3418
B(  5-Au, 16-Mn) :   0.4486 B(  6-Au,  7-Au) :   0.1974 B(  6-Au,  9-Au) :   0.2987
B(  6-Au, 11-Au) :   0.2687 B(  6-Au, 15-Au) :   0.2086 B(  6-Au, 16-Mn) :   0.4627
B(  7-Au, 14-Au) :   0.2058 B(  7-Au, 15-Au) :   0.1541 B(  7-Au, 16-Mn) :   0.5400
B(  8-Au,  9-Au) :   0.4003 B(  8-Au, 10-Au) :   0.2100 B(  8-Au, 11-Au) :   0.2726
B(  8-Au, 12-Au) :   0.3160 B(  9-Au, 10-Au) :   0.2900 B(  9-Au, 11-Au) :   0.2052
B(  9-Au, 13-Au) :   0.3842 B(  9-Au, 15-Au) :   0.3625 B(  9-Au, 16-Mn) :   0.1034
B( 10-Au, 12-Au) :   0.2276 B( 10-Au, 13-Au) :   0.2912 B( 11-Au, 16-Mn) :   0.4142
B( 12-Au, 13-Au) :   0.3708 B( 13-Au, 14-Au) :   0.3992 B( 13-Au, 15-Au) :   0.3419
B( 14-Au, 15-Au) :   0.2536

FINAL SINGLE POINT ENERGY     -3324.566712515740

DIPOLE MOMENT
-------------
                                X             Y             Z
Electronic contribution:     46.08897       7.23015     -76.13288
Nuclear contribution   :    -46.07140      -7.37069      76.54824
                        -----------------------------------------
Total Dipole Moment    :      0.01757      -0.14054       0.41536
                        -----------------------------------------
Magnitude (a.u.)       :      0.43884
Magnitude (Debye)      :      1.11544

Rotational constants in cm-1:     0.000888     0.000782     0.000733
Rotational constants in MHz :    26.629884    23.439977    21.983610

                             ****ORCA TERMINATED NORMALLY****
TOTAL RUN TIME: 0 days 0 hours 16 minutes 57 seconds 846 msec
