                         Program Version 5.0.3 -  RELEASE  -
|  1> !CASSCF def2-TZVP def2-TZVP/C
|  2> !MOREAD RIJCOSX
|  3> %maxcore 6000
|  4> %moinp "pbe.qro"
|  5> %pal nprocs 16 end
|  6>
|  7> %casscf
|  8>  mult 6,4
|  9>  bweight 1,1
| 10>  nroots 1,24
| 11>  nel 5
| 12>  norb 5
| 13> end
| 14>
| 15>
| 16> *xyzfile 0 6 pbe.xyz
| 17>
| 18>
| 19>                          ****END OF INPUT****

CARTESIAN COORDINATES (ANGSTROEM)
---------------------------------
  Au    10.141559    6.062446    7.325908
  Au     8.929715    6.467295    4.871551
  Au     7.498457    5.065640    6.825714
  Au     8.112620    9.171542    9.115041
  Au     5.812080    7.698489    9.696937
  Au     5.549626    5.090994    8.730824
  Au     8.208022    6.383200    9.236496
  Au     9.580498    8.685439    6.632091
  Au     6.077009    6.523351    4.822625
  Au     4.465147    7.092544    7.205922
  Au     7.463465   10.514713    6.665270
  Au     7.716857    8.873040    4.446776
  Au     5.122620    9.122646    5.395206
  Au     5.165619    9.781208    8.075575
  Mn     7.070067    7.762721    7.057478

 Total Charge           Charge          ....    0
 Multiplicity           Mult            ....    6
 Number of Electrons    NEL             ....  291
 Basis Dimension        Dim             ....  605

ORBITAL ENERGIES
----------------

  NO   OCC          E(Eh)            E(eV)
   0   2.0000    -240.563229     -6546.0583
   1   2.0000     -29.136920      -792.8559
   2   2.0000     -24.842442      -675.9972
   3   2.0000     -24.841855      -675.9812
   4   2.0000     -24.841662      -675.9760
   5   2.0000      -4.731070      -128.7390
   6   2.0000      -4.728227      -128.6616
   7   2.0000      -4.722861      -128.5156
   8   2.0000      -4.722380      -128.5025
   9   2.0000      -4.720919      -128.4627
  10   2.0000      -4.718135      -128.3870
  11   2.0000      -4.718063      -128.3850
  12   2.0000      -4.716667      -128.3470
  13   2.0000      -4.714244      -128.2811
  14   2.0000      -4.713547      -128.2621
  15   2.0000      -4.713071      -128.2492
  16   2.0000      -4.709495      -128.1519
  17   2.0000      -4.704804      -128.0242
  18   2.0000      -4.702836      -127.9707
  19   2.0000      -3.842933      -104.5715
  20   2.0000      -2.769956       -75.3743
  21   2.0000      -2.767962       -75.3201
  22   2.0000      -2.767106       -75.2968
  23   2.0000      -2.765717       -75.2590
  24   2.0000      -2.764487       -75.2255
  25   2.0000      -2.763591       -75.2011
  26   2.0000      -2.762374       -75.1680
  27   2.0000      -2.761550       -75.1456
  28   2.0000      -2.759700       -75.0953
  29   2.0000      -2.759012       -75.0765
  30   2.0000      -2.758664       -75.0671
  31   2.0000      -2.758123       -75.0523
  32   2.0000      -2.757479       -75.0348
  33   2.0000      -2.757184       -75.0268
  34   2.0000      -2.755751       -74.9878
  35   2.0000      -2.755314       -74.9759
  36   2.0000      -2.754661       -74.9581
  37   2.0000      -2.754107       -74.9431
  38   2.0000      -2.753932       -74.9383
  39   2.0000      -2.753127       -74.9164
  40   2.0000      -2.751967       -74.8848
  41   2.0000      -2.751496       -74.8720
  42   2.0000      -2.751362       -74.8684
  43   2.0000      -2.751171       -74.8632
  44   2.0000      -2.750889       -74.8555
  45   2.0000      -2.750377       -74.8416
  46   2.0000      -2.749534       -74.8186
  47   2.0000      -2.749120       -74.8074
  48   2.0000      -2.748165       -74.7814
  49   2.0000      -2.747813       -74.7718
  50   2.0000      -2.746371       -74.7326
  51   2.0000      -2.746101       -74.7252
  52   2.0000      -2.745842       -74.7182
  53   2.0000      -2.745555       -74.7104
  54   2.0000      -2.745059       -74.6968
  55   2.0000      -2.743254       -74.6477
  56   2.0000      -2.741345       -74.5958
  57   2.0000      -2.739623       -74.5489
  58   2.0000      -2.738945       -74.5305
  59   2.0000      -2.738798       -74.5265
  60   2.0000      -2.737587       -74.4935
  61   2.0000      -2.736964       -74.4766
  62   2.0000      -2.512832       -68.3776
  63   2.0000      -2.511279       -68.3354
  64   2.0000      -2.510972       -68.3270
  65   2.0000      -0.589491       -16.0409
  66   2.0000      -0.557943       -15.1824
  67   2.0000      -0.556523       -15.1438
  68   2.0000      -0.554576       -15.0908
  69   2.0000      -0.552738       -15.0408
  70   2.0000      -0.551268       -15.0008
  71   2.0000      -0.550890       -14.9905
  72   2.0000      -0.549183       -14.9440
  73   2.0000      -0.547920       -14.9097
  74   2.0000      -0.547274       -14.8921
  75   2.0000      -0.545500       -14.8438
  76   2.0000      -0.544438       -14.8149
  77   2.0000      -0.543577       -14.7915
  78   2.0000      -0.543060       -14.7774
  79   2.0000      -0.542422       -14.7600
  80   2.0000      -0.538669       -14.6579
  81   2.0000      -0.538073       -14.6417
  82   2.0000      -0.535412       -14.5693
  83   2.0000      -0.534179       -14.5358
  84   2.0000      -0.531372       -14.4594
  85   2.0000      -0.528833       -14.3903
  86   2.0000      -0.526489       -14.3265
  87   2.0000      -0.521628       -14.1942
  88   2.0000      -0.516806       -14.0630
  89   2.0000      -0.516471       -14.0539
  90   2.0000      -0.513648       -13.9771
  91   2.0000      -0.506883       -13.7930
  92   2.0000      -0.506196       -13.7743
  93   2.0000      -0.503105       -13.6902
  94   2.0000      -0.500746       -13.6260
  95   2.0000      -0.498760       -13.5719
  96   2.0000      -0.497670       -13.5423
  97   2.0000      -0.493876       -13.4391
  98   2.0000      -0.491455       -13.3732
  99   2.0000      -0.487214       -13.2578
 100   2.0000      -0.484249       -13.1771
 101   2.0000      -0.482574       -13.1315
 102   2.0000      -0.478461       -13.0196
 103   2.0000      -0.473767       -12.8919
 104   2.0000      -0.471746       -12.8369
 105   2.0000      -0.468785       -12.7563
 106   2.0000      -0.460269       -12.5245
 107   2.0000      -0.458948       -12.4886
 108   2.0000      -0.458465       -12.4755
 109   2.0000      -0.456504       -12.4221
 110   2.0000      -0.455128       -12.3847
 111   2.0000      -0.454600       -12.3703
 112   2.0000      -0.452111       -12.3026
 113   2.0000      -0.451590       -12.2884
 114   2.0000      -0.449424       -12.2295
 115   2.0000      -0.448419       -12.2021
 116   2.0000      -0.446850       -12.1594
 117   2.0000      -0.443690       -12.0734
 118   2.0000      -0.442885       -12.0515
 119   2.0000      -0.439179       -11.9507
 120   2.0000      -0.438790       -11.9401
 121   2.0000      -0.437457       -11.9038
 122   2.0000      -0.434946       -11.8355
 123   2.0000      -0.431131       -11.7317
 124   2.0000      -0.430092       -11.7034
 125   2.0000      -0.427927       -11.6445
 126   2.0000      -0.426614       -11.6088
 127   2.0000      -0.422960       -11.5093
 128   2.0000      -0.422196       -11.4885
 129   2.0000      -0.421404       -11.4670
 130   2.0000      -0.416629       -11.3371
 131   2.0000      -0.414778       -11.2867
 132   2.0000      -0.411523       -11.1981
 133   2.0000      -0.408432       -11.1140
 134   2.0000      -0.399710       -10.8767
 135   2.0000      -0.396284       -10.7834
 136   2.0000      -0.369627       -10.0581
 137   2.0000      -0.366668        -9.9776
 138   2.0000      -0.342181        -9.3112
 139   2.0000      -0.249512        -6.7896
 140   2.0000      -0.239769        -6.5244
 141   2.0000      -0.231566        -6.3012
 142   2.0000      -0.223547        -6.0830
 143   1.0000      -0.157768        -4.2931
 144   1.0000      -0.154417        -4.2019
 145   1.0000      -0.158854        -4.3226
 146   1.0000      -0.166839        -4.5399
 147   1.0000      -0.156416        -4.2563
 148   0.0000      -0.066884        -1.8200
 149   0.0000      -0.022868        -0.6223
 150   0.0000       0.005145         0.1400
 151   0.0000       0.008356         0.2274
 152   0.0000       0.013061         0.3554

MULLIKEN ATOMIC CHARGES AND SPIN DENSITIES
------------------------------------------
   0 Au:    0.272353    0.005822
   1 Au:    0.233286    0.005943
   2 Au:   -0.078080    0.012053
   3 Au:    0.325671    0.010589
   4 Au:    0.209734    0.007245
   5 Au:    0.290986    0.005777
   6 Au:    0.013687    0.009588
   7 Au:    0.127740    0.010707
   8 Au:    0.275482    0.010210
   9 Au:    0.167567    0.010417
  10 Au:    0.150143    0.010250
  11 Au:    0.263120    0.006907
  12 Au:    0.161559    0.008667
  13 Au:    0.257000    0.006772
  14 Mn:   -2.670247    3.879054
Sum of atomic charges       :    0.0000000

LOEWDIN ATOMIC CHARGES AND SPIN DENSITIES
-----------------------------------------
   0 Au:    0.070070    0.007264
   1 Au:   -0.015218    0.008594
   2 Au:   -0.062808    0.014687
   3 Au:    0.083101    0.013412
   4 Au:   -0.026653    0.010178
   5 Au:    0.094676    0.007168
   6 Au:   -0.034304    0.012425
   7 Au:    0.029554    0.014994
   8 Au:    0.071193    0.013038
   9 Au:    0.031331    0.014789
  10 Au:    0.035942    0.012464
  11 Au:    0.018390    0.009499
  12 Au:    0.038678    0.010957
  13 Au:    0.028306    0.009169
  14 Mn:   -0.362258    3.841360

  Mayer bond orders larger than 0.100000
B(  0-Au,  1-Au) :   0.2010 B(  0-Au,  2-Au) :   0.1442 B(  0-Au,  6-Au) :   0.2691
B(  0-Au,  7-Au) :   0.2871 B(  0-Au, 14-Mn) :   0.2271 B(  1-Au,  2-Au) :   0.2011
B(  1-Au,  7-Au) :   0.2271 B(  1-Au,  8-Au) :   0.1989 B(  1-Au, 11-Au) :   0.1705
B(  1-Au, 14-Mn) :   0.3085 B(  2-Au,  5-Au) :   0.2808 B(  2-Au,  6-Au) :   0.1583
B(  2-Au,  8-Au) :   0.1782 B(  2-Au, 14-Mn) :   0.4431 B(  3-Au,  4-Au) :   0.2120
B(  3-Au,  6-Au) :   0.2119 B(  3-Au, 10-Au) :   0.1502 B(  3-Au, 14-Mn) :   0.4265
B(  4-Au,  5-Au) :   0.1964 B(  4-Au,  6-Au) :   0.1774 B(  4-Au,  9-Au) :   0.2389
B(  4-Au, 13-Au) :   0.1893 B(  4-Au, 14-Mn) :   0.3483 B(  5-Au,  9-Au) :   0.3140
B(  5-Au, 14-Mn) :   0.2383 B(  6-Au, 14-Mn) :   0.4221 B(  7-Au, 10-Au) :   0.2130
B(  7-Au, 11-Au) :   0.2174 B(  7-Au, 14-Mn) :   0.3408 B(  8-Au, 11-Au) :   0.1612
B(  8-Au, 12-Au) :   0.1830 B(  8-Au, 14-Mn) :   0.4208 B(  9-Au, 12-Au) :   0.2197
B(  9-Au, 13-Au) :   0.1845 B(  9-Au, 14-Mn) :   0.3386 B( 10-Au, 11-Au) :   0.1520
B( 10-Au, 13-Au) :   0.1891 B( 10-Au, 14-Mn) :   0.4446 B( 11-Au, 12-Au) :   0.1824
B( 11-Au, 14-Mn) :   0.3650 B( 12-Au, 13-Au) :   0.1690 B( 12-Au, 14-Mn) :   0.4028
B( 13-Au, 14-Mn) :   0.3729

FINAL SINGLE POINT ENERGY     -3037.134724006444

DIPOLE MOMENT
-------------
                                X             Y             Z
Electronic contribution:      2.13351      -5.38818       0.58196
Nuclear contribution   :     -2.24835       5.59390      -0.62898
                        -----------------------------------------
Total Dipole Moment    :     -0.11483       0.20571      -0.04702
                        -----------------------------------------
Magnitude (a.u.)       :      0.24024
Magnitude (Debye)      :      0.61065

Rotational constants in cm-1:     0.001129     0.001103     0.000964
Rotational constants in MHz :    33.837069    33.061021    28.906723

                             ****ORCA TERMINATED NORMALLY****
TOTAL RUN TIME: 0 days 0 hours 9 minutes 33 seconds 856 msec
