                         Program Version 5.0.3 -  RELEASE  -
|  1> !RI-B2PLYP def2-TZVP def2-TZVP/C
|  2> !RIJCOSX
|  3> %pal nprocs 6 end
|  4>
|  5> *xyzfile 0 5 pbe.xyz
|  6>
|  7> $new_job
|  8>
|  9> !RI-B2PLYP def2-TZVP def2-TZVP/C
| 10> !RIJCOSX
| 11> %pal nprocs 6 end
| 12>
| 13> *xyzfile 0 3 pbe.xyz
| 14>
| 15>
| 16>
| 17>
| 18>
| 19>                          ****END OF INPUT****
 Total Charge           Charge          ....    0
 Multiplicity           Mult            ....    5
 Number of Electrons    NEL             ....  292
MP2 TOTAL ENERGY:    -3161.729899001 Eh
FINAL SINGLE POINT ENERGY     -3161.729899001471

CARTESIAN COORDINATES (ANGSTROEM)
---------------------------------
  Au     7.500467    7.738083   10.616082
  Au     9.539873    7.102918    6.561666
  Au     7.879933   10.671775    6.691311
  Au     9.628631    6.459501    9.321893
  Au     6.100330    9.363832    8.368847
  Au     8.942662    9.123329    8.591312
  Au     5.668291    4.910237    7.696518
  Au     5.096539    6.900765    9.654969
  Au     8.375666    4.693892    7.538556
  Au     8.458255    8.658393    4.679480
  Au     7.251707   11.036771    4.051161
  Au     4.602432    7.393280    6.933792
  Au     5.712916    9.240961    5.398013
  Au     6.933525    6.503177    5.534375
  Fe     7.268350    7.037612    8.076266

 Multiplicity           Mult            ....    3
 Number of Electrons    NEL             ....  292
 Basis Dimension        Dim             ....  605

ORBITAL ENERGIES
----------------
                 SPIN UP ORBITALS
  NO   OCC          E(Eh)            E(eV)
   0   1.0000    -258.332182     -7029.5760
   1   1.0000     -30.891181      -840.5918
   2   1.0000     -26.602700      -723.8963
   3   1.0000     -26.595123      -723.6901
   4   1.0000     -26.570604      -723.0229
   5   1.0000      -4.404138      -119.8427
   6   1.0000      -4.403836      -119.8345
   7   1.0000      -4.402065      -119.7863
   8   1.0000      -4.401817      -119.7795
   9   1.0000      -4.400880      -119.7540
  10   1.0000      -4.397553      -119.6635
  11   1.0000      -4.397379      -119.6588
  12   1.0000      -4.397180      -119.6533
  13   1.0000      -4.396708      -119.6405
  14   1.0000      -4.396360      -119.6310
  15   1.0000      -4.387185      -119.3814
  16   1.0000      -4.384843      -119.3176
  17   1.0000      -4.384752      -119.3152
  18   1.0000      -4.384677      -119.3131
  19   1.0000      -3.902890      -106.2030
  20   1.0000      -2.639232       -71.8172
  21   1.0000      -2.623985       -71.4023
  22   1.0000      -2.571802       -69.9823
  23   1.0000      -2.525328       -68.7177
  24   1.0000      -2.525030       -68.7096
  25   1.0000      -2.522713       -68.6465
  26   1.0000      -2.522495       -68.6406
  27   1.0000      -2.522401       -68.6380
  28   1.0000      -2.521938       -68.6254
  29   1.0000      -2.521538       -68.6145
  30   1.0000      -2.520053       -68.5741
  31   1.0000      -2.519930       -68.5708
  32   1.0000      -2.519737       -68.5655
  33   1.0000      -2.519197       -68.5508
  34   1.0000      -2.518909       -68.5430
  35   1.0000      -2.518650       -68.5360
  36   1.0000      -2.517877       -68.5149
  37   1.0000      -2.517527       -68.5054
  38   1.0000      -2.517068       -68.4929
  39   1.0000      -2.516996       -68.4909
  40   1.0000      -2.516273       -68.4713
  41   1.0000      -2.516219       -68.4698
  42   1.0000      -2.515114       -68.4397
  43   1.0000      -2.515008       -68.4369
  44   1.0000      -2.514618       -68.4262
  45   1.0000      -2.512907       -68.3797
  46   1.0000      -2.512413       -68.3662
  47   1.0000      -2.511920       -68.3528
  48   1.0000      -2.511012       -68.3281
  49   1.0000      -2.510791       -68.3221
  50   1.0000      -2.510506       -68.3143
  51   1.0000      -2.510284       -68.3083
  52   1.0000      -2.510253       -68.3075
  53   1.0000      -2.509956       -68.2994
  54   1.0000      -2.505971       -68.1909
  55   1.0000      -2.505664       -68.1826
  56   1.0000      -2.502636       -68.1002
  57   1.0000      -2.501570       -68.0712
  58   1.0000      -2.501350       -68.0652
  59   1.0000      -2.501039       -68.0567
  60   1.0000      -2.500808       -68.0504
  61   1.0000      -2.500306       -68.0368
  62   1.0000      -2.498930       -67.9993
  63   1.0000      -2.498704       -67.9932
  64   1.0000      -2.497924       -67.9720
  65   1.0000      -0.558518       -15.1980
  66   1.0000      -0.558404       -15.1949
  67   1.0000      -0.536000       -14.5853
  68   1.0000      -0.534420       -14.5423
  69   1.0000      -0.520023       -14.1505
  70   1.0000      -0.485266       -13.2048
  71   1.0000      -0.474722       -12.9179
  72   1.0000      -0.468568       -12.7504
  73   1.0000      -0.465068       -12.6551
  74   1.0000      -0.463951       -12.6247
  75   1.0000      -0.460518       -12.5313
  76   1.0000      -0.456523       -12.4226
  77   1.0000      -0.453800       -12.3485
  78   1.0000      -0.452809       -12.3216
  79   1.0000      -0.448636       -12.2080
  80   1.0000      -0.448547       -12.2056
  81   1.0000      -0.446953       -12.1622
  82   1.0000      -0.445831       -12.1317
  83   1.0000      -0.442135       -12.0311
  84   1.0000      -0.440287       -11.9808
  85   1.0000      -0.438207       -11.9242
  86   1.0000      -0.434526       -11.8241
  87   1.0000      -0.432513       -11.7693
  88   1.0000      -0.432197       -11.7607
  89   1.0000      -0.429519       -11.6878
  90   1.0000      -0.428922       -11.6716
  91   1.0000      -0.428006       -11.6466
  92   1.0000      -0.425243       -11.5714
  93   1.0000      -0.421515       -11.4700
  94   1.0000      -0.417749       -11.3675
  95   1.0000      -0.417223       -11.3532
  96   1.0000      -0.415401       -11.3036
  97   1.0000      -0.413473       -11.2512
  98   1.0000      -0.408483       -11.1154
  99   1.0000      -0.405623       -11.0376
 100   1.0000      -0.404765       -11.0142
 101   1.0000      -0.399103       -10.8601
 102   1.0000      -0.397951       -10.8288
 103   1.0000      -0.396726       -10.7955
 104   1.0000      -0.393043       -10.6952
 105   1.0000      -0.391051       -10.6410
 106   1.0000      -0.389982       -10.6119
 107   1.0000      -0.383605       -10.4384
 108   1.0000      -0.379584       -10.3290
 109   1.0000      -0.376050       -10.2328
 110   1.0000      -0.375051       -10.2056
 111   1.0000      -0.374553       -10.1921
 112   1.0000      -0.372527       -10.1370
 113   1.0000      -0.370307       -10.0766
 114   1.0000      -0.369605       -10.0575
 115   1.0000      -0.368987       -10.0407
 116   1.0000      -0.368635       -10.0311
 117   1.0000      -0.367494       -10.0000
 118   1.0000      -0.365040        -9.9333
 119   1.0000      -0.364364        -9.9149
 120   1.0000      -0.363849        -9.9008
 121   1.0000      -0.363195        -9.8830
 122   1.0000      -0.361567        -9.8387
 123   1.0000      -0.360132        -9.7997
 124   1.0000      -0.358097        -9.7443
 125   1.0000      -0.353971        -9.6320
 126   1.0000      -0.353684        -9.6242
 127   1.0000      -0.352654        -9.5962
 128   1.0000      -0.350540        -9.5387
 129   1.0000      -0.348469        -9.4823
 130   1.0000      -0.345078        -9.3901
 131   1.0000      -0.344176        -9.3655
 132   1.0000      -0.339378        -9.2349
 133   1.0000      -0.339052        -9.2261
 134   1.0000      -0.336060        -9.1447
 135   1.0000      -0.334871        -9.1123
 136   1.0000      -0.334602        -9.1050
 137   1.0000      -0.328686        -8.9440
 138   1.0000      -0.327850        -8.9213
 139   1.0000      -0.327097        -8.9008
 140   1.0000      -0.319938        -8.7060
 141   1.0000      -0.313216        -8.5230
 142   1.0000      -0.299764        -8.1570
 143   1.0000      -0.296383        -8.0650
 144   1.0000      -0.249654        -6.7934
 145   1.0000      -0.223184        -6.0732
 146   1.0000      -0.220434        -5.9983
 147   0.0000      -0.120514        -3.2793
 148   0.0000      -0.118679        -3.2294
 149   0.0000      -0.074338        -2.0228
 150   0.0000      -0.066436        -1.8078
 151   0.0000      -0.057948        -1.5768

                 SPIN DOWN ORBITALS
  NO   OCC          E(Eh)            E(eV)
   0   1.0000    -258.330201     -7029.5222
   1   1.0000     -30.799580      -838.0992
   2   1.0000     -26.509468      -721.3593
   3   1.0000     -26.507536      -721.3067
   4   1.0000     -26.500463      -721.1143
   5   1.0000      -4.404454      -119.8513
   6   1.0000      -4.404145      -119.8429
   7   1.0000      -4.402446      -119.7966
   8   1.0000      -4.402209      -119.7902
   9   1.0000      -4.401321      -119.7660
  10   1.0000      -4.397907      -119.6731
  11   1.0000      -4.397697      -119.6674
  12   1.0000      -4.397513      -119.6624
  13   1.0000      -4.397105      -119.6513
  14   1.0000      -4.396766      -119.6421
  15   1.0000      -4.387379      -119.3867
  16   1.0000      -4.385193      -119.3272
  17   1.0000      -4.385081      -119.3241
  18   1.0000      -4.385044      -119.3231
  19   1.0000      -3.661794       -99.6425
  20   1.0000      -2.523828       -68.6769
  21   1.0000      -2.523541       -68.6690
  22   1.0000      -2.522799       -68.6489
  23   1.0000      -2.522646       -68.6447
  24   1.0000      -2.522297       -68.6352
  25   1.0000      -2.521638       -68.6172
  26   1.0000      -2.521322       -68.6087
  27   1.0000      -2.520101       -68.5754
  28   1.0000      -2.519797       -68.5672
  29   1.0000      -2.519300       -68.5536
  30   1.0000      -2.518866       -68.5418
  31   1.0000      -2.518264       -68.5255
  32   1.0000      -2.518186       -68.5233
  33   1.0000      -2.518069       -68.5201
  34   1.0000      -2.517416       -68.5024
  35   1.0000      -2.516966       -68.4901
  36   1.0000      -2.516681       -68.4824
  37   1.0000      -2.516395       -68.4746
  38   1.0000      -2.515768       -68.4575
  39   1.0000      -2.515652       -68.4544
  40   1.0000      -2.515043       -68.4378
  41   1.0000      -2.514693       -68.4283
  42   1.0000      -2.513420       -68.3936
  43   1.0000      -2.512818       -68.3773
  44   1.0000      -2.512026       -68.3557
  45   1.0000      -2.511118       -68.3310
  46   1.0000      -2.511033       -68.3287
  47   1.0000      -2.510638       -68.3179
  48   1.0000      -2.510482       -68.3137
  49   1.0000      -2.510192       -68.3058
  50   1.0000      -2.509942       -68.2990
  51   1.0000      -2.506473       -68.2046
  52   1.0000      -2.506050       -68.1931
  53   1.0000      -2.503073       -68.1121
  54   1.0000      -2.502074       -68.0849
  55   1.0000      -2.501849       -68.0788
  56   1.0000      -2.501533       -68.0702
  57   1.0000      -2.501321       -68.0644
  58   1.0000      -2.500858       -68.0518
  59   1.0000      -2.499773       -68.0223
  60   1.0000      -2.499016       -68.0017
  61   1.0000      -2.498214       -67.9799
  62   1.0000      -2.342305       -63.7374
  63   1.0000      -2.335136       -63.5423
  64   1.0000      -2.331815       -63.4519
  65   1.0000      -0.514060       -13.9883
  66   1.0000      -0.477004       -12.9800
  67   1.0000      -0.472450       -12.8560
  68   1.0000      -0.469510       -12.7760
  69   1.0000      -0.468881       -12.7589
  70   1.0000      -0.466512       -12.6944
  71   1.0000      -0.464321       -12.6348
  72   1.0000      -0.463029       -12.5997
  73   1.0000      -0.461510       -12.5583
  74   1.0000      -0.459186       -12.4951
  75   1.0000      -0.454888       -12.3781
  76   1.0000      -0.453822       -12.3491
  77   1.0000      -0.452205       -12.3051
  78   1.0000      -0.451725       -12.2921
  79   1.0000      -0.449142       -12.2218
  80   1.0000      -0.444505       -12.0956
  81   1.0000      -0.443567       -12.0701
  82   1.0000      -0.440384       -11.9834
  83   1.0000      -0.437378       -11.9017
  84   1.0000      -0.434452       -11.8220
  85   1.0000      -0.431480       -11.7412
  86   1.0000      -0.431179       -11.7330
  87   1.0000      -0.429134       -11.6773
  88   1.0000      -0.428801       -11.6683
  89   1.0000      -0.422853       -11.5064
  90   1.0000      -0.420582       -11.4446
  91   1.0000      -0.418606       -11.3908
  92   1.0000      -0.416052       -11.3214
  93   1.0000      -0.413933       -11.2637
  94   1.0000      -0.411409       -11.1950
  95   1.0000      -0.409127       -11.1329
  96   1.0000      -0.404539       -11.0081
  97   1.0000      -0.403266       -10.9734
  98   1.0000      -0.399293       -10.8653
  99   1.0000      -0.398944       -10.8558
 100   1.0000      -0.396846       -10.7987
 101   1.0000      -0.395653       -10.7663
 102   1.0000      -0.385864       -10.4999
 103   1.0000      -0.385745       -10.4967
 104   1.0000      -0.382328       -10.4037
 105   1.0000      -0.379953       -10.3390
 106   1.0000      -0.378516       -10.2999
 107   1.0000      -0.377321       -10.2674
 108   1.0000      -0.375845       -10.2272
 109   1.0000      -0.374590       -10.1931
 110   1.0000      -0.370288       -10.0760
 111   1.0000      -0.368797       -10.0355
 112   1.0000      -0.367962       -10.0128
 113   1.0000      -0.367372        -9.9967
 114   1.0000      -0.366269        -9.9667
 115   1.0000      -0.365477        -9.9451
 116   1.0000      -0.364125        -9.9083
 117   1.0000      -0.362424        -9.8621
 118   1.0000      -0.361375        -9.8335
 119   1.0000      -0.360705        -9.8153
 120   1.0000      -0.357665        -9.7326
 121   1.0000      -0.356685        -9.7059
 122   1.0000      -0.354731        -9.6527
 123   1.0000      -0.352960        -9.6045
 124   1.0000      -0.350785        -9.5454
 125   1.0000      -0.347804        -9.4642
 126   1.0000      -0.345733        -9.4079
 127   1.0000      -0.342897        -9.3307
 128   1.0000      -0.340861        -9.2753
 129   1.0000      -0.340099        -9.2546
 130   1.0000      -0.339421        -9.2361
 131   1.0000      -0.337105        -9.1731
 132   1.0000      -0.336712        -9.1624
 133   1.0000      -0.330991        -9.0067
 134   1.0000      -0.329328        -8.9615
 135   1.0000      -0.328484        -8.9385
 136   1.0000      -0.324401        -8.8274
 137   1.0000      -0.315931        -8.5969
 138   1.0000      -0.315447        -8.5837
 139   1.0000      -0.309276        -8.4158
 140   1.0000      -0.252805        -6.8792
 141   1.0000      -0.234505        -6.3812
 142   1.0000      -0.228984        -6.2310
 143   1.0000      -0.219348        -5.9687
 144   1.0000      -0.215459        -5.8629
 145   0.0000      -0.074635        -2.0309
 146   0.0000      -0.069795        -1.8992
 147   0.0000      -0.065214        -1.7746
 148   0.0000      -0.059134        -1.6091
 149   0.0000      -0.049238        -1.3398

MULLIKEN ATOMIC CHARGES AND SPIN POPULATIONS
--------------------------------------------
   0 Au:    0.273281   -0.207184
   1 Au:    0.065008   -0.184192
   2 Au:   -0.026739    0.052135
   3 Au:    0.284383   -0.066835
   4 Au:    0.080670   -0.170318
   5 Au:    0.077503   -0.182291
   6 Au:    0.270609   -0.126955
   7 Au:    0.268646   -0.124996
   8 Au:    0.272685   -0.207009
   9 Au:   -0.015052    0.052285
  10 Au:    0.458224    0.007180
  11 Au:    0.186573   -0.163907
  12 Au:   -0.344333    0.053484
  13 Au:    0.077183   -0.169339
  14 Fe:   -1.928639    3.437944
Sum of atomic charges         :   -0.0000000

LOEWDIN ATOMIC CHARGES AND SPIN POPULATIONS
-------------------------------------------
   0 Au:    0.076230   -0.150959
   1 Au:    0.006386   -0.141376
   2 Au:   -0.063495   -0.006542
   3 Au:    0.073031   -0.151166
   4 Au:    0.019116   -0.100287
   5 Au:    0.008516   -0.140171
   6 Au:    0.068277   -0.154758
   7 Au:    0.067368   -0.155410
   8 Au:    0.075753   -0.152271
   9 Au:   -0.061917   -0.005896
  10 Au:    0.160398    0.005292
  11 Au:    0.011990   -0.159543
  12 Au:   -0.111911   -0.008604
  13 Au:    0.018004   -0.099864
  14 Fe:   -0.347746    3.421555

  Mayer bond orders larger than 0.100000
B(  0-Au,  3-Au) :   0.1530 B(  0-Au,  5-Au) :   0.1269 B(  0-Au,  7-Au) :   0.2403
B(  0-Au, 14-Fe) :   0.4853 B(  1-Au,  3-Au) :   0.1860 B(  1-Au,  5-Au) :   0.1202
B(  1-Au,  8-Au) :   0.1244 B(  1-Au,  9-Au) :   0.4250 B(  1-Au, 13-Au) :   0.1778
B(  1-Au, 14-Fe) :   0.4362 B(  2-Au,  4-Au) :   0.3152 B(  2-Au,  5-Au) :   0.4245
B(  2-Au,  9-Au) :   0.2064 B(  2-Au, 10-Au) :   0.2847 B(  2-Au, 12-Au) :   0.2634
B(  2-Au, 14-Fe) :   0.1063 B(  3-Au,  5-Au) :   0.1786 B(  3-Au,  8-Au) :   0.1504
B(  3-Au, 14-Fe) :   0.4165 B(  4-Au,  5-Au) :   0.1743 B(  4-Au,  7-Au) :   0.1271
B(  4-Au, 11-Au) :   0.1260 B(  4-Au, 12-Au) :   0.1801 B(  4-Au, 14-Fe) :   0.4505
B(  5-Au, 14-Fe) :   0.4363 B(  6-Au,  7-Au) :   0.1205 B(  6-Au,  8-Au) :   0.2407
B(  6-Au, 11-Au) :   0.1597 B(  6-Au, 13-Au) :   0.1218 B(  6-Au, 14-Fe) :   0.4687
B(  7-Au, 11-Au) :   0.1577 B(  7-Au, 14-Fe) :   0.4694 B(  8-Au, 14-Fe) :   0.4832
B(  9-Au, 10-Au) :   0.2800 B(  9-Au, 12-Au) :   0.2612 B(  9-Au, 13-Au) :   0.3132
B(  9-Au, 14-Fe) :   0.1042 B( 10-Au, 12-Au) :   0.3954 B( 11-Au, 12-Au) :   0.5458
B( 11-Au, 13-Au) :   0.1265 B( 11-Au, 14-Fe) :   0.3345 B( 12-Au, 13-Au) :   0.1796
B( 12-Au, 14-Fe) :   0.1487 B( 13-Au, 14-Fe) :   0.4521

MP2 TOTAL ENERGY:    -3161.739238897 Eh
FINAL SINGLE POINT ENERGY     -3161.739238896574

DIPOLE MOMENT
-------------
                                X             Y             Z
Electronic contribution:     -0.15631      30.55562     -30.98273
Nuclear contribution   :      0.17908     -30.73485      31.16957
                        -----------------------------------------
Total Dipole Moment    :      0.02277      -0.17923       0.18683
                        -----------------------------------------
Magnitude (a.u.)       :      0.25990
Magnitude (Debye)      :      0.66062

Rotational constants in cm-1:     0.001301     0.000876     0.000839
Rotational constants in MHz :    38.988883    26.263511    25.162308

                             ****ORCA TERMINATED NORMALLY****
TOTAL RUN TIME: 0 days 0 hours 41 minutes 50 seconds 140 msec
