                         Program Version 5.0.3 -  RELEASE  -
|  1> !R2SCAN def2-TZVP VERYSLOWCONV
|  2> !NOTRAH
|  3> %pal nprocs 6 end
|  4>
|  5> *xyzfile 0 5 pbe.xyz
|  6>
|  7> $new_job
|  8>
|  9> !R2SCAN def2-TZVP VERYSLOWCONV
| 10> !NOTRAH
| 11>
| 12> %pal nprocs 6 end
| 13>
| 14> *xyzfile 0 3 pbe.xyz
| 15>
| 16>
| 17>
| 18>
| 19>
| 20>                          ****END OF INPUT****
 Total Charge           Charge          ....    0
 Multiplicity           Mult            ....    5
 Number of Electrons    NEL             ....  292
FINAL SINGLE POINT ENERGY     -3165.558713548897

CARTESIAN COORDINATES (ANGSTROEM)
---------------------------------
  Au     7.500467    7.738083   10.616082
  Au     9.539873    7.102918    6.561666
  Au     7.879933   10.671775    6.691311
  Au     9.628631    6.459501    9.321893
  Au     6.100330    9.363832    8.368847
  Au     8.942662    9.123329    8.591312
  Au     5.668291    4.910237    7.696518
  Au     5.096539    6.900765    9.654969
  Au     8.375666    4.693892    7.538556
  Au     8.458255    8.658393    4.679480
  Au     7.251707   11.036771    4.051161
  Au     4.602432    7.393280    6.933792
  Au     5.712916    9.240961    5.398013
  Au     6.933525    6.503177    5.534375
  Fe     7.268350    7.037612    8.076266

 Multiplicity           Mult            ....    3
 Number of Electrons    NEL             ....  292
 Basis Dimension        Dim             ....  605

ORBITAL ENERGIES
----------------
                 SPIN UP ORBITALS
  NO   OCC          E(Eh)            E(eV)
   0   1.0000    -255.627939     -6955.9899
   1   1.0000     -29.924001      -814.2735
   2   1.0000     -25.763395      -701.0576
   3   1.0000     -25.757575      -700.8993
   4   1.0000     -25.743170      -700.5073
   5   1.0000      -4.122644      -112.1828
   6   1.0000      -4.122490      -112.1787
   7   1.0000      -4.122341      -112.1746
   8   1.0000      -4.122094      -112.1679
   9   1.0000      -4.121908      -112.1628
  10   1.0000      -4.117191      -112.0345
  11   1.0000      -4.116502      -112.0157
  12   1.0000      -4.116283      -112.0098
  13   1.0000      -4.114731      -111.9675
  14   1.0000      -4.114068      -111.9495
  15   1.0000      -4.108363      -111.7942
  16   1.0000      -4.107056      -111.7587
  17   1.0000      -4.106966      -111.7562
  18   1.0000      -4.106898      -111.7544
  19   1.0000      -3.502454       -95.3066
  20   1.0000      -2.311936       -62.9110
  21   1.0000      -2.311839       -62.9083
  22   1.0000      -2.311640       -62.9029
  23   1.0000      -2.311467       -62.8982
  24   1.0000      -2.310905       -62.8829
  25   1.0000      -2.309811       -62.8531
  26   1.0000      -2.309590       -62.8471
  27   1.0000      -2.307873       -62.8004
  28   1.0000      -2.307514       -62.7907
  29   1.0000      -2.307443       -62.7887
  30   1.0000      -2.306617       -62.7662
  31   1.0000      -2.305898       -62.7467
  32   1.0000      -2.305563       -62.7376
  33   1.0000      -2.305424       -62.7338
  34   1.0000      -2.305201       -62.7277
  35   1.0000      -2.304884       -62.7191
  36   1.0000      -2.304712       -62.7144
  37   1.0000      -2.304041       -62.6962
  38   1.0000      -2.303922       -62.6929
  39   1.0000      -2.303272       -62.6752
  40   1.0000      -2.302853       -62.6638
  41   1.0000      -2.302609       -62.6572
  42   1.0000      -2.301608       -62.6299
  43   1.0000      -2.300838       -62.6090
  44   1.0000      -2.300421       -62.5976
  45   1.0000      -2.299530       -62.5734
  46   1.0000      -2.299187       -62.5641
  47   1.0000      -2.299021       -62.5595
  48   1.0000      -2.298015       -62.5322
  49   1.0000      -2.297711       -62.5239
  50   1.0000      -2.297317       -62.5132
  51   1.0000      -2.296616       -62.4941
  52   1.0000      -2.295872       -62.4738
  53   1.0000      -2.295103       -62.4529
  54   1.0000      -2.291704       -62.3604
  55   1.0000      -2.291611       -62.3579
  56   1.0000      -2.291501       -62.3549
  57   1.0000      -2.291213       -62.3471
  58   1.0000      -2.289717       -62.3064
  59   1.0000      -2.289678       -62.3053
  60   1.0000      -2.288207       -62.2653
  61   1.0000      -2.287524       -62.2467
  62   1.0000      -2.285451       -62.1903
  63   1.0000      -2.273578       -61.8672
  64   1.0000      -2.243501       -61.0488
  65   1.0000      -0.436283       -11.8719
  66   1.0000      -0.398365       -10.8401
  67   1.0000      -0.391739       -10.6598
  68   1.0000      -0.389538       -10.5999
  69   1.0000      -0.387599       -10.5471
  70   1.0000      -0.385056       -10.4779
  71   1.0000      -0.376470       -10.2443
  72   1.0000      -0.373041       -10.1510
  73   1.0000      -0.370927       -10.0934
  74   1.0000      -0.367611       -10.0032
  75   1.0000      -0.366379        -9.9697
  76   1.0000      -0.365761        -9.9529
  77   1.0000      -0.357579        -9.7302
  78   1.0000      -0.355857        -9.6834
  79   1.0000      -0.355462        -9.6726
  80   1.0000      -0.353694        -9.6245
  81   1.0000      -0.350783        -9.5453
  82   1.0000      -0.347577        -9.4580
  83   1.0000      -0.346277        -9.4227
  84   1.0000      -0.342023        -9.3069
  85   1.0000      -0.340659        -9.2698
  86   1.0000      -0.338408        -9.2085
  87   1.0000      -0.336982        -9.1698
  88   1.0000      -0.336823        -9.1654
  89   1.0000      -0.333430        -9.0731
  90   1.0000      -0.331308        -9.0154
  91   1.0000      -0.328897        -8.9497
  92   1.0000      -0.327993        -8.9252
  93   1.0000      -0.327442        -8.9101
  94   1.0000      -0.322458        -8.7745
  95   1.0000      -0.319406        -8.6915
  96   1.0000      -0.317812        -8.6481
  97   1.0000      -0.317236        -8.6324
  98   1.0000      -0.313732        -8.5371
  99   1.0000      -0.309622        -8.4253
 100   1.0000      -0.308529        -8.3955
 101   1.0000      -0.307258        -8.3609
 102   1.0000      -0.305102        -8.3023
 103   1.0000      -0.301955        -8.2166
 104   1.0000      -0.299114        -8.1393
 105   1.0000      -0.294707        -8.0194
 106   1.0000      -0.291801        -7.9403
 107   1.0000      -0.291029        -7.9193
 108   1.0000      -0.286943        -7.8081
 109   1.0000      -0.284313        -7.7366
 110   1.0000      -0.283280        -7.7084
 111   1.0000      -0.283167        -7.7054
 112   1.0000      -0.283059        -7.7024
 113   1.0000      -0.281748        -7.6668
 114   1.0000      -0.279949        -7.6178
 115   1.0000      -0.279025        -7.5927
 116   1.0000      -0.278458        -7.5772
 117   1.0000      -0.277156        -7.5418
 118   1.0000      -0.275917        -7.5081
 119   1.0000      -0.274637        -7.4733
 120   1.0000      -0.274470        -7.4687
 121   1.0000      -0.270375        -7.3573
 122   1.0000      -0.268707        -7.3119
 123   1.0000      -0.267712        -7.2848
 124   1.0000      -0.265681        -7.2296
 125   1.0000      -0.264080        -7.1860
 126   1.0000      -0.263657        -7.1745
 127   1.0000      -0.261358        -7.1119
 128   1.0000      -0.260279        -7.0825
 129   1.0000      -0.259567        -7.0632
 130   1.0000      -0.256439        -6.9781
 131   1.0000      -0.255850        -6.9620
 132   1.0000      -0.254733        -6.9316
 133   1.0000      -0.253028        -6.8853
 134   1.0000      -0.252772        -6.8783
 135   1.0000      -0.252333        -6.8663
 136   1.0000      -0.251326        -6.8389
 137   1.0000      -0.249612        -6.7923
 138   1.0000      -0.249083        -6.7779
 139   1.0000      -0.247802        -6.7430
 140   1.0000      -0.246808        -6.7160
 141   1.0000      -0.243832        -6.6350
 142   1.0000      -0.240313        -6.5393
 143   1.0000      -0.235565        -6.4101
 144   1.0000      -0.223895        -6.0925
 145   1.0000      -0.203123        -5.5273
 146   1.0000      -0.202801        -5.5185
 147   0.0000      -0.180298        -4.9061
 148   0.0000      -0.179196        -4.8762
 149   0.0000      -0.132919        -3.6169
 150   0.0000      -0.122562        -3.3351
 151   0.0000      -0.121800        -3.3143

                 SPIN DOWN ORBITALS
  NO   OCC          E(Eh)            E(eV)
   0   1.0000    -255.626977     -6955.9637
   1   1.0000     -29.848980      -812.2321
   2   1.0000     -25.701676      -699.3782
   3   1.0000     -25.699196      -699.3107
   4   1.0000     -25.691589      -699.1037
   5   1.0000      -4.122802      -112.1871
   6   1.0000      -4.122574      -112.1809
   7   1.0000      -4.122397      -112.1761
   8   1.0000      -4.122232      -112.1716
   9   1.0000      -4.122061      -112.1670
  10   1.0000      -4.117467      -112.0420
  11   1.0000      -4.116688      -112.0208
  12   1.0000      -4.116461      -112.0146
  13   1.0000      -4.114852      -111.9708
  14   1.0000      -4.114213      -111.9534
  15   1.0000      -4.108677      -111.8028
  16   1.0000      -4.107477      -111.7701
  17   1.0000      -4.107395      -111.7679
  18   1.0000      -4.107366      -111.7671
  19   1.0000      -3.335803       -90.7718
  20   1.0000      -2.311888       -62.9097
  21   1.0000      -2.311427       -62.8971
  22   1.0000      -2.310964       -62.8845
  23   1.0000      -2.310784       -62.8796
  24   1.0000      -2.310625       -62.8753
  25   1.0000      -2.309696       -62.8500
  26   1.0000      -2.309621       -62.8480
  27   1.0000      -2.307789       -62.7981
  28   1.0000      -2.307337       -62.7858
  29   1.0000      -2.307235       -62.7831
  30   1.0000      -2.306922       -62.7745
  31   1.0000      -2.305832       -62.7449
  32   1.0000      -2.305550       -62.7372
  33   1.0000      -2.305317       -62.7309
  34   1.0000      -2.305233       -62.7286
  35   1.0000      -2.305078       -62.7244
  36   1.0000      -2.304888       -62.7192
  37   1.0000      -2.304179       -62.6999
  38   1.0000      -2.303902       -62.6924
  39   1.0000      -2.303768       -62.6887
  40   1.0000      -2.302715       -62.6601
  41   1.0000      -2.302381       -62.6510
  42   1.0000      -2.301664       -62.6315
  43   1.0000      -2.301338       -62.6226
  44   1.0000      -2.300689       -62.6049
  45   1.0000      -2.299741       -62.5791
  46   1.0000      -2.299537       -62.5736
  47   1.0000      -2.299133       -62.5626
  48   1.0000      -2.298321       -62.5405
  49   1.0000      -2.298109       -62.5347
  50   1.0000      -2.297854       -62.5278
  51   1.0000      -2.296655       -62.4952
  52   1.0000      -2.295967       -62.4764
  53   1.0000      -2.295659       -62.4681
  54   1.0000      -2.292194       -62.3738
  55   1.0000      -2.292132       -62.3721
  56   1.0000      -2.291947       -62.3670
  57   1.0000      -2.291657       -62.3592
  58   1.0000      -2.290404       -62.3251
  59   1.0000      -2.290062       -62.3157
  60   1.0000      -2.288555       -62.2747
  61   1.0000      -2.287826       -62.2549
  62   1.0000      -2.111526       -57.4576
  63   1.0000      -2.108064       -57.3633
  64   1.0000      -2.092290       -56.9341
  65   1.0000      -0.434283       -11.8174
  66   1.0000      -0.397723       -10.8226
  67   1.0000      -0.393047       -10.6954
  68   1.0000      -0.389058       -10.5868
  69   1.0000      -0.379566       -10.3285
  70   1.0000      -0.376681       -10.2500
  71   1.0000      -0.374090       -10.1795
  72   1.0000      -0.370798       -10.0899
  73   1.0000      -0.370214       -10.0740
  74   1.0000      -0.367682       -10.0051
  75   1.0000      -0.361363        -9.8332
  76   1.0000      -0.360140        -9.7999
  77   1.0000      -0.357966        -9.7408
  78   1.0000      -0.356284        -9.6950
  79   1.0000      -0.356065        -9.6890
  80   1.0000      -0.350693        -9.5428
  81   1.0000      -0.350597        -9.5402
  82   1.0000      -0.346276        -9.4227
  83   1.0000      -0.345707        -9.4072
  84   1.0000      -0.341504        -9.2928
  85   1.0000      -0.339971        -9.2511
  86   1.0000      -0.338535        -9.2120
  87   1.0000      -0.337029        -9.1710
  88   1.0000      -0.336129        -9.1465
  89   1.0000      -0.331137        -9.0107
  90   1.0000      -0.329753        -8.9730
  91   1.0000      -0.329376        -8.9628
  92   1.0000      -0.323686        -8.8079
  93   1.0000      -0.322726        -8.7818
  94   1.0000      -0.322153        -8.7662
  95   1.0000      -0.319940        -8.7060
  96   1.0000      -0.315089        -8.5740
  97   1.0000      -0.312681        -8.5085
  98   1.0000      -0.310055        -8.4370
  99   1.0000      -0.307817        -8.3761
 100   1.0000      -0.307528        -8.3683
 101   1.0000      -0.305366        -8.3094
 102   1.0000      -0.300505        -8.1772
 103   1.0000      -0.298763        -8.1297
 104   1.0000      -0.295649        -8.0450
 105   1.0000      -0.291477        -7.9315
 106   1.0000      -0.290890        -7.9155
 107   1.0000      -0.288352        -7.8465
 108   1.0000      -0.287197        -7.8150
 109   1.0000      -0.285167        -7.7598
 110   1.0000      -0.283828        -7.7233
 111   1.0000      -0.283425        -7.7124
 112   1.0000      -0.282039        -7.6747
 113   1.0000      -0.281178        -7.6512
 114   1.0000      -0.279820        -7.6143
 115   1.0000      -0.279410        -7.6031
 116   1.0000      -0.279040        -7.5931
 117   1.0000      -0.276498        -7.5239
 118   1.0000      -0.275083        -7.4854
 119   1.0000      -0.273863        -7.4522
 120   1.0000      -0.272893        -7.4258
 121   1.0000      -0.270304        -7.3553
 122   1.0000      -0.270042        -7.3482
 123   1.0000      -0.266662        -7.2562
 124   1.0000      -0.266174        -7.2430
 125   1.0000      -0.264181        -7.1887
 126   1.0000      -0.261475        -7.1151
 127   1.0000      -0.259643        -7.0652
 128   1.0000      -0.257429        -7.0050
 129   1.0000      -0.256567        -6.9816
 130   1.0000      -0.256075        -6.9682
 131   1.0000      -0.254935        -6.9371
 132   1.0000      -0.253553        -6.8995
 133   1.0000      -0.252569        -6.8727
 134   1.0000      -0.251660        -6.8480
 135   1.0000      -0.248365        -6.7584
 136   1.0000      -0.246483        -6.7071
 137   1.0000      -0.242488        -6.5984
 138   1.0000      -0.236306        -6.4302
 139   1.0000      -0.225278        -6.1301
 140   1.0000      -0.211915        -5.7665
 141   1.0000      -0.209447        -5.6993
 142   1.0000      -0.202561        -5.5120
 143   1.0000      -0.200077        -5.4444
 144   1.0000      -0.182446        -4.9646
 145   0.0000      -0.145486        -3.9589
 146   0.0000      -0.144547        -3.9333
 147   0.0000      -0.135529        -3.6879
 148   0.0000      -0.133647        -3.6367
 149   0.0000      -0.132117        -3.5951

MULLIKEN ATOMIC CHARGES AND SPIN POPULATIONS
--------------------------------------------
   0 Au:    0.294163   -0.146785
   1 Au:    0.082401   -0.123375
   2 Au:   -0.014537    0.040338
   3 Au:    0.303894   -0.037797
   4 Au:    0.089236   -0.118874
   5 Au:    0.095574   -0.122137
   6 Au:    0.293071   -0.081764
   7 Au:    0.293495   -0.081985
   8 Au:    0.295414   -0.144270
   9 Au:   -0.001973    0.040935
  10 Au:    0.431939   -0.022214
  11 Au:    0.183463   -0.112126
  12 Au:   -0.278275    0.025625
  13 Au:    0.084768   -0.121067
  14 Fe:   -2.152635    3.005498
Sum of atomic charges         :   -0.0000000

LOEWDIN ATOMIC CHARGES AND SPIN POPULATIONS
-------------------------------------------
   0 Au:    0.092825   -0.112416
   1 Au:    0.031953   -0.095137
   2 Au:   -0.052392   -0.008201
   3 Au:    0.086698   -0.103857
   4 Au:    0.047000   -0.065578
   5 Au:    0.034068   -0.094614
   6 Au:    0.084203   -0.108896
   7 Au:    0.083515   -0.110377
   8 Au:    0.092730   -0.111331
   9 Au:   -0.051118   -0.008064
  10 Au:    0.130180   -0.012779
  11 Au:    0.032952   -0.112634
  12 Au:   -0.096593   -0.012812
  13 Au:    0.045439   -0.066876
  14 Fe:   -0.561460    3.023571

  Mayer bond orders larger than 0.100000
B(  0-Au,  3-Au) :   0.1820 B(  0-Au,  5-Au) :   0.1440 B(  0-Au,  7-Au) :   0.2718
B(  0-Au, 14-Fe) :   0.5138 B(  1-Au,  3-Au) :   0.1839 B(  1-Au,  5-Au) :   0.1431
B(  1-Au,  8-Au) :   0.1401 B(  1-Au,  9-Au) :   0.4532 B(  1-Au, 13-Au) :   0.1704
B(  1-Au, 14-Fe) :   0.4747 B(  2-Au,  4-Au) :   0.3363 B(  2-Au,  5-Au) :   0.4519
B(  2-Au,  9-Au) :   0.2048 B(  2-Au, 10-Au) :   0.3087 B(  2-Au, 12-Au) :   0.2359
B(  2-Au, 14-Fe) :   0.1105 B(  3-Au,  5-Au) :   0.1754 B(  3-Au,  8-Au) :   0.1798
B(  3-Au, 14-Fe) :   0.4378 B(  4-Au,  5-Au) :   0.1680 B(  4-Au,  7-Au) :   0.1317
B(  4-Au, 11-Au) :   0.1481 B(  4-Au, 12-Au) :   0.1957 B(  4-Au, 14-Fe) :   0.4980
B(  5-Au, 14-Fe) :   0.4755 B(  6-Au,  7-Au) :   0.1419 B(  6-Au,  8-Au) :   0.2729
B(  6-Au, 11-Au) :   0.1683 B(  6-Au, 13-Au) :   0.1254 B(  6-Au, 14-Fe) :   0.4954
B(  7-Au, 11-Au) :   0.1667 B(  7-Au, 14-Fe) :   0.4938 B(  8-Au, 14-Fe) :   0.5122
B(  9-Au, 10-Au) :   0.3062 B(  9-Au, 12-Au) :   0.2346 B(  9-Au, 13-Au) :   0.3345
B(  9-Au, 14-Fe) :   0.1058 B( 10-Au, 12-Au) :   0.4082 B( 11-Au, 12-Au) :   0.5761
B( 11-Au, 13-Au) :   0.1486 B( 11-Au, 14-Fe) :   0.3589 B( 12-Au, 13-Au) :   0.1950
B( 12-Au, 14-Fe) :   0.1501 B( 13-Au, 14-Fe) :   0.4968

FINAL SINGLE POINT ENERGY     -3165.557000283928

DIPOLE MOMENT
-------------
                                X             Y             Z
Electronic contribution:     -0.16980      30.55481     -30.98453
Nuclear contribution   :      0.17908     -30.73485      31.16957
                        -----------------------------------------
Total Dipole Moment    :      0.00928      -0.18004       0.18503
                        -----------------------------------------
Magnitude (a.u.)       :      0.25834
Magnitude (Debye)      :      0.65665

Rotational constants in cm-1:     0.001301     0.000876     0.000839
Rotational constants in MHz :    38.988883    26.263511    25.162308

                             ****ORCA TERMINATED NORMALLY****
TOTAL RUN TIME: 0 days 0 hours 13 minutes 4 seconds 980 msec
