                         Program Version 5.0.3 -  RELEASE  -
|  1> %pal nprocs 1 end
|  2>
|  3> !PBE def2-TZVP OPT UNO
|  4> !SLOWCONV KDIIS
|  5>
|  6> %geom maxiter 300 end
|  7>
|  8> *xyzfile 0 3 7.xyz                           ****END OF INPUT****
 Total Charge           Charge          ....    0
 Multiplicity           Mult            ....    3
 Number of Electrons    NEL             ....  214
FINAL SINGLE POINT ENERGY     -2402.466355117360
FINAL SINGLE POINT ENERGY     -2402.467425091002
FINAL SINGLE POINT ENERGY     -2402.467679937949
FINAL SINGLE POINT ENERGY     -2402.468083516985
FINAL SINGLE POINT ENERGY     -2402.468243228308
FINAL SINGLE POINT ENERGY     -2402.468285252067
FINAL SINGLE POINT ENERGY     -2402.468324279083
FINAL SINGLE POINT ENERGY     -2402.468352732928
FINAL SINGLE POINT ENERGY     -2402.468368656831
FINAL SINGLE POINT ENERGY     -2402.468376345027
FINAL SINGLE POINT ENERGY     -2402.479069021610
FINAL SINGLE POINT ENERGY     -2402.479070745028
FINAL SINGLE POINT ENERGY     -2402.479068226650
FINAL SINGLE POINT ENERGY     -2402.479071524968
FINAL SINGLE POINT ENERGY     -2402.479070770968
FINAL SINGLE POINT ENERGY     -2402.479074431045
FINAL SINGLE POINT ENERGY     -2402.479074967166
FINAL SINGLE POINT ENERGY     -2402.479075832850
FINAL SINGLE POINT ENERGY     -2402.479076577290
                    ***********************HURRAY********************

CARTESIAN COORDINATES (ANGSTROEM)
---------------------------------
  Au    10.025785    4.138389    8.784675
  Au    10.140620    6.908774    9.304887
  Au     6.251351    9.543237    8.200761
  Au     7.713705    4.867812   10.174898
  Au     7.030988    7.371184    9.646756
  Au     9.448601    4.183965    6.086976
  Au     6.724746    4.839137    5.886405
  Au     8.817217    8.651752    7.699161
  Au     6.419531    7.394689    6.538182
  Au     9.295468    6.954367    5.609309
  Cr     8.264951    5.878388    7.779515

 Multiplicity           Mult            ....    3
 Number of Electrons    NEL             ....  214
 Basis Dimension        Dim             ....  445

ORBITAL ENERGIES
----------------
                 SPIN UP ORBITALS
  NO   OCC          E(Eh)            E(eV)
   0   1.0000    -214.505678     -5836.9962
   1   1.0000     -24.309373      -661.4917
   2   1.0000     -20.675930      -562.6207
   3   1.0000     -20.671642      -562.5040
   4   1.0000     -20.671551      -562.5015
   5   1.0000      -4.027157      -109.5845
   6   1.0000      -4.026328      -109.5620
   7   1.0000      -4.025926      -109.5510
   8   1.0000      -4.021778      -109.4382
   9   1.0000      -4.015544      -109.2685
  10   1.0000      -4.014574      -109.2421
  11   1.0000      -4.013429      -109.2109
  12   1.0000      -4.012708      -109.1913
  13   1.0000      -4.011990      -109.1718
  14   1.0000      -4.011919      -109.1699
  15   1.0000      -2.804685       -76.3194
  16   1.0000      -2.245804       -61.1114
  17   1.0000      -2.245188       -61.0947
  18   1.0000      -2.242400       -61.0188
  19   1.0000      -2.241847       -61.0038
  20   1.0000      -2.240831       -60.9761
  21   1.0000      -2.238540       -60.9138
  22   1.0000      -2.237237       -60.8783
  23   1.0000      -2.237038       -60.8729
  24   1.0000      -2.234015       -60.7906
  25   1.0000      -2.233347       -60.7725
  26   1.0000      -2.233071       -60.7649
  27   1.0000      -2.232713       -60.7552
  28   1.0000      -2.232577       -60.7515
  29   1.0000      -2.231742       -60.7288
  30   1.0000      -2.231143       -60.7125
  31   1.0000      -2.230641       -60.6988
  32   1.0000      -2.230142       -60.6853
  33   1.0000      -2.230048       -60.6827
  34   1.0000      -2.228441       -60.6390
  35   1.0000      -2.227086       -60.6021
  36   1.0000      -2.226425       -60.5841
  37   1.0000      -2.225967       -60.5717
  38   1.0000      -2.225394       -60.5561
  39   1.0000      -2.224303       -60.5264
  40   1.0000      -2.224114       -60.5212
  41   1.0000      -2.223404       -60.5019
  42   1.0000      -2.219983       -60.4088
  43   1.0000      -2.219310       -60.3905
  44   1.0000      -2.219100       -60.3848
  45   1.0000      -2.218672       -60.3731
  46   1.0000      -1.798272       -48.9335
  47   1.0000      -1.791805       -48.7575
  48   1.0000      -1.791235       -48.7420
  49   1.0000      -0.407740       -11.0952
  50   1.0000      -0.376945       -10.2572
  51   1.0000      -0.366537        -9.9740
  52   1.0000      -0.362118        -9.8537
  53   1.0000      -0.351611        -9.5678
  54   1.0000      -0.349108        -9.4997
  55   1.0000      -0.347918        -9.4673
  56   1.0000      -0.343747        -9.3538
  57   1.0000      -0.338947        -9.2232
  58   1.0000      -0.336223        -9.1491
  59   1.0000      -0.331025        -9.0076
  60   1.0000      -0.329315        -8.9611
  61   1.0000      -0.327196        -8.9035
  62   1.0000      -0.324685        -8.8351
  63   1.0000      -0.320238        -8.7141
  64   1.0000      -0.318195        -8.6585
  65   1.0000      -0.317087        -8.6284
  66   1.0000      -0.313893        -8.5415
  67   1.0000      -0.312673        -8.5083
  68   1.0000      -0.303529        -8.2594
  69   1.0000      -0.302620        -8.2347
  70   1.0000      -0.299533        -8.1507
  71   1.0000      -0.296478        -8.0676
  72   1.0000      -0.293415        -7.9842
  73   1.0000      -0.292710        -7.9650
  74   1.0000      -0.286990        -7.8094
  75   1.0000      -0.285021        -7.7558
  76   1.0000      -0.284106        -7.7309
  77   1.0000      -0.283475        -7.7138
  78   1.0000      -0.277641        -7.5550
  79   1.0000      -0.275298        -7.4912
  80   1.0000      -0.274489        -7.4692
  81   1.0000      -0.271049        -7.3756
  82   1.0000      -0.267837        -7.2882
  83   1.0000      -0.267043        -7.2666
  84   1.0000      -0.266825        -7.2607
  85   1.0000      -0.264818        -7.2061
  86   1.0000      -0.263415        -7.1679
  87   1.0000      -0.262632        -7.1466
  88   1.0000      -0.261855        -7.1254
  89   1.0000      -0.258771        -7.0415
  90   1.0000      -0.255200        -6.9444
  91   1.0000      -0.254198        -6.9171
  92   1.0000      -0.253285        -6.8922
  93   1.0000      -0.251602        -6.8464
  94   1.0000      -0.250075        -6.8049
  95   1.0000      -0.246539        -6.7087
  96   1.0000      -0.244333        -6.6486
  97   1.0000      -0.244170        -6.6442
  98   1.0000      -0.240233        -6.5371
  99   1.0000      -0.237961        -6.4752
 100   1.0000      -0.237132        -6.4527
 101   1.0000      -0.236003        -6.4220
 102   1.0000      -0.220647        -6.0041
 103   1.0000      -0.214984        -5.8500
 104   1.0000      -0.210659        -5.7323
 105   1.0000      -0.206912        -5.6304
 106   1.0000      -0.205914        -5.6032
 107   1.0000      -0.200070        -5.4442
 108   0.0000      -0.182335        -4.9616
 109   0.0000      -0.163488        -4.4487
 110   0.0000      -0.152732        -4.1560
 111   0.0000      -0.139217        -3.7883
 112   0.0000      -0.130119        -3.5407

                 SPIN DOWN ORBITALS
  NO   OCC          E(Eh)            E(eV)
   0   1.0000    -214.505260     -5836.9849
   1   1.0000     -24.267404      -660.3496
   2   1.0000     -20.645461      -561.7916
   3   1.0000     -20.640156      -561.6472
   4   1.0000     -20.637268      -561.5686
   5   1.0000      -4.027489      -109.5935
   6   1.0000      -4.026587      -109.5690
   7   1.0000      -4.025767      -109.5467
   8   1.0000      -4.022638      -109.4615
   9   1.0000      -4.015516      -109.2677
  10   1.0000      -4.014530      -109.2409
  11   1.0000      -4.013409      -109.2104
  12   1.0000      -4.012706      -109.1913
  13   1.0000      -4.011775      -109.1659
  14   1.0000      -4.011646      -109.1624
  15   1.0000      -2.691909       -73.2506
  16   1.0000      -2.246427       -61.1284
  17   1.0000      -2.245694       -61.1084
  18   1.0000      -2.242600       -61.0243
  19   1.0000      -2.241749       -61.0011
  20   1.0000      -2.241006       -60.9809
  21   1.0000      -2.238359       -60.9088
  22   1.0000      -2.237653       -60.8896
  23   1.0000      -2.237316       -60.8805
  24   1.0000      -2.234509       -60.8041
  25   1.0000      -2.233479       -60.7760
  26   1.0000      -2.233432       -60.7748
  27   1.0000      -2.232990       -60.7627
  28   1.0000      -2.232172       -60.7405
  29   1.0000      -2.231942       -60.7342
  30   1.0000      -2.230913       -60.7062
  31   1.0000      -2.230401       -60.6923
  32   1.0000      -2.229493       -60.6676
  33   1.0000      -2.229353       -60.6638
  34   1.0000      -2.228723       -60.6466
  35   1.0000      -2.227364       -60.6097
  36   1.0000      -2.226714       -60.5920
  37   1.0000      -2.226030       -60.5733
  38   1.0000      -2.225537       -60.5599
  39   1.0000      -2.224538       -60.5328
  40   1.0000      -2.224228       -60.5243
  41   1.0000      -2.223537       -60.5055
  42   1.0000      -2.219804       -60.4040
  43   1.0000      -2.219181       -60.3870
  44   1.0000      -2.219013       -60.3824
  45   1.0000      -2.218494       -60.3683
  46   1.0000      -1.692452       -46.0540
  47   1.0000      -1.682289       -45.7774
  48   1.0000      -1.673468       -45.5374
  49   1.0000      -0.403300       -10.9744
  50   1.0000      -0.374508       -10.1909
  51   1.0000      -0.366963        -9.9856
  52   1.0000      -0.359368        -9.7789
  53   1.0000      -0.350644        -9.5415
  54   1.0000      -0.346130        -9.4187
  55   1.0000      -0.344178        -9.3656
  56   1.0000      -0.343157        -9.3378
  57   1.0000      -0.335695        -9.1347
  58   1.0000      -0.334482        -9.1017
  59   1.0000      -0.330776        -9.0009
  60   1.0000      -0.329077        -8.9546
  61   1.0000      -0.325407        -8.8548
  62   1.0000      -0.324592        -8.8326
  63   1.0000      -0.317793        -8.6476
  64   1.0000      -0.317438        -8.6379
  65   1.0000      -0.316660        -8.6168
  66   1.0000      -0.313886        -8.5413
  67   1.0000      -0.313163        -8.5216
  68   1.0000      -0.302725        -8.2376
  69   1.0000      -0.300631        -8.1806
  70   1.0000      -0.298590        -8.1250
  71   1.0000      -0.295139        -8.0312
  72   1.0000      -0.293717        -7.9925
  73   1.0000      -0.291084        -7.9208
  74   1.0000      -0.287502        -7.8233
  75   1.0000      -0.285717        -7.7747
  76   1.0000      -0.284676        -7.7464
  77   1.0000      -0.283970        -7.7272
  78   1.0000      -0.278830        -7.5873
  79   1.0000      -0.276265        -7.5176
  80   1.0000      -0.275019        -7.4836
  81   1.0000      -0.271078        -7.3764
  82   1.0000      -0.268090        -7.2951
  83   1.0000      -0.267956        -7.2915
  84   1.0000      -0.266994        -7.2653
  85   1.0000      -0.266074        -7.2402
  86   1.0000      -0.264650        -7.2015
  87   1.0000      -0.263762        -7.1773
  88   1.0000      -0.262372        -7.1395
  89   1.0000      -0.259774        -7.0688
  90   1.0000      -0.255972        -6.9653
  91   1.0000      -0.254818        -6.9339
  92   1.0000      -0.253692        -6.9033
  93   1.0000      -0.252372        -6.8674
  94   1.0000      -0.251096        -6.8327
  95   1.0000      -0.246708        -6.7133
  96   1.0000      -0.245289        -6.6747
  97   1.0000      -0.245029        -6.6676
  98   1.0000      -0.241380        -6.5683
  99   1.0000      -0.238990        -6.5033
 100   1.0000      -0.238595        -6.4925
 101   1.0000      -0.237880        -6.4730
 102   1.0000      -0.219813        -5.9814
 103   1.0000      -0.205200        -5.5838
 104   1.0000      -0.191068        -5.1992
 105   1.0000      -0.184545        -5.0217
 106   0.0000      -0.151189        -4.1141
 107   0.0000      -0.146675        -3.9912
 108   0.0000      -0.119442        -3.2502
 109   0.0000      -0.117985        -3.2105
 110   0.0000      -0.112288        -3.0555

MULLIKEN ATOMIC CHARGES AND SPIN POPULATIONS
--------------------------------------------
   0 Au:    0.341182   -0.121102
   1 Au:    0.415852   -0.082010
   2 Au:    0.333944   -0.147998
   3 Au:    0.265570   -0.060168
   4 Au:    0.204282   -0.105292
   5 Au:    0.332857   -0.120410
   6 Au:    0.255640   -0.063963
   7 Au:    0.258331   -0.020283
   8 Au:    0.227696   -0.107057
   9 Au:    0.410840   -0.090634
  10 Cr:   -3.046194    2.918918
Sum of atomic charges         :   -0.0000000

LOEWDIN ATOMIC CHARGES AND SPIN POPULATIONS
-------------------------------------------
   0 Au:    0.101953   -0.104510
   1 Au:    0.130914   -0.072848
   2 Au:    0.147018   -0.138520
   3 Au:    0.145933   -0.078974
   4 Au:    0.044299   -0.091693
   5 Au:    0.100430   -0.103113
   6 Au:    0.150716   -0.079270
   7 Au:    0.016320   -0.054437
   8 Au:    0.038560   -0.095679
   9 Au:    0.129662   -0.078428
  10 Cr:   -1.005806    2.897472

  Mayer bond orders larger than 0.100000
B(  0-Au,  1-Au) :   0.2070 B(  0-Au,  3-Au) :   0.2017 B(  0-Au,  5-Au) :   0.3063
B(  0-Au, 10-Cr) :   0.6806 B(  1-Au,  7-Au) :   0.3624 B(  1-Au, 10-Cr) :   0.8550
B(  2-Au,  4-Au) :   0.3655 B(  2-Au,  7-Au) :   0.2858 B(  2-Au,  8-Au) :   0.3602
B(  2-Au, 10-Cr) :   0.2860 B(  3-Au,  4-Au) :   0.4860 B(  3-Au, 10-Cr) :   0.7487
B(  4-Au,  7-Au) :   0.1354 B(  4-Au,  8-Au) :   0.1265 B(  4-Au, 10-Cr) :   0.7180
B(  5-Au,  6-Au) :   0.2000 B(  5-Au,  9-Au) :   0.2095 B(  5-Au, 10-Cr) :   0.6856
B(  6-Au,  8-Au) :   0.4730 B(  6-Au, 10-Cr) :   0.7597 B(  7-Au,  8-Au) :   0.1366
B(  7-Au,  9-Au) :   0.3472 B(  7-Au, 10-Cr) :   0.3837 B(  8-Au, 10-Cr) :   0.7059
B(  9-Au, 10-Cr) :   0.8456

FINAL SINGLE POINT ENERGY     -2402.479076809310

DIPOLE MOMENT
-------------
                                X             Y             Z
Electronic contribution:     -2.81306      21.45873       0.49537
Nuclear contribution   :      2.73145     -21.21364      -0.47834
                        -----------------------------------------
Total Dipole Moment    :     -0.08161       0.24509       0.01703
                        -----------------------------------------
Magnitude (a.u.)       :      0.25888
Magnitude (Debye)      :      0.65803

Rotational constants in cm-1:     0.002110     0.001614     0.001341
Rotational constants in MHz :    63.255410    48.396923    40.191089

                             ****ORCA TERMINATED NORMALLY****
TOTAL RUN TIME: 0 days 5 hours 46 minutes 40 seconds 895 msec
