                         Program Version 5.0.3 -  RELEASE  -
|  1> %pal nprocs 1 end
|  2>
|  3> !PBE def2-TZVP OPT UNO
|  4> !SLOWCONV
|  5>
|  6> *xyzfile 0 4 1.xyz                           ****END OF INPUT****
 Total Charge           Charge          ....    0
 Multiplicity           Mult            ....    4
 Number of Electrons    NEL             ....  311
FINAL SINGLE POINT ENERGY     -3300.905940968580
FINAL SINGLE POINT ENERGY     -3300.908326195645
FINAL SINGLE POINT ENERGY     -3300.908750754966
FINAL SINGLE POINT ENERGY     -3300.909286172845
FINAL SINGLE POINT ENERGY     -3300.909774732356
FINAL SINGLE POINT ENERGY     -3300.910045017215
FINAL SINGLE POINT ENERGY     -3300.910199417223
FINAL SINGLE POINT ENERGY     -3300.910380085658
FINAL SINGLE POINT ENERGY     -3300.910570509859
FINAL SINGLE POINT ENERGY     -3300.910708563895
FINAL SINGLE POINT ENERGY     -3300.910796187880
FINAL SINGLE POINT ENERGY     -3300.910833502816
FINAL SINGLE POINT ENERGY     -3300.910905263804
FINAL SINGLE POINT ENERGY     -3300.910923424347
FINAL SINGLE POINT ENERGY     -3300.910947160585
FINAL SINGLE POINT ENERGY     -3300.910972881782
FINAL SINGLE POINT ENERGY     -3300.910980721969
FINAL SINGLE POINT ENERGY     -3300.910987890798
FINAL SINGLE POINT ENERGY     -3300.910993838611
                    ***********************HURRAY********************

CARTESIAN COORDINATES (ANGSTROEM)
---------------------------------
  Au     3.337331    7.443009    9.397561
  Au     7.986957    6.013561    9.623288
  Au     4.608343    9.698901    8.276136
  Au     7.148407   10.447296    8.935462
  Au     9.963123   10.121623    9.249142
  Au     5.919231    8.044801   10.135028
  Au    10.485617    7.405538    9.662126
  Au     8.373249    8.640487   11.011791
  Au     7.076889    6.228372    6.779335
  Au     6.535198    9.085250    6.326238
  Au     4.531651    7.271102    6.823789
  Au     8.953960    7.905381    5.503150
  Au     8.955448   10.436666    6.723718
  Au     5.384577    5.566276    8.915743
  Au     9.793104    6.010971    7.410534
  Fe     8.364873    8.207798    8.170349

 Multiplicity           Mult            ....    4
 Number of Electrons    NEL             ....  311
 Basis Dimension        Dim             ....  645

ORBITAL ENERGIES
----------------
                 SPIN UP ORBITALS
  NO   OCC          E(Eh)            E(eV)
   0   1.0000    -254.753680     -6932.2001
   1   1.0000     -29.589267      -805.1649
   2   1.0000     -25.530666      -694.7247
   3   1.0000     -25.528913      -694.6770
   4   1.0000     -25.514850      -694.2944
   5   1.0000      -4.037476      -109.8653
   6   1.0000      -4.037232      -109.8587
   7   1.0000      -4.036616      -109.8419
   8   1.0000      -4.035903      -109.8225
   9   1.0000      -4.029179      -109.6395
  10   1.0000      -4.029022      -109.6353
  11   1.0000      -4.028086      -109.6098
  12   1.0000      -4.027944      -109.6059
  13   1.0000      -4.025935      -109.5512
  14   1.0000      -4.025480      -109.5389
  15   1.0000      -4.024271      -109.5060
  16   1.0000      -4.021132      -109.4206
  17   1.0000      -4.021024      -109.4176
  18   1.0000      -4.019095      -109.3651
  19   1.0000      -4.015411      -109.2649
  20   1.0000      -3.367639       -91.6381
  21   1.0000      -2.253913       -61.3321
  22   1.0000      -2.253562       -61.3225
  23   1.0000      -2.252598       -61.2963
  24   1.0000      -2.252017       -61.2805
  25   1.0000      -2.250345       -61.2350
  26   1.0000      -2.250070       -61.2275
  27   1.0000      -2.249680       -61.2169
  28   1.0000      -2.248730       -61.1911
  29   1.0000      -2.248089       -61.1736
  30   1.0000      -2.247407       -61.1551
  31   1.0000      -2.246236       -61.1232
  32   1.0000      -2.245605       -61.1060
  33   1.0000      -2.245293       -61.0975
  34   1.0000      -2.244853       -61.0855
  35   1.0000      -2.244621       -61.0792
  36   1.0000      -2.244371       -61.0724
  37   1.0000      -2.242872       -61.0316
  38   1.0000      -2.242728       -61.0277
  39   1.0000      -2.242473       -61.0208
  40   1.0000      -2.240969       -60.9799
  41   1.0000      -2.240298       -60.9616
  42   1.0000      -2.240248       -60.9603
  43   1.0000      -2.239346       -60.9357
  44   1.0000      -2.239137       -60.9300
  45   1.0000      -2.238954       -60.9250
  46   1.0000      -2.238722       -60.9187
  47   1.0000      -2.238314       -60.9076
  48   1.0000      -2.237958       -60.8979
  49   1.0000      -2.237661       -60.8899
  50   1.0000      -2.236935       -60.8701
  51   1.0000      -2.236811       -60.8667
  52   1.0000      -2.236320       -60.8534
  53   1.0000      -2.235539       -60.8321
  54   1.0000      -2.234528       -60.8046
  55   1.0000      -2.234304       -60.7985
  56   1.0000      -2.233964       -60.7893
  57   1.0000      -2.233844       -60.7860
  58   1.0000      -2.233357       -60.7727
  59   1.0000      -2.232864       -60.7593
  60   1.0000      -2.231627       -60.7257
  61   1.0000      -2.231317       -60.7172
  62   1.0000      -2.229209       -60.6599
  63   1.0000      -2.228301       -60.6351
  64   1.0000      -2.227691       -60.6186
  65   1.0000      -2.226828       -60.5951
  66   1.0000      -2.193574       -59.6902
  67   1.0000      -2.190167       -59.5975
  68   1.0000      -2.160739       -58.7967
  69   1.0000      -0.436881       -11.8881
  70   1.0000      -0.394174       -10.7260
  71   1.0000      -0.392052       -10.6683
  72   1.0000      -0.390585       -10.6283
  73   1.0000      -0.382611       -10.4114
  74   1.0000      -0.381218       -10.3735
  75   1.0000      -0.371435       -10.1073
  76   1.0000      -0.366324        -9.9682
  77   1.0000      -0.365542        -9.9469
  78   1.0000      -0.362628        -9.8676
  79   1.0000      -0.360266        -9.8033
  80   1.0000      -0.359898        -9.7933
  81   1.0000      -0.355874        -9.6838
  82   1.0000      -0.355558        -9.6752
  83   1.0000      -0.353719        -9.6252
  84   1.0000      -0.350960        -9.5501
  85   1.0000      -0.347857        -9.4657
  86   1.0000      -0.347744        -9.4626
  87   1.0000      -0.344648        -9.3783
  88   1.0000      -0.339341        -9.2339
  89   1.0000      -0.338060        -9.1991
  90   1.0000      -0.336871        -9.1667
  91   1.0000      -0.335318        -9.1245
  92   1.0000      -0.333590        -9.0774
  93   1.0000      -0.330900        -9.0042
  94   1.0000      -0.329928        -8.9778
  95   1.0000      -0.327277        -8.9057
  96   1.0000      -0.326555        -8.8860
  97   1.0000      -0.325991        -8.8707
  98   1.0000      -0.322097        -8.7647
  99   1.0000      -0.321320        -8.7436
 100   1.0000      -0.320410        -8.7188
 101   1.0000      -0.318196        -8.6586
 102   1.0000      -0.313394        -8.5279
 103   1.0000      -0.312504        -8.5037
 104   1.0000      -0.310917        -8.4605
 105   1.0000      -0.307225        -8.3600
 106   1.0000      -0.303630        -8.2622
 107   1.0000      -0.300191        -8.1686
 108   1.0000      -0.298880        -8.1329
 109   1.0000      -0.295604        -8.0438
 110   1.0000      -0.292009        -7.9460
 111   1.0000      -0.291324        -7.9273
 112   1.0000      -0.289128        -7.8676
 113   1.0000      -0.285493        -7.7687
 114   1.0000      -0.283977        -7.7274
 115   1.0000      -0.281973        -7.6729
 116   1.0000      -0.281549        -7.6613
 117   1.0000      -0.277502        -7.5512
 118   1.0000      -0.277010        -7.5378
 119   1.0000      -0.275598        -7.4994
 120   1.0000      -0.274882        -7.4799
 121   1.0000      -0.273944        -7.4544
 122   1.0000      -0.271981        -7.4010
 123   1.0000      -0.271487        -7.3875
 124   1.0000      -0.270895        -7.3714
 125   1.0000      -0.269884        -7.3439
 126   1.0000      -0.268076        -7.2947
 127   1.0000      -0.267551        -7.2804
 128   1.0000      -0.266329        -7.2472
 129   1.0000      -0.264102        -7.1866
 130   1.0000      -0.263777        -7.1777
 131   1.0000      -0.263391        -7.1672
 132   1.0000      -0.261980        -7.1288
 133   1.0000      -0.260390        -7.0856
 134   1.0000      -0.255383        -6.9493
 135   1.0000      -0.254986        -6.9385
 136   1.0000      -0.254616        -6.9285
 137   1.0000      -0.252930        -6.8826
 138   1.0000      -0.252274        -6.8647
 139   1.0000      -0.250744        -6.8231
 140   1.0000      -0.249865        -6.7992
 141   1.0000      -0.249186        -6.7807
 142   1.0000      -0.249055        -6.7771
 143   1.0000      -0.248543        -6.7632
 144   1.0000      -0.247330        -6.7302
 145   1.0000      -0.245068        -6.6687
 146   1.0000      -0.244020        -6.6401
 147   1.0000      -0.242549        -6.6001
 148   1.0000      -0.241766        -6.5788
 149   1.0000      -0.238863        -6.4998
 150   1.0000      -0.238642        -6.4938
 151   1.0000      -0.236952        -6.4478
 152   1.0000      -0.232445        -6.3252
 153   1.0000      -0.215751        -5.8709
 154   1.0000      -0.212762        -5.7895
 155   1.0000      -0.205751        -5.5988
 156   1.0000      -0.194882        -5.3030
 157   0.0000      -0.188724        -5.1354
 158   0.0000      -0.140602        -3.8260
 159   0.0000      -0.139878        -3.8063
 160   0.0000      -0.138922        -3.7803
 161   0.0000      -0.133083        -3.6214

                 SPIN DOWN ORBITALS
  NO   OCC          E(Eh)            E(eV)
   0   1.0000    -254.753023     -6932.1822
   1   1.0000     -29.532335      -803.6157
   2   1.0000     -25.485220      -693.4881
   3   1.0000     -25.484572      -693.4705
   4   1.0000     -25.475691      -693.2288
   5   1.0000      -4.037085      -109.8547
   6   1.0000      -4.036834      -109.8478
   7   1.0000      -4.036011      -109.8254
   8   1.0000      -4.035248      -109.8047
   9   1.0000      -4.028899      -109.6319
  10   1.0000      -4.028728      -109.6273
  11   1.0000      -4.027756      -109.6008
  12   1.0000      -4.027614      -109.5969
  13   1.0000      -4.026047      -109.5543
  14   1.0000      -4.025427      -109.5374
  15   1.0000      -4.023895      -109.4957
  16   1.0000      -4.021300      -109.4251
  17   1.0000      -4.021158      -109.4213
  18   1.0000      -4.018992      -109.3623
  19   1.0000      -4.015377      -109.2639
  20   1.0000      -3.238425       -88.1220
  21   1.0000      -2.253477       -61.3202
  22   1.0000      -2.253132       -61.3108
  23   1.0000      -2.251753       -61.2733
  24   1.0000      -2.251124       -61.2562
  25   1.0000      -2.249538       -61.2130
  26   1.0000      -2.249410       -61.2096
  27   1.0000      -2.248739       -61.1913
  28   1.0000      -2.247869       -61.1676
  29   1.0000      -2.247640       -61.1614
  30   1.0000      -2.247206       -61.1496
  31   1.0000      -2.246111       -61.1198
  32   1.0000      -2.245501       -61.1032
  33   1.0000      -2.245102       -61.0923
  34   1.0000      -2.244300       -61.0705
  35   1.0000      -2.244121       -61.0656
  36   1.0000      -2.244045       -61.0636
  37   1.0000      -2.242271       -61.0153
  38   1.0000      -2.242235       -61.0143
  39   1.0000      -2.242121       -61.0112
  40   1.0000      -2.240926       -60.9787
  41   1.0000      -2.240226       -60.9596
  42   1.0000      -2.240008       -60.9537
  43   1.0000      -2.239164       -60.9307
  44   1.0000      -2.238846       -60.9221
  45   1.0000      -2.238794       -60.9207
  46   1.0000      -2.238493       -60.9125
  47   1.0000      -2.238051       -60.9005
  48   1.0000      -2.237787       -60.8933
  49   1.0000      -2.237214       -60.8777
  50   1.0000      -2.237071       -60.8738
  51   1.0000      -2.236943       -60.8703
  52   1.0000      -2.236171       -60.8493
  53   1.0000      -2.235849       -60.8405
  54   1.0000      -2.234585       -60.8062
  55   1.0000      -2.234251       -60.7971
  56   1.0000      -2.234134       -60.7939
  57   1.0000      -2.233500       -60.7766
  58   1.0000      -2.233026       -60.7637
  59   1.0000      -2.232962       -60.7620
  60   1.0000      -2.231740       -60.7287
  61   1.0000      -2.231377       -60.7189
  62   1.0000      -2.229158       -60.6585
  63   1.0000      -2.228232       -60.6333
  64   1.0000      -2.227777       -60.6209
  65   1.0000      -2.226688       -60.5913
  66   1.0000      -2.060236       -56.0619
  67   1.0000      -2.059957       -56.0543
  68   1.0000      -2.044825       -55.6425
  69   1.0000      -0.433083       -11.7848
  70   1.0000      -0.392698       -10.6859
  71   1.0000      -0.391738       -10.6597
  72   1.0000      -0.390440       -10.6244
  73   1.0000      -0.376709       -10.2508
  74   1.0000      -0.373895       -10.1742
  75   1.0000      -0.368344       -10.0231
  76   1.0000      -0.365593        -9.9483
  77   1.0000      -0.363157        -9.8820
  78   1.0000      -0.361960        -9.8494
  79   1.0000      -0.358062        -9.7434
  80   1.0000      -0.355935        -9.6855
  81   1.0000      -0.354295        -9.6409
  82   1.0000      -0.353139        -9.6094
  83   1.0000      -0.352825        -9.6008
  84   1.0000      -0.350660        -9.5420
  85   1.0000      -0.347120        -9.4456
  86   1.0000      -0.346472        -9.4280
  87   1.0000      -0.342263        -9.3135
  88   1.0000      -0.337472        -9.1831
  89   1.0000      -0.336902        -9.1676
  90   1.0000      -0.335846        -9.1388
  91   1.0000      -0.334410        -9.0998
  92   1.0000      -0.331965        -9.0332
  93   1.0000      -0.330721        -8.9994
  94   1.0000      -0.329605        -8.9690
  95   1.0000      -0.326554        -8.8860
  96   1.0000      -0.326102        -8.8737
  97   1.0000      -0.325643        -8.8612
  98   1.0000      -0.321183        -8.7398
  99   1.0000      -0.318598        -8.6695
 100   1.0000      -0.314404        -8.5554
 101   1.0000      -0.313998        -8.5443
 102   1.0000      -0.311285        -8.4705
 103   1.0000      -0.307924        -8.3791
 104   1.0000      -0.306241        -8.3333
 105   1.0000      -0.301041        -8.1917
 106   1.0000      -0.298942        -8.1346
 107   1.0000      -0.296176        -8.0594
 108   1.0000      -0.295353        -8.0370
 109   1.0000      -0.293557        -7.9881
 110   1.0000      -0.291367        -7.9285
 111   1.0000      -0.291030        -7.9193
 112   1.0000      -0.287196        -7.8150
 113   1.0000      -0.284194        -7.7333
 114   1.0000      -0.282874        -7.6974
 115   1.0000      -0.281475        -7.6593
 116   1.0000      -0.278985        -7.5916
 117   1.0000      -0.276478        -7.5233
 118   1.0000      -0.275050        -7.4845
 119   1.0000      -0.274270        -7.4633
 120   1.0000      -0.274039        -7.4570
 121   1.0000      -0.272313        -7.4100
 122   1.0000      -0.271451        -7.3866
 123   1.0000      -0.271265        -7.3815
 124   1.0000      -0.268975        -7.3192
 125   1.0000      -0.267849        -7.2885
 126   1.0000      -0.267619        -7.2823
 127   1.0000      -0.267542        -7.2802
 128   1.0000      -0.265810        -7.2331
 129   1.0000      -0.263425        -7.1682
 130   1.0000      -0.263226        -7.1627
 131   1.0000      -0.262004        -7.1295
 132   1.0000      -0.261667        -7.1203
 133   1.0000      -0.259592        -7.0638
 134   1.0000      -0.254866        -6.9353
 135   1.0000      -0.253942        -6.9101
 136   1.0000      -0.251954        -6.8560
 137   1.0000      -0.249491        -6.7890
 138   1.0000      -0.249227        -6.7818
 139   1.0000      -0.248864        -6.7719
 140   1.0000      -0.248427        -6.7600
 141   1.0000      -0.248130        -6.7519
 142   1.0000      -0.246573        -6.7096
 143   1.0000      -0.243155        -6.6166
 144   1.0000      -0.241223        -6.5640
 145   1.0000      -0.239625        -6.5205
 146   1.0000      -0.238648        -6.4939
 147   1.0000      -0.232934        -6.3385
 148   1.0000      -0.217928        -5.9301
 149   1.0000      -0.217004        -5.9050
 150   1.0000      -0.210353        -5.7240
 151   1.0000      -0.206231        -5.6118
 152   1.0000      -0.204000        -5.5511
 153   1.0000      -0.182213        -4.9583
 154   0.0000      -0.160572        -4.3694
 155   0.0000      -0.160475        -4.3667
 156   0.0000      -0.155679        -4.2362
 157   0.0000      -0.153000        -4.1633
 158   0.0000      -0.136155        -3.7050

MULLIKEN ATOMIC CHARGES AND SPIN POPULATIONS
--------------------------------------------
   0 Au:    0.426068   -0.015512
   1 Au:    0.057834   -0.022628
   2 Au:    0.278662    0.037293
   3 Au:    0.051613   -0.009609
   4 Au:    0.366644   -0.018481
   5 Au:   -0.742513    0.016802
   6 Au:    0.367195   -0.019532
   7 Au:    0.334065    0.048389
   8 Au:   -0.198452   -0.062526
   9 Au:   -0.194603   -0.061020
  10 Au:    0.242660    0.059503
  11 Au:    0.315124    0.060444
  12 Au:    0.357051   -0.017667
  13 Au:    0.282039    0.039245
  14 Au:    0.351597   -0.011753
  15 Fe:   -2.294984    2.977052
Sum of atomic charges         :   -0.0000000

LOEWDIN ATOMIC CHARGES AND SPIN POPULATIONS
-------------------------------------------
   0 Au:    0.072121    0.003502
   1 Au:    0.036606   -0.002730
   2 Au:    0.015087    0.015023
   3 Au:    0.035824    0.001742
   4 Au:    0.082971   -0.017324
   5 Au:   -0.097392   -0.001789
   6 Au:    0.082843   -0.017465
   7 Au:    0.064949   -0.000274
   8 Au:   -0.010534   -0.012875
   9 Au:   -0.010094   -0.012164
  10 Au:   -0.006702    0.034191
  11 Au:    0.095417   -0.012908
  12 Au:    0.098300   -0.028201
  13 Au:    0.015077    0.017175
  14 Au:    0.098684   -0.029166
  15 Fe:   -0.573158    3.063263

  Mayer bond orders larger than 0.100000
B(  0-Au,  2-Au) :   0.2230 B(  0-Au,  5-Au) :   0.4802 B(  0-Au, 10-Au) :   0.1935
B(  0-Au, 13-Au) :   0.2250 B(  1-Au,  5-Au) :   0.2113 B(  1-Au,  6-Au) :   0.2070
B(  1-Au,  8-Au) :   0.1822 B(  1-Au, 13-Au) :   0.4092 B(  1-Au, 14-Au) :   0.1799
B(  1-Au, 15-Fe) :   0.5032 B(  2-Au,  3-Au) :   0.4166 B(  2-Au,  5-Au) :   0.2771
B(  2-Au,  9-Au) :   0.2580 B(  2-Au, 10-Au) :   0.2000 B(  3-Au,  4-Au) :   0.2147
B(  3-Au,  5-Au) :   0.2045 B(  3-Au,  9-Au) :   0.1729 B(  3-Au, 12-Au) :   0.1790
B(  3-Au, 15-Fe) :   0.5062 B(  4-Au,  6-Au) :   0.2119 B(  4-Au,  7-Au) :   0.1949
B(  4-Au, 12-Au) :   0.2304 B(  4-Au, 15-Fe) :   0.4576 B(  5-Au,  7-Au) :   0.4843
B(  5-Au, 10-Au) :   0.1353 B(  5-Au, 13-Au) :   0.2776 B(  5-Au, 15-Fe) :   0.3003
B(  6-Au,  7-Au) :   0.1994 B(  6-Au, 14-Au) :   0.2289 B(  6-Au, 15-Fe) :   0.4596
B(  7-Au, 15-Fe) :   0.3843 B(  8-Au,  9-Au) :   0.2459 B(  8-Au, 10-Au) :   0.3296
B(  8-Au, 11-Au) :   0.2163 B(  8-Au, 13-Au) :   0.2625 B(  8-Au, 14-Au) :   0.2394
B(  8-Au, 15-Fe) :   0.4882 B(  9-Au, 10-Au) :   0.3308 B(  9-Au, 11-Au) :   0.2264
B(  9-Au, 12-Au) :   0.2349 B(  9-Au, 15-Fe) :   0.4884 B( 10-Au, 13-Au) :   0.1996
B( 11-Au, 12-Au) :   0.1486 B( 11-Au, 14-Au) :   0.1435 B( 11-Au, 15-Fe) :   0.4681
B( 12-Au, 15-Fe) :   0.4446 B( 14-Au, 15-Fe) :   0.4435

FINAL SINGLE POINT ENERGY     -3300.910997940967

DIPOLE MOMENT
-------------
                                X             Y             Z
Electronic contribution:    -41.52319      -7.09386       5.53657
Nuclear contribution   :     41.84846       7.13039      -5.65237
                        -----------------------------------------
Total Dipole Moment    :      0.32527       0.03653      -0.11580
                        -----------------------------------------
Magnitude (a.u.)       :      0.34719
Magnitude (Debye)      :      0.88249

Rotational constants in cm-1:     0.001145     0.000812     0.000801
Rotational constants in MHz :    34.337956    24.339968    24.011191

                             ****ORCA TERMINATED NORMALLY****
TOTAL RUN TIME: 0 days 4 hours 37 minutes 18 seconds 857 msec
