                         Program Version 5.0.3 -  RELEASE  -
|  1> !RI-B2PLYP def2-TZVP def2-TZVP/C
|  2> !RIJCOSX VERYSLOWCONV
|  3>
|  4> %scf
|  5>   AutoTRAHIter 200
|  6>   maxiter 400
|  7> end
|  8>
|  9>
| 10> %pal nprocs 6 end
| 11>
| 12> *xyzfile 0 5 pbe.xyz
| 13>
| 14> $new_job
| 15>
| 16> !RI-B2PLYP def2-TZVP def2-TZVP/C
| 17> !RIJCOSX VERYSLOWCONV
| 18>
| 19> %scf
| 20>   AutoTRAHIter 200
| 21>   maxiter 400
| 22> end
| 23>
| 24>
| 25> %pal nprocs 6 end
| 26>
| 27> *xyzfile 0 3 pbe.xyz
| 28>
| 29>
| 30>
| 31>
| 32>
| 33>                          ****END OF INPUT****
 Total Charge           Charge          ....    0
 Multiplicity           Mult            ....    5
 Number of Electrons    NEL             ....  328
MP2 TOTAL ENERGY:    -3213.706992261 Eh
FINAL SINGLE POINT ENERGY     -3213.706992260943

CARTESIAN COORDINATES (ANGSTROEM)
---------------------------------
  Au     6.925415    8.934746    5.364537
  Au     5.478501    5.924576    9.673877
  Au    10.285475    8.158185    8.622450
  Au     8.094350    6.831043    9.538817
  Au     7.159739    4.876774    7.693805
  Au    11.920646    9.858590    7.228404
  Au     9.423143    9.565001    6.168159
  Au     8.837301    6.889217    6.643338
  Au     6.647107    6.005127    5.175555
  Au     4.433018    7.645100    5.327008
  Au     7.246177   10.437674    7.824940
  Au     4.709251    9.690320    7.209291
  Au     3.631181    7.198855    8.034229
  Au     9.810703   11.090343    8.570577
  Au     8.320683    9.507586   10.236034
  Au     5.678852    8.765541    9.719818
  Cr     6.243347    7.405690    7.476231

 Multiplicity           Mult            ....    3
 Number of Electrons    NEL             ....  328
 Basis Dimension        Dim             ....  685

ORBITAL ENERGIES
----------------
                 SPIN UP ORBITALS
  NO   OCC          E(Eh)            E(eV)
   0   1.0000    -217.751760     -5925.3266
   1   1.0000     -25.436695      -692.1677
   2   1.0000     -21.576037      -587.1138
   3   1.0000     -21.575658      -587.1035
   4   1.0000     -21.570879      -586.9734
   5   1.0000      -4.406526      -119.9077
   6   1.0000      -4.403251      -119.8185
   7   1.0000      -4.400293      -119.7381
   8   1.0000      -4.399915      -119.7278
   9   1.0000      -4.399197      -119.7082
  10   1.0000      -4.397615      -119.6652
  11   1.0000      -4.396849      -119.6443
  12   1.0000      -4.396668      -119.6394
  13   1.0000      -4.396418      -119.6326
  14   1.0000      -4.394413      -119.5781
  15   1.0000      -4.393363      -119.5495
  16   1.0000      -4.393117      -119.5428
  17   1.0000      -4.389763      -119.4515
  18   1.0000      -4.388563      -119.4189
  19   1.0000      -4.384645      -119.3123
  20   1.0000      -4.384310      -119.3031
  21   1.0000      -3.226756       -87.8045
  22   1.0000      -2.526895       -68.7603
  23   1.0000      -2.524988       -68.7084
  24   1.0000      -2.523784       -68.6757
  25   1.0000      -2.522703       -68.6462
  26   1.0000      -2.521793       -68.6215
  27   1.0000      -2.521171       -68.6045
  28   1.0000      -2.520852       -68.5959
  29   1.0000      -2.520252       -68.5795
  30   1.0000      -2.518788       -68.5397
  31   1.0000      -2.518102       -68.5211
  32   1.0000      -2.517657       -68.5089
  33   1.0000      -2.517220       -68.4970
  34   1.0000      -2.516936       -68.4893
  35   1.0000      -2.516719       -68.4834
  36   1.0000      -2.516142       -68.4677
  37   1.0000      -2.516011       -68.4641
  38   1.0000      -2.515467       -68.4493
  39   1.0000      -2.515324       -68.4454
  40   1.0000      -2.515040       -68.4377
  41   1.0000      -2.514800       -68.4312
  42   1.0000      -2.514487       -68.4227
  43   1.0000      -2.514246       -68.4161
  44   1.0000      -2.513930       -68.4075
  45   1.0000      -2.513461       -68.3948
  46   1.0000      -2.512817       -68.3772
  47   1.0000      -2.512093       -68.3575
  48   1.0000      -2.511789       -68.3493
  49   1.0000      -2.511437       -68.3397
  50   1.0000      -2.511061       -68.3294
  51   1.0000      -2.510503       -68.3143
  52   1.0000      -2.510200       -68.3060
  53   1.0000      -2.509803       -68.2952
  54   1.0000      -2.509550       -68.2883
  55   1.0000      -2.509176       -68.2781
  56   1.0000      -2.508538       -68.2608
  57   1.0000      -2.507929       -68.2442
  58   1.0000      -2.507718       -68.2385
  59   1.0000      -2.507652       -68.2367
  60   1.0000      -2.506428       -68.2034
  61   1.0000      -2.505197       -68.1699
  62   1.0000      -2.504718       -68.1569
  63   1.0000      -2.504268       -68.1446
  64   1.0000      -2.503343       -68.1194
  65   1.0000      -2.502020       -68.0834
  66   1.0000      -2.501292       -68.0636
  67   1.0000      -2.500410       -68.0396
  68   1.0000      -2.500331       -68.0375
  69   1.0000      -2.498635       -67.9913
  70   1.0000      -2.118577       -57.6494
  71   1.0000      -2.109880       -57.4127
  72   1.0000      -2.109209       -57.3945
  73   1.0000      -0.502404       -13.6711
  74   1.0000      -0.485040       -13.1986
  75   1.0000      -0.476314       -12.9612
  76   1.0000      -0.475064       -12.9271
  77   1.0000      -0.471391       -12.8272
  78   1.0000      -0.469119       -12.7654
  79   1.0000      -0.466406       -12.6916
  80   1.0000      -0.465630       -12.6704
  81   1.0000      -0.461891       -12.5687
  82   1.0000      -0.460202       -12.5227
  83   1.0000      -0.457906       -12.4603
  84   1.0000      -0.456828       -12.4309
  85   1.0000      -0.453541       -12.3415
  86   1.0000      -0.452647       -12.3172
  87   1.0000      -0.451928       -12.2976
  88   1.0000      -0.450847       -12.2682
  89   1.0000      -0.448513       -12.2047
  90   1.0000      -0.446532       -12.1507
  91   1.0000      -0.445440       -12.1210
  92   1.0000      -0.444532       -12.0963
  93   1.0000      -0.439057       -11.9474
  94   1.0000      -0.435839       -11.8598
  95   1.0000      -0.434605       -11.8262
  96   1.0000      -0.433239       -11.7890
  97   1.0000      -0.431158       -11.7324
  98   1.0000      -0.429549       -11.6886
  99   1.0000      -0.428458       -11.6589
 100   1.0000      -0.425746       -11.5851
 101   1.0000      -0.422795       -11.5048
 102   1.0000      -0.421471       -11.4688
 103   1.0000      -0.419834       -11.4243
 104   1.0000      -0.418624       -11.3913
 105   1.0000      -0.415980       -11.3194
 106   1.0000      -0.414020       -11.2661
 107   1.0000      -0.412585       -11.2270
 108   1.0000      -0.410739       -11.1768
 109   1.0000      -0.408675       -11.1206
 110   1.0000      -0.405516       -11.0347
 111   1.0000      -0.400240       -10.8911
 112   1.0000      -0.398628       -10.8472
 113   1.0000      -0.392634       -10.6841
 114   1.0000      -0.390331       -10.6214
 115   1.0000      -0.388710       -10.5773
 116   1.0000      -0.387073       -10.5328
 117   1.0000      -0.384883       -10.4732
 118   1.0000      -0.382264       -10.4019
 119   1.0000      -0.380766       -10.3612
 120   1.0000      -0.378981       -10.3126
 121   1.0000      -0.377275       -10.2662
 122   1.0000      -0.374451       -10.1893
 123   1.0000      -0.372265       -10.1298
 124   1.0000      -0.370847       -10.0913
 125   1.0000      -0.368289       -10.0216
 126   1.0000      -0.367507       -10.0004
 127   1.0000      -0.366155        -9.9636
 128   1.0000      -0.365169        -9.9367
 129   1.0000      -0.364895        -9.9293
 130   1.0000      -0.364415        -9.9162
 131   1.0000      -0.362395        -9.8613
 132   1.0000      -0.361225        -9.8294
 133   1.0000      -0.360437        -9.8080
 134   1.0000      -0.359259        -9.7759
 135   1.0000      -0.357836        -9.7372
 136   1.0000      -0.357287        -9.7223
 137   1.0000      -0.356279        -9.6949
 138   1.0000      -0.355358        -9.6698
 139   1.0000      -0.354300        -9.6410
 140   1.0000      -0.352757        -9.5990
 141   1.0000      -0.351233        -9.5575
 142   1.0000      -0.350180        -9.5289
 143   1.0000      -0.345133        -9.3916
 144   1.0000      -0.343225        -9.3396
 145   1.0000      -0.342487        -9.3195
 146   1.0000      -0.339181        -9.2296
 147   1.0000      -0.337285        -9.1780
 148   1.0000      -0.336792        -9.1646
 149   1.0000      -0.335527        -9.1302
 150   1.0000      -0.334244        -9.0952
 151   1.0000      -0.331533        -9.0215
 152   1.0000      -0.330903        -9.0043
 153   1.0000      -0.328860        -8.9487
 154   1.0000      -0.325623        -8.8606
 155   1.0000      -0.324424        -8.8280
 156   1.0000      -0.320932        -8.7330
 157   1.0000      -0.316324        -8.6076
 158   1.0000      -0.308071        -8.3830
 159   1.0000      -0.306376        -8.3369
 160   1.0000      -0.303366        -8.2550
 161   1.0000      -0.260757        -7.0956
 162   1.0000      -0.238102        -6.4791
 163   1.0000      -0.231295        -6.2939
 164   1.0000      -0.223287        -6.0759
 165   0.0000      -0.126925        -3.4538
 166   0.0000      -0.111335        -3.0296
 167   0.0000      -0.081479        -2.2172
 168   0.0000      -0.074596        -2.0298
 169   0.0000      -0.067529        -1.8376

                 SPIN DOWN ORBITALS
  NO   OCC          E(Eh)            E(eV)
   0   1.0000    -217.750472     -5925.2916
   1   1.0000     -25.366178      -690.2488
   2   1.0000     -21.515709      -585.4722
   3   1.0000     -21.514899      -585.4502
   4   1.0000     -21.496637      -584.9532
   5   1.0000      -4.406690      -119.9121
   6   1.0000      -4.403697      -119.8307
   7   1.0000      -4.400921      -119.7552
   8   1.0000      -4.399327      -119.7118
   9   1.0000      -4.398621      -119.6926
  10   1.0000      -4.397753      -119.6689
  11   1.0000      -4.396816      -119.6434
  12   1.0000      -4.396672      -119.6395
  13   1.0000      -4.396224      -119.6273
  14   1.0000      -4.394617      -119.5836
  15   1.0000      -4.394054      -119.5683
  16   1.0000      -4.393656      -119.5575
  17   1.0000      -4.390894      -119.4823
  18   1.0000      -4.389553      -119.4458
  19   1.0000      -4.385743      -119.3421
  20   1.0000      -4.385008      -119.3221
  21   1.0000      -3.009662       -81.8971
  22   1.0000      -2.526794       -68.7576
  23   1.0000      -2.524313       -68.6900
  24   1.0000      -2.523155       -68.6585
  25   1.0000      -2.522431       -68.6388
  26   1.0000      -2.521091       -68.6024
  27   1.0000      -2.520892       -68.5970
  28   1.0000      -2.520232       -68.5790
  29   1.0000      -2.519913       -68.5703
  30   1.0000      -2.518685       -68.5369
  31   1.0000      -2.517595       -68.5073
  32   1.0000      -2.517334       -68.5002
  33   1.0000      -2.516668       -68.4820
  34   1.0000      -2.516356       -68.4735
  35   1.0000      -2.515865       -68.4602
  36   1.0000      -2.515500       -68.4502
  37   1.0000      -2.515424       -68.4482
  38   1.0000      -2.515151       -68.4407
  39   1.0000      -2.514993       -68.4364
  40   1.0000      -2.514699       -68.4284
  41   1.0000      -2.514608       -68.4260
  42   1.0000      -2.514249       -68.4162
  43   1.0000      -2.513999       -68.4094
  44   1.0000      -2.513906       -68.4069
  45   1.0000      -2.512906       -68.3796
  46   1.0000      -2.512510       -68.3689
  47   1.0000      -2.511885       -68.3519
  48   1.0000      -2.511811       -68.3498
  49   1.0000      -2.511478       -68.3408
  50   1.0000      -2.511092       -68.3303
  51   1.0000      -2.510767       -68.3215
  52   1.0000      -2.509945       -68.2991
  53   1.0000      -2.509879       -68.2973
  54   1.0000      -2.509542       -68.2881
  55   1.0000      -2.509191       -68.2786
  56   1.0000      -2.509169       -68.2779
  57   1.0000      -2.508737       -68.2662
  58   1.0000      -2.508060       -68.2478
  59   1.0000      -2.507558       -68.2341
  60   1.0000      -2.507514       -68.2329
  61   1.0000      -2.506124       -68.1951
  62   1.0000      -2.505634       -68.1818
  63   1.0000      -2.505253       -68.1714
  64   1.0000      -2.503924       -68.1352
  65   1.0000      -2.502826       -68.1054
  66   1.0000      -2.501695       -68.0746
  67   1.0000      -2.501084       -68.0579
  68   1.0000      -2.500426       -68.0401
  69   1.0000      -2.499428       -68.0129
  70   1.0000      -1.877948       -51.1016
  71   1.0000      -1.876525       -51.0628
  72   1.0000      -1.833952       -49.9044
  73   1.0000      -0.497188       -13.5292
  74   1.0000      -0.478811       -13.0291
  75   1.0000      -0.474408       -12.9093
  76   1.0000      -0.472710       -12.8631
  77   1.0000      -0.470162       -12.7938
  78   1.0000      -0.464081       -12.6283
  79   1.0000      -0.462642       -12.5891
  80   1.0000      -0.461637       -12.5618
  81   1.0000      -0.460847       -12.5403
  82   1.0000      -0.458548       -12.4777
  83   1.0000      -0.457750       -12.4560
  84   1.0000      -0.454701       -12.3730
  85   1.0000      -0.453117       -12.3300
  86   1.0000      -0.452457       -12.3120
  87   1.0000      -0.451932       -12.2977
  88   1.0000      -0.449138       -12.2217
  89   1.0000      -0.448508       -12.2045
  90   1.0000      -0.447514       -12.1775
  91   1.0000      -0.445198       -12.1145
  92   1.0000      -0.444488       -12.0951
  93   1.0000      -0.438719       -11.9382
  94   1.0000      -0.435990       -11.8639
  95   1.0000      -0.434897       -11.8342
  96   1.0000      -0.432319       -11.7640
  97   1.0000      -0.431869       -11.7518
  98   1.0000      -0.429262       -11.6808
  99   1.0000      -0.427123       -11.6226
 100   1.0000      -0.426450       -11.6043
 101   1.0000      -0.423218       -11.5163
 102   1.0000      -0.422014       -11.4836
 103   1.0000      -0.418723       -11.3940
 104   1.0000      -0.418064       -11.3761
 105   1.0000      -0.416241       -11.3265
 106   1.0000      -0.414126       -11.2689
 107   1.0000      -0.413302       -11.2465
 108   1.0000      -0.405053       -11.0221
 109   1.0000      -0.401733       -10.9317
 110   1.0000      -0.399427       -10.8690
 111   1.0000      -0.398007       -10.8303
 112   1.0000      -0.392642       -10.6843
 113   1.0000      -0.390765       -10.6333
 114   1.0000      -0.388895       -10.5824
 115   1.0000      -0.387382       -10.5412
 116   1.0000      -0.386231       -10.5099
 117   1.0000      -0.385156       -10.4806
 118   1.0000      -0.382559       -10.4100
 119   1.0000      -0.378752       -10.3064
 120   1.0000      -0.377429       -10.2704
 121   1.0000      -0.376741       -10.2516
 122   1.0000      -0.374928       -10.2023
 123   1.0000      -0.371750       -10.1158
 124   1.0000      -0.370033       -10.0691
 125   1.0000      -0.368494       -10.0272
 126   1.0000      -0.367514       -10.0006
 127   1.0000      -0.366313        -9.9679
 128   1.0000      -0.365932        -9.9575
 129   1.0000      -0.365361        -9.9420
 130   1.0000      -0.364168        -9.9095
 131   1.0000      -0.363169        -9.8823
 132   1.0000      -0.362101        -9.8533
 133   1.0000      -0.360815        -9.8183
 134   1.0000      -0.360673        -9.8144
 135   1.0000      -0.358701        -9.7608
 136   1.0000      -0.357373        -9.7246
 137   1.0000      -0.357104        -9.7173
 138   1.0000      -0.355079        -9.6622
 139   1.0000      -0.354211        -9.6386
 140   1.0000      -0.353791        -9.6272
 141   1.0000      -0.352451        -9.5907
 142   1.0000      -0.348676        -9.4879
 143   1.0000      -0.344857        -9.3840
 144   1.0000      -0.344200        -9.3661
 145   1.0000      -0.340083        -9.2541
 146   1.0000      -0.337282        -9.1779
 147   1.0000      -0.335913        -9.1407
 148   1.0000      -0.334072        -9.0905
 149   1.0000      -0.333552        -9.0764
 150   1.0000      -0.332876        -9.0580
 151   1.0000      -0.330609        -8.9963
 152   1.0000      -0.327121        -8.9014
 153   1.0000      -0.323677        -8.8077
 154   1.0000      -0.317902        -8.6506
 155   1.0000      -0.317151        -8.6301
 156   1.0000      -0.311068        -8.4646
 157   1.0000      -0.281652        -7.6641
 158   1.0000      -0.245022        -6.6674
 159   1.0000      -0.233667        -6.3584
 160   1.0000      -0.225714        -6.1420
 161   1.0000      -0.217122        -5.9082
 162   1.0000      -0.203875        -5.5477
 163   0.0000      -0.084145        -2.2897
 164   0.0000      -0.078586        -2.1384
 165   0.0000      -0.070741        -1.9250
 166   0.0000      -0.063038        -1.7154
 167   0.0000      -0.057228        -1.5573

MULLIKEN ATOMIC CHARGES AND SPIN POPULATIONS
--------------------------------------------
   0 Au:    0.369713   -0.068820
   1 Au:    0.559478   -0.073735
   2 Au:   -0.025777    0.075146
   3 Au:    0.026621   -0.017251
   4 Au:    0.474349   -0.075108
   5 Au:    0.441574   -0.377568
   6 Au:   -0.172573    0.031937
   7 Au:    0.091909   -0.014617
   8 Au:    0.480975   -0.049358
   9 Au:    0.506139   -0.041649
  10 Au:   -0.433603   -0.135265
  11 Au:    0.616552   -0.087517
  12 Au:    0.434588   -0.246636
  13 Au:    0.343321    0.017678
  14 Au:    0.204002   -0.032780
  15 Au:    0.369003   -0.128230
  16 Cr:   -4.286271    3.223773
Sum of atomic charges         :    0.0000000

LOEWDIN ATOMIC CHARGES AND SPIN POPULATIONS
-------------------------------------------
   0 Au:    0.075750   -0.105977
   1 Au:    0.133240   -0.124887
   2 Au:   -0.053563   -0.028639
   3 Au:    0.020363   -0.065817
   4 Au:    0.140923   -0.103427
   5 Au:    0.133885   -0.215272
   6 Au:   -0.049239   -0.067135
   7 Au:    0.029775   -0.059188
   8 Au:    0.145197   -0.107747
   9 Au:    0.128265   -0.095791
  10 Au:   -0.027018   -0.085409
  11 Au:    0.110909   -0.133155
  12 Au:    0.128246   -0.192857
  13 Au:    0.014386   -0.034063
  14 Au:    0.057006   -0.062266
  15 Au:    0.086609   -0.139659
  16 Cr:   -1.074734    3.621288

  Mayer bond orders larger than 0.100000
B(  0-Au,  6-Au) :   0.3681 B(  0-Au,  7-Au) :   0.1003 B(  0-Au,  9-Au) :   0.1770
B(  0-Au, 10-Au) :   0.2133 B(  0-Au, 16-Cr) :   0.4643 B(  1-Au,  3-Au) :   0.1838
B(  1-Au,  4-Au) :   0.1970 B(  1-Au, 12-Au) :   0.1986 B(  1-Au, 15-Au) :   0.1215
B(  1-Au, 16-Cr) :   0.4758 B(  2-Au,  3-Au) :   0.4111 B(  2-Au,  5-Au) :   0.2789
B(  2-Au,  6-Au) :   0.3371 B(  2-Au,  7-Au) :   0.2079 B(  2-Au, 13-Au) :   0.1540
B(  2-Au, 14-Au) :   0.1433 B(  2-Au, 16-Cr) :   0.2091 B(  3-Au,  4-Au) :   0.1299
B(  3-Au,  7-Au) :   0.1560 B(  3-Au, 14-Au) :   0.2140 B(  3-Au, 15-Au) :   0.1044
B(  3-Au, 16-Cr) :   0.4849 B(  4-Au,  7-Au) :   0.1472 B(  4-Au,  8-Au) :   0.2319
B(  4-Au, 16-Cr) :   0.4907 B(  5-Au,  6-Au) :   0.3395 B(  5-Au, 13-Au) :   0.1735
B(  6-Au,  7-Au) :   0.1694 B(  6-Au, 10-Au) :   0.2271 B(  6-Au, 13-Au) :   0.2087
B(  6-Au, 16-Cr) :   0.3018 B(  7-Au,  8-Au) :   0.2226 B(  7-Au, 12-Au) :   0.1147
B(  7-Au, 16-Cr) :   0.4629 B(  8-Au,  9-Au) :   0.2142 B(  8-Au, 16-Cr) :   0.5145
B(  9-Au, 11-Au) :   0.1358 B(  9-Au, 12-Au) :   0.1669 B(  9-Au, 16-Cr) :   0.4250
B( 10-Au, 11-Au) :   0.2419 B( 10-Au, 13-Au) :   0.4040 B( 10-Au, 14-Au) :   0.3454
B( 10-Au, 15-Au) :   0.1588 B( 10-Au, 16-Cr) :   0.3116 B( 11-Au, 15-Au) :   0.1610
B( 11-Au, 16-Cr) :   0.3916 B( 12-Au, 16-Cr) :   0.5257 B( 13-Au, 14-Au) :   0.2452
B( 14-Au, 15-Au) :   0.1604 B( 14-Au, 16-Cr) :   0.2720 B( 15-Au, 16-Cr) :   0.5811

MP2 TOTAL ENERGY:    -3213.707774386 Eh
FINAL SINGLE POINT ENERGY     -3213.707774385873

DIPOLE MOMENT
-------------
                                X             Y             Z
Electronic contribution:     40.86314      28.17748       7.39625
Nuclear contribution   :    -41.26525     -28.42697      -7.52416
                        -----------------------------------------
Total Dipole Moment    :     -0.40211      -0.24949      -0.12791
                        -----------------------------------------
Magnitude (a.u.)       :      0.49020
Magnitude (Debye)      :      1.24599

Rotational constants in cm-1:     0.001102     0.000661     0.000645
Rotational constants in MHz :    33.036753    19.805524    19.327628

                             ****ORCA TERMINATED NORMALLY****
TOTAL RUN TIME: 0 days 3 hours 56 minutes 39 seconds 943 msec
