                         Program Version 5.0.3 -  RELEASE  -
|  1> !PBE def2-TZVP VERYSLOWCONV
|  2>
|  3> %scf
|  4>   AutoTRAHIter 200
|  5>   maxiter 400
|  6> end
|  7>
|  8>
|  9> %pal nprocs 6 end
| 10>
| 11> *xyzfile 0 5 pbe.xyz
| 12>
| 13> $new_job
| 14>
| 15> !PBE def2-TZVP VERYSLOWCONV
| 16>
| 17> %scf
| 18>   AutoTRAHIter 200
| 19>   maxiter 400
| 20> end
| 21>
| 22>
| 23> %pal nprocs 6 end
| 24>
| 25> *xyzfile 0 3 pbe.xyz
| 26>
| 27>
| 28>
| 29>
| 30>
| 31>                          ****END OF INPUT****
 Total Charge           Charge          ....    0
 Multiplicity           Mult            ....    5
 Number of Electrons    NEL             ....  328
FINAL SINGLE POINT ENERGY     -3217.492258462850

CARTESIAN COORDINATES (ANGSTROEM)
---------------------------------
  Au     6.925415    8.934746    5.364537
  Au     5.478501    5.924576    9.673877
  Au    10.285475    8.158185    8.622450
  Au     8.094350    6.831043    9.538817
  Au     7.159739    4.876774    7.693805
  Au    11.920646    9.858590    7.228404
  Au     9.423143    9.565001    6.168159
  Au     8.837301    6.889217    6.643338
  Au     6.647107    6.005127    5.175555
  Au     4.433018    7.645100    5.327008
  Au     7.246177   10.437674    7.824940
  Au     4.709251    9.690320    7.209291
  Au     3.631181    7.198855    8.034229
  Au     9.810703   11.090343    8.570577
  Au     8.320683    9.507586   10.236034
  Au     5.678852    8.765541    9.719818
  Cr     6.243347    7.405690    7.476231

 Multiplicity           Mult            ....    3
 Number of Electrons    NEL             ....  328
 Basis Dimension        Dim             ....  685

ORBITAL ENERGIES
----------------
                 SPIN UP ORBITALS
  NO   OCC          E(Eh)            E(eV)
   0   1.0000    -214.506251     -5837.0118
   1   1.0000     -24.307178      -661.4319
   2   1.0000     -20.673024      -562.5416
   3   1.0000     -20.671802      -562.5083
   4   1.0000     -20.667063      -562.3794
   5   1.0000      -4.037205      -109.8579
   6   1.0000      -4.032930      -109.7416
   7   1.0000      -4.032872      -109.7400
   8   1.0000      -4.032052      -109.7177
   9   1.0000      -4.031331      -109.6981
  10   1.0000      -4.028924      -109.6326
  11   1.0000      -4.028307      -109.6158
  12   1.0000      -4.027961      -109.6064
  13   1.0000      -4.025917      -109.5508
  14   1.0000      -4.025035      -109.5268
  15   1.0000      -4.024309      -109.5070
  16   1.0000      -4.022393      -109.4549
  17   1.0000      -4.020437      -109.4016
  18   1.0000      -4.018252      -109.3422
  19   1.0000      -4.015340      -109.2629
  20   1.0000      -4.013290      -109.2072
  21   1.0000      -2.807897       -76.4067
  22   1.0000      -2.253711       -61.3266
  23   1.0000      -2.250781       -61.2469
  24   1.0000      -2.250227       -61.2318
  25   1.0000      -2.248884       -61.1952
  26   1.0000      -2.248703       -61.1903
  27   1.0000      -2.247476       -61.1569
  28   1.0000      -2.247153       -61.1482
  29   1.0000      -2.245913       -61.1144
  30   1.0000      -2.245653       -61.1073
  31   1.0000      -2.244705       -61.0815
  32   1.0000      -2.244127       -61.0658
  33   1.0000      -2.243856       -61.0584
  34   1.0000      -2.243671       -61.0534
  35   1.0000      -2.243425       -61.0467
  36   1.0000      -2.243123       -61.0385
  37   1.0000      -2.243027       -61.0359
  38   1.0000      -2.242854       -61.0312
  39   1.0000      -2.242194       -61.0132
  40   1.0000      -2.242074       -61.0099
  41   1.0000      -2.241803       -61.0026
  42   1.0000      -2.241522       -60.9949
  43   1.0000      -2.241245       -60.9874
  44   1.0000      -2.240503       -60.9672
  45   1.0000      -2.240014       -60.9539
  46   1.0000      -2.238914       -60.9239
  47   1.0000      -2.238846       -60.9221
  48   1.0000      -2.237978       -60.8985
  49   1.0000      -2.237868       -60.8955
  50   1.0000      -2.237759       -60.8925
  51   1.0000      -2.237654       -60.8897
  52   1.0000      -2.237288       -60.8797
  53   1.0000      -2.236662       -60.8627
  54   1.0000      -2.235519       -60.8316
  55   1.0000      -2.234808       -60.8122
  56   1.0000      -2.234184       -60.7952
  57   1.0000      -2.233923       -60.7881
  58   1.0000      -2.233237       -60.7695
  59   1.0000      -2.232758       -60.7564
  60   1.0000      -2.231333       -60.7177
  61   1.0000      -2.231061       -60.7102
  62   1.0000      -2.230629       -60.6985
  63   1.0000      -2.229606       -60.6707
  64   1.0000      -2.228774       -60.6480
  65   1.0000      -2.228012       -60.6273
  66   1.0000      -2.227533       -60.6143
  67   1.0000      -2.225966       -60.5716
  68   1.0000      -2.224945       -60.5438
  69   1.0000      -2.222980       -60.4904
  70   1.0000      -1.800327       -48.9894
  71   1.0000      -1.798936       -48.9515
  72   1.0000      -1.792741       -48.7830
  73   1.0000      -0.430766       -11.7217
  74   1.0000      -0.395174       -10.7532
  75   1.0000      -0.391051       -10.6410
  76   1.0000      -0.387115       -10.5339
  77   1.0000      -0.381659       -10.3855
  78   1.0000      -0.372683       -10.1412
  79   1.0000      -0.370038       -10.0692
  80   1.0000      -0.366164        -9.9638
  81   1.0000      -0.363136        -9.8814
  82   1.0000      -0.360130        -9.7996
  83   1.0000      -0.358256        -9.7487
  84   1.0000      -0.357219        -9.7204
  85   1.0000      -0.354488        -9.6461
  86   1.0000      -0.353000        -9.6056
  87   1.0000      -0.351281        -9.5588
  88   1.0000      -0.348995        -9.4966
  89   1.0000      -0.346127        -9.4186
  90   1.0000      -0.344150        -9.3648
  91   1.0000      -0.343702        -9.3526
  92   1.0000      -0.343233        -9.3399
  93   1.0000      -0.340009        -9.2521
  94   1.0000      -0.336199        -9.1484
  95   1.0000      -0.334053        -9.0900
  96   1.0000      -0.331861        -9.0304
  97   1.0000      -0.331032        -9.0078
  98   1.0000      -0.329405        -8.9636
  99   1.0000      -0.327582        -8.9140
 100   1.0000      -0.326341        -8.8802
 101   1.0000      -0.324243        -8.8231
 102   1.0000      -0.322077        -8.7642
 103   1.0000      -0.321642        -8.7523
 104   1.0000      -0.319774        -8.7015
 105   1.0000      -0.316194        -8.6041
 106   1.0000      -0.315578        -8.5873
 107   1.0000      -0.314644        -8.5619
 108   1.0000      -0.311032        -8.4636
 109   1.0000      -0.309419        -8.4197
 110   1.0000      -0.301898        -8.2151
 111   1.0000      -0.301699        -8.2096
 112   1.0000      -0.300797        -8.1851
 113   1.0000      -0.297776        -8.1029
 114   1.0000      -0.294550        -8.0151
 115   1.0000      -0.293555        -7.9880
 116   1.0000      -0.290200        -7.8967
 117   1.0000      -0.287726        -7.8294
 118   1.0000      -0.286834        -7.8051
 119   1.0000      -0.284076        -7.7301
 120   1.0000      -0.282653        -7.6914
 121   1.0000      -0.281346        -7.6558
 122   1.0000      -0.278219        -7.5707
 123   1.0000      -0.278133        -7.5684
 124   1.0000      -0.276313        -7.5189
 125   1.0000      -0.274732        -7.4758
 126   1.0000      -0.274362        -7.4658
 127   1.0000      -0.271870        -7.3979
 128   1.0000      -0.271460        -7.3868
 129   1.0000      -0.269865        -7.3434
 130   1.0000      -0.269503        -7.3335
 131   1.0000      -0.268660        -7.3106
 132   1.0000      -0.267905        -7.2901
 133   1.0000      -0.267034        -7.2664
 134   1.0000      -0.264995        -7.2109
 135   1.0000      -0.264418        -7.1952
 136   1.0000      -0.263868        -7.1802
 137   1.0000      -0.263226        -7.1627
 138   1.0000      -0.262428        -7.1410
 139   1.0000      -0.261666        -7.1203
 140   1.0000      -0.260667        -7.0931
 141   1.0000      -0.258224        -7.0266
 142   1.0000      -0.256309        -6.9745
 143   1.0000      -0.253298        -6.8926
 144   1.0000      -0.251862        -6.8535
 145   1.0000      -0.250043        -6.8040
 146   1.0000      -0.249492        -6.7890
 147   1.0000      -0.248174        -6.7532
 148   1.0000      -0.247810        -6.7433
 149   1.0000      -0.246789        -6.7155
 150   1.0000      -0.244870        -6.6632
 151   1.0000      -0.244261        -6.6467
 152   1.0000      -0.243500        -6.6260
 153   1.0000      -0.241588        -6.5739
 154   1.0000      -0.238943        -6.5020
 155   1.0000      -0.237509        -6.4630
 156   1.0000      -0.232948        -6.3388
 157   1.0000      -0.230379        -6.2689
 158   1.0000      -0.220676        -6.0049
 159   1.0000      -0.218534        -5.9466
 160   1.0000      -0.217737        -5.9249
 161   1.0000      -0.217672        -5.9232
 162   1.0000      -0.210546        -5.7292
 163   1.0000      -0.200154        -5.4465
 164   1.0000      -0.196754        -5.3539
 165   0.0000      -0.181072        -4.9272
 166   0.0000      -0.178372        -4.8538
 167   0.0000      -0.168992        -4.5985
 168   0.0000      -0.138607        -3.7717
 169   0.0000      -0.132385        -3.6024

                 SPIN DOWN ORBITALS
  NO   OCC          E(Eh)            E(eV)
   0   1.0000    -214.505843     -5837.0007
   1   1.0000     -24.262170      -660.2072
   2   1.0000     -20.641070      -561.6721
   3   1.0000     -20.638848      -561.6116
   4   1.0000     -20.628813      -561.3385
   5   1.0000      -4.037016      -109.8528
   6   1.0000      -4.033053      -109.7450
   7   1.0000      -4.032590      -109.7323
   8   1.0000      -4.031767      -109.7100
   9   1.0000      -4.031207      -109.6947
  10   1.0000      -4.028747      -109.6278
  11   1.0000      -4.028277      -109.6150
  12   1.0000      -4.027740      -109.6004
  13   1.0000      -4.025734      -109.5458
  14   1.0000      -4.025179      -109.5307
  15   1.0000      -4.024793      -109.5202
  16   1.0000      -4.022208      -109.4499
  17   1.0000      -4.021059      -109.4186
  18   1.0000      -4.018913      -109.3602
  19   1.0000      -4.015740      -109.2738
  20   1.0000      -4.013704      -109.2185
  21   1.0000      -2.686645       -73.1073
  22   1.0000      -2.253766       -61.3281
  23   1.0000      -2.250190       -61.2308
  24   1.0000      -2.250098       -61.2283
  25   1.0000      -2.248706       -61.1904
  26   1.0000      -2.248542       -61.1859
  27   1.0000      -2.247522       -61.1582
  28   1.0000      -2.246645       -61.1343
  29   1.0000      -2.245835       -61.1123
  30   1.0000      -2.245331       -61.0986
  31   1.0000      -2.244349       -61.0718
  32   1.0000      -2.243879       -61.0590
  33   1.0000      -2.243629       -61.0523
  34   1.0000      -2.243542       -61.0499
  35   1.0000      -2.243218       -61.0411
  36   1.0000      -2.243021       -61.0357
  37   1.0000      -2.242938       -61.0335
  38   1.0000      -2.242566       -61.0233
  39   1.0000      -2.242354       -61.0176
  40   1.0000      -2.242063       -61.0096
  41   1.0000      -2.241947       -61.0065
  42   1.0000      -2.241628       -60.9978
  43   1.0000      -2.241278       -60.9883
  44   1.0000      -2.240435       -60.9653
  45   1.0000      -2.239751       -60.9467
  46   1.0000      -2.238887       -60.9232
  47   1.0000      -2.238661       -60.9171
  48   1.0000      -2.238460       -60.9116
  49   1.0000      -2.238155       -60.9033
  50   1.0000      -2.237892       -60.8961
  51   1.0000      -2.237638       -60.8892
  52   1.0000      -2.237146       -60.8758
  53   1.0000      -2.236471       -60.8575
  54   1.0000      -2.235969       -60.8438
  55   1.0000      -2.234964       -60.8165
  56   1.0000      -2.234850       -60.8134
  57   1.0000      -2.234142       -60.7941
  58   1.0000      -2.233704       -60.7822
  59   1.0000      -2.233013       -60.7634
  60   1.0000      -2.231816       -60.7308
  61   1.0000      -2.231291       -60.7165
  62   1.0000      -2.231274       -60.7161
  63   1.0000      -2.230032       -60.6823
  64   1.0000      -2.229234       -60.6605
  65   1.0000      -2.228348       -60.6364
  66   1.0000      -2.227953       -60.6257
  67   1.0000      -2.226190       -60.5777
  68   1.0000      -2.225268       -60.5526
  69   1.0000      -2.223541       -60.5056
  70   1.0000      -1.688940       -45.9584
  71   1.0000      -1.684140       -45.8278
  72   1.0000      -1.660428       -45.1826
  73   1.0000      -0.426215       -11.5979
  74   1.0000      -0.393468       -10.7068
  75   1.0000      -0.391294       -10.6477
  76   1.0000      -0.387326       -10.5397
  77   1.0000      -0.380035       -10.3413
  78   1.0000      -0.370375       -10.0784
  79   1.0000      -0.368082       -10.0160
  80   1.0000      -0.364852        -9.9281
  81   1.0000      -0.362177        -9.8553
  82   1.0000      -0.359719        -9.7885
  83   1.0000      -0.358523        -9.7559
  84   1.0000      -0.355967        -9.6863
  85   1.0000      -0.353456        -9.6180
  86   1.0000      -0.352525        -9.5927
  87   1.0000      -0.350685        -9.5426
  88   1.0000      -0.348749        -9.4899
  89   1.0000      -0.346768        -9.4360
  90   1.0000      -0.344851        -9.3839
  91   1.0000      -0.343612        -9.3502
  92   1.0000      -0.343009        -9.3338
  93   1.0000      -0.339095        -9.2273
  94   1.0000      -0.336469        -9.1558
  95   1.0000      -0.333914        -9.0863
  96   1.0000      -0.332181        -9.0391
  97   1.0000      -0.331542        -9.0217
  98   1.0000      -0.329268        -8.9598
  99   1.0000      -0.328165        -8.9298
 100   1.0000      -0.326325        -8.8798
 101   1.0000      -0.324699        -8.8355
 102   1.0000      -0.322697        -8.7810
 103   1.0000      -0.322230        -8.7683
 104   1.0000      -0.320394        -8.7184
 105   1.0000      -0.316985        -8.6256
 106   1.0000      -0.316151        -8.6029
 107   1.0000      -0.314917        -8.5693
 108   1.0000      -0.307835        -8.3766
 109   1.0000      -0.306187        -8.3318
 110   1.0000      -0.302196        -8.2232
 111   1.0000      -0.301529        -8.2050
 112   1.0000      -0.298358        -8.1187
 113   1.0000      -0.296766        -8.0754
 114   1.0000      -0.294087        -8.0025
 115   1.0000      -0.292330        -7.9547
 116   1.0000      -0.290804        -7.9132
 117   1.0000      -0.288286        -7.8446
 118   1.0000      -0.287576        -7.8253
 119   1.0000      -0.283854        -7.7241
 120   1.0000      -0.283342        -7.7101
 121   1.0000      -0.281730        -7.6663
 122   1.0000      -0.278918        -7.5897
 123   1.0000      -0.278529        -7.5792
 124   1.0000      -0.277164        -7.5420
 125   1.0000      -0.275437        -7.4950
 126   1.0000      -0.275200        -7.4886
 127   1.0000      -0.272562        -7.4168
 128   1.0000      -0.272420        -7.4129
 129   1.0000      -0.270421        -7.3585
 130   1.0000      -0.270287        -7.3549
 131   1.0000      -0.269437        -7.3318
 132   1.0000      -0.268284        -7.3004
 133   1.0000      -0.267895        -7.2898
 134   1.0000      -0.265516        -7.2250
 135   1.0000      -0.265389        -7.2216
 136   1.0000      -0.264790        -7.2053
 137   1.0000      -0.264040        -7.1849
 138   1.0000      -0.263219        -7.1626
 139   1.0000      -0.262076        -7.1315
 140   1.0000      -0.261672        -7.1205
 141   1.0000      -0.258984        -7.0473
 142   1.0000      -0.257015        -6.9937
 143   1.0000      -0.254303        -6.9199
 144   1.0000      -0.252992        -6.8843
 145   1.0000      -0.251232        -6.8364
 146   1.0000      -0.249961        -6.8018
 147   1.0000      -0.249430        -6.7873
 148   1.0000      -0.248978        -6.7750
 149   1.0000      -0.247896        -6.7456
 150   1.0000      -0.245723        -6.6865
 151   1.0000      -0.244786        -6.6610
 152   1.0000      -0.243952        -6.6383
 153   1.0000      -0.241958        -6.5840
 154   1.0000      -0.239397        -6.5143
 155   1.0000      -0.238537        -6.4909
 156   1.0000      -0.233743        -6.3605
 157   1.0000      -0.230530        -6.2730
 158   1.0000      -0.216219        -5.8836
 159   1.0000      -0.209492        -5.7006
 160   1.0000      -0.205129        -5.5818
 161   1.0000      -0.201997        -5.4966
 162   1.0000      -0.187168        -5.0931
 163   0.0000      -0.147875        -4.0239
 164   0.0000      -0.145567        -3.9611
 165   0.0000      -0.135077        -3.6756
 166   0.0000      -0.127949        -3.4817
 167   0.0000      -0.125084        -3.4037

MULLIKEN ATOMIC CHARGES AND SPIN POPULATIONS
--------------------------------------------
   0 Au:    0.379272   -0.026430
   1 Au:    0.567619   -0.042005
   2 Au:   -0.015201    0.035238
   3 Au:    0.076585   -0.014577
   4 Au:    0.489119   -0.050613
   5 Au:    0.450916   -0.206111
   6 Au:   -0.141286   -0.009570
   7 Au:    0.105842   -0.019476
   8 Au:    0.512471   -0.029415
   9 Au:    0.525665   -0.018646
  10 Au:   -0.421790   -0.066833
  11 Au:    0.628312   -0.043530
  12 Au:    0.479495   -0.119080
  13 Au:    0.348799   -0.005229
  14 Au:    0.219427   -0.034833
  15 Au:    0.397271   -0.078904
  16 Cr:   -4.602513    2.730015
Sum of atomic charges         :    0.0000000

LOEWDIN ATOMIC CHARGES AND SPIN POPULATIONS
-------------------------------------------
   0 Au:    0.096947   -0.062017
   1 Au:    0.143967   -0.095198
   2 Au:   -0.049597   -0.022351
   3 Au:    0.042691   -0.041203
   4 Au:    0.161854   -0.083449
   5 Au:    0.109186   -0.140064
   6 Au:   -0.043451   -0.052794
   7 Au:    0.052638   -0.041296
   8 Au:    0.156624   -0.068295
   9 Au:    0.130592   -0.059921
  10 Au:   -0.011461   -0.052121
  11 Au:    0.125025   -0.098334
  12 Au:    0.140601   -0.123102
  13 Au:    0.009135   -0.022724
  14 Au:    0.052477   -0.049148
  15 Au:    0.099955   -0.093529
  16 Cr:   -1.217185    3.105545

  Mayer bond orders larger than 0.100000
B(  0-Au,  6-Au) :   0.4387 B(  0-Au,  7-Au) :   0.1013 B(  0-Au,  8-Au) :   0.1195
B(  0-Au,  9-Au) :   0.2080 B(  0-Au, 10-Au) :   0.2334 B(  0-Au, 11-Au) :   0.1067
B(  0-Au, 16-Cr) :   0.5714 B(  1-Au,  3-Au) :   0.2219 B(  1-Au,  4-Au) :   0.2474
B(  1-Au, 12-Au) :   0.2577 B(  1-Au, 15-Au) :   0.1533 B(  1-Au, 16-Cr) :   0.5567
B(  2-Au,  3-Au) :   0.4458 B(  2-Au,  5-Au) :   0.3386 B(  2-Au,  6-Au) :   0.3327
B(  2-Au,  7-Au) :   0.2408 B(  2-Au, 13-Au) :   0.1804 B(  2-Au, 14-Au) :   0.1742
B(  2-Au, 16-Cr) :   0.2213 B(  3-Au,  4-Au) :   0.1518 B(  3-Au,  7-Au) :   0.1451
B(  3-Au, 14-Au) :   0.2607 B(  3-Au, 15-Au) :   0.1144 B(  3-Au, 16-Cr) :   0.4922
B(  4-Au,  7-Au) :   0.1885 B(  4-Au,  8-Au) :   0.2809 B(  4-Au, 11-Au) :   0.1000
B(  4-Au, 16-Cr) :   0.5897 B(  5-Au,  6-Au) :   0.3884 B(  5-Au, 13-Au) :   0.2347
B(  5-Au, 16-Cr) :   0.1320 B(  6-Au,  7-Au) :   0.2086 B(  6-Au, 10-Au) :   0.2554
B(  6-Au, 13-Au) :   0.2236 B(  6-Au, 16-Cr) :   0.3055 B(  7-Au,  8-Au) :   0.2527
B(  7-Au, 12-Au) :   0.1281 B(  7-Au, 16-Cr) :   0.5298 B(  8-Au,  9-Au) :   0.2685
B(  8-Au, 16-Cr) :   0.5635 B(  9-Au, 11-Au) :   0.1775 B(  9-Au, 12-Au) :   0.2162
B(  9-Au, 16-Cr) :   0.4475 B( 10-Au, 11-Au) :   0.2912 B( 10-Au, 13-Au) :   0.4310
B( 10-Au, 14-Au) :   0.3342 B( 10-Au, 15-Au) :   0.1827 B( 10-Au, 16-Cr) :   0.3541
B( 11-Au, 12-Au) :   0.1324 B( 11-Au, 15-Au) :   0.1910 B( 11-Au, 16-Cr) :   0.5265
B( 12-Au, 16-Cr) :   0.6498 B( 13-Au, 14-Au) :   0.3003 B( 14-Au, 15-Au) :   0.2136
B( 14-Au, 16-Cr) :   0.2763 B( 15-Au, 16-Cr) :   0.6476

FINAL SINGLE POINT ENERGY     -3217.500250193266

DIPOLE MOMENT
-------------
                                X             Y             Z
Electronic contribution:     40.78005      28.09360       7.40870
Nuclear contribution   :    -41.26525     -28.42697      -7.52416
                        -----------------------------------------
Total Dipole Moment    :     -0.48519      -0.33337      -0.11546
                        -----------------------------------------
Magnitude (a.u.)       :      0.59990
Magnitude (Debye)      :      1.52482

Rotational constants in cm-1:     0.001102     0.000661     0.000645
Rotational constants in MHz :    33.036753    19.805524    19.327628

                             ****ORCA TERMINATED NORMALLY****
TOTAL RUN TIME: 0 days 2 hours 13 minutes 31 seconds 106 msec
