                         Program Version 5.0.3 -  RELEASE  -
|  1> !R2SCAN def2-TZVP VERYSLOWCONV
|  2> !KDIIS
|  3> %scf
|  4>   AutoTRAHIter 200
|  5>   maxiter 400
|  6> end
|  7>
|  8> %pal nprocs 6 end
|  9>
| 10> *xyzfile 0 5 pbe.xyz
| 11>
| 12> $new_job
| 13>
| 14> !R2SCAN def2-TZVP VERYSLOWCONV
| 15> !KDIIS
| 16> %scf
| 17>   AutoTRAHIter 200
| 18>   maxiter 400
| 19> end
| 20>
| 21>
| 22> %pal nprocs 6 end
| 23>
| 24> *xyzfile 0 3 pbe.xyz
| 25>
| 26>
| 27>
| 28>
| 29>
| 30>                          ****END OF INPUT****
 Total Charge           Charge          ....    0
 Multiplicity           Mult            ....    5
 Number of Electrons    NEL             ....  328
FINAL SINGLE POINT ENERGY     -3218.019076521568

CARTESIAN COORDINATES (ANGSTROEM)
---------------------------------
  Au     6.925415    8.934746    5.364537
  Au     5.478501    5.924576    9.673877
  Au    10.285475    8.158185    8.622450
  Au     8.094350    6.831043    9.538817
  Au     7.159739    4.876774    7.693805
  Au    11.920646    9.858590    7.228404
  Au     9.423143    9.565001    6.168159
  Au     8.837301    6.889217    6.643338
  Au     6.647107    6.005127    5.175555
  Au     4.433018    7.645100    5.327008
  Au     7.246177   10.437674    7.824940
  Au     4.709251    9.690320    7.209291
  Au     3.631181    7.198855    8.034229
  Au     9.810703   11.090343    8.570577
  Au     8.320683    9.507586   10.236034
  Au     5.678852    8.765541    9.719818
  Cr     6.243347    7.405690    7.476231

 Multiplicity           Mult            ....    3
 Number of Electrons    NEL             ....  328
 Basis Dimension        Dim             ....  685

ORBITAL ENERGIES
----------------
                 SPIN UP ORBITALS
  NO   OCC          E(Eh)            E(eV)
   0   1.0000    -215.297485     -5858.5424
   1   1.0000     -24.598178      -669.3504
   2   1.0000     -20.866100      -567.7955
   3   1.0000     -20.865188      -567.7706
   4   1.0000     -20.861730      -567.6765
   5   1.0000      -4.127699      -112.3204
   6   1.0000      -4.123457      -112.2050
   7   1.0000      -4.123310      -112.2010
   8   1.0000      -4.122383      -112.1757
   9   1.0000      -4.121534      -112.1526
  10   1.0000      -4.119266      -112.0909
  11   1.0000      -4.118966      -112.0828
  12   1.0000      -4.118187      -112.0616
  13   1.0000      -4.116378      -112.0124
  14   1.0000      -4.115600      -111.9912
  15   1.0000      -4.114839      -111.9705
  16   1.0000      -4.112284      -111.9009
  17   1.0000      -4.110804      -111.8607
  18   1.0000      -4.108736      -111.8044
  19   1.0000      -4.105606      -111.7192
  20   1.0000      -4.103757      -111.6689
  21   1.0000      -2.918863       -79.4263
  22   1.0000      -2.316871       -63.0453
  23   1.0000      -2.314094       -62.9697
  24   1.0000      -2.313385       -62.9504
  25   1.0000      -2.312108       -62.9157
  26   1.0000      -2.312007       -62.9129
  27   1.0000      -2.310775       -62.8794
  28   1.0000      -2.310234       -62.8647
  29   1.0000      -2.309475       -62.8440
  30   1.0000      -2.308823       -62.8263
  31   1.0000      -2.307932       -62.8020
  32   1.0000      -2.307480       -62.7897
  33   1.0000      -2.307045       -62.7779
  34   1.0000      -2.306881       -62.7734
  35   1.0000      -2.306735       -62.7694
  36   1.0000      -2.306579       -62.7652
  37   1.0000      -2.306380       -62.7598
  38   1.0000      -2.306078       -62.7516
  39   1.0000      -2.305490       -62.7356
  40   1.0000      -2.305188       -62.7274
  41   1.0000      -2.304949       -62.7209
  42   1.0000      -2.304846       -62.7181
  43   1.0000      -2.304583       -62.7109
  44   1.0000      -2.303795       -62.6895
  45   1.0000      -2.303185       -62.6728
  46   1.0000      -2.302302       -62.6488
  47   1.0000      -2.301718       -62.6329
  48   1.0000      -2.301389       -62.6240
  49   1.0000      -2.301082       -62.6156
  50   1.0000      -2.300860       -62.6096
  51   1.0000      -2.300535       -62.6007
  52   1.0000      -2.300444       -62.5983
  53   1.0000      -2.299892       -62.5832
  54   1.0000      -2.298803       -62.5536
  55   1.0000      -2.297662       -62.5226
  56   1.0000      -2.297626       -62.5216
  57   1.0000      -2.297279       -62.5121
  58   1.0000      -2.296438       -62.4892
  59   1.0000      -2.296175       -62.4821
  60   1.0000      -2.294373       -62.4331
  61   1.0000      -2.294174       -62.4276
  62   1.0000      -2.293643       -62.4132
  63   1.0000      -2.292943       -62.3941
  64   1.0000      -2.291889       -62.3655
  65   1.0000      -2.291401       -62.3522
  66   1.0000      -2.290575       -62.3297
  67   1.0000      -2.289123       -62.2902
  68   1.0000      -2.288246       -62.2663
  69   1.0000      -2.286317       -62.2139
  70   1.0000      -1.866957       -50.8025
  71   1.0000      -1.866321       -50.7852
  72   1.0000      -1.862894       -50.6919
  73   1.0000      -0.435196       -11.8423
  74   1.0000      -0.400062       -10.8862
  75   1.0000      -0.396624       -10.7927
  76   1.0000      -0.393045       -10.6953
  77   1.0000      -0.389741       -10.6054
  78   1.0000      -0.380204       -10.3459
  79   1.0000      -0.377307       -10.2671
  80   1.0000      -0.374256       -10.1840
  81   1.0000      -0.370969       -10.0946
  82   1.0000      -0.368350       -10.0233
  83   1.0000      -0.366501        -9.9730
  84   1.0000      -0.365114        -9.9353
  85   1.0000      -0.363086        -9.8801
  86   1.0000      -0.361698        -9.8423
  87   1.0000      -0.359731        -9.7888
  88   1.0000      -0.357960        -9.7406
  89   1.0000      -0.354812        -9.6549
  90   1.0000      -0.353128        -9.6091
  91   1.0000      -0.352276        -9.5859
  92   1.0000      -0.352055        -9.5799
  93   1.0000      -0.348254        -9.4765
  94   1.0000      -0.345170        -9.3925
  95   1.0000      -0.342850        -9.3294
  96   1.0000      -0.340392        -9.2625
  97   1.0000      -0.339532        -9.2391
  98   1.0000      -0.337886        -9.1944
  99   1.0000      -0.336246        -9.1497
 100   1.0000      -0.334961        -9.1148
 101   1.0000      -0.332610        -9.0508
 102   1.0000      -0.330729        -8.9996
 103   1.0000      -0.330003        -8.9798
 104   1.0000      -0.328152        -8.9295
 105   1.0000      -0.324655        -8.8343
 106   1.0000      -0.323883        -8.8133
 107   1.0000      -0.323054        -8.7908
 108   1.0000      -0.319218        -8.6864
 109   1.0000      -0.317741        -8.6462
 110   1.0000      -0.310238        -8.4420
 111   1.0000      -0.309823        -8.4307
 112   1.0000      -0.308610        -8.3977
 113   1.0000      -0.305694        -8.3184
 114   1.0000      -0.302607        -8.2344
 115   1.0000      -0.301745        -8.2109
 116   1.0000      -0.298524        -8.1233
 117   1.0000      -0.295926        -8.0526
 118   1.0000      -0.294828        -8.0227
 119   1.0000      -0.292157        -7.9500
 120   1.0000      -0.290350        -7.9008
 121   1.0000      -0.289343        -7.8734
 122   1.0000      -0.286449        -7.7947
 123   1.0000      -0.285878        -7.7791
 124   1.0000      -0.283806        -7.7228
 125   1.0000      -0.282302        -7.6818
 126   1.0000      -0.281462        -7.6590
 127   1.0000      -0.279531        -7.6064
 128   1.0000      -0.279024        -7.5926
 129   1.0000      -0.277640        -7.5550
 130   1.0000      -0.277356        -7.5472
 131   1.0000      -0.276369        -7.5204
 132   1.0000      -0.275831        -7.5058
 133   1.0000      -0.274851        -7.4791
 134   1.0000      -0.272601        -7.4179
 135   1.0000      -0.272003        -7.4016
 136   1.0000      -0.271654        -7.3921
 137   1.0000      -0.270870        -7.3707
 138   1.0000      -0.269864        -7.3434
 139   1.0000      -0.269170        -7.3245
 140   1.0000      -0.268292        -7.3006
 141   1.0000      -0.265852        -7.2342
 142   1.0000      -0.263755        -7.1771
 143   1.0000      -0.260513        -7.0889
 144   1.0000      -0.258883        -7.0446
 145   1.0000      -0.256898        -6.9906
 146   1.0000      -0.256570        -6.9816
 147   1.0000      -0.254479        -6.9247
 148   1.0000      -0.253786        -6.9059
 149   1.0000      -0.253030        -6.8853
 150   1.0000      -0.252017        -6.8577
 151   1.0000      -0.250699        -6.8219
 152   1.0000      -0.249552        -6.7907
 153   1.0000      -0.248431        -6.7601
 154   1.0000      -0.245744        -6.6870
 155   1.0000      -0.243796        -6.6340
 156   1.0000      -0.237112        -6.4521
 157   1.0000      -0.236096        -6.4245
 158   1.0000      -0.226437        -6.1617
 159   1.0000      -0.226256        -6.1567
 160   1.0000      -0.222530        -6.0554
 161   1.0000      -0.221793        -6.0353
 162   1.0000      -0.214081        -5.8254
 163   1.0000      -0.203308        -5.5323
 164   1.0000      -0.199947        -5.4408
 165   0.0000      -0.179561        -4.8861
 166   0.0000      -0.176838        -4.8120
 167   0.0000      -0.165901        -4.5144
 168   0.0000      -0.134536        -3.6609
 169   0.0000      -0.127888        -3.4800

                 SPIN DOWN ORBITALS
  NO   OCC          E(Eh)            E(eV)
   0   1.0000    -215.296893     -5858.5263
   1   1.0000     -24.536457      -667.6709
   2   1.0000     -20.821238      -566.5747
   3   1.0000     -20.819303      -566.5220
   4   1.0000     -20.809922      -566.2668
   5   1.0000      -4.127684      -112.3200
   6   1.0000      -4.123808      -112.2145
   7   1.0000      -4.123097      -112.1952
   8   1.0000      -4.122169      -112.1699
   9   1.0000      -4.121659      -112.1560
  10   1.0000      -4.119310      -112.0921
  11   1.0000      -4.119098      -112.0863
  12   1.0000      -4.118112      -112.0595
  13   1.0000      -4.116284      -112.0098
  14   1.0000      -4.115845      -111.9978
  15   1.0000      -4.115435      -111.9867
  16   1.0000      -4.112411      -111.9044
  17   1.0000      -4.111534      -111.8805
  18   1.0000      -4.109509      -111.8254
  19   1.0000      -4.106079      -111.7321
  20   1.0000      -4.104519      -111.6896
  21   1.0000      -2.756083       -74.9968
  22   1.0000      -2.316898       -63.0460
  23   1.0000      -2.313655       -62.9577
  24   1.0000      -2.313172       -62.9446
  25   1.0000      -2.312136       -62.9164
  26   1.0000      -2.311671       -62.9038
  27   1.0000      -2.311016       -62.8860
  28   1.0000      -2.309888       -62.8552
  29   1.0000      -2.309420       -62.8425
  30   1.0000      -2.308650       -62.8215
  31   1.0000      -2.307723       -62.7963
  32   1.0000      -2.307267       -62.7839
  33   1.0000      -2.306970       -62.7758
  34   1.0000      -2.306841       -62.7723
  35   1.0000      -2.306612       -62.7661
  36   1.0000      -2.306282       -62.7571
  37   1.0000      -2.306143       -62.7533
  38   1.0000      -2.305803       -62.7441
  39   1.0000      -2.305632       -62.7394
  40   1.0000      -2.305369       -62.7323
  41   1.0000      -2.305122       -62.7256
  42   1.0000      -2.304907       -62.7197
  43   1.0000      -2.304647       -62.7126
  44   1.0000      -2.303692       -62.6866
  45   1.0000      -2.302942       -62.6662
  46   1.0000      -2.302258       -62.6476
  47   1.0000      -2.301740       -62.6335
  48   1.0000      -2.301628       -62.6305
  49   1.0000      -2.301504       -62.6271
  50   1.0000      -2.301275       -62.6209
  51   1.0000      -2.300563       -62.6015
  52   1.0000      -2.300330       -62.5952
  53   1.0000      -2.299654       -62.5768
  54   1.0000      -2.299356       -62.5687
  55   1.0000      -2.298226       -62.5379
  56   1.0000      -2.297720       -62.5241
  57   1.0000      -2.297671       -62.5228
  58   1.0000      -2.297028       -62.5053
  59   1.0000      -2.296636       -62.4947
  60   1.0000      -2.295146       -62.4541
  61   1.0000      -2.294505       -62.4367
  62   1.0000      -2.294358       -62.4327
  63   1.0000      -2.293495       -62.4092
  64   1.0000      -2.292577       -62.3842
  65   1.0000      -2.291821       -62.3636
  66   1.0000      -2.291085       -62.3436
  67   1.0000      -2.289415       -62.2981
  68   1.0000      -2.288699       -62.2787
  69   1.0000      -2.287010       -62.2327
  70   1.0000      -1.713084       -46.6154
  71   1.0000      -1.709040       -46.5054
  72   1.0000      -1.687148       -45.9096
  73   1.0000      -0.430627       -11.7180
  74   1.0000      -0.398641       -10.8476
  75   1.0000      -0.397470       -10.8157
  76   1.0000      -0.393764       -10.7149
  77   1.0000      -0.387969       -10.5572
  78   1.0000      -0.377932       -10.2840
  79   1.0000      -0.375629       -10.2214
  80   1.0000      -0.372851       -10.1458
  81   1.0000      -0.370424       -10.0798
  82   1.0000      -0.367945       -10.0123
  83   1.0000      -0.367251        -9.9934
  84   1.0000      -0.364303        -9.9132
  85   1.0000      -0.362159        -9.8548
  86   1.0000      -0.361447        -9.8355
  87   1.0000      -0.359365        -9.7788
  88   1.0000      -0.357646        -9.7320
  89   1.0000      -0.355791        -9.6816
  90   1.0000      -0.354208        -9.6385
  91   1.0000      -0.352605        -9.5949
  92   1.0000      -0.352078        -9.5805
  93   1.0000      -0.347782        -9.4636
  94   1.0000      -0.345583        -9.4038
  95   1.0000      -0.342932        -9.3317
  96   1.0000      -0.341066        -9.2809
  97   1.0000      -0.340543        -9.2666
  98   1.0000      -0.338242        -9.2040
  99   1.0000      -0.336972        -9.1695
 100   1.0000      -0.335251        -9.1227
 101   1.0000      -0.333512        -9.0753
 102   1.0000      -0.331635        -9.0242
 103   1.0000      -0.331003        -9.0070
 104   1.0000      -0.329219        -8.9585
 105   1.0000      -0.325871        -8.8674
 106   1.0000      -0.324817        -8.8387
 107   1.0000      -0.323741        -8.8094
 108   1.0000      -0.316375        -8.6090
 109   1.0000      -0.314256        -8.5513
 110   1.0000      -0.310760        -8.4562
 111   1.0000      -0.309970        -8.4347
 112   1.0000      -0.306340        -8.3359
 113   1.0000      -0.304920        -8.2973
 114   1.0000      -0.302117        -8.2210
 115   1.0000      -0.300421        -8.1749
 116   1.0000      -0.299409        -8.1473
 117   1.0000      -0.296809        -8.0766
 118   1.0000      -0.295838        -8.0502
 119   1.0000      -0.292029        -7.9465
 120   1.0000      -0.291435        -7.9304
 121   1.0000      -0.290108        -7.8943
 122   1.0000      -0.287444        -7.8217
 123   1.0000      -0.286626        -7.7995
 124   1.0000      -0.285239        -7.7617
 125   1.0000      -0.283737        -7.7209
 126   1.0000      -0.283021        -7.7014
 127   1.0000      -0.280669        -7.6374
 128   1.0000      -0.280550        -7.6342
 129   1.0000      -0.278665        -7.5828
 130   1.0000      -0.278519        -7.5789
 131   1.0000      -0.277617        -7.5543
 132   1.0000      -0.276430        -7.5220
 133   1.0000      -0.276188        -7.5155
 134   1.0000      -0.273540        -7.4434
 135   1.0000      -0.273381        -7.4391
 136   1.0000      -0.272867        -7.4251
 137   1.0000      -0.272187        -7.4066
 138   1.0000      -0.271001        -7.3743
 139   1.0000      -0.269919        -7.3449
 140   1.0000      -0.269782        -7.3411
 141   1.0000      -0.267047        -7.2667
 142   1.0000      -0.264786        -7.2052
 143   1.0000      -0.261936        -7.1276
 144   1.0000      -0.260663        -7.0930
 145   1.0000      -0.258682        -7.0391
 146   1.0000      -0.257235        -6.9997
 147   1.0000      -0.256514        -6.9801
 148   1.0000      -0.255906        -6.9636
 149   1.0000      -0.254888        -6.9359
 150   1.0000      -0.252939        -6.8828
 151   1.0000      -0.252140        -6.8611
 152   1.0000      -0.250927        -6.8281
 153   1.0000      -0.249041        -6.7768
 154   1.0000      -0.246417        -6.7053
 155   1.0000      -0.245249        -6.6736
 156   1.0000      -0.238720        -6.4959
 157   1.0000      -0.236627        -6.4389
 158   1.0000      -0.218895        -5.9564
 159   1.0000      -0.211529        -5.7560
 160   1.0000      -0.206215        -5.6114
 161   1.0000      -0.202863        -5.5202
 162   1.0000      -0.188050        -5.1171
 163   0.0000      -0.143404        -3.9022
 164   0.0000      -0.139781        -3.8036
 165   0.0000      -0.130381        -3.5478
 166   0.0000      -0.120858        -3.2887
 167   0.0000      -0.118837        -3.2337

MULLIKEN ATOMIC CHARGES AND SPIN POPULATIONS
--------------------------------------------
   0 Au:    0.330403   -0.051068
   1 Au:    0.520527   -0.065298
   2 Au:   -0.005812    0.053320
   3 Au:    0.044088   -0.029662
   4 Au:    0.446480   -0.083761
   5 Au:    0.406119   -0.266134
   6 Au:   -0.121204    0.003708
   7 Au:    0.088085   -0.039638
   8 Au:    0.465267   -0.055500
   9 Au:    0.478686   -0.032898
  10 Au:   -0.401342   -0.079675
  11 Au:    0.573216   -0.074239
  12 Au:    0.425355   -0.180664
  13 Au:    0.322966   -0.000685
  14 Au:    0.204655   -0.036875
  15 Au:    0.345885   -0.120060
  16 Cr:   -4.123373    3.059129
Sum of atomic charges         :    0.0000000

LOEWDIN ATOMIC CHARGES AND SPIN POPULATIONS
-------------------------------------------
   0 Au:    0.092513   -0.080325
   1 Au:    0.140938   -0.116284
   2 Au:   -0.049226   -0.022905
   3 Au:    0.038648   -0.055185
   4 Au:    0.157440   -0.104958
   5 Au:    0.105559   -0.166133
   6 Au:   -0.041837   -0.058889
   7 Au:    0.050137   -0.053834
   8 Au:    0.151434   -0.085890
   9 Au:    0.126805   -0.074361
  10 Au:   -0.012434   -0.063227
  11 Au:    0.122242   -0.118439
  12 Au:    0.132605   -0.152307
  13 Au:    0.008533   -0.025181
  14 Au:    0.051420   -0.054052
  15 Au:    0.095784   -0.115657
  16 Cr:   -1.170562    3.347626

  Mayer bond orders larger than 0.100000
B(  0-Au,  6-Au) :   0.4380 B(  0-Au,  8-Au) :   0.1112 B(  0-Au,  9-Au) :   0.2052
B(  0-Au, 10-Au) :   0.2219 B(  0-Au, 16-Cr) :   0.5850 B(  1-Au,  3-Au) :   0.2200
B(  1-Au,  4-Au) :   0.2374 B(  1-Au, 12-Au) :   0.2453 B(  1-Au, 15-Au) :   0.1474
B(  1-Au, 16-Cr) :   0.5603 B(  2-Au,  3-Au) :   0.4482 B(  2-Au,  5-Au) :   0.3275
B(  2-Au,  6-Au) :   0.2879 B(  2-Au,  7-Au) :   0.2429 B(  2-Au, 13-Au) :   0.1593
B(  2-Au, 14-Au) :   0.1572 B(  2-Au, 16-Cr) :   0.2031 B(  3-Au,  4-Au) :   0.1432
B(  3-Au,  7-Au) :   0.1422 B(  3-Au, 14-Au) :   0.2503 B(  3-Au, 15-Au) :   0.1088
B(  3-Au, 16-Cr) :   0.4924 B(  4-Au,  7-Au) :   0.1835 B(  4-Au,  8-Au) :   0.2703
B(  4-Au, 16-Cr) :   0.5916 B(  5-Au,  6-Au) :   0.3803 B(  5-Au, 13-Au) :   0.2152
B(  5-Au, 16-Cr) :   0.1169 B(  6-Au,  7-Au) :   0.2068 B(  6-Au, 10-Au) :   0.2356
B(  6-Au, 13-Au) :   0.2037 B(  6-Au, 16-Cr) :   0.2793 B(  7-Au,  8-Au) :   0.2496
B(  7-Au, 12-Au) :   0.1009 B(  7-Au, 16-Cr) :   0.5292 B(  8-Au,  9-Au) :   0.2576
B(  8-Au, 16-Cr) :   0.5642 B(  9-Au, 11-Au) :   0.1704 B(  9-Au, 12-Au) :   0.2021
B(  9-Au, 16-Cr) :   0.4487 B( 10-Au, 11-Au) :   0.2922 B( 10-Au, 13-Au) :   0.4341
B( 10-Au, 14-Au) :   0.3260 B( 10-Au, 15-Au) :   0.1693 B( 10-Au, 16-Cr) :   0.3203
B( 11-Au, 12-Au) :   0.1201 B( 11-Au, 15-Au) :   0.1842 B( 11-Au, 16-Cr) :   0.5486
B( 12-Au, 16-Cr) :   0.6471 B( 13-Au, 14-Au) :   0.2945 B( 14-Au, 15-Au) :   0.2039
B( 14-Au, 16-Cr) :   0.2535 B( 15-Au, 16-Cr) :   0.6573

FINAL SINGLE POINT ENERGY     -3218.025248453734

DIPOLE MOMENT
-------------
                                X             Y             Z
Electronic contribution:     40.78468      28.09312       7.40634
Nuclear contribution   :    -41.26525     -28.42697      -7.52416
                        -----------------------------------------
Total Dipole Moment    :     -0.48057      -0.33385      -0.11781
                        -----------------------------------------
Magnitude (a.u.)       :      0.59690
Magnitude (Debye)      :      1.51719

Rotational constants in cm-1:     0.001102     0.000661     0.000645
Rotational constants in MHz :    33.036753    19.805524    19.327628

                             ****ORCA TERMINATED NORMALLY****
TOTAL RUN TIME: 0 days 0 hours 48 minutes 23 seconds 437 msec
