                         Program Version 5.0.3 -  RELEASE  -
|  1> !RI-B2PLYP def2-TZVP def2-TZVP/C
|  2> !RIJCOSX VERYSLOWCONV
|  3>
|  4> %scf
|  5>   AutoTRAHIter 200
|  6>   maxiter 400
|  7> end
|  8>
|  9>
| 10> %pal nprocs 6 end
| 11>
| 12> *xyzfile 0 5 pbe.xyz
| 13>
| 14> $new_job
| 15>
| 16> !RI-B2PLYP def2-TZVP def2-TZVP/C
| 17> !RIJCOSX VERYSLOWCONV
| 18>
| 19> %scf
| 20>   AutoTRAHIter 200
| 21>   maxiter 400
| 22> end
| 23>
| 24>
| 25> %pal nprocs 6 end
| 26>
| 27> *xyzfile 0 3 pbe.xyz
| 28>
| 29>
| 30>
| 31>
| 32>
| 33>                          ****END OF INPUT****
 Total Charge           Charge          ....    0
 Multiplicity           Mult            ....    5
 Number of Electrons    NEL             ....  328
MP2 TOTAL ENERGY:    -3213.724006351 Eh
FINAL SINGLE POINT ENERGY     -3213.724006350937

CARTESIAN COORDINATES (ANGSTROEM)
---------------------------------
  Au     9.796898    8.275430   10.346947
  Au    10.018345    6.002777    8.757944
  Au     7.310273    9.502772   10.141337
  Au     5.262915    5.487197    8.547052
  Au     7.480229    6.732565    9.714829
  Au     5.144164    8.301494    8.903928
  Au    11.097653    8.403125    7.873384
  Au     9.465279   10.520299    8.713260
  Au     7.833197    4.815303    7.538404
  Au     9.483880    9.737256    6.046784
  Au     9.357228    6.927450    6.182528
  Au     7.221646    5.680316    4.901455
  Au     7.308379    8.523364    4.834273
  Au     4.512267    5.972377    5.796691
  Au     4.796129    8.814475    6.130623
  Au     7.017658    9.951537    7.377466
  Cr     6.638738    7.144431    7.020043

 Multiplicity           Mult            ....    3
 Number of Electrons    NEL             ....  328
 Basis Dimension        Dim             ....  685

ORBITAL ENERGIES
----------------
                 SPIN UP ORBITALS
  NO   OCC          E(Eh)            E(eV)
   0   1.0000    -217.768535     -5925.7831
   1   1.0000     -25.457119      -692.7234
   2   1.0000     -21.596854      -587.6803
   3   1.0000     -21.596203      -587.6626
   4   1.0000     -21.590308      -587.5021
   5   1.0000      -4.407820      -119.9429
   6   1.0000      -4.407575      -119.9362
   7   1.0000      -4.406269      -119.9007
   8   1.0000      -4.405561      -119.8814
   9   1.0000      -4.404510      -119.8528
  10   1.0000      -4.403229      -119.8179
  11   1.0000      -4.402828      -119.8070
  12   1.0000      -4.401451      -119.7696
  13   1.0000      -4.399956      -119.7289
  14   1.0000      -4.394766      -119.5877
  15   1.0000      -4.392584      -119.5283
  16   1.0000      -4.390779      -119.4792
  17   1.0000      -4.388009      -119.4038
  18   1.0000      -4.386189      -119.3543
  19   1.0000      -4.383773      -119.2885
  20   1.0000      -4.379219      -119.1646
  21   1.0000      -3.245251       -88.3078
  22   1.0000      -2.528800       -68.8122
  23   1.0000      -2.528315       -68.7989
  24   1.0000      -2.526924       -68.7611
  25   1.0000      -2.526347       -68.7454
  26   1.0000      -2.525746       -68.7290
  27   1.0000      -2.525192       -68.7140
  28   1.0000      -2.524904       -68.7061
  29   1.0000      -2.524243       -68.6881
  30   1.0000      -2.524047       -68.6828
  31   1.0000      -2.523581       -68.6701
  32   1.0000      -2.523209       -68.6600
  33   1.0000      -2.522574       -68.6427
  34   1.0000      -2.522249       -68.6339
  35   1.0000      -2.521800       -68.6217
  36   1.0000      -2.521556       -68.6150
  37   1.0000      -2.521355       -68.6096
  38   1.0000      -2.520903       -68.5973
  39   1.0000      -2.520166       -68.5772
  40   1.0000      -2.519636       -68.5628
  41   1.0000      -2.518870       -68.5419
  42   1.0000      -2.518550       -68.5332
  43   1.0000      -2.517399       -68.5019
  44   1.0000      -2.517077       -68.4931
  45   1.0000      -2.516337       -68.4730
  46   1.0000      -2.515808       -68.4586
  47   1.0000      -2.515368       -68.4467
  48   1.0000      -2.514517       -68.4235
  49   1.0000      -2.513592       -68.3983
  50   1.0000      -2.512134       -68.3586
  51   1.0000      -2.511623       -68.3447
  52   1.0000      -2.511052       -68.3292
  53   1.0000      -2.510338       -68.3098
  54   1.0000      -2.509607       -68.2899
  55   1.0000      -2.509023       -68.2740
  56   1.0000      -2.507907       -68.2436
  57   1.0000      -2.507375       -68.2291
  58   1.0000      -2.506633       -68.2090
  59   1.0000      -2.506044       -68.1929
  60   1.0000      -2.504366       -68.1473
  61   1.0000      -2.504013       -68.1376
  62   1.0000      -2.502721       -68.1025
  63   1.0000      -2.501942       -68.0813
  64   1.0000      -2.500672       -68.0467
  65   1.0000      -2.499890       -68.0255
  66   1.0000      -2.499233       -68.0076
  67   1.0000      -2.498605       -67.9905
  68   1.0000      -2.495052       -67.8938
  69   1.0000      -2.494908       -67.8899
  70   1.0000      -2.136648       -58.1411
  71   1.0000      -2.127056       -57.8801
  72   1.0000      -2.125654       -57.8420
  73   1.0000      -0.505261       -13.7489
  74   1.0000      -0.495901       -13.4942
  75   1.0000      -0.480190       -13.0666
  76   1.0000      -0.473587       -12.8869
  77   1.0000      -0.471147       -12.8206
  78   1.0000      -0.468469       -12.7477
  79   1.0000      -0.466378       -12.6908
  80   1.0000      -0.464524       -12.6403
  81   1.0000      -0.463237       -12.6053
  82   1.0000      -0.460909       -12.5420
  83   1.0000      -0.457730       -12.4555
  84   1.0000      -0.457251       -12.4424
  85   1.0000      -0.456932       -12.4337
  86   1.0000      -0.453499       -12.3403
  87   1.0000      -0.453275       -12.3342
  88   1.0000      -0.452282       -12.3072
  89   1.0000      -0.451282       -12.2800
  90   1.0000      -0.448334       -12.1998
  91   1.0000      -0.447354       -12.1731
  92   1.0000      -0.443899       -12.0791
  93   1.0000      -0.442934       -12.0528
  94   1.0000      -0.442367       -12.0374
  95   1.0000      -0.442080       -12.0296
  96   1.0000      -0.441765       -12.0210
  97   1.0000      -0.437918       -11.9163
  98   1.0000      -0.432352       -11.7649
  99   1.0000      -0.429658       -11.6916
 100   1.0000      -0.427220       -11.6252
 101   1.0000      -0.425126       -11.5683
 102   1.0000      -0.423939       -11.5360
 103   1.0000      -0.420646       -11.4464
 104   1.0000      -0.420017       -11.4292
 105   1.0000      -0.418128       -11.3778
 106   1.0000      -0.411128       -11.1874
 107   1.0000      -0.409285       -11.1372
 108   1.0000      -0.408747       -11.1226
 109   1.0000      -0.406887       -11.0720
 110   1.0000      -0.406386       -11.0583
 111   1.0000      -0.404910       -11.0182
 112   1.0000      -0.403290       -10.9741
 113   1.0000      -0.403165       -10.9707
 114   1.0000      -0.401891       -10.9360
 115   1.0000      -0.401302       -10.9200
 116   1.0000      -0.398034       -10.8311
 117   1.0000      -0.394048       -10.7226
 118   1.0000      -0.393755       -10.7146
 119   1.0000      -0.390663       -10.6305
 120   1.0000      -0.388125       -10.5614
 121   1.0000      -0.387881       -10.5548
 122   1.0000      -0.382657       -10.4126
 123   1.0000      -0.381796       -10.3892
 124   1.0000      -0.381265       -10.3748
 125   1.0000      -0.372758       -10.1433
 126   1.0000      -0.372207       -10.1283
 127   1.0000      -0.371459       -10.1079
 128   1.0000      -0.370818       -10.0905
 129   1.0000      -0.368908       -10.0385
 130   1.0000      -0.364878        -9.9288
 131   1.0000      -0.364234        -9.9113
 132   1.0000      -0.362336        -9.8597
 133   1.0000      -0.362253        -9.8574
 134   1.0000      -0.356379        -9.6976
 135   1.0000      -0.355779        -9.6812
 136   1.0000      -0.355024        -9.6607
 137   1.0000      -0.353845        -9.6286
 138   1.0000      -0.353001        -9.6056
 139   1.0000      -0.351989        -9.5781
 140   1.0000      -0.349885        -9.5208
 141   1.0000      -0.345246        -9.3946
 142   1.0000      -0.344701        -9.3798
 143   1.0000      -0.344318        -9.3694
 144   1.0000      -0.343731        -9.3534
 145   1.0000      -0.343240        -9.3400
 146   1.0000      -0.342873        -9.3300
 147   1.0000      -0.339792        -9.2462
 148   1.0000      -0.336851        -9.1662
 149   1.0000      -0.335885        -9.1399
 150   1.0000      -0.331621        -9.0239
 151   1.0000      -0.331449        -9.0192
 152   1.0000      -0.330861        -9.0032
 153   1.0000      -0.328301        -8.9335
 154   1.0000      -0.328117        -8.9285
 155   1.0000      -0.327622        -8.9150
 156   1.0000      -0.324092        -8.8190
 157   1.0000      -0.323103        -8.7921
 158   1.0000      -0.321591        -8.7509
 159   1.0000      -0.309525        -8.4226
 160   1.0000      -0.309073        -8.4103
 161   1.0000      -0.247811        -6.7433
 162   1.0000      -0.241147        -6.5619
 163   1.0000      -0.237960        -6.4752
 164   1.0000      -0.223059        -6.0697
 165   0.0000      -0.135156        -3.6778
 166   0.0000      -0.087114        -2.3705
 167   0.0000      -0.086754        -2.3607
 168   0.0000      -0.077478        -2.1083
 169   0.0000      -0.075096        -2.0435

                 SPIN DOWN ORBITALS
  NO   OCC          E(Eh)            E(eV)
   0   1.0000    -217.767206     -5925.7469
   1   1.0000     -25.387576      -690.8311
   2   1.0000     -21.538629      -586.0959
   3   1.0000     -21.536532      -586.0388
   4   1.0000     -21.515407      -585.4640
   5   1.0000      -4.407877      -119.9444
   6   1.0000      -4.407766      -119.9414
   7   1.0000      -4.406531      -119.9078
   8   1.0000      -4.405232      -119.8724
   9   1.0000      -4.404894      -119.8633
  10   1.0000      -4.403746      -119.8320
  11   1.0000      -4.402032      -119.7854
  12   1.0000      -4.401403      -119.7683
  13   1.0000      -4.399454      -119.7152
  14   1.0000      -4.396373      -119.6314
  15   1.0000      -4.393763      -119.5604
  16   1.0000      -4.391611      -119.5018
  17   1.0000      -4.388510      -119.4174
  18   1.0000      -4.386803      -119.3710
  19   1.0000      -4.384506      -119.3085
  20   1.0000      -4.379437      -119.1705
  21   1.0000      -3.032757       -82.5255
  22   1.0000      -2.527712       -68.7825
  23   1.0000      -2.527109       -68.7661
  24   1.0000      -2.526314       -68.7445
  25   1.0000      -2.526035       -68.7369
  26   1.0000      -2.525536       -68.7233
  27   1.0000      -2.525165       -68.7132
  28   1.0000      -2.524648       -68.6992
  29   1.0000      -2.524112       -68.6846
  30   1.0000      -2.523497       -68.6679
  31   1.0000      -2.523393       -68.6650
  32   1.0000      -2.522702       -68.6462
  33   1.0000      -2.522568       -68.6426
  34   1.0000      -2.521625       -68.6169
  35   1.0000      -2.521376       -68.6101
  36   1.0000      -2.520871       -68.5964
  37   1.0000      -2.520474       -68.5856
  38   1.0000      -2.519914       -68.5703
  39   1.0000      -2.519404       -68.5565
  40   1.0000      -2.519162       -68.5499
  41   1.0000      -2.518394       -68.5290
  42   1.0000      -2.518036       -68.5192
  43   1.0000      -2.517806       -68.5130
  44   1.0000      -2.516590       -68.4799
  45   1.0000      -2.516402       -68.4748
  46   1.0000      -2.515849       -68.4597
  47   1.0000      -2.515341       -68.4459
  48   1.0000      -2.514674       -68.4278
  49   1.0000      -2.514007       -68.4096
  50   1.0000      -2.513788       -68.4037
  51   1.0000      -2.512928       -68.3802
  52   1.0000      -2.512645       -68.3726
  53   1.0000      -2.511396       -68.3386
  54   1.0000      -2.510848       -68.3237
  55   1.0000      -2.509855       -68.2966
  56   1.0000      -2.508591       -68.2622
  57   1.0000      -2.507818       -68.2412
  58   1.0000      -2.507437       -68.2308
  59   1.0000      -2.506200       -68.1972
  60   1.0000      -2.504962       -68.1635
  61   1.0000      -2.504366       -68.1473
  62   1.0000      -2.503273       -68.1175
  63   1.0000      -2.502417       -68.0942
  64   1.0000      -2.501311       -68.0641
  65   1.0000      -2.500923       -68.0536
  66   1.0000      -2.499051       -68.0026
  67   1.0000      -2.497182       -67.9518
  68   1.0000      -2.494510       -67.8791
  69   1.0000      -2.494407       -67.8763
  70   1.0000      -1.904813       -51.8326
  71   1.0000      -1.900266       -51.7089
  72   1.0000      -1.851259       -50.3753
  73   1.0000      -0.497858       -13.5474
  74   1.0000      -0.474277       -12.9057
  75   1.0000      -0.473961       -12.8971
  76   1.0000      -0.469971       -12.7886
  77   1.0000      -0.466013       -12.6809
  78   1.0000      -0.465714       -12.6727
  79   1.0000      -0.465128       -12.6568
  80   1.0000      -0.462641       -12.5891
  81   1.0000      -0.462595       -12.5878
  82   1.0000      -0.461421       -12.5559
  83   1.0000      -0.456496       -12.4219
  84   1.0000      -0.456401       -12.4193
  85   1.0000      -0.455689       -12.3999
  86   1.0000      -0.452874       -12.3233
  87   1.0000      -0.452731       -12.3194
  88   1.0000      -0.452405       -12.3106
  89   1.0000      -0.449590       -12.2340
  90   1.0000      -0.448155       -12.1949
  91   1.0000      -0.444298       -12.0900
  92   1.0000      -0.443715       -12.0741
  93   1.0000      -0.443016       -12.0551
  94   1.0000      -0.441820       -12.0225
  95   1.0000      -0.439485       -11.9590
  96   1.0000      -0.439441       -11.9578
  97   1.0000      -0.437537       -11.9060
  98   1.0000      -0.433450       -11.7948
  99   1.0000      -0.429260       -11.6808
 100   1.0000      -0.427929       -11.6445
 101   1.0000      -0.423217       -11.5163
 102   1.0000      -0.421781       -11.4773
 103   1.0000      -0.420630       -11.4459
 104   1.0000      -0.417005       -11.3473
 105   1.0000      -0.416892       -11.3442
 106   1.0000      -0.411449       -11.1961
 107   1.0000      -0.408750       -11.1226
 108   1.0000      -0.407529       -11.0894
 109   1.0000      -0.407198       -11.0804
 110   1.0000      -0.405149       -11.0247
 111   1.0000      -0.403353       -10.9758
 112   1.0000      -0.402626       -10.9560
 113   1.0000      -0.398675       -10.8485
 114   1.0000      -0.396306       -10.7840
 115   1.0000      -0.396103       -10.7785
 116   1.0000      -0.392710       -10.6862
 117   1.0000      -0.391887       -10.6638
 118   1.0000      -0.388999       -10.5852
 119   1.0000      -0.387305       -10.5391
 120   1.0000      -0.385951       -10.5023
 121   1.0000      -0.384848       -10.4723
 122   1.0000      -0.381774       -10.3886
 123   1.0000      -0.379090       -10.3156
 124   1.0000      -0.377225       -10.2648
 125   1.0000      -0.373906       -10.1745
 126   1.0000      -0.372680       -10.1411
 127   1.0000      -0.372250       -10.1294
 128   1.0000      -0.367345        -9.9960
 129   1.0000      -0.365209        -9.9378
 130   1.0000      -0.364889        -9.9291
 131   1.0000      -0.364294        -9.9130
 132   1.0000      -0.362197        -9.8559
 133   1.0000      -0.361081        -9.8255
 134   1.0000      -0.356077        -9.6894
 135   1.0000      -0.355627        -9.6771
 136   1.0000      -0.354351        -9.6424
 137   1.0000      -0.353603        -9.6220
 138   1.0000      -0.352848        -9.6015
 139   1.0000      -0.352084        -9.5807
 140   1.0000      -0.347137        -9.4461
 141   1.0000      -0.346746        -9.4354
 142   1.0000      -0.346353        -9.4248
 143   1.0000      -0.345546        -9.4028
 144   1.0000      -0.344452        -9.3730
 145   1.0000      -0.343812        -9.3556
 146   1.0000      -0.337285        -9.1780
 147   1.0000      -0.336825        -9.1655
 148   1.0000      -0.334106        -9.0915
 149   1.0000      -0.334020        -9.0892
 150   1.0000      -0.331326        -9.0158
 151   1.0000      -0.331074        -9.0090
 152   1.0000      -0.325936        -8.8692
 153   1.0000      -0.325514        -8.8577
 154   1.0000      -0.322404        -8.7730
 155   1.0000      -0.319788        -8.7019
 156   1.0000      -0.318345        -8.6626
 157   1.0000      -0.265691        -7.2298
 158   1.0000      -0.250179        -6.8077
 159   1.0000      -0.249080        -6.7778
 160   1.0000      -0.226140        -6.1536
 161   1.0000      -0.220264        -5.9937
 162   1.0000      -0.174793        -4.7564
 163   0.0000      -0.088345        -2.4040
 164   0.0000      -0.087652        -2.3851
 165   0.0000      -0.077623        -2.1122
 166   0.0000      -0.075341        -2.0501
 167   0.0000      -0.073113        -1.9895

MULLIKEN ATOMIC CHARGES AND SPIN POPULATIONS
--------------------------------------------
   0 Au:    0.204056   -0.067791
   1 Au:    0.138812   -0.056762
   2 Au:    0.138657   -0.035282
   3 Au:    0.504610    0.008043
   4 Au:   -0.258377   -0.059650
   5 Au:    0.543308   -0.154201
   6 Au:    0.223194   -0.129931
   7 Au:    0.216219   -0.100820
   8 Au:    0.517712   -0.096724
   9 Au:    0.135763   -0.084918
  10 Au:   -0.192173   -0.192107
  11 Au:    0.512962    0.041835
  12 Au:    0.480989   -0.016409
  13 Au:    0.297160   -0.374179
  14 Au:    0.509053    0.027474
  15 Au:   -0.221851   -0.131847
  16 Cr:   -3.750095    3.423271
Sum of atomic charges         :    0.0000000

LOEWDIN ATOMIC CHARGES AND SPIN POPULATIONS
-------------------------------------------
   0 Au:   -0.014104   -0.091114
   1 Au:    0.053610   -0.095092
   2 Au:    0.046359   -0.073316
   3 Au:    0.152013   -0.090158
   4 Au:   -0.009667   -0.062750
   5 Au:    0.100281   -0.108581
   6 Au:    0.005407   -0.135131
   7 Au:   -0.002870   -0.114763
   8 Au:    0.097651   -0.098928
   9 Au:    0.062039   -0.121666
  10 Au:    0.001472   -0.099433
  11 Au:    0.134086   -0.050610
  12 Au:    0.093739   -0.086007
  13 Au:    0.085111   -0.209761
  14 Au:    0.141760   -0.068455
  15 Au:   -0.003488   -0.082749
  16 Cr:   -0.943401    3.588512

  Mayer bond orders larger than 0.100000
B(  0-Au,  1-Au) :   0.2043 B(  0-Au,  2-Au) :   0.2074 B(  0-Au,  4-Au) :   0.3506
B(  0-Au,  6-Au) :   0.2816 B(  0-Au,  7-Au) :   0.2724 B(  1-Au,  4-Au) :   0.2763
B(  1-Au,  6-Au) :   0.2021 B(  1-Au,  8-Au) :   0.1312 B(  1-Au, 10-Au) :   0.2991
B(  1-Au, 16-Cr) :   0.3933 B(  2-Au,  4-Au) :   0.2875 B(  2-Au,  5-Au) :   0.1246
B(  2-Au,  7-Au) :   0.2050 B(  2-Au, 15-Au) :   0.2959 B(  2-Au, 16-Cr) :   0.3697
B(  3-Au,  4-Au) :   0.1362 B(  3-Au,  5-Au) :   0.1811 B(  3-Au,  8-Au) :   0.1865
B(  3-Au, 12-Au) :   0.1537 B(  3-Au, 13-Au) :   0.1652 B(  3-Au, 16-Cr) :   0.5603
B(  4-Au, 16-Cr) :   0.4128 B(  5-Au, 11-Au) :   0.1585 B(  5-Au, 14-Au) :   0.1734
B(  5-Au, 15-Au) :   0.1042 B(  5-Au, 16-Cr) :   0.4184 B(  6-Au,  7-Au) :   0.2933
B(  6-Au,  9-Au) :   0.1988 B(  6-Au, 10-Au) :   0.3004 B(  7-Au,  9-Au) :   0.2011
B(  7-Au, 15-Au) :   0.3214 B(  8-Au, 10-Au) :   0.1050 B(  8-Au, 11-Au) :   0.1762
B(  8-Au, 14-Au) :   0.1576 B(  8-Au, 16-Cr) :   0.4578 B(  9-Au, 10-Au) :   0.2878
B(  9-Au, 12-Au) :   0.1418 B(  9-Au, 15-Au) :   0.2786 B(  9-Au, 16-Cr) :   0.4216
B( 10-Au, 11-Au) :   0.1307 B( 10-Au, 16-Cr) :   0.3988 B( 11-Au, 12-Au) :   0.1839
B( 11-Au, 13-Au) :   0.1722 B( 11-Au, 16-Cr) :   0.5064 B( 12-Au, 14-Au) :   0.1906
B( 12-Au, 16-Cr) :   0.5085 B( 13-Au, 14-Au) :   0.1707 B( 13-Au, 16-Cr) :   0.4603
B( 14-Au, 15-Au) :   0.1347 B( 14-Au, 16-Cr) :   0.5254 B( 15-Au, 16-Cr) :   0.4105

MP2 TOTAL ENERGY:    -3213.687735526 Eh
FINAL SINGLE POINT ENERGY     -3213.687735526208

DIPOLE MOMENT
-------------
                                X             Y             Z
Electronic contribution:     36.73105      20.30137      20.56299
Nuclear contribution   :    -37.24712     -20.59476     -20.92427
                        -----------------------------------------
Total Dipole Moment    :     -0.51606      -0.29339      -0.36128
                        -----------------------------------------
Magnitude (a.u.)       :      0.69493
Magnitude (Debye)      :      1.76637

Rotational constants in cm-1:     0.001020     0.000727     0.000727
Rotational constants in MHz :    30.589439    21.787592    21.782688

                             ****ORCA TERMINATED NORMALLY****
TOTAL RUN TIME: 0 days 1 hours 46 minutes 1 seconds 789 msec
