                         Program Version 5.0.3 -  RELEASE  -
|  1> !R2SCAN def2-TZVP VERYSLOWCONV
|  2> !KDIIS
|  3> %scf
|  4>   AutoTRAHIter 200
|  5>   maxiter 400
|  6> end
|  7>
|  8> %pal nprocs 6 end
|  9>
| 10> *xyzfile 0 5 pbe.xyz
| 11>
| 12> $new_job
| 13>
| 14> !R2SCAN def2-TZVP VERYSLOWCONV
| 15> !KDIIS
| 16> %scf
| 17>   AutoTRAHIter 200
| 18>   maxiter 400
| 19> end
| 20>
| 21>
| 22> %pal nprocs 6 end
| 23>
| 24> *xyzfile 0 3 pbe.xyz
| 25>
| 26>
| 27>
| 28>
| 29>
| 30>                          ****END OF INPUT****
 Total Charge           Charge          ....    0
 Multiplicity           Mult            ....    5
 Number of Electrons    NEL             ....  328
FINAL SINGLE POINT ENERGY     -3218.028267163407

CARTESIAN COORDINATES (ANGSTROEM)
---------------------------------
  Au     9.796898    8.275430   10.346947
  Au    10.018345    6.002777    8.757944
  Au     7.310273    9.502772   10.141337
  Au     5.262915    5.487197    8.547052
  Au     7.480229    6.732565    9.714829
  Au     5.144164    8.301494    8.903928
  Au    11.097653    8.403125    7.873384
  Au     9.465279   10.520299    8.713260
  Au     7.833197    4.815303    7.538404
  Au     9.483880    9.737256    6.046784
  Au     9.357228    6.927450    6.182528
  Au     7.221646    5.680316    4.901455
  Au     7.308379    8.523364    4.834273
  Au     4.512267    5.972377    5.796691
  Au     4.796129    8.814475    6.130623
  Au     7.017658    9.951537    7.377466
  Cr     6.638738    7.144431    7.020043

 Multiplicity           Mult            ....    3
 Number of Electrons    NEL             ....  328
 Basis Dimension        Dim             ....  685

ORBITAL ENERGIES
----------------
                 SPIN UP ORBITALS
  NO   OCC          E(Eh)            E(eV)
   0   1.0000    -215.298215     -5858.5623
   1   1.0000     -24.600090      -669.4025
   2   1.0000     -20.868285      -567.8549
   3   1.0000     -20.868273      -567.8546
   4   1.0000     -20.862399      -567.6947
   5   1.0000      -4.127018      -112.3019
   6   1.0000      -4.126910      -112.2989
   7   1.0000      -4.126750      -112.2946
   8   1.0000      -4.124787      -112.2412
   9   1.0000      -4.124632      -112.2369
  10   1.0000      -4.124395      -112.2305
  11   1.0000      -4.121372      -112.1482
  12   1.0000      -4.121127      -112.1416
  13   1.0000      -4.120600      -112.1272
  14   1.0000      -4.113524      -111.9347
  15   1.0000      -4.113522      -111.9346
  16   1.0000      -4.113474      -111.9333
  17   1.0000      -4.107089      -111.7596
  18   1.0000      -4.106789      -111.7514
  19   1.0000      -4.106324      -111.7388
  20   1.0000      -4.099811      -111.5615
  21   1.0000      -2.919871       -79.4537
  22   1.0000      -2.315784       -63.0157
  23   1.0000      -2.315634       -63.0116
  24   1.0000      -2.315476       -63.0073
  25   1.0000      -2.313977       -62.9665
  26   1.0000      -2.313684       -62.9585
  27   1.0000      -2.313156       -62.9442
  28   1.0000      -2.312648       -62.9303
  29   1.0000      -2.312528       -62.9271
  30   1.0000      -2.312140       -62.9165
  31   1.0000      -2.311710       -62.9048
  32   1.0000      -2.310963       -62.8845
  33   1.0000      -2.310800       -62.8801
  34   1.0000      -2.310445       -62.8704
  35   1.0000      -2.310397       -62.8691
  36   1.0000      -2.310091       -62.8608
  37   1.0000      -2.309606       -62.8476
  38   1.0000      -2.309338       -62.8403
  39   1.0000      -2.309319       -62.8398
  40   1.0000      -2.307751       -62.7971
  41   1.0000      -2.307588       -62.7927
  42   1.0000      -2.307352       -62.7862
  43   1.0000      -2.304909       -62.7198
  44   1.0000      -2.304613       -62.7117
  45   1.0000      -2.304413       -62.7063
  46   1.0000      -2.304199       -62.7004
  47   1.0000      -2.303965       -62.6941
  48   1.0000      -2.303771       -62.6888
  49   1.0000      -2.301563       -62.6287
  50   1.0000      -2.301516       -62.6274
  51   1.0000      -2.300977       -62.6128
  52   1.0000      -2.299600       -62.5753
  53   1.0000      -2.299526       -62.5733
  54   1.0000      -2.299497       -62.5725
  55   1.0000      -2.297504       -62.5183
  56   1.0000      -2.297492       -62.5179
  57   1.0000      -2.297341       -62.5138
  58   1.0000      -2.294854       -62.4462
  59   1.0000      -2.294698       -62.4419
  60   1.0000      -2.294584       -62.4388
  61   1.0000      -2.293568       -62.4112
  62   1.0000      -2.292375       -62.3787
  63   1.0000      -2.291928       -62.3665
  64   1.0000      -2.290195       -62.3194
  65   1.0000      -2.288520       -62.2738
  66   1.0000      -2.288313       -62.2682
  67   1.0000      -2.288123       -62.2630
  68   1.0000      -2.284145       -62.1547
  69   1.0000      -2.283860       -62.1470
  70   1.0000      -1.868647       -50.8485
  71   1.0000      -1.868632       -50.8481
  72   1.0000      -1.862034       -50.6685
  73   1.0000      -0.433361       -11.7923
  74   1.0000      -0.395831       -10.7711
  75   1.0000      -0.395517       -10.7626
  76   1.0000      -0.391722       -10.6593
  77   1.0000      -0.380818       -10.3626
  78   1.0000      -0.380733       -10.3603
  79   1.0000      -0.374454       -10.1894
  80   1.0000      -0.370060       -10.0698
  81   1.0000      -0.369912       -10.0658
  82   1.0000      -0.368253       -10.0207
  83   1.0000      -0.365218        -9.9381
  84   1.0000      -0.365145        -9.9361
  85   1.0000      -0.364310        -9.9134
  86   1.0000      -0.361605        -9.8398
  87   1.0000      -0.361541        -9.8380
  88   1.0000      -0.359749        -9.7893
  89   1.0000      -0.359549        -9.7838
  90   1.0000      -0.359371        -9.7790
  91   1.0000      -0.355829        -9.6826
  92   1.0000      -0.350702        -9.5431
  93   1.0000      -0.350685        -9.5426
  94   1.0000      -0.346651        -9.4329
  95   1.0000      -0.346518        -9.4292
  96   1.0000      -0.346136        -9.4188
  97   1.0000      -0.345988        -9.4148
  98   1.0000      -0.339171        -9.2293
  99   1.0000      -0.337022        -9.1708
 100   1.0000      -0.337005        -9.1704
 101   1.0000      -0.334557        -9.1038
 102   1.0000      -0.329737        -8.9726
 103   1.0000      -0.328779        -8.9465
 104   1.0000      -0.327763        -8.9189
 105   1.0000      -0.327369        -8.9082
 106   1.0000      -0.326175        -8.8757
 107   1.0000      -0.319444        -8.6925
 108   1.0000      -0.319093        -8.6830
 109   1.0000      -0.316324        -8.6076
 110   1.0000      -0.313446        -8.5293
 111   1.0000      -0.313123        -8.5205
 112   1.0000      -0.312927        -8.5152
 113   1.0000      -0.311220        -8.4687
 114   1.0000      -0.310146        -8.4395
 115   1.0000      -0.309849        -8.4314
 116   1.0000      -0.302561        -8.2331
 117   1.0000      -0.302316        -8.2264
 118   1.0000      -0.302069        -8.2197
 119   1.0000      -0.297440        -8.0937
 120   1.0000      -0.297425        -8.0933
 121   1.0000      -0.296735        -8.0746
 122   1.0000      -0.294295        -8.0082
 123   1.0000      -0.294021        -8.0007
 124   1.0000      -0.291406        -7.9296
 125   1.0000      -0.284871        -7.7517
 126   1.0000      -0.283938        -7.7263
 127   1.0000      -0.283790        -7.7223
 128   1.0000      -0.283137        -7.7045
 129   1.0000      -0.278342        -7.5741
 130   1.0000      -0.278215        -7.5706
 131   1.0000      -0.277974        -7.5641
 132   1.0000      -0.274482        -7.4690
 133   1.0000      -0.274422        -7.4674
 134   1.0000      -0.269418        -7.3312
 135   1.0000      -0.267999        -7.2926
 136   1.0000      -0.266901        -7.2627
 137   1.0000      -0.266896        -7.2626
 138   1.0000      -0.264691        -7.2026
 139   1.0000      -0.264473        -7.1967
 140   1.0000      -0.264118        -7.1870
 141   1.0000      -0.261876        -7.1260
 142   1.0000      -0.261834        -7.1249
 143   1.0000      -0.260857        -7.0983
 144   1.0000      -0.259537        -7.0624
 145   1.0000      -0.258271        -7.0279
 146   1.0000      -0.258201        -7.0260
 147   1.0000      -0.255958        -6.9650
 148   1.0000      -0.255825        -6.9614
 149   1.0000      -0.249355        -6.7853
 150   1.0000      -0.249197        -6.7810
 151   1.0000      -0.249123        -6.7790
 152   1.0000      -0.249078        -6.7778
 153   1.0000      -0.248039        -6.7495
 154   1.0000      -0.245243        -6.6734
 155   1.0000      -0.245200        -6.6722
 156   1.0000      -0.242009        -6.5854
 157   1.0000      -0.229437        -6.2433
 158   1.0000      -0.225885        -6.1466
 159   1.0000      -0.225819        -6.1448
 160   1.0000      -0.223388        -6.0787
 161   1.0000      -0.223328        -6.0771
 162   1.0000      -0.207351        -5.6423
 163   1.0000      -0.207261        -5.6399
 164   1.0000      -0.204976        -5.5777
 165   0.0000      -0.184407        -5.0180
 166   0.0000      -0.184310        -5.0153
 167   0.0000      -0.146452        -3.9852
 168   0.0000      -0.136895        -3.7251
 169   0.0000      -0.136799        -3.7225

                 SPIN DOWN ORBITALS
  NO   OCC          E(Eh)            E(eV)
   0   1.0000    -215.297596     -5858.5454
   1   1.0000     -24.539151      -667.7443
   2   1.0000     -20.823739      -566.6427
   3   1.0000     -20.823711      -566.6420
   4   1.0000     -20.810687      -566.2876
   5   1.0000      -4.127213      -112.3072
   6   1.0000      -4.127115      -112.3045
   7   1.0000      -4.126979      -112.3008
   8   1.0000      -4.124391      -112.2304
   9   1.0000      -4.124271      -112.2271
  10   1.0000      -4.124092      -112.2222
  11   1.0000      -4.121347      -112.1476
  12   1.0000      -4.121124      -112.1415
  13   1.0000      -4.120623      -112.1278
  14   1.0000      -4.114510      -111.9615
  15   1.0000      -4.114505      -111.9614
  16   1.0000      -4.114463      -111.9602
  17   1.0000      -4.107612      -111.7738
  18   1.0000      -4.107322      -111.7659
  19   1.0000      -4.106879      -111.7538
  20   1.0000      -4.099377      -111.5497
  21   1.0000      -2.759387       -75.0867
  22   1.0000      -2.315481       -63.0074
  23   1.0000      -2.315352       -63.0039
  24   1.0000      -2.315214       -63.0002
  25   1.0000      -2.313409       -62.9511
  26   1.0000      -2.313175       -62.9447
  27   1.0000      -2.313037       -62.9409
  28   1.0000      -2.312941       -62.9383
  29   1.0000      -2.312798       -62.9344
  30   1.0000      -2.312339       -62.9219
  31   1.0000      -2.311754       -62.9060
  32   1.0000      -2.310717       -62.8778
  33   1.0000      -2.310692       -62.8771
  34   1.0000      -2.310269       -62.8656
  35   1.0000      -2.310155       -62.8625
  36   1.0000      -2.309699       -62.8501
  37   1.0000      -2.309634       -62.8483
  38   1.0000      -2.309244       -62.8377
  39   1.0000      -2.309112       -62.8341
  40   1.0000      -2.306798       -62.7712
  41   1.0000      -2.306669       -62.7676
  42   1.0000      -2.306491       -62.7628
  43   1.0000      -2.305155       -62.7265
  44   1.0000      -2.304900       -62.7195
  45   1.0000      -2.304329       -62.7040
  46   1.0000      -2.304289       -62.7029
  47   1.0000      -2.304101       -62.6978
  48   1.0000      -2.303689       -62.6866
  49   1.0000      -2.302425       -62.6522
  50   1.0000      -2.302386       -62.6511
  51   1.0000      -2.301915       -62.6383
  52   1.0000      -2.300692       -62.6050
  53   1.0000      -2.300637       -62.6035
  54   1.0000      -2.300611       -62.6028
  55   1.0000      -2.298413       -62.5430
  56   1.0000      -2.298399       -62.5426
  57   1.0000      -2.298255       -62.5387
  58   1.0000      -2.295528       -62.4645
  59   1.0000      -2.295316       -62.4587
  60   1.0000      -2.295115       -62.4532
  61   1.0000      -2.293962       -62.4219
  62   1.0000      -2.293086       -62.3981
  63   1.0000      -2.292687       -62.3872
  64   1.0000      -2.290654       -62.3319
  65   1.0000      -2.288989       -62.2866
  66   1.0000      -2.288606       -62.2761
  67   1.0000      -2.286806       -62.2271
  68   1.0000      -2.283564       -62.1389
  69   1.0000      -2.283303       -62.1318
  70   1.0000      -1.716117       -46.6979
  71   1.0000      -1.716050       -46.6961
  72   1.0000      -1.687058       -45.9072
  73   1.0000      -0.428115       -11.6496
  74   1.0000      -0.395541       -10.7632
  75   1.0000      -0.395276       -10.7560
  76   1.0000      -0.390170       -10.6171
  77   1.0000      -0.377400       -10.2696
  78   1.0000      -0.377374       -10.2689
  79   1.0000      -0.374774       -10.1981
  80   1.0000      -0.370602       -10.0846
  81   1.0000      -0.370374       -10.0784
  82   1.0000      -0.368516       -10.0278
  83   1.0000      -0.365251        -9.9390
  84   1.0000      -0.364952        -9.9309
  85   1.0000      -0.364885        -9.9290
  86   1.0000      -0.361508        -9.8371
  87   1.0000      -0.361270        -9.8307
  88   1.0000      -0.359076        -9.7709
  89   1.0000      -0.357574        -9.7301
  90   1.0000      -0.357414        -9.7257
  91   1.0000      -0.354729        -9.6527
  92   1.0000      -0.349916        -9.5217
  93   1.0000      -0.349890        -9.5210
  94   1.0000      -0.348007        -9.4697
  95   1.0000      -0.347354        -9.4520
  96   1.0000      -0.345629        -9.4050
  97   1.0000      -0.345537        -9.4026
  98   1.0000      -0.340214        -9.2577
  99   1.0000      -0.338195        -9.2027
 100   1.0000      -0.338163        -9.2019
 101   1.0000      -0.335451        -9.1281
 102   1.0000      -0.329866        -8.9761
 103   1.0000      -0.329179        -8.9574
 104   1.0000      -0.328153        -8.9295
 105   1.0000      -0.327869        -8.9218
 106   1.0000      -0.327463        -8.9107
 107   1.0000      -0.319935        -8.7059
 108   1.0000      -0.319492        -8.6938
 109   1.0000      -0.317527        -8.6404
 110   1.0000      -0.313857        -8.5405
 111   1.0000      -0.312622        -8.5069
 112   1.0000      -0.312261        -8.4971
 113   1.0000      -0.309539        -8.4230
 114   1.0000      -0.309302        -8.4165
 115   1.0000      -0.309015        -8.4087
 116   1.0000      -0.302784        -8.2392
 117   1.0000      -0.302419        -8.2292
 118   1.0000      -0.301078        -8.1927
 119   1.0000      -0.297517        -8.0959
 120   1.0000      -0.296548        -8.0695
 121   1.0000      -0.296387        -8.0651
 122   1.0000      -0.293914        -7.9978
 123   1.0000      -0.293626        -7.9900
 124   1.0000      -0.292229        -7.9520
 125   1.0000      -0.286173        -7.7872
 126   1.0000      -0.285033        -7.7561
 127   1.0000      -0.284887        -7.7522
 128   1.0000      -0.283896        -7.7252
 129   1.0000      -0.279072        -7.5939
 130   1.0000      -0.278937        -7.5903
 131   1.0000      -0.278707        -7.5840
 132   1.0000      -0.275431        -7.4949
 133   1.0000      -0.275353        -7.4927
 134   1.0000      -0.270141        -7.3509
 135   1.0000      -0.269205        -7.3254
 136   1.0000      -0.268512        -7.3066
 137   1.0000      -0.268479        -7.3057
 138   1.0000      -0.266414        -7.2495
 139   1.0000      -0.265374        -7.2212
 140   1.0000      -0.265256        -7.2180
 141   1.0000      -0.263183        -7.1616
 142   1.0000      -0.263128        -7.1601
 143   1.0000      -0.261679        -7.1207
 144   1.0000      -0.260588        -7.0910
 145   1.0000      -0.259489        -7.0611
 146   1.0000      -0.259363        -7.0576
 147   1.0000      -0.257521        -7.0075
 148   1.0000      -0.257391        -7.0040
 149   1.0000      -0.251372        -6.8402
 150   1.0000      -0.251220        -6.8361
 151   1.0000      -0.249928        -6.8009
 152   1.0000      -0.249875        -6.7995
 153   1.0000      -0.249731        -6.7955
 154   1.0000      -0.246701        -6.7131
 155   1.0000      -0.246646        -6.7116
 156   1.0000      -0.242944        -6.6108
 157   1.0000      -0.229980        -6.2581
 158   1.0000      -0.221984        -6.0405
 159   1.0000      -0.221939        -6.0393
 160   1.0000      -0.206202        -5.6110
 161   1.0000      -0.205953        -5.6043
 162   1.0000      -0.163373        -4.4456
 163   0.0000      -0.149368        -4.0645
 164   0.0000      -0.149337        -4.0637
 165   0.0000      -0.135867        -3.6971
 166   0.0000      -0.135694        -3.6924
 167   0.0000      -0.133805        -3.6410

MULLIKEN ATOMIC CHARGES AND SPIN POPULATIONS
--------------------------------------------
   0 Au:    0.192804   -0.088235
   1 Au:    0.157873   -0.092184
   2 Au:    0.158425   -0.090249
   3 Au:    0.481199    0.003220
   4 Au:   -0.213693   -0.074182
   5 Au:    0.469376   -0.070677
   6 Au:    0.198704   -0.066842
   7 Au:    0.196986   -0.073883
   8 Au:    0.469423   -0.070831
   9 Au:    0.155587   -0.095387
  10 Au:   -0.214255   -0.070521
  11 Au:    0.483098    0.009891
  12 Au:    0.468974   -0.071783
  13 Au:    0.306549   -0.278704
  14 Au:    0.482347    0.007643
  15 Au:   -0.213306   -0.071940
  16 Cr:   -3.580090    3.194666
Sum of atomic charges         :   -0.0000000

LOEWDIN ATOMIC CHARGES AND SPIN POPULATIONS
-------------------------------------------
   0 Au:   -0.006246   -0.091804
   1 Au:    0.049750   -0.101897
   2 Au:    0.049667   -0.101979
   3 Au:    0.155275   -0.067466
   4 Au:    0.014356   -0.059124
   5 Au:    0.116165   -0.094166
   6 Au:   -0.004021   -0.081291
   7 Au:   -0.004725   -0.084737
   8 Au:    0.116657   -0.094077
   9 Au:    0.049564   -0.101606
  10 Au:    0.014623   -0.056128
  11 Au:    0.154070   -0.066389
  12 Au:    0.116888   -0.093991
  13 Au:    0.102311   -0.157469
  14 Au:    0.154353   -0.066855
  15 Au:    0.014537   -0.057260
  16 Cr:   -1.093225    3.376238

  Mayer bond orders larger than 0.100000
B(  0-Au,  1-Au) :   0.2263 B(  0-Au,  2-Au) :   0.2280 B(  0-Au,  4-Au) :   0.3313
B(  0-Au,  6-Au) :   0.2977 B(  0-Au,  7-Au) :   0.3014 B(  1-Au,  4-Au) :   0.3000
B(  1-Au,  6-Au) :   0.2304 B(  1-Au,  8-Au) :   0.1834 B(  1-Au, 10-Au) :   0.2929
B(  1-Au, 16-Cr) :   0.3417 B(  2-Au,  4-Au) :   0.3003 B(  2-Au,  5-Au) :   0.1846
B(  2-Au,  7-Au) :   0.2294 B(  2-Au, 15-Au) :   0.2932 B(  2-Au, 16-Cr) :   0.3421
B(  3-Au,  4-Au) :   0.1760 B(  3-Au,  5-Au) :   0.2133 B(  3-Au,  8-Au) :   0.2120
B(  3-Au, 12-Au) :   0.1150 B(  3-Au, 13-Au) :   0.1740 B(  3-Au, 16-Cr) :   0.6551
B(  4-Au,  5-Au) :   0.1035 B(  4-Au,  8-Au) :   0.1062 B(  4-Au, 16-Cr) :   0.4302
B(  5-Au, 11-Au) :   0.1158 B(  5-Au, 14-Au) :   0.2109 B(  5-Au, 15-Au) :   0.1044
B(  5-Au, 16-Cr) :   0.6041 B(  6-Au,  7-Au) :   0.2904 B(  6-Au,  9-Au) :   0.2280
B(  6-Au, 10-Au) :   0.3468 B(  7-Au,  9-Au) :   0.2280 B(  7-Au, 15-Au) :   0.3413
B(  8-Au, 10-Au) :   0.1006 B(  8-Au, 11-Au) :   0.2114 B(  8-Au, 14-Au) :   0.1157
B(  8-Au, 16-Cr) :   0.6039 B(  9-Au, 10-Au) :   0.2935 B(  9-Au, 12-Au) :   0.1816
B(  9-Au, 15-Au) :   0.2990 B(  9-Au, 16-Cr) :   0.3406 B( 10-Au, 11-Au) :   0.1890
B( 10-Au, 12-Au) :   0.1044 B( 10-Au, 16-Cr) :   0.4349 B( 11-Au, 12-Au) :   0.2094
B( 11-Au, 13-Au) :   0.1895 B( 11-Au, 16-Cr) :   0.6456 B( 12-Au, 14-Au) :   0.2119
B( 12-Au, 15-Au) :   0.1024 B( 12-Au, 16-Cr) :   0.6040 B( 13-Au, 14-Au) :   0.1843
B( 13-Au, 16-Cr) :   0.5324 B( 14-Au, 15-Au) :   0.1844 B( 14-Au, 16-Cr) :   0.6484
B( 15-Au, 16-Cr) :   0.4333

FINAL SINGLE POINT ENERGY     -3218.004694661353

DIPOLE MOMENT
-------------
                                X             Y             Z
Electronic contribution:     36.65969      20.26995      20.58909
Nuclear contribution   :    -37.24712     -20.59476     -20.92427
                        -----------------------------------------
Total Dipole Moment    :     -0.58743      -0.32481      -0.33518
                        -----------------------------------------
Magnitude (a.u.)       :      0.75028
Magnitude (Debye)      :      1.90706

Rotational constants in cm-1:     0.001020     0.000727     0.000727
Rotational constants in MHz :    30.589439    21.787592    21.782688

                             ****ORCA TERMINATED NORMALLY****
TOTAL RUN TIME: 0 days 0 hours 35 minutes 55 seconds 368 msec
