                         Program Version 5.0.3 -  RELEASE  -
|  1> %pal nprocs 1 end
|  2>
|  3> !PBE def2-TZVP OPT UNO
|  4> !SLOWCONV KDIIS
|  5>
|  6> %geom maxiter 300 end
|  7>
|  8> *xyzfile 0 5 2.xyz                           ****END OF INPUT****
 Total Charge           Charge          ....    0
 Multiplicity           Mult            ....    5
 Number of Electrons    NEL             ....  214
FINAL SINGLE POINT ENERGY     -2402.472192636313
FINAL SINGLE POINT ENERGY     -2402.474864053564
FINAL SINGLE POINT ENERGY     -2402.476471737995
FINAL SINGLE POINT ENERGY     -2402.477268384321
FINAL SINGLE POINT ENERGY     -2402.477710618780
FINAL SINGLE POINT ENERGY     -2402.478552302622
FINAL SINGLE POINT ENERGY     -2402.479607832552
FINAL SINGLE POINT ENERGY     -2402.481338963017
FINAL SINGLE POINT ENERGY     -2402.483561165688
FINAL SINGLE POINT ENERGY     -2402.485665805457
FINAL SINGLE POINT ENERGY     -2402.496402476696
FINAL SINGLE POINT ENERGY     -2402.496457176283
FINAL SINGLE POINT ENERGY     -2402.496472344040
FINAL SINGLE POINT ENERGY     -2402.496482723302
FINAL SINGLE POINT ENERGY     -2402.496492376460
FINAL SINGLE POINT ENERGY     -2402.496497276455
FINAL SINGLE POINT ENERGY     -2402.496501469609
FINAL SINGLE POINT ENERGY     -2402.496504570264
FINAL SINGLE POINT ENERGY     -2402.496506521368
                    ***********************HURRAY********************

CARTESIAN COORDINATES (ANGSTROEM)
---------------------------------
  Au    10.011457    7.065733   10.487436
  Au     9.873189    4.281234   10.772495
  Au     7.428637    7.272020   11.469395
  Au     7.320504    4.488373   11.746587
  Au     5.385613    5.652747   10.146307
  Au     7.224322    9.112071    6.632718
  Au     8.161466    8.635301    9.202756
  Au     5.973222    7.137384    8.050946
  Au     8.810620    6.911329    6.973370
  Au    10.420799    5.252424    8.237934
  Cr     7.968217    5.680373    9.315708

 Multiplicity           Mult            ....    5
 Number of Electrons    NEL             ....  214
 Basis Dimension        Dim             ....  445

ORBITAL ENERGIES
----------------
                 SPIN UP ORBITALS
  NO   OCC          E(Eh)            E(eV)
   0   1.0000    -214.478455     -5836.2555
   1   1.0000     -24.277347      -660.6202
   2   1.0000     -20.642078      -561.6995
   3   1.0000     -20.641652      -561.6879
   4   1.0000     -20.637150      -561.5654
   5   1.0000      -4.026134      -109.5567
   6   1.0000      -4.025360      -109.5356
   7   1.0000      -4.025237      -109.5323
   8   1.0000      -4.021838      -109.4398
   9   1.0000      -4.021760      -109.4377
  10   1.0000      -4.020191      -109.3950
  11   1.0000      -4.020045      -109.3910
  12   1.0000      -4.019347      -109.3720
  13   1.0000      -4.017333      -109.3172
  14   1.0000      -4.017146      -109.3121
  15   1.0000      -2.787217       -75.8440
  16   1.0000      -2.245541       -61.1043
  17   1.0000      -2.241978       -61.0073
  18   1.0000      -2.241268       -60.9880
  19   1.0000      -2.241118       -60.9839
  20   1.0000      -2.240747       -60.9738
  21   1.0000      -2.239415       -60.9376
  22   1.0000      -2.239179       -60.9312
  23   1.0000      -2.238053       -60.9005
  24   1.0000      -2.236600       -60.8610
  25   1.0000      -2.236216       -60.8505
  26   1.0000      -2.235796       -60.8391
  27   1.0000      -2.235365       -60.8274
  28   1.0000      -2.235089       -60.8199
  29   1.0000      -2.235055       -60.8189
  30   1.0000      -2.234684       -60.8089
  31   1.0000      -2.234419       -60.8016
  32   1.0000      -2.233983       -60.7898
  33   1.0000      -2.233747       -60.7834
  34   1.0000      -2.232392       -60.7465
  35   1.0000      -2.231494       -60.7220
  36   1.0000      -2.231214       -60.7144
  37   1.0000      -2.230099       -60.6841
  38   1.0000      -2.229658       -60.6721
  39   1.0000      -2.229311       -60.6626
  40   1.0000      -2.229169       -60.6588
  41   1.0000      -2.228623       -60.6439
  42   1.0000      -2.228500       -60.6406
  43   1.0000      -2.228156       -60.6312
  44   1.0000      -2.227108       -60.6027
  45   1.0000      -2.226708       -60.5918
  46   1.0000      -1.780002       -48.4363
  47   1.0000      -1.778294       -48.3898
  48   1.0000      -1.773559       -48.2610
  49   1.0000      -0.410081       -11.1589
  50   1.0000      -0.381179       -10.3724
  51   1.0000      -0.372729       -10.1425
  52   1.0000      -0.365351        -9.9417
  53   1.0000      -0.359323        -9.7777
  54   1.0000      -0.357846        -9.7375
  55   1.0000      -0.353224        -9.6117
  56   1.0000      -0.348483        -9.4827
  57   1.0000      -0.345433        -9.3997
  58   1.0000      -0.336561        -9.1583
  59   1.0000      -0.335193        -9.1211
  60   1.0000      -0.331068        -9.0088
  61   1.0000      -0.328401        -8.9363
  62   1.0000      -0.327220        -8.9041
  63   1.0000      -0.321025        -8.7355
  64   1.0000      -0.320640        -8.7251
  65   1.0000      -0.319531        -8.6949
  66   1.0000      -0.315928        -8.5968
  67   1.0000      -0.313785        -8.5385
  68   1.0000      -0.312797        -8.5116
  69   1.0000      -0.306321        -8.3354
  70   1.0000      -0.305070        -8.3014
  71   1.0000      -0.299267        -8.1435
  72   1.0000      -0.297483        -8.0949
  73   1.0000      -0.294003        -8.0002
  74   1.0000      -0.293534        -7.9875
  75   1.0000      -0.289305        -7.8724
  76   1.0000      -0.286881        -7.8064
  77   1.0000      -0.283279        -7.7084
  78   1.0000      -0.282975        -7.7001
  79   1.0000      -0.279424        -7.6035
  80   1.0000      -0.279274        -7.5994
  81   1.0000      -0.275673        -7.5015
  82   1.0000      -0.275556        -7.4983
  83   1.0000      -0.270989        -7.3740
  84   1.0000      -0.269334        -7.3289
  85   1.0000      -0.268185        -7.2977
  86   1.0000      -0.267638        -7.2828
  87   1.0000      -0.267000        -7.2654
  88   1.0000      -0.262894        -7.1537
  89   1.0000      -0.260078        -7.0771
  90   1.0000      -0.257214        -6.9992
  91   1.0000      -0.256955        -6.9921
  92   1.0000      -0.255923        -6.9640
  93   1.0000      -0.250798        -6.8246
  94   1.0000      -0.250722        -6.8225
  95   1.0000      -0.249915        -6.8005
  96   1.0000      -0.248695        -6.7673
  97   1.0000      -0.245474        -6.6797
  98   1.0000      -0.241274        -6.5654
  99   1.0000      -0.238500        -6.4899
 100   1.0000      -0.237351        -6.4587
 101   1.0000      -0.229881        -6.2554
 102   1.0000      -0.229655        -6.2492
 103   1.0000      -0.218112        -5.9351
 104   1.0000      -0.209903        -5.7118
 105   1.0000      -0.202437        -5.5086
 106   1.0000      -0.200021        -5.4428
 107   1.0000      -0.190696        -5.1891
 108   1.0000      -0.186740        -5.0815
 109   0.0000      -0.164835        -4.4854
 110   0.0000      -0.145590        -3.9617
 111   0.0000      -0.143454        -3.9036
 112   0.0000      -0.140736        -3.8296
 113   0.0000      -0.107671        -2.9299

                 SPIN DOWN ORBITALS
  NO   OCC          E(Eh)            E(eV)
   0   1.0000    -214.477988     -5836.2428
   1   1.0000     -24.227759      -659.2709
   2   1.0000     -20.606558      -560.7329
   3   1.0000     -20.605126      -560.6940
   4   1.0000     -20.595542      -560.4332
   5   1.0000      -4.025329      -109.5348
   6   1.0000      -4.024382      -109.5090
   7   1.0000      -4.024257      -109.5056
   8   1.0000      -4.020892      -109.4140
   9   1.0000      -4.020811      -109.4118
  10   1.0000      -4.019225      -109.3687
  11   1.0000      -4.019083      -109.3648
  12   1.0000      -4.019064      -109.3643
  13   1.0000      -4.016743      -109.3011
  14   1.0000      -4.016560      -109.2961
  15   1.0000      -2.652460       -72.1771
  16   1.0000      -2.244474       -61.0752
  17   1.0000      -2.240941       -60.9791
  18   1.0000      -2.240097       -60.9561
  19   1.0000      -2.240026       -60.9542
  20   1.0000      -2.239735       -60.9463
  21   1.0000      -2.238298       -60.9072
  22   1.0000      -2.237854       -60.8951
  23   1.0000      -2.236983       -60.8714
  24   1.0000      -2.235929       -60.8427
  25   1.0000      -2.235463       -60.8300
  26   1.0000      -2.235026       -60.8181
  27   1.0000      -2.234129       -60.7938
  28   1.0000      -2.233963       -60.7892
  29   1.0000      -2.233762       -60.7838
  30   1.0000      -2.233694       -60.7819
  31   1.0000      -2.233423       -60.7745
  32   1.0000      -2.233006       -60.7632
  33   1.0000      -2.232919       -60.7608
  34   1.0000      -2.231720       -60.7282
  35   1.0000      -2.230606       -60.6979
  36   1.0000      -2.230453       -60.6937
  37   1.0000      -2.229668       -60.6723
  38   1.0000      -2.229503       -60.6678
  39   1.0000      -2.228556       -60.6421
  40   1.0000      -2.228413       -60.6382
  41   1.0000      -2.227855       -60.6230
  42   1.0000      -2.227765       -60.6206
  43   1.0000      -2.227650       -60.6174
  44   1.0000      -2.226513       -60.5865
  45   1.0000      -2.226108       -60.5755
  46   1.0000      -1.654070       -45.0095
  47   1.0000      -1.650240       -44.9053
  48   1.0000      -1.628669       -44.3183
  49   1.0000      -0.404109       -10.9964
  50   1.0000      -0.377914       -10.2836
  51   1.0000      -0.369162       -10.0454
  52   1.0000      -0.363138        -9.8815
  53   1.0000      -0.355998        -9.6872
  54   1.0000      -0.355270        -9.6674
  55   1.0000      -0.350822        -9.5464
  56   1.0000      -0.344187        -9.3658
  57   1.0000      -0.342827        -9.3288
  58   1.0000      -0.334979        -9.1152
  59   1.0000      -0.333225        -9.0675
  60   1.0000      -0.329271        -8.9599
  61   1.0000      -0.326643        -8.8884
  62   1.0000      -0.325539        -8.8584
  63   1.0000      -0.320319        -8.7163
  64   1.0000      -0.320142        -8.7115
  65   1.0000      -0.316945        -8.6245
  66   1.0000      -0.313932        -8.5425
  67   1.0000      -0.311387        -8.4733
  68   1.0000      -0.310261        -8.4426
  69   1.0000      -0.304843        -8.2952
  70   1.0000      -0.302363        -8.2277
  71   1.0000      -0.297275        -8.0893
  72   1.0000      -0.295807        -8.0493
  73   1.0000      -0.290476        -7.9043
  74   1.0000      -0.288550        -7.8518
  75   1.0000      -0.287952        -7.8356
  76   1.0000      -0.285770        -7.7762
  77   1.0000      -0.282306        -7.6819
  78   1.0000      -0.282263        -7.6808
  79   1.0000      -0.278163        -7.5692
  80   1.0000      -0.277299        -7.5457
  81   1.0000      -0.274554        -7.4710
  82   1.0000      -0.274152        -7.4601
  83   1.0000      -0.270286        -7.3549
  84   1.0000      -0.268291        -7.3006
  85   1.0000      -0.268225        -7.2988
  86   1.0000      -0.267151        -7.2695
  87   1.0000      -0.266868        -7.2618
  88   1.0000      -0.260980        -7.1016
  89   1.0000      -0.259864        -7.0712
  90   1.0000      -0.256979        -6.9928
  91   1.0000      -0.256298        -6.9742
  92   1.0000      -0.254897        -6.9361
  93   1.0000      -0.249849        -6.7987
  94   1.0000      -0.249723        -6.7953
  95   1.0000      -0.249119        -6.7789
  96   1.0000      -0.247672        -6.7395
  97   1.0000      -0.244908        -6.6643
  98   1.0000      -0.239726        -6.5233
  99   1.0000      -0.238692        -6.4951
 100   1.0000      -0.236941        -6.4475
 101   1.0000      -0.228865        -6.2277
 102   1.0000      -0.225349        -6.1321
 103   1.0000      -0.211509        -5.7554
 104   1.0000      -0.196483        -5.3466
 105   0.0000      -0.154456        -4.2030
 106   0.0000      -0.151857        -4.1322
 107   0.0000      -0.146194        -3.9781
 108   0.0000      -0.107551        -2.9266
 109   0.0000      -0.100430        -2.7328

MULLIKEN ATOMIC CHARGES AND SPIN POPULATIONS
--------------------------------------------
   0 Au:    0.146461    0.034328
   1 Au:    0.299708   -0.034241
   2 Au:    0.145508    0.034002
   3 Au:    0.301479   -0.033769
   4 Au:    0.371346    0.025699
   5 Au:    0.351779    0.137559
   6 Au:   -0.021662    0.028882
   7 Au:    0.099071   -0.061683
   8 Au:    0.099272   -0.062081
   9 Au:    0.372970    0.025628
  10 Cr:   -2.165932    3.905675
Sum of atomic charges         :   -0.0000000

LOEWDIN ATOMIC CHARGES AND SPIN POPULATIONS
-------------------------------------------
   0 Au:    0.076614    0.035659
   1 Au:    0.087292   -0.010977
   2 Au:    0.076360    0.035719
   3 Au:    0.087120   -0.011069
   4 Au:    0.120150    0.016016
   5 Au:    0.123486    0.076661
   6 Au:    0.001673    0.045624
   7 Au:    0.025921    0.004928
   8 Au:    0.025973    0.004839
   9 Au:    0.120498    0.015810
  10 Cr:   -0.745087    3.786791

  Mayer bond orders larger than 0.100000
B(  0-Au,  1-Au) :   0.2399 B(  0-Au,  2-Au) :   0.3265 B(  0-Au,  6-Au) :   0.3766
B(  0-Au,  9-Au) :   0.1517 B(  0-Au, 10-Cr) :   0.4762 B(  1-Au,  3-Au) :   0.3163
B(  1-Au,  9-Au) :   0.2366 B(  1-Au, 10-Cr) :   0.5722 B(  2-Au,  3-Au) :   0.2420
B(  2-Au,  4-Au) :   0.1501 B(  2-Au,  6-Au) :   0.3769 B(  2-Au, 10-Cr) :   0.4767
B(  3-Au,  4-Au) :   0.2375 B(  3-Au, 10-Cr) :   0.5680 B(  4-Au,  7-Au) :   0.4584
B(  4-Au, 10-Cr) :   0.6316 B(  5-Au,  6-Au) :   0.3545 B(  5-Au,  7-Au) :   0.3539
B(  5-Au,  8-Au) :   0.3541 B(  5-Au, 10-Cr) :   0.1389 B(  6-Au,  7-Au) :   0.2143
B(  6-Au,  8-Au) :   0.2139 B(  6-Au, 10-Cr) :   0.2665 B(  7-Au,  8-Au) :   0.1072
B(  7-Au, 10-Cr) :   0.6609 B(  8-Au,  9-Au) :   0.4578 B(  8-Au, 10-Cr) :   0.6582
B(  9-Au, 10-Cr) :   0.6311

FINAL SINGLE POINT ENERGY     -2402.496507288684

DIPOLE MOMENT
-------------
                                X             Y             Z
Electronic contribution:      3.30757      31.67433       2.09252
Nuclear contribution   :     -3.24234     -31.47360      -1.96730
                        -----------------------------------------
Total Dipole Moment    :      0.06523       0.20074       0.12521
                        -----------------------------------------
Magnitude (a.u.)       :      0.24542
Magnitude (Debye)      :      0.62380

Rotational constants in cm-1:     0.002237     0.001584     0.001234
Rotational constants in MHz :    67.059353    47.501317    36.993885

                             ****ORCA TERMINATED NORMALLY****
TOTAL RUN TIME: 0 days 3 hours 53 minutes 53 seconds 240 msec
