                         Program Version 5.0.3 -  RELEASE  -
|  1> !SC-NEVPT2 def2-TZVP def2-TZVP/C
|  2> !MOREAD RIJCOSX def2/J
|  3> %maxcore 4000
|  4> %moinp "casscf.gbw"
|  5> %pal nprocs 6 end
|  6>
|  7> %casscf
|  8>  mult 5,3
|  9>  bweight 1,1
| 10>  nroots 5,45
| 11>  nel 6
| 12>  norb 5
| 13>  ptsettings
| 14>   d4tpre 1e-14 # default = 1e-10
| 15>   d3tpre 1e-14
| 16>  end
| 17>  rel
| 18>    dosoc true
| 19>    gtensor true
| 20>  end
| 21> end
| 22>
| 23>
| 24> *xyzfile 0 5 pbe.xyz
| 25>
| 26>
| 27>                          ****END OF INPUT****

CARTESIAN COORDINATES (ANGSTROEM)
---------------------------------
  Au     9.333145   10.793707    6.673820
  Au     7.760018    5.334774    7.079859
  Au     9.353804    7.916528    7.103730
  Au     5.426843    5.984503    8.523179
  Au     7.907753    6.995478    9.313570
  Au     8.643207    9.630636    9.138655
  Au     6.714626   11.020732    7.653510
  Au     4.559524    9.594267    6.703135
  Au     5.758053    8.786962    9.081485
  Au     7.560189    8.097144    3.205483
  Au     7.126545   10.003007    5.144445
  Au     9.815626    9.050737    4.585557
  Au     5.035708    8.384437    4.234636
  Au     9.021185    6.374820    4.864934
  Au     6.242590    5.919735    4.821859
  Au     3.987018    6.862124    6.329075
  Fe     6.533906    7.734321    6.756053

 Total Charge           Charge          ....    0
 Multiplicity           Mult            ....    5
 Number of Electrons    NEL             ....  330
 Basis Dimension        Dim             ....  685

ORBITAL ENERGIES
----------------

  NO   OCC          E(Eh)            E(eV)
   0   2.0000    -261.412315     -7113.3907
   1   2.0000     -31.972298      -870.0105
   2   2.0000     -27.452817      -747.0291
   3   2.0000     -27.452555      -747.0220
   4   2.0000     -27.452124      -747.0103
   5   2.0000      -4.722103      -128.4950
   6   2.0000      -4.721909      -128.4897
   7   2.0000      -4.721341      -128.4742
   8   2.0000      -4.721281      -128.4726
   9   2.0000      -4.719566      -128.4259
  10   2.0000      -4.719536      -128.4251
  11   2.0000      -4.719099      -128.4132
  12   2.0000      -4.718978      -128.4099
  13   2.0000      -4.718129      -128.3868
  14   2.0000      -4.717903      -128.3807
  15   2.0000      -4.711943      -128.2185
  16   2.0000      -4.711913      -128.2177
  17   2.0000      -4.709597      -128.1546
  18   2.0000      -4.709361      -128.1482
  19   2.0000      -4.707129      -128.0875
  20   2.0000      -4.707129      -128.0875
  21   2.0000      -4.205722      -114.4435
  22   2.0000      -2.785144       -75.7876
  23   2.0000      -2.784883       -75.7805
  24   2.0000      -2.784411       -75.7677
  25   2.0000      -2.760815       -75.1256
  26   2.0000      -2.760685       -75.1221
  27   2.0000      -2.760479       -75.1165
  28   2.0000      -2.760265       -75.1106
  29   2.0000      -2.760201       -75.1089
  30   2.0000      -2.759701       -75.0953
  31   2.0000      -2.758904       -75.0736
  32   2.0000      -2.758629       -75.0661
  33   2.0000      -2.758245       -75.0557
  34   2.0000      -2.757955       -75.0478
  35   2.0000      -2.757055       -75.0233
  36   2.0000      -2.756412       -75.0058
  37   2.0000      -2.756210       -75.0003
  38   2.0000      -2.756096       -74.9972
  39   2.0000      -2.755832       -74.9900
  40   2.0000      -2.755768       -74.9883
  41   2.0000      -2.755616       -74.9841
  42   2.0000      -2.755046       -74.9686
  43   2.0000      -2.754813       -74.9623
  44   2.0000      -2.754488       -74.9534
  45   2.0000      -2.754094       -74.9427
  46   2.0000      -2.753494       -74.9264
  47   2.0000      -2.753481       -74.9260
  48   2.0000      -2.752243       -74.8923
  49   2.0000      -2.751985       -74.8853
  50   2.0000      -2.751272       -74.8659
  51   2.0000      -2.750955       -74.8573
  52   2.0000      -2.750823       -74.8537
  53   2.0000      -2.750231       -74.8376
  54   2.0000      -2.750145       -74.8353
  55   2.0000      -2.749478       -74.8171
  56   2.0000      -2.749355       -74.8138
  57   2.0000      -2.747726       -74.7694
  58   2.0000      -2.747100       -74.7524
  59   2.0000      -2.747019       -74.7502
  60   2.0000      -2.746803       -74.7443
  61   2.0000      -2.746753       -74.7429
  62   2.0000      -2.745753       -74.7157
  63   2.0000      -2.745365       -74.7052
  64   2.0000      -2.744478       -74.6810
  65   2.0000      -2.744003       -74.6681
  66   2.0000      -2.742911       -74.6384
  67   2.0000      -2.742786       -74.6350
  68   2.0000      -2.742667       -74.6318
  69   2.0000      -2.741568       -74.6019
  70   2.0000      -2.741238       -74.5929
  71   2.0000      -2.741085       -74.5887
  72   2.0000      -2.741019       -74.5869
  73   2.0000      -0.586335       -15.9550
  74   2.0000      -0.560555       -15.2535
  75   2.0000      -0.559685       -15.2298
  76   2.0000      -0.558886       -15.2081
  77   2.0000      -0.555410       -15.1135
  78   2.0000      -0.553936       -15.0734
  79   2.0000      -0.553896       -15.0723
  80   2.0000      -0.552737       -15.0408
  81   2.0000      -0.552636       -15.0380
  82   2.0000      -0.549830       -14.9616
  83   2.0000      -0.547815       -14.9068
  84   2.0000      -0.547014       -14.8850
  85   2.0000      -0.545827       -14.8527
  86   2.0000      -0.545805       -14.8521
  87   2.0000      -0.543475       -14.7887
  88   2.0000      -0.541938       -14.7469
  89   2.0000      -0.539894       -14.6913
  90   2.0000      -0.537281       -14.6202
  91   2.0000      -0.536568       -14.6008
  92   2.0000      -0.535332       -14.5671
  93   2.0000      -0.532151       -14.4806
  94   2.0000      -0.530813       -14.4442
  95   2.0000      -0.528237       -14.3740
  96   2.0000      -0.527261       -14.3475
  97   2.0000      -0.526311       -14.3217
  98   2.0000      -0.524000       -14.2588
  99   2.0000      -0.521092       -14.1796
 100   2.0000      -0.518561       -14.1108
 101   2.0000      -0.512039       -13.9333
 102   2.0000      -0.510340       -13.8870
 103   2.0000      -0.507056       -13.7977
 104   2.0000      -0.505806       -13.7637
 105   2.0000      -0.504301       -13.7227
 106   2.0000      -0.500591       -13.6218
 107   2.0000      -0.498675       -13.5696
 108   2.0000      -0.497705       -13.5433
 109   2.0000      -0.492117       -13.3912
 110   2.0000      -0.491257       -13.3678
 111   2.0000      -0.485066       -13.1993
 112   2.0000      -0.480539       -13.0761
 113   2.0000      -0.477415       -12.9911
 114   2.0000      -0.476584       -12.9685
 115   2.0000      -0.475529       -12.9398
 116   2.0000      -0.474794       -12.9198
 117   2.0000      -0.471751       -12.8370
 118   2.0000      -0.470705       -12.8085
 119   2.0000      -0.470255       -12.7963
 120   2.0000      -0.467493       -12.7211
 121   2.0000      -0.463388       -12.6094
 122   2.0000      -0.462778       -12.5928
 123   2.0000      -0.460200       -12.5227
 124   2.0000      -0.458718       -12.4824
 125   2.0000      -0.457064       -12.4373
 126   2.0000      -0.454906       -12.3786
 127   2.0000      -0.452716       -12.3190
 128   2.0000      -0.451499       -12.2859
 129   2.0000      -0.450363       -12.2550
 130   2.0000      -0.443182       -12.0596
 131   2.0000      -0.442761       -12.0481
 132   2.0000      -0.442249       -12.0342
 133   2.0000      -0.439970       -11.9722
 134   2.0000      -0.439760       -11.9665
 135   2.0000      -0.438340       -11.9279
 136   2.0000      -0.437107       -11.8943
 137   2.0000      -0.435898       -11.8614
 138   2.0000      -0.433185       -11.7876
 139   2.0000      -0.431080       -11.7303
 140   2.0000      -0.430563       -11.7162
 141   2.0000      -0.427194       -11.6245
 142   2.0000      -0.424907       -11.5623
 143   2.0000      -0.424746       -11.5579
 144   2.0000      -0.422263       -11.4904
 145   2.0000      -0.420433       -11.4406
 146   2.0000      -0.419299       -11.4097
 147   2.0000      -0.419203       -11.4071
 148   2.0000      -0.412809       -11.2331
 149   2.0000      -0.410482       -11.1698
 150   2.0000      -0.403396       -10.9770
 151   2.0000      -0.400636       -10.9019
 152   2.0000      -0.397826       -10.8254
 153   2.0000      -0.390505       -10.6262
 154   2.0000      -0.379133       -10.3167
 155   2.0000      -0.377741       -10.2789
 156   2.0000      -0.367180        -9.9915
 157   2.0000      -0.257479        -7.0064
 158   2.0000      -0.254945        -6.9374
 159   2.0000      -0.253711        -6.9038
 160   2.0000      -0.234866        -6.3910
 161   2.0000      -0.232112        -6.3161
 162   1.2000      -0.281347        -7.6558
 163   1.2000      -0.281670        -7.6646
 164   1.2000      -0.284769        -7.7490
 165   1.2000      -0.283513        -7.7148
 166   1.2000      -0.286027        -7.7832
 167   0.0000      -0.036394        -0.9903
 168   0.0000      -0.019200        -0.5224
 169   0.0000      -0.009403        -0.2559
 170   0.0000      -0.003246        -0.0883
 171   0.0000      -0.001185        -0.0322

MULLIKEN ATOMIC CHARGES AND SPIN DENSITIES
------------------------------------------
   0 Au:    0.224310    0.002674
   1 Au:    0.186461    0.006616
   2 Au:   -0.607018    0.007439
   3 Au:    0.296976    0.006150
   4 Au:    0.219444    0.004139
   5 Au:    0.210372    0.003610
   6 Au:    0.219143    0.003173
   7 Au:    0.184339    0.006629
   8 Au:    0.120034    0.007822
   9 Au:    0.215059    0.003601
  10 Au:   -0.620869    0.007469
  11 Au:    0.223617    0.002675
  12 Au:    0.220708    0.004090
  13 Au:    0.211744    0.003188
  14 Au:    0.117923    0.007827
  15 Au:    0.297016    0.006102
  16 Fe:   -1.719258    2.916797
Sum of atomic charges       :    0.0000000

LOEWDIN ATOMIC CHARGES AND SPIN DENSITIES
-----------------------------------------
   0 Au:    0.052495    0.003470
   1 Au:    0.022071    0.008098
   2 Au:   -0.108031    0.008796
   3 Au:    0.070454    0.007776
   4 Au:    0.012560    0.005539
   5 Au:    0.021673    0.004180
   6 Au:   -0.008728    0.004468
   7 Au:    0.021591    0.008118
   8 Au:   -0.003689    0.010132
   9 Au:    0.022923    0.004164
  10 Au:   -0.109501    0.008833
  11 Au:    0.052433    0.003468
  12 Au:    0.012857    0.005488
  13 Au:   -0.009888    0.004481
  14 Au:   -0.004346    0.010137
  15 Au:    0.070163    0.007722
  16 Fe:   -0.115035    2.895128

  Mayer bond orders larger than 0.100000
B(  0-Au,  2-Au) :   0.1905 B(  0-Au,  5-Au) :   0.1902 B(  0-Au,  6-Au) :   0.2215
B(  0-Au, 10-Au) :   0.3393 B(  0-Au, 11-Au) :   0.2399 B(  1-Au,  2-Au) :   0.1470
B(  1-Au,  3-Au) :   0.1525 B(  1-Au,  4-Au) :   0.2181 B(  1-Au, 13-Au) :   0.2187
B(  1-Au, 14-Au) :   0.1472 B(  1-Au, 16-Fe) :   0.4453 B(  2-Au,  4-Au) :   0.3034
B(  2-Au,  5-Au) :   0.3464 B(  2-Au, 10-Au) :   0.1005 B(  2-Au, 11-Au) :   0.3364
B(  2-Au, 13-Au) :   0.3343 B(  2-Au, 16-Fe) :   0.3631 B(  3-Au,  4-Au) :   0.1835
B(  3-Au,  8-Au) :   0.1429 B(  3-Au, 15-Au) :   0.1602 B(  3-Au, 16-Fe) :   0.3636
B(  4-Au,  5-Au) :   0.2415 B(  4-Au,  8-Au) :   0.1467 B(  4-Au, 16-Fe) :   0.3108
B(  5-Au,  6-Au) :   0.1765 B(  5-Au,  8-Au) :   0.1661 B(  5-Au, 16-Fe) :   0.1112
B(  6-Au,  7-Au) :   0.2176 B(  6-Au,  8-Au) :   0.2083 B(  6-Au, 10-Au) :   0.3357
B(  6-Au, 16-Fe) :   0.1729 B(  7-Au,  8-Au) :   0.1471 B(  7-Au, 10-Au) :   0.1494
B(  7-Au, 12-Au) :   0.2175 B(  7-Au, 15-Au) :   0.1532 B(  7-Au, 16-Fe) :   0.4455
B(  8-Au, 16-Fe) :   0.4092 B(  9-Au, 10-Au) :   0.3498 B(  9-Au, 11-Au) :   0.1898
B(  9-Au, 12-Au) :   0.2410 B(  9-Au, 13-Au) :   0.1765 B(  9-Au, 14-Au) :   0.1628
B(  9-Au, 16-Fe) :   0.1091 B( 10-Au, 11-Au) :   0.1933 B( 10-Au, 12-Au) :   0.3053
B( 10-Au, 16-Fe) :   0.3628 B( 11-Au, 13-Au) :   0.2229 B( 12-Au, 14-Au) :   0.1482
B( 12-Au, 15-Au) :   0.1831 B( 12-Au, 16-Fe) :   0.3078 B( 13-Au, 14-Au) :   0.2101
B( 13-Au, 16-Fe) :   0.1746 B( 14-Au, 15-Au) :   0.1451 B( 14-Au, 16-Fe) :   0.4090
B( 15-Au, 16-Fe) :   0.3618

FINAL SINGLE POINT ENERGY     -3427.455835333599

DIPOLE MOMENT
-------------
                                X             Y             Z
Electronic contribution:     22.95929      16.56696      -8.61600
Nuclear contribution   :    -23.21146     -16.74584       8.70709
                        -----------------------------------------
Total Dipole Moment    :     -0.25217      -0.17889       0.09110
                        -----------------------------------------
Magnitude (a.u.)       :      0.32232
Magnitude (Debye)      :      0.81927

Rotational constants in cm-1:     0.000887     0.000873     0.000760
Rotational constants in MHz :    26.595397    26.169594    22.780533

                             ****ORCA TERMINATED NORMALLY****
TOTAL RUN TIME: 0 days 2 hours 22 minutes 32 seconds 507 msec
