                         Program Version 5.0.3 -  RELEASE  -
|  1> !RI-B2PLYP def2-TZVP def2-TZVP/C
|  2> !RIJCOSX VERYSLOWCONV
|  3>
|  4> %scf
|  5>   AutoTRAHIter 200
|  6>   maxiter 400
|  7> end
|  8>
|  9>
| 10> %pal nprocs 6 end
| 11>
| 12> *xyzfile 0 5 pbe.xyz
| 13>
| 14> $new_job
| 15>
| 16> !RI-B2PLYP def2-TZVP def2-TZVP/C
| 17> !RIJCOSX VERYSLOWCONV
| 18>
| 19> %scf
| 20>   AutoTRAHIter 200
| 21>   maxiter 400
| 22> end
| 23>
| 24>
| 25> %pal nprocs 6 end
| 26>
| 27> *xyzfile 0 3 pbe.xyz
| 28>
| 29>
| 30>
| 31>
| 32>
| 33>                          ****END OF INPUT****
 Total Charge           Charge          ....    0
 Multiplicity           Mult            ....    5
 Number of Electrons    NEL             ....  216
MP2 TOTAL ENERGY:    -2619.333353216 Eh
FINAL SINGLE POINT ENERGY     -2619.333353215946

CARTESIAN COORDINATES (ANGSTROEM)
---------------------------------
  Au     8.929959    6.709618    8.749690
  Au     6.368592    5.231528    5.292773
  Au     6.262656    5.691608    7.984700
  Au     8.311682    9.042938   10.333704
  Au     5.156615   10.036419    7.206543
  Au     6.518748    6.915907   10.368123
  Au     8.222391    7.144849    6.055139
  Au     5.321540    7.638059    6.088794
  Au     9.212074    9.254286    7.450155
  Au     7.287694   10.929441    8.684398
  Fe     6.874256    8.315464    8.145347

 Multiplicity           Mult            ....    3
 Number of Electrons    NEL             ....  216
 Basis Dimension        Dim             ....  445

ORBITAL ENERGIES
----------------
                 SPIN UP ORBITALS
  NO   OCC          E(Eh)            E(eV)
   0   1.0000    -258.328548     -7029.4772
   1   1.0000     -30.889877      -840.5563
   2   1.0000     -26.605785      -723.9802
   3   1.0000     -26.583960      -723.3863
   4   1.0000     -26.574279      -723.1229
   5   1.0000      -4.402732      -119.8044
   6   1.0000      -4.400585      -119.7460
   7   1.0000      -4.397820      -119.6708
   8   1.0000      -4.396221      -119.6273
   9   1.0000      -4.395403      -119.6050
  10   1.0000      -4.392597      -119.5286
  11   1.0000      -4.389297      -119.4388
  12   1.0000      -4.389236      -119.4372
  13   1.0000      -4.385307      -119.3303
  14   1.0000      -4.383954      -119.2935
  15   1.0000      -3.900961      -106.1506
  16   1.0000      -2.646683       -72.0199
  17   1.0000      -2.601131       -70.7804
  18   1.0000      -2.580313       -70.2139
  19   1.0000      -2.525500       -68.7224
  20   1.0000      -2.522489       -68.6404
  21   1.0000      -2.521864       -68.6234
  22   1.0000      -2.518886       -68.5424
  23   1.0000      -2.518546       -68.5331
  24   1.0000      -2.517413       -68.5023
  25   1.0000      -2.517251       -68.4979
  26   1.0000      -2.516049       -68.4652
  27   1.0000      -2.515515       -68.4507
  28   1.0000      -2.514701       -68.4285
  29   1.0000      -2.514144       -68.4133
  30   1.0000      -2.513646       -68.3998
  31   1.0000      -2.512409       -68.3661
  32   1.0000      -2.510918       -68.3256
  33   1.0000      -2.510738       -68.3207
  34   1.0000      -2.510331       -68.3096
  35   1.0000      -2.509177       -68.2782
  36   1.0000      -2.508864       -68.2697
  37   1.0000      -2.507645       -68.2365
  38   1.0000      -2.507199       -68.2244
  39   1.0000      -2.506529       -68.2061
  40   1.0000      -2.505996       -68.1916
  41   1.0000      -2.504888       -68.1615
  42   1.0000      -2.504356       -68.1470
  43   1.0000      -2.503601       -68.1264
  44   1.0000      -2.502960       -68.1090
  45   1.0000      -2.501993       -68.0827
  46   1.0000      -2.499046       -68.0025
  47   1.0000      -2.498477       -67.9870
  48   1.0000      -2.495868       -67.9160
  49   1.0000      -0.552411       -15.0319
  50   1.0000      -0.548822       -14.9342
  51   1.0000      -0.539120       -14.6702
  52   1.0000      -0.526619       -14.3300
  53   1.0000      -0.502843       -13.6831
  54   1.0000      -0.490454       -13.3459
  55   1.0000      -0.472308       -12.8522
  56   1.0000      -0.457737       -12.4557
  57   1.0000      -0.451360       -12.2821
  58   1.0000      -0.448220       -12.1967
  59   1.0000      -0.445762       -12.1298
  60   1.0000      -0.442974       -12.0539
  61   1.0000      -0.439625       -11.9628
  62   1.0000      -0.437099       -11.8941
  63   1.0000      -0.436800       -11.8859
  64   1.0000      -0.434033       -11.8106
  65   1.0000      -0.430712       -11.7203
  66   1.0000      -0.425680       -11.5833
  67   1.0000      -0.424908       -11.5623
  68   1.0000      -0.421780       -11.4772
  69   1.0000      -0.420653       -11.4465
  70   1.0000      -0.414697       -11.2845
  71   1.0000      -0.411539       -11.1986
  72   1.0000      -0.405847       -11.0437
  73   1.0000      -0.401273       -10.9192
  74   1.0000      -0.398815       -10.8523
  75   1.0000      -0.394227       -10.7275
  76   1.0000      -0.391309       -10.6481
  77   1.0000      -0.389181       -10.5902
  78   1.0000      -0.385717       -10.4959
  79   1.0000      -0.384332       -10.4582
  80   1.0000      -0.382259       -10.4018
  81   1.0000      -0.380560       -10.3556
  82   1.0000      -0.376561       -10.2468
  83   1.0000      -0.374330       -10.1860
  84   1.0000      -0.372530       -10.1371
  85   1.0000      -0.367586       -10.0025
  86   1.0000      -0.367104        -9.9894
  87   1.0000      -0.366650        -9.9771
  88   1.0000      -0.365046        -9.9334
  89   1.0000      -0.363013        -9.8781
  90   1.0000      -0.360078        -9.7982
  91   1.0000      -0.359028        -9.7696
  92   1.0000      -0.357837        -9.7372
  93   1.0000      -0.356012        -9.6876
  94   1.0000      -0.355073        -9.6620
  95   1.0000      -0.353380        -9.6160
  96   1.0000      -0.351942        -9.5768
  97   1.0000      -0.350774        -9.5451
  98   1.0000      -0.343157        -9.3378
  99   1.0000      -0.342678        -9.3247
 100   1.0000      -0.341254        -9.2860
 101   1.0000      -0.332491        -9.0475
 102   1.0000      -0.328905        -8.9500
 103   1.0000      -0.325187        -8.8488
 104   1.0000      -0.321355        -8.7445
 105   1.0000      -0.312834        -8.5127
 106   1.0000      -0.280508        -7.6330
 107   1.0000      -0.262358        -7.1391
 108   1.0000      -0.223221        -6.0741
 109   0.0000      -0.105603        -2.8736
 110   0.0000      -0.088645        -2.4122
 111   0.0000      -0.084755        -2.3063
 112   0.0000      -0.067971        -1.8496
 113   0.0000      -0.042936        -1.1683

                 SPIN DOWN ORBITALS
  NO   OCC          E(Eh)            E(eV)
   0   1.0000    -258.326512     -7029.4218
   1   1.0000     -30.797550      -838.0439
   2   1.0000     -26.508462      -721.3319
   3   1.0000     -26.502481      -721.1692
   4   1.0000     -26.500113      -721.1047
   5   1.0000      -4.402648      -119.8021
   6   1.0000      -4.400571      -119.7456
   7   1.0000      -4.398186      -119.6807
   8   1.0000      -4.397207      -119.6541
   9   1.0000      -4.396548      -119.6362
  10   1.0000      -4.393387      -119.5501
  11   1.0000      -4.390283      -119.4657
  12   1.0000      -4.390152      -119.4621
  13   1.0000      -4.386185      -119.3542
  14   1.0000      -4.383623      -119.2845
  15   1.0000      -3.658135       -99.5429
  16   1.0000      -2.524277       -68.6891
  17   1.0000      -2.522056       -68.6286
  18   1.0000      -2.520903       -68.5973
  19   1.0000      -2.518642       -68.5357
  20   1.0000      -2.518266       -68.5255
  21   1.0000      -2.517810       -68.5131
  22   1.0000      -2.516923       -68.4890
  23   1.0000      -2.516124       -68.4672
  24   1.0000      -2.515494       -68.4501
  25   1.0000      -2.514901       -68.4339
  26   1.0000      -2.514252       -68.4163
  27   1.0000      -2.513188       -68.3873
  28   1.0000      -2.512540       -68.3697
  29   1.0000      -2.511699       -68.3468
  30   1.0000      -2.511261       -68.3349
  31   1.0000      -2.510603       -68.3170
  32   1.0000      -2.509898       -68.2978
  33   1.0000      -2.509265       -68.2806
  34   1.0000      -2.508829       -68.2687
  35   1.0000      -2.507467       -68.2316
  36   1.0000      -2.507204       -68.2245
  37   1.0000      -2.505350       -68.1741
  38   1.0000      -2.505017       -68.1650
  39   1.0000      -2.504667       -68.1555
  40   1.0000      -2.504461       -68.1499
  41   1.0000      -2.503344       -68.1194
  42   1.0000      -2.502822       -68.1053
  43   1.0000      -2.499750       -68.0217
  44   1.0000      -2.498666       -67.9922
  45   1.0000      -2.494757       -67.8858
  46   1.0000      -2.337689       -63.6118
  47   1.0000      -2.334388       -63.5219
  48   1.0000      -2.324347       -63.2487
  49   1.0000      -0.501017       -13.6334
  50   1.0000      -0.477861       -13.0033
  51   1.0000      -0.468303       -12.7432
  52   1.0000      -0.463444       -12.6110
  53   1.0000      -0.458999       -12.4900
  54   1.0000      -0.456033       -12.4093
  55   1.0000      -0.452448       -12.3117
  56   1.0000      -0.446157       -12.1405
  57   1.0000      -0.445337       -12.1182
  58   1.0000      -0.441639       -12.0176
  59   1.0000      -0.438567       -11.9340
  60   1.0000      -0.436242       -11.8708
  61   1.0000      -0.432017       -11.7558
  62   1.0000      -0.430930       -11.7262
  63   1.0000      -0.429799       -11.6954
  64   1.0000      -0.427420       -11.6307
  65   1.0000      -0.423049       -11.5117
  66   1.0000      -0.419734       -11.4215
  67   1.0000      -0.414502       -11.2792
  68   1.0000      -0.411132       -11.1875
  69   1.0000      -0.406803       -11.0697
  70   1.0000      -0.400979       -10.9112
  71   1.0000      -0.399249       -10.8641
  72   1.0000      -0.396365       -10.7856
  73   1.0000      -0.392969       -10.6932
  74   1.0000      -0.390294       -10.6205
  75   1.0000      -0.387261       -10.5379
  76   1.0000      -0.383345       -10.4314
  77   1.0000      -0.380932       -10.3657
  78   1.0000      -0.378719       -10.3055
  79   1.0000      -0.377083       -10.2609
  80   1.0000      -0.375922       -10.2293
  81   1.0000      -0.373423       -10.1614
  82   1.0000      -0.371245       -10.1021
  83   1.0000      -0.367723       -10.0063
  84   1.0000      -0.365068        -9.9340
  85   1.0000      -0.363666        -9.8959
  86   1.0000      -0.362600        -9.8668
  87   1.0000      -0.361336        -9.8325
  88   1.0000      -0.358997        -9.7688
  89   1.0000      -0.357248        -9.7212
  90   1.0000      -0.355695        -9.6789
  91   1.0000      -0.354626        -9.6499
  92   1.0000      -0.353683        -9.6242
  93   1.0000      -0.347343        -9.4517
  94   1.0000      -0.345075        -9.3900
  95   1.0000      -0.343838        -9.3563
  96   1.0000      -0.336180        -9.1479
  97   1.0000      -0.335401        -9.1267
  98   1.0000      -0.328783        -8.9466
  99   1.0000      -0.326355        -8.8806
 100   1.0000      -0.321883        -8.7589
 101   1.0000      -0.317112        -8.6290
 102   1.0000      -0.301873        -8.2144
 103   1.0000      -0.277712        -7.5569
 104   1.0000      -0.233213        -6.3461
 105   1.0000      -0.211378        -5.7519
 106   1.0000      -0.190382        -5.1805
 107   0.0000      -0.092917        -2.5284
 108   0.0000      -0.075457        -2.0533
 109   0.0000      -0.049011        -1.3337
 110   0.0000      -0.043772        -1.1911
 111   0.0000      -0.029805        -0.8110

MULLIKEN ATOMIC CHARGES AND SPIN POPULATIONS
--------------------------------------------
   0 Au:    0.147521   -0.316085
   1 Au:    0.321734   -0.020591
   2 Au:   -0.037247   -0.232982
   3 Au:    0.118460   -0.203682
   4 Au:    0.144299   -0.137039
   5 Au:    0.324671   -0.069001
   6 Au:    0.022508    0.022617
   7 Au:   -0.028488   -0.199111
   8 Au:    0.222124   -0.171531
   9 Au:    0.167655   -0.208419
  10 Fe:   -1.403237    3.535825
Sum of atomic charges         :   -0.0000000

LOEWDIN ATOMIC CHARGES AND SPIN POPULATIONS
-------------------------------------------
   0 Au:   -0.004102   -0.232852
   1 Au:    0.113776   -0.061092
   2 Au:   -0.055187   -0.161628
   3 Au:    0.004366   -0.151329
   4 Au:    0.059986   -0.178653
   5 Au:    0.122529   -0.161016
   6 Au:   -0.008026   -0.054771
   7 Au:   -0.032168   -0.123944
   8 Au:    0.049336   -0.133146
   9 Au:    0.000357   -0.200353
  10 Fe:   -0.250865    3.458783

  Mayer bond orders larger than 0.100000
B(  0-Au,  3-Au) :   0.1417 B(  0-Au,  6-Au) :   0.2642 B(  0-Au,  8-Au) :   0.1042
B(  0-Au, 10-Fe) :   0.5126 B(  1-Au,  2-Au) :   0.3743 B(  1-Au,  6-Au) :   0.3166
B(  1-Au,  7-Au) :   0.3270 B(  2-Au,  5-Au) :   0.4354 B(  2-Au,  6-Au) :   0.1576
B(  2-Au,  7-Au) :   0.1547 B(  2-Au, 10-Fe) :   0.4891 B(  3-Au,  5-Au) :   0.1787
B(  3-Au,  9-Au) :   0.2980 B(  3-Au, 10-Fe) :   0.4413 B(  4-Au,  7-Au) :   0.3597
B(  4-Au,  9-Au) :   0.2128 B(  4-Au, 10-Fe) :   0.5882 B(  5-Au, 10-Fe) :   0.4415
B(  6-Au,  7-Au) :   0.1619 B(  6-Au,  8-Au) :   0.3905 B(  6-Au, 10-Fe) :   0.3205
B(  7-Au, 10-Fe) :   0.5188 B(  8-Au,  9-Au) :   0.1508 B(  8-Au, 10-Fe) :   0.4845
B(  9-Au, 10-Fe) :   0.4488

MP2 TOTAL ENERGY:    -2619.335354592 Eh
FINAL SINGLE POINT ENERGY     -2619.335354592268

DIPOLE MOMENT
-------------
                                X             Y             Z
Electronic contribution:     10.90825     -17.57790     -12.32892
Nuclear contribution   :    -10.79292      17.27233      12.27037
                        -----------------------------------------
Total Dipole Moment    :      0.11532      -0.30557      -0.05854
                        -----------------------------------------
Magnitude (a.u.)       :      0.33182
Magnitude (Debye)      :      0.84341

Rotational constants in cm-1:     0.002226     0.001550     0.001351
Rotational constants in MHz :    66.722797    46.464201    40.506295

                             ****ORCA TERMINATED NORMALLY****
TOTAL RUN TIME: 0 days 0 hours 17 minutes 28 seconds 123 msec
