                         Program Version 5.0.3 -  RELEASE  -
|  1> !PBE def2-TZVP VERYSLOWCONV
|  2>
|  3> %scf
|  4>   AutoTRAHIter 200
|  5>   maxiter 400
|  6> end
|  7>
|  8>
|  9> %pal nprocs 6 end
| 10>
| 11> *xyzfile 0 5 pbe.xyz
| 12>
| 13> $new_job
| 14>
| 15> !PBE def2-TZVP VERYSLOWCONV
| 16>
| 17> %scf
| 18>   AutoTRAHIter 200
| 19>   maxiter 400
| 20> end
| 21>
| 22>
| 23> %pal nprocs 6 end
| 24>
| 25> *xyzfile 0 3 pbe.xyz
| 26>
| 27>
| 28>
| 29>
| 30>
| 31>                          ****END OF INPUT****
 Total Charge           Charge          ....    0
 Multiplicity           Mult            ....    5
 Number of Electrons    NEL             ....  216
FINAL SINGLE POINT ENERGY     -2621.725736535496

CARTESIAN COORDINATES (ANGSTROEM)
---------------------------------
  Au     8.929959    6.709618    8.749690
  Au     6.368592    5.231528    5.292773
  Au     6.262656    5.691608    7.984700
  Au     8.311682    9.042938   10.333704
  Au     5.156615   10.036419    7.206543
  Au     6.518748    6.915907   10.368123
  Au     8.222391    7.144849    6.055139
  Au     5.321540    7.638059    6.088794
  Au     9.212074    9.254286    7.450155
  Au     7.287694   10.929441    8.684398
  Fe     6.874256    8.315464    8.145347

 Multiplicity           Mult            ....    3
 Number of Electrons    NEL             ....  216
 Basis Dimension        Dim             ....  445

ORBITAL ENERGIES
----------------
                 SPIN UP ORBITALS
  NO   OCC          E(Eh)            E(eV)
   0   1.0000    -254.746652     -6932.0088
   1   1.0000     -29.584304      -805.0298
   2   1.0000     -25.523646      -694.5337
   3   1.0000     -25.519547      -694.4222
   4   1.0000     -25.516549      -694.3406
   5   1.0000      -4.025987      -109.5527
   6   1.0000      -4.023831      -109.4940
   7   1.0000      -4.023139      -109.4752
   8   1.0000      -4.021678      -109.4354
   9   1.0000      -4.018787      -109.3568
  10   1.0000      -4.018289      -109.3432
  11   1.0000      -4.017613      -109.3248
  12   1.0000      -4.015983      -109.2805
  13   1.0000      -4.015345      -109.2631
  14   1.0000      -4.012333      -109.1811
  15   1.0000      -3.360351       -91.4398
  16   1.0000      -2.244215       -61.0682
  17   1.0000      -2.242147       -61.0119
  18   1.0000      -2.241100       -60.9834
  19   1.0000      -2.240298       -60.9616
  20   1.0000      -2.238104       -60.9019
  21   1.0000      -2.237918       -60.8968
  22   1.0000      -2.236164       -60.8491
  23   1.0000      -2.235161       -60.8218
  24   1.0000      -2.234955       -60.8162
  25   1.0000      -2.234143       -60.7941
  26   1.0000      -2.234034       -60.7911
  27   1.0000      -2.233685       -60.7817
  28   1.0000      -2.233204       -60.7686
  29   1.0000      -2.232678       -60.7543
  30   1.0000      -2.232334       -60.7449
  31   1.0000      -2.232013       -60.7362
  32   1.0000      -2.231653       -60.7264
  33   1.0000      -2.230677       -60.6998
  34   1.0000      -2.230585       -60.6973
  35   1.0000      -2.229875       -60.6780
  36   1.0000      -2.229496       -60.6677
  37   1.0000      -2.228796       -60.6486
  38   1.0000      -2.228406       -60.6380
  39   1.0000      -2.227958       -60.6258
  40   1.0000      -2.227675       -60.6181
  41   1.0000      -2.227113       -60.6028
  42   1.0000      -2.225493       -60.5587
  43   1.0000      -2.225216       -60.5512
  44   1.0000      -2.224371       -60.5282
  45   1.0000      -2.218977       -60.3814
  46   1.0000      -2.181874       -59.3718
  47   1.0000      -2.173264       -59.1375
  48   1.0000      -2.167197       -58.9724
  49   1.0000      -0.416954       -11.3459
  50   1.0000      -0.382407       -10.4058
  51   1.0000      -0.374033       -10.1779
  52   1.0000      -0.367691       -10.0054
  53   1.0000      -0.361885        -9.8474
  54   1.0000      -0.356527        -9.7016
  55   1.0000      -0.352224        -9.5845
  56   1.0000      -0.345303        -9.3962
  57   1.0000      -0.342694        -9.3252
  58   1.0000      -0.336204        -9.1486
  59   1.0000      -0.334484        -9.1018
  60   1.0000      -0.331778        -9.0281
  61   1.0000      -0.328023        -8.9260
  62   1.0000      -0.326533        -8.8854
  63   1.0000      -0.324300        -8.8247
  64   1.0000      -0.323745        -8.8096
  65   1.0000      -0.321052        -8.7363
  66   1.0000      -0.318403        -8.6642
  67   1.0000      -0.315670        -8.5898
  68   1.0000      -0.310720        -8.4551
  69   1.0000      -0.304994        -8.2993
  70   1.0000      -0.304148        -8.2763
  71   1.0000      -0.301591        -8.2067
  72   1.0000      -0.299027        -8.1369
  73   1.0000      -0.295530        -8.0418
  74   1.0000      -0.291975        -7.9451
  75   1.0000      -0.287640        -7.8271
  76   1.0000      -0.285280        -7.7629
  77   1.0000      -0.284257        -7.7350
  78   1.0000      -0.280538        -7.6338
  79   1.0000      -0.277890        -7.5618
  80   1.0000      -0.277797        -7.5592
  81   1.0000      -0.274383        -7.4664
  82   1.0000      -0.272082        -7.4037
  83   1.0000      -0.270804        -7.3690
  84   1.0000      -0.268874        -7.3164
  85   1.0000      -0.266522        -7.2524
  86   1.0000      -0.265089        -7.2134
  87   1.0000      -0.262238        -7.1359
  88   1.0000      -0.261964        -7.1284
  89   1.0000      -0.260243        -7.0816
  90   1.0000      -0.258680        -7.0390
  91   1.0000      -0.257287        -7.0011
  92   1.0000      -0.255475        -6.9518
  93   1.0000      -0.253993        -6.9115
  94   1.0000      -0.253122        -6.8878
  95   1.0000      -0.251261        -6.8371
  96   1.0000      -0.248257        -6.7554
  97   1.0000      -0.247523        -6.7354
  98   1.0000      -0.243337        -6.6215
  99   1.0000      -0.241561        -6.5732
 100   1.0000      -0.240015        -6.5311
 101   1.0000      -0.239248        -6.5103
 102   1.0000      -0.235789        -6.4161
 103   1.0000      -0.234244        -6.3741
 104   1.0000      -0.233427        -6.3519
 105   1.0000      -0.231319        -6.2945
 106   1.0000      -0.229195        -6.2367
 107   1.0000      -0.224045        -6.0966
 108   1.0000      -0.200166        -5.4468
 109   0.0000      -0.171288        -4.6610
 110   0.0000      -0.157040        -4.2733
 111   0.0000      -0.150722        -4.1013
 112   0.0000      -0.131878        -3.5886
 113   0.0000      -0.107227        -2.9178

                 SPIN DOWN ORBITALS
  NO   OCC          E(Eh)            E(eV)
   0   1.0000    -254.745977     -6931.9905
   1   1.0000     -29.528562      -803.5130
   2   1.0000     -25.480206      -693.3517
   3   1.0000     -25.477620      -693.2813
   4   1.0000     -25.475604      -693.2264
   5   1.0000      -4.026017      -109.5535
   6   1.0000      -4.023910      -109.4962
   7   1.0000      -4.023174      -109.4761
   8   1.0000      -4.022236      -109.4506
   9   1.0000      -4.018911      -109.3601
  10   1.0000      -4.018620      -109.3522
  11   1.0000      -4.018573      -109.3509
  12   1.0000      -4.016343      -109.2903
  13   1.0000      -4.015564      -109.2691
  14   1.0000      -4.011853      -109.1681
  15   1.0000      -3.234326       -88.0105
  16   1.0000      -2.244071       -61.0643
  17   1.0000      -2.242185       -61.0130
  18   1.0000      -2.240926       -60.9787
  19   1.0000      -2.239917       -60.9513
  20   1.0000      -2.238043       -60.9003
  21   1.0000      -2.237616       -60.8886
  22   1.0000      -2.236165       -60.8491
  23   1.0000      -2.235495       -60.8309
  24   1.0000      -2.234929       -60.8155
  25   1.0000      -2.234747       -60.8106
  26   1.0000      -2.234494       -60.8037
  27   1.0000      -2.234050       -60.7916
  28   1.0000      -2.233741       -60.7832
  29   1.0000      -2.233232       -60.7693
  30   1.0000      -2.232844       -60.7588
  31   1.0000      -2.232432       -60.7476
  32   1.0000      -2.231864       -60.7321
  33   1.0000      -2.231065       -60.7104
  34   1.0000      -2.230156       -60.6856
  35   1.0000      -2.229922       -60.6793
  36   1.0000      -2.229698       -60.6732
  37   1.0000      -2.229014       -60.6546
  38   1.0000      -2.228926       -60.6522
  39   1.0000      -2.228537       -60.6416
  40   1.0000      -2.228420       -60.6384
  41   1.0000      -2.227477       -60.6127
  42   1.0000      -2.226218       -60.5785
  43   1.0000      -2.225249       -60.5521
  44   1.0000      -2.224811       -60.5402
  45   1.0000      -2.218285       -60.3626
  46   1.0000      -2.054189       -55.8973
  47   1.0000      -2.050860       -55.8067
  48   1.0000      -2.047145       -55.7056
  49   1.0000      -0.413844       -11.2613
  50   1.0000      -0.382370       -10.4048
  51   1.0000      -0.369932       -10.0664
  52   1.0000      -0.364135        -9.9086
  53   1.0000      -0.355468        -9.6728
  54   1.0000      -0.354774        -9.6539
  55   1.0000      -0.350274        -9.5314
  56   1.0000      -0.342009        -9.3065
  57   1.0000      -0.340423        -9.2634
  58   1.0000      -0.335238        -9.1223
  59   1.0000      -0.334520        -9.1027
  60   1.0000      -0.329965        -8.9788
  61   1.0000      -0.328943        -8.9510
  62   1.0000      -0.326125        -8.8743
  63   1.0000      -0.324451        -8.8288
  64   1.0000      -0.321434        -8.7467
  65   1.0000      -0.319144        -8.6843
  66   1.0000      -0.317197        -8.6314
  67   1.0000      -0.311622        -8.4797
  68   1.0000      -0.308516        -8.3951
  69   1.0000      -0.304537        -8.2869
  70   1.0000      -0.300277        -8.1709
  71   1.0000      -0.297368        -8.0918
  72   1.0000      -0.296062        -8.0562
  73   1.0000      -0.292341        -7.9550
  74   1.0000      -0.291921        -7.9436
  75   1.0000      -0.286177        -7.7873
  76   1.0000      -0.283626        -7.7179
  77   1.0000      -0.282321        -7.6823
  78   1.0000      -0.280496        -7.6327
  79   1.0000      -0.277553        -7.5526
  80   1.0000      -0.275321        -7.4919
  81   1.0000      -0.272434        -7.4133
  82   1.0000      -0.271670        -7.3925
  83   1.0000      -0.271010        -7.3746
  84   1.0000      -0.268588        -7.3087
  85   1.0000      -0.265759        -7.2317
  86   1.0000      -0.264902        -7.2083
  87   1.0000      -0.262207        -7.1350
  88   1.0000      -0.261589        -7.1182
  89   1.0000      -0.261195        -7.1075
  90   1.0000      -0.258606        -7.0370
  91   1.0000      -0.257897        -7.0177
  92   1.0000      -0.256214        -6.9719
  93   1.0000      -0.253925        -6.9097
  94   1.0000      -0.249840        -6.7985
  95   1.0000      -0.249076        -6.7777
  96   1.0000      -0.247910        -6.7460
  97   1.0000      -0.243805        -6.6343
  98   1.0000      -0.241255        -6.5649
  99   1.0000      -0.237202        -6.4546
 100   1.0000      -0.236687        -6.4406
 101   1.0000      -0.235797        -6.4164
 102   1.0000      -0.230578        -6.2743
 103   1.0000      -0.209225        -5.6933
 104   1.0000      -0.193055        -5.2533
 105   1.0000      -0.182226        -4.9586
 106   1.0000      -0.177773        -4.8374
 107   0.0000      -0.153984        -4.1901
 108   0.0000      -0.146984        -3.9996
 109   0.0000      -0.144580        -3.9342
 110   0.0000      -0.144178        -3.9233
 111   0.0000      -0.141914        -3.8617

MULLIKEN ATOMIC CHARGES AND SPIN POPULATIONS
--------------------------------------------
   0 Au:    0.199241   -0.146027
   1 Au:    0.359494   -0.007115
   2 Au:   -0.020916   -0.147782
   3 Au:    0.183465   -0.138538
   4 Au:    0.182363   -0.016921
   5 Au:    0.322386   -0.081805
   6 Au:   -0.013953   -0.058801
   7 Au:    0.049136   -0.140531
   8 Au:    0.269856   -0.078411
   9 Au:    0.209730   -0.105695
  10 Fe:   -1.740802    2.921626
Sum of atomic charges         :   -0.0000000

LOEWDIN ATOMIC CHARGES AND SPIN POPULATIONS
-------------------------------------------
   0 Au:    0.047500   -0.124052
   1 Au:    0.096610   -0.055216
   2 Au:   -0.016772   -0.098074
   3 Au:    0.018758   -0.120251
   4 Au:    0.109703   -0.066378
   5 Au:    0.129785   -0.127942
   6 Au:    0.001183   -0.058413
   7 Au:    0.003673   -0.088551
   8 Au:    0.077608   -0.080551
   9 Au:    0.042359   -0.110341
  10 Fe:   -0.510406    2.929768

  Mayer bond orders larger than 0.100000
B(  0-Au,  2-Au) :   0.1354 B(  0-Au,  3-Au) :   0.1707 B(  0-Au,  5-Au) :   0.1095
B(  0-Au,  6-Au) :   0.2379 B(  0-Au,  8-Au) :   0.1773 B(  0-Au, 10-Fe) :   0.6135
B(  1-Au,  2-Au) :   0.3887 B(  1-Au,  6-Au) :   0.3428 B(  1-Au,  7-Au) :   0.3526
B(  1-Au, 10-Fe) :   0.1070 B(  2-Au,  5-Au) :   0.3920 B(  2-Au,  6-Au) :   0.1365
B(  2-Au,  7-Au) :   0.1885 B(  2-Au, 10-Fe) :   0.5939 B(  3-Au,  5-Au) :   0.2243
B(  3-Au,  9-Au) :   0.3490 B(  3-Au, 10-Fe) :   0.5185 B(  4-Au,  7-Au) :   0.4026
B(  4-Au,  9-Au) :   0.2208 B(  4-Au, 10-Fe) :   0.6313 B(  5-Au, 10-Fe) :   0.5643
B(  6-Au,  7-Au) :   0.1758 B(  6-Au,  8-Au) :   0.3733 B(  6-Au, 10-Fe) :   0.5052
B(  7-Au, 10-Fe) :   0.5872 B(  8-Au,  9-Au) :   0.1947 B(  8-Au, 10-Fe) :   0.5504
B(  9-Au, 10-Fe) :   0.5366

FINAL SINGLE POINT ENERGY     -2621.730162208853

DIPOLE MOMENT
-------------
                                X             Y             Z
Electronic contribution:     10.91952     -17.50061     -12.35276
Nuclear contribution   :    -10.79292      17.27233      12.27037
                        -----------------------------------------
Total Dipole Moment    :      0.12659      -0.22828      -0.08239
                        -----------------------------------------
Magnitude (a.u.)       :      0.27373
Magnitude (Debye)      :      0.69576

Rotational constants in cm-1:     0.002226     0.001550     0.001351
Rotational constants in MHz :    66.722797    46.464201    40.506295

                             ****ORCA TERMINATED NORMALLY****
TOTAL RUN TIME: 0 days 0 hours 8 minutes 52 seconds 503 msec
