                         Program Version 5.0.3 -  RELEASE  -
|  1> !R2SCAN def2-TZVP VERYSLOWCONV
|  2> !KDIIS
|  3> %scf
|  4>   AutoTRAHIter 200
|  5>   maxiter 400
|  6> end
|  7>
|  8> %pal nprocs 6 end
|  9>
| 10> *xyzfile 0 5 pbe.xyz
| 11>
| 12> $new_job
| 13>
| 14> !R2SCAN def2-TZVP VERYSLOWCONV
| 15> !KDIIS
| 16> %scf
| 17>   AutoTRAHIter 200
| 18>   maxiter 400
| 19> end
| 20>
| 21>
| 22> %pal nprocs 6 end
| 23>
| 24> *xyzfile 0 3 pbe.xyz
| 25>
| 26>
| 27>
| 28>
| 29>
| 30>                          ****END OF INPUT****
 Total Charge           Charge          ....    0
 Multiplicity           Mult            ....    5
 Number of Electrons    NEL             ....  216
FINAL SINGLE POINT ENERGY     -2622.122139789291

CARTESIAN COORDINATES (ANGSTROEM)
---------------------------------
  Au     8.929959    6.709618    8.749690
  Au     6.368592    5.231528    5.292773
  Au     6.262656    5.691608    7.984700
  Au     8.311682    9.042938   10.333704
  Au     5.156615   10.036419    7.206543
  Au     6.518748    6.915907   10.368123
  Au     8.222391    7.144849    6.055139
  Au     5.321540    7.638059    6.088794
  Au     9.212074    9.254286    7.450155
  Au     7.287694   10.929441    8.684398
  Fe     6.874256    8.315464    8.145347

 Multiplicity           Mult            ....    3
 Number of Electrons    NEL             ....  216
 Basis Dimension        Dim             ....  445

ORBITAL ENERGIES
----------------
                 SPIN UP ORBITALS
  NO   OCC          E(Eh)            E(eV)
   0   1.0000    -255.629946     -6956.0445
   1   1.0000     -29.929237      -814.4160
   2   1.0000     -25.764250      -701.0809
   3   1.0000     -25.758803      -700.9327
   4   1.0000     -25.755846      -700.8522
   5   1.0000      -4.117059      -112.0309
   6   1.0000      -4.114424      -111.9592
   7   1.0000      -4.114165      -111.9521
   8   1.0000      -4.113040      -111.9215
   9   1.0000      -4.110022      -111.8394
  10   1.0000      -4.109999      -111.8387
  11   1.0000      -4.108369      -111.7944
  12   1.0000      -4.106463      -111.7425
  13   1.0000      -4.105679      -111.7212
  14   1.0000      -4.103443      -111.6603
  15   1.0000      -3.507419       -95.4417
  16   1.0000      -2.308186       -62.8089
  17   1.0000      -2.305453       -62.7346
  18   1.0000      -2.305110       -62.7252
  19   1.0000      -2.304236       -62.7014
  20   1.0000      -2.302683       -62.6592
  21   1.0000      -2.301370       -62.6235
  22   1.0000      -2.300241       -62.5927
  23   1.0000      -2.299641       -62.5764
  24   1.0000      -2.299245       -62.5656
  25   1.0000      -2.298379       -62.5421
  26   1.0000      -2.298132       -62.5353
  27   1.0000      -2.297235       -62.5109
  28   1.0000      -2.296839       -62.5002
  29   1.0000      -2.296613       -62.4940
  30   1.0000      -2.296311       -62.4858
  31   1.0000      -2.296045       -62.4785
  32   1.0000      -2.295324       -62.4590
  33   1.0000      -2.294548       -62.4378
  34   1.0000      -2.294085       -62.4252
  35   1.0000      -2.293340       -62.4050
  36   1.0000      -2.292958       -62.3946
  37   1.0000      -2.292255       -62.3754
  38   1.0000      -2.292154       -62.3727
  39   1.0000      -2.291839       -62.3641
  40   1.0000      -2.291277       -62.3488
  41   1.0000      -2.290986       -62.3409
  42   1.0000      -2.288853       -62.2828
  43   1.0000      -2.288492       -62.2730
  44   1.0000      -2.287542       -62.2472
  45   1.0000      -2.282995       -62.1235
  46   1.0000      -2.281746       -62.0895
  47   1.0000      -2.270510       -61.7837
  48   1.0000      -2.264112       -61.6096
  49   1.0000      -0.423133       -11.5140
  50   1.0000      -0.389584       -10.6011
  51   1.0000      -0.385187       -10.4815
  52   1.0000      -0.378492       -10.2993
  53   1.0000      -0.374640       -10.1945
  54   1.0000      -0.366387        -9.9699
  55   1.0000      -0.361380        -9.8337
  56   1.0000      -0.356084        -9.6895
  57   1.0000      -0.353472        -9.6185
  58   1.0000      -0.346186        -9.4202
  59   1.0000      -0.344084        -9.3630
  60   1.0000      -0.342774        -9.3274
  61   1.0000      -0.338518        -9.2116
  62   1.0000      -0.337050        -9.1716
  63   1.0000      -0.334285        -9.0964
  64   1.0000      -0.333257        -9.0684
  65   1.0000      -0.330389        -8.9903
  66   1.0000      -0.327802        -8.9199
  67   1.0000      -0.325961        -8.8699
  68   1.0000      -0.321298        -8.7430
  69   1.0000      -0.317000        -8.6260
  70   1.0000      -0.313874        -8.5409
  71   1.0000      -0.311700        -8.4818
  72   1.0000      -0.310098        -8.4382
  73   1.0000      -0.304677        -8.2907
  74   1.0000      -0.300852        -8.1866
  75   1.0000      -0.297437        -8.0937
  76   1.0000      -0.294471        -8.0130
  77   1.0000      -0.292950        -7.9716
  78   1.0000      -0.289720        -7.8837
  79   1.0000      -0.287595        -7.8259
  80   1.0000      -0.287360        -7.8195
  81   1.0000      -0.284607        -7.7445
  82   1.0000      -0.280300        -7.6274
  83   1.0000      -0.279094        -7.5945
  84   1.0000      -0.278574        -7.5804
  85   1.0000      -0.276990        -7.5373
  86   1.0000      -0.273725        -7.4484
  87   1.0000      -0.271420        -7.3857
  88   1.0000      -0.270832        -7.3697
  89   1.0000      -0.269112        -7.3229
  90   1.0000      -0.267571        -7.2810
  91   1.0000      -0.267021        -7.2660
  92   1.0000      -0.265874        -7.2348
  93   1.0000      -0.263229        -7.1628
  94   1.0000      -0.262216        -7.1353
  95   1.0000      -0.261185        -7.1072
  96   1.0000      -0.257776        -7.0144
  97   1.0000      -0.255584        -6.9548
  98   1.0000      -0.254376        -6.9219
  99   1.0000      -0.252564        -6.8726
 100   1.0000      -0.251205        -6.8356
 101   1.0000      -0.248865        -6.7720
 102   1.0000      -0.244717        -6.6591
 103   1.0000      -0.243736        -6.6324
 104   1.0000      -0.241375        -6.5681
 105   1.0000      -0.239186        -6.5086
 106   1.0000      -0.236393        -6.4326
 107   1.0000      -0.228086        -6.2065
 108   1.0000      -0.202203        -5.5022
 109   0.0000      -0.168307        -4.5799
 110   0.0000      -0.153528        -4.1777
 111   0.0000      -0.147293        -4.0080
 112   0.0000      -0.126660        -3.4466
 113   0.0000      -0.100401        -2.7321

                 SPIN DOWN ORBITALS
  NO   OCC          E(Eh)            E(eV)
   0   1.0000    -255.628944     -6956.0172
   1   1.0000     -29.852039      -812.3153
   2   1.0000     -25.702983      -699.4137
   3   1.0000     -25.700399      -699.3434
   4   1.0000     -25.698863      -699.3016
   5   1.0000      -4.117303      -112.0375
   6   1.0000      -4.114636      -111.9649
   7   1.0000      -4.114573      -111.9632
   8   1.0000      -4.113827      -111.9429
   9   1.0000      -4.110610      -111.8554
  10   1.0000      -4.110346      -111.8482
  11   1.0000      -4.109515      -111.8256
  12   1.0000      -4.107127      -111.7606
  13   1.0000      -4.106190      -111.7351
  14   1.0000      -4.103039      -111.6494
  15   1.0000      -3.338614       -90.8483
  16   1.0000      -2.308081       -62.8061
  17   1.0000      -2.305652       -62.7400
  18   1.0000      -2.305054       -62.7237
  19   1.0000      -2.303817       -62.6900
  20   1.0000      -2.302393       -62.6513
  21   1.0000      -2.301162       -62.6178
  22   1.0000      -2.300419       -62.5976
  23   1.0000      -2.299883       -62.5830
  24   1.0000      -2.299140       -62.5628
  25   1.0000      -2.299053       -62.5604
  26   1.0000      -2.298630       -62.5489
  27   1.0000      -2.297842       -62.5274
  28   1.0000      -2.297714       -62.5240
  29   1.0000      -2.297349       -62.5141
  30   1.0000      -2.297089       -62.5070
  31   1.0000      -2.296668       -62.4955
  32   1.0000      -2.295690       -62.4689
  33   1.0000      -2.294697       -62.4419
  34   1.0000      -2.293524       -62.4099
  35   1.0000      -2.293423       -62.4072
  36   1.0000      -2.293284       -62.4034
  37   1.0000      -2.292923       -62.3936
  38   1.0000      -2.292621       -62.3854
  39   1.0000      -2.292372       -62.3786
  40   1.0000      -2.292108       -62.3714
  41   1.0000      -2.292040       -62.3696
  42   1.0000      -2.289693       -62.3057
  43   1.0000      -2.288532       -62.2741
  44   1.0000      -2.288209       -62.2653
  45   1.0000      -2.282303       -62.1046
  46   1.0000      -2.109270       -57.3962
  47   1.0000      -2.106148       -57.3112
  48   1.0000      -2.102273       -57.2058
  49   1.0000      -0.421211       -11.4617
  50   1.0000      -0.389771       -10.6062
  51   1.0000      -0.378442       -10.2979
  52   1.0000      -0.372542       -10.1374
  53   1.0000      -0.364431        -9.9167
  54   1.0000      -0.363702        -9.8968
  55   1.0000      -0.359512        -9.7828
  56   1.0000      -0.351297        -9.5593
  57   1.0000      -0.350023        -9.5246
  58   1.0000      -0.344959        -9.3868
  59   1.0000      -0.343796        -9.3552
  60   1.0000      -0.339561        -9.2399
  61   1.0000      -0.338857        -9.2208
  62   1.0000      -0.335944        -9.1415
  63   1.0000      -0.334241        -9.0952
  64   1.0000      -0.331007        -9.0072
  65   1.0000      -0.328824        -8.9478
  66   1.0000      -0.326640        -8.8883
  67   1.0000      -0.321288        -8.7427
  68   1.0000      -0.317823        -8.6484
  69   1.0000      -0.313930        -8.5425
  70   1.0000      -0.309372        -8.4184
  71   1.0000      -0.306569        -8.3422
  72   1.0000      -0.304882        -8.2963
  73   1.0000      -0.301288        -8.1985
  74   1.0000      -0.300928        -8.1887
  75   1.0000      -0.295328        -8.0363
  76   1.0000      -0.292388        -7.9563
  77   1.0000      -0.290534        -7.9058
  78   1.0000      -0.289212        -7.8699
  79   1.0000      -0.286858        -7.8058
  80   1.0000      -0.283869        -7.7245
  81   1.0000      -0.281072        -7.6484
  82   1.0000      -0.280248        -7.6259
  83   1.0000      -0.279101        -7.5947
  84   1.0000      -0.277134        -7.5412
  85   1.0000      -0.274861        -7.4794
  86   1.0000      -0.273172        -7.4334
  87   1.0000      -0.270835        -7.3698
  88   1.0000      -0.269671        -7.3381
  89   1.0000      -0.269210        -7.3256
  90   1.0000      -0.267127        -7.2689
  91   1.0000      -0.266292        -7.2462
  92   1.0000      -0.264837        -7.2066
  93   1.0000      -0.262074        -7.1314
  94   1.0000      -0.257947        -7.0191
  95   1.0000      -0.257081        -6.9955
  96   1.0000      -0.255462        -6.9515
  97   1.0000      -0.251819        -6.8523
  98   1.0000      -0.249343        -6.7850
  99   1.0000      -0.244719        -6.6591
 100   1.0000      -0.243299        -6.6205
 101   1.0000      -0.242672        -6.6035
 102   1.0000      -0.235584        -6.4106
 103   1.0000      -0.211149        -5.7456
 104   1.0000      -0.193604        -5.2682
 105   1.0000      -0.183430        -4.9914
 106   1.0000      -0.179784        -4.8922
 107   0.0000      -0.145361        -3.9555
 108   0.0000      -0.140605        -3.8261
 109   0.0000      -0.140167        -3.8142
 110   0.0000      -0.134027        -3.6470
 111   0.0000      -0.128101        -3.4858

MULLIKEN ATOMIC CHARGES AND SPIN POPULATIONS
--------------------------------------------
   0 Au:    0.191398   -0.165807
   1 Au:    0.311910   -0.020010
   2 Au:   -0.018133   -0.167482
   3 Au:    0.151955   -0.174206
   4 Au:    0.173126   -0.021271
   5 Au:    0.309268   -0.091548
   6 Au:   -0.005306   -0.048037
   7 Au:    0.041331   -0.168827
   8 Au:    0.251802   -0.096024
   9 Au:    0.180361   -0.141751
  10 Fe:   -1.587711    3.094962
Sum of atomic charges         :    0.0000000

LOEWDIN ATOMIC CHARGES AND SPIN POPULATIONS
-------------------------------------------
   0 Au:    0.043373   -0.138896
   1 Au:    0.090731   -0.064035
   2 Au:   -0.022086   -0.115316
   3 Au:    0.010077   -0.142189
   4 Au:    0.100426   -0.082112
   5 Au:    0.125190   -0.145279
   6 Au:   -0.000092   -0.060652
   7 Au:   -0.003695   -0.107169
   8 Au:    0.071900   -0.094028
   9 Au:    0.031835   -0.136710
  10 Fe:   -0.447660    3.086386

  Mayer bond orders larger than 0.100000
B(  0-Au,  2-Au) :   0.1150 B(  0-Au,  3-Au) :   0.1560 B(  0-Au,  6-Au) :   0.2347
B(  0-Au,  8-Au) :   0.1587 B(  0-Au, 10-Fe) :   0.5953 B(  1-Au,  2-Au) :   0.3839
B(  1-Au,  6-Au) :   0.3335 B(  1-Au,  7-Au) :   0.3424 B(  2-Au,  5-Au) :   0.4010
B(  2-Au,  6-Au) :   0.1168 B(  2-Au,  7-Au) :   0.1557 B(  2-Au, 10-Fe) :   0.5691
B(  3-Au,  5-Au) :   0.2063 B(  3-Au,  9-Au) :   0.3399 B(  3-Au, 10-Fe) :   0.4910
B(  4-Au,  7-Au) :   0.4010 B(  4-Au,  9-Au) :   0.2047 B(  4-Au, 10-Fe) :   0.6343
B(  5-Au, 10-Fe) :   0.5502 B(  6-Au,  7-Au) :   0.1482 B(  6-Au,  8-Au) :   0.3818
B(  6-Au, 10-Fe) :   0.4766 B(  7-Au, 10-Fe) :   0.5780 B(  8-Au,  9-Au) :   0.1727
B(  8-Au, 10-Fe) :   0.5414 B(  9-Au, 10-Fe) :   0.5138

FINAL SINGLE POINT ENERGY     -2622.130040440320

DIPOLE MOMENT
-------------
                                X             Y             Z
Electronic contribution:     10.94645     -17.52186     -12.34675
Nuclear contribution   :    -10.79292      17.27233      12.27037
                        -----------------------------------------
Total Dipole Moment    :      0.15353      -0.24953      -0.07638
                        -----------------------------------------
Magnitude (a.u.)       :      0.30277
Magnitude (Debye)      :      0.76957

Rotational constants in cm-1:     0.002226     0.001550     0.001351
Rotational constants in MHz :    66.722797    46.464201    40.506295

                             ****ORCA TERMINATED NORMALLY****
TOTAL RUN TIME: 0 days 0 hours 4 minutes 29 seconds 990 msec
