                         Program Version 5.0.3 -  RELEASE  -
|  1> %pal nprocs 1 end
|  2>
|  3> !PBE def2-TZVP OPT UNO
|  4> !SLOWCONV KDIIS
|  5>
|  6> %geom maxiter 300 end
|  7>
|  8> *xyzfile 0 5 9.xyz                           ****END OF INPUT****
 Total Charge           Charge          ....    0
 Multiplicity           Mult            ....    5
 Number of Electrons    NEL             ....  254
FINAL SINGLE POINT ENERGY     -2893.393758461170
FINAL SINGLE POINT ENERGY     -2893.394776066981
FINAL SINGLE POINT ENERGY     -2893.395466662435
FINAL SINGLE POINT ENERGY     -2893.395763786758
FINAL SINGLE POINT ENERGY     -2893.395975001204
FINAL SINGLE POINT ENERGY     -2893.396101915516
FINAL SINGLE POINT ENERGY     -2893.396199127412
FINAL SINGLE POINT ENERGY     -2893.396257710001
FINAL SINGLE POINT ENERGY     -2893.396303844056
FINAL SINGLE POINT ENERGY     -2893.396352685447
FINAL SINGLE POINT ENERGY     -2893.396399288400
FINAL SINGLE POINT ENERGY     -2893.396435266666
FINAL SINGLE POINT ENERGY     -2893.396459437824
FINAL SINGLE POINT ENERGY     -2893.396471611212
FINAL SINGLE POINT ENERGY     -2893.396477830584
FINAL SINGLE POINT ENERGY     -2893.396481375328
                    ***********************HURRAY********************

CARTESIAN COORDINATES (ANGSTROEM)
---------------------------------
  Au     8.713503    9.992069    6.931706
  Au     6.155232   10.181319    8.009281
  Au     6.897293   10.167631    2.779323
  Au     9.588735    7.432790    6.517985
  Au     8.615466    8.702514    4.318980
  Au     6.500157   10.765300    5.407513
  Au     7.655942    6.149818    8.028557
  Au     5.321602    7.513937    8.507750
  Au     4.228377    8.740077    6.337644
  Au     4.233611   10.044729    3.952247
  Au     5.843349    7.769075    4.030058
  Au     7.400719    5.904785    5.195022
  Fe     6.890394    8.135125    6.431519

 Multiplicity           Mult            ....    5
 Number of Electrons    NEL             ....  254
 Basis Dimension        Dim             ....  525

ORBITAL ENERGIES
----------------
                 SPIN UP ORBITALS
  NO   OCC          E(Eh)            E(eV)
   0   1.0000    -254.765965     -6932.5343
   1   1.0000     -29.607255      -805.6544
   2   1.0000     -25.549997      -695.2508
   3   1.0000     -25.538613      -694.9410
   4   1.0000     -25.537810      -694.9191
   5   1.0000      -4.035944      -109.8236
   6   1.0000      -4.031946      -109.7148
   7   1.0000      -4.031090      -109.6915
   8   1.0000      -4.031065      -109.6908
   9   1.0000      -4.026283      -109.5607
  10   1.0000      -4.024637      -109.5160
  11   1.0000      -4.024392      -109.5093
  12   1.0000      -4.022654      -109.4620
  13   1.0000      -4.020879      -109.4137
  14   1.0000      -4.019772      -109.3836
  15   1.0000      -4.016777      -109.3020
  16   1.0000      -4.015788      -109.2751
  17   1.0000      -3.386537       -92.1524
  18   1.0000      -2.255148       -61.3657
  19   1.0000      -2.248910       -61.1960
  20   1.0000      -2.248710       -61.1905
  21   1.0000      -2.247936       -61.1694
  22   1.0000      -2.246751       -61.1372
  23   1.0000      -2.245816       -61.1118
  24   1.0000      -2.245375       -61.0998
  25   1.0000      -2.244491       -61.0757
  26   1.0000      -2.243723       -61.0548
  27   1.0000      -2.243515       -61.0492
  28   1.0000      -2.243035       -61.0361
  29   1.0000      -2.241730       -61.0006
  30   1.0000      -2.240758       -60.9741
  31   1.0000      -2.240437       -60.9654
  32   1.0000      -2.239917       -60.9512
  33   1.0000      -2.239328       -60.9352
  34   1.0000      -2.238077       -60.9012
  35   1.0000      -2.237260       -60.8789
  36   1.0000      -2.236852       -60.8678
  37   1.0000      -2.235689       -60.8362
  38   1.0000      -2.234982       -60.8170
  39   1.0000      -2.234819       -60.8125
  40   1.0000      -2.234548       -60.8052
  41   1.0000      -2.234259       -60.7973
  42   1.0000      -2.233717       -60.7825
  43   1.0000      -2.233534       -60.7776
  44   1.0000      -2.232958       -60.7619
  45   1.0000      -2.232382       -60.7462
  46   1.0000      -2.232215       -60.7417
  47   1.0000      -2.231963       -60.7348
  48   1.0000      -2.231746       -60.7289
  49   1.0000      -2.230296       -60.6894
  50   1.0000      -2.229723       -60.6739
  51   1.0000      -2.228281       -60.6346
  52   1.0000      -2.224901       -60.5426
  53   1.0000      -2.223893       -60.5152
  54   1.0000      -2.215656       -60.2911
  55   1.0000      -2.192544       -59.6622
  56   1.0000      -2.191146       -59.6241
  57   1.0000      -0.430331       -11.7099
  58   1.0000      -0.390523       -10.6267
  59   1.0000      -0.385737       -10.4964
  60   1.0000      -0.382060       -10.3964
  61   1.0000      -0.372788       -10.1441
  62   1.0000      -0.368213       -10.0196
  63   1.0000      -0.366000        -9.9594
  64   1.0000      -0.364174        -9.9097
  65   1.0000      -0.356325        -9.6961
  66   1.0000      -0.354411        -9.6440
  67   1.0000      -0.349753        -9.5173
  68   1.0000      -0.349359        -9.5065
  69   1.0000      -0.347001        -9.4424
  70   1.0000      -0.343260        -9.3406
  71   1.0000      -0.340538        -9.2665
  72   1.0000      -0.338006        -9.1976
  73   1.0000      -0.335485        -9.1290
  74   1.0000      -0.331958        -9.0330
  75   1.0000      -0.328494        -8.9388
  76   1.0000      -0.328334        -8.9344
  77   1.0000      -0.325502        -8.8574
  78   1.0000      -0.324930        -8.8418
  79   1.0000      -0.322695        -8.7810
  80   1.0000      -0.322063        -8.7638
  81   1.0000      -0.318845        -8.6762
  82   1.0000      -0.316434        -8.6106
  83   1.0000      -0.311216        -8.4686
  84   1.0000      -0.306838        -8.3495
  85   1.0000      -0.306205        -8.3323
  86   1.0000      -0.299921        -8.1613
  87   1.0000      -0.297165        -8.0863
  88   1.0000      -0.294456        -8.0125
  89   1.0000      -0.292396        -7.9565
  90   1.0000      -0.289701        -7.8832
  91   1.0000      -0.287401        -7.8206
  92   1.0000      -0.285064        -7.7570
  93   1.0000      -0.283456        -7.7132
  94   1.0000      -0.281000        -7.6464
  95   1.0000      -0.280936        -7.6447
  96   1.0000      -0.277380        -7.5479
  97   1.0000      -0.276784        -7.5317
  98   1.0000      -0.276595        -7.5265
  99   1.0000      -0.274823        -7.4783
 100   1.0000      -0.273906        -7.4534
 101   1.0000      -0.270909        -7.3718
 102   1.0000      -0.269346        -7.3293
 103   1.0000      -0.267971        -7.2919
 104   1.0000      -0.265935        -7.2364
 105   1.0000      -0.264498        -7.1974
 106   1.0000      -0.263918        -7.1816
 107   1.0000      -0.262302        -7.1376
 108   1.0000      -0.261497        -7.1157
 109   1.0000      -0.259504        -7.0615
 110   1.0000      -0.258360        -7.0303
 111   1.0000      -0.256768        -6.9870
 112   1.0000      -0.255812        -6.9610
 113   1.0000      -0.254508        -6.9255
 114   1.0000      -0.252438        -6.8692
 115   1.0000      -0.251934        -6.8555
 116   1.0000      -0.250560        -6.8181
 117   1.0000      -0.249493        -6.7890
 118   1.0000      -0.248579        -6.7642
 119   1.0000      -0.245582        -6.6826
 120   1.0000      -0.243316        -6.6210
 121   1.0000      -0.242110        -6.5881
 122   1.0000      -0.241221        -6.5640
 123   1.0000      -0.238900        -6.5008
 124   1.0000      -0.237994        -6.4761
 125   1.0000      -0.233554        -6.3553
 126   1.0000      -0.203849        -5.5470
 127   1.0000      -0.203385        -5.5344
 128   1.0000      -0.187622        -5.1054
 129   0.0000      -0.164321        -4.4714
 130   0.0000      -0.156369        -4.2550
 131   0.0000      -0.134460        -3.6588
 132   0.0000      -0.126756        -3.4492
 133   0.0000      -0.120598        -3.2816

                 SPIN DOWN ORBITALS
  NO   OCC          E(Eh)            E(eV)
   0   1.0000    -254.765229     -6932.5143
   1   1.0000     -29.546392      -803.9982
   2   1.0000     -25.500236      -693.8967
   3   1.0000     -25.494544      -693.7418
   4   1.0000     -25.493717      -693.7193
   5   1.0000      -4.035096      -109.8005
   6   1.0000      -4.031300      -109.6973
   7   1.0000      -4.030385      -109.6724
   8   1.0000      -4.029964      -109.6609
   9   1.0000      -4.025355      -109.5355
  10   1.0000      -4.023614      -109.4881
  11   1.0000      -4.023144      -109.4753
  12   1.0000      -4.022208      -109.4498
  13   1.0000      -4.021111      -109.4200
  14   1.0000      -4.019652      -109.3803
  15   1.0000      -4.015812      -109.2758
  16   1.0000      -4.014487      -109.2398
  17   1.0000      -3.249252       -88.4167
  18   1.0000      -2.254108       -61.3374
  19   1.0000      -2.247849       -61.1671
  20   1.0000      -2.247399       -61.1548
  21   1.0000      -2.246918       -61.1418
  22   1.0000      -2.245490       -61.1029
  23   1.0000      -2.245096       -61.0922
  24   1.0000      -2.244412       -61.0736
  25   1.0000      -2.243765       -61.0560
  26   1.0000      -2.242609       -61.0245
  27   1.0000      -2.242505       -61.0217
  28   1.0000      -2.241804       -61.0026
  29   1.0000      -2.241229       -60.9870
  30   1.0000      -2.239959       -60.9524
  31   1.0000      -2.239591       -60.9424
  32   1.0000      -2.238152       -60.9032
  33   1.0000      -2.237926       -60.8971
  34   1.0000      -2.236807       -60.8666
  35   1.0000      -2.236744       -60.8649
  36   1.0000      -2.235881       -60.8414
  37   1.0000      -2.234960       -60.8163
  38   1.0000      -2.234726       -60.8100
  39   1.0000      -2.234609       -60.8068
  40   1.0000      -2.234196       -60.7956
  41   1.0000      -2.233435       -60.7748
  42   1.0000      -2.232906       -60.7605
  43   1.0000      -2.232624       -60.7528
  44   1.0000      -2.232481       -60.7489
  45   1.0000      -2.232401       -60.7467
  46   1.0000      -2.231734       -60.7286
  47   1.0000      -2.231458       -60.7210
  48   1.0000      -2.230286       -60.6892
  49   1.0000      -2.230251       -60.6882
  50   1.0000      -2.228694       -60.6459
  51   1.0000      -2.227336       -60.6089
  52   1.0000      -2.224102       -60.5209
  53   1.0000      -2.222731       -60.4836
  54   1.0000      -2.070098       -56.3302
  55   1.0000      -2.063690       -56.1559
  56   1.0000      -2.062791       -56.1314
  57   1.0000      -0.425471       -11.5777
  58   1.0000      -0.387013       -10.5312
  59   1.0000      -0.382195       -10.4001
  60   1.0000      -0.378532       -10.3004
  61   1.0000      -0.366307        -9.9677
  62   1.0000      -0.361078        -9.8254
  63   1.0000      -0.359260        -9.7760
  64   1.0000      -0.356185        -9.6923
  65   1.0000      -0.351360        -9.5610
  66   1.0000      -0.350169        -9.5286
  67   1.0000      -0.346305        -9.4234
  68   1.0000      -0.342239        -9.3128
  69   1.0000      -0.341055        -9.2806
  70   1.0000      -0.339342        -9.2340
  71   1.0000      -0.337147        -9.1742
  72   1.0000      -0.334502        -9.1023
  73   1.0000      -0.331638        -9.0243
  74   1.0000      -0.328618        -8.9421
  75   1.0000      -0.327249        -8.9049
  76   1.0000      -0.324805        -8.8384
  77   1.0000      -0.324244        -8.8231
  78   1.0000      -0.319965        -8.7067
  79   1.0000      -0.319301        -8.6886
  80   1.0000      -0.314265        -8.5516
  81   1.0000      -0.310927        -8.4608
  82   1.0000      -0.310677        -8.4540
  83   1.0000      -0.306292        -8.3346
  84   1.0000      -0.302228        -8.2240
  85   1.0000      -0.298441        -8.1210
  86   1.0000      -0.296018        -8.0551
  87   1.0000      -0.294751        -8.0206
  88   1.0000      -0.291106        -7.9214
  89   1.0000      -0.287819        -7.8320
  90   1.0000      -0.286314        -7.7910
  91   1.0000      -0.282039        -7.6747
  92   1.0000      -0.280469        -7.6320
  93   1.0000      -0.278984        -7.5915
  94   1.0000      -0.277675        -7.5559
  95   1.0000      -0.276736        -7.5304
  96   1.0000      -0.274747        -7.4762
  97   1.0000      -0.274161        -7.4603
  98   1.0000      -0.273380        -7.4390
  99   1.0000      -0.272126        -7.4049
 100   1.0000      -0.270495        -7.3606
 101   1.0000      -0.269116        -7.3230
 102   1.0000      -0.267147        -7.2694
 103   1.0000      -0.266550        -7.2532
 104   1.0000      -0.262983        -7.1561
 105   1.0000      -0.262354        -7.1390
 106   1.0000      -0.262116        -7.1325
 107   1.0000      -0.260077        -7.0770
 108   1.0000      -0.257062        -6.9950
 109   1.0000      -0.256481        -6.9792
 110   1.0000      -0.254791        -6.9332
 111   1.0000      -0.252646        -6.8749
 112   1.0000      -0.250969        -6.8292
 113   1.0000      -0.250277        -6.8104
 114   1.0000      -0.246756        -6.7146
 115   1.0000      -0.244400        -6.6505
 116   1.0000      -0.243471        -6.6252
 117   1.0000      -0.241178        -6.5628
 118   1.0000      -0.239834        -6.5262
 119   1.0000      -0.238124        -6.4797
 120   1.0000      -0.233902        -6.3648
 121   1.0000      -0.209726        -5.7069
 122   1.0000      -0.207907        -5.6574
 123   1.0000      -0.203010        -5.5242
 124   1.0000      -0.188645        -5.1333
 125   0.0000      -0.174974        -4.7613
 126   0.0000      -0.166962        -4.5433
 127   0.0000      -0.162651        -4.4259
 128   0.0000      -0.155622        -4.2347
 129   0.0000      -0.151662        -4.1269

MULLIKEN ATOMIC CHARGES AND SPIN POPULATIONS
--------------------------------------------
   0 Au:    0.349821   -0.016978
   1 Au:    0.356781    0.038097
   2 Au:    0.341009    0.098715
   3 Au:    0.298736    0.068897
   4 Au:   -0.116938    0.107969
   5 Au:   -0.251176    0.068123
   6 Au:    0.208096    0.108506
   7 Au:    0.249457    0.127879
   8 Au:    0.004925    0.108320
   9 Au:    0.351728    0.054604
  10 Au:   -0.006452    0.006119
  11 Au:    0.280452    0.088464
  12 Fe:   -2.066441    3.141283
Sum of atomic charges         :   -0.0000000

LOEWDIN ATOMIC CHARGES AND SPIN POPULATIONS
-------------------------------------------
   0 Au:    0.110538    0.016110
   1 Au:    0.112010    0.031121
   2 Au:    0.075796    0.077520
   3 Au:    0.038833    0.043521
   4 Au:   -0.021367    0.086272
   5 Au:   -0.066593    0.068461
   6 Au:    0.051524    0.077545
   7 Au:    0.087670    0.091203
   8 Au:    0.011383    0.082137
   9 Au:    0.061517    0.043608
  10 Au:    0.000581    0.042197
  11 Au:    0.096489    0.061822
  12 Fe:   -0.558381    3.278482

  Mayer bond orders larger than 0.100000
B(  0-Au,  1-Au) :   0.2095 B(  0-Au,  3-Au) :   0.2807 B(  0-Au,  4-Au) :   0.1483
B(  0-Au,  5-Au) :   0.2437 B(  0-Au, 12-Fe) :   0.4913 B(  1-Au,  5-Au) :   0.4168
B(  1-Au,  7-Au) :   0.1614 B(  1-Au,  8-Au) :   0.1015 B(  1-Au, 12-Fe) :   0.4985
B(  2-Au,  4-Au) :   0.4180 B(  2-Au,  5-Au) :   0.3805 B(  2-Au,  9-Au) :   0.1572
B(  2-Au, 10-Au) :   0.2038 B(  3-Au,  4-Au) :   0.3636 B(  3-Au,  6-Au) :   0.2192
B(  3-Au, 12-Fe) :   0.4362 B(  4-Au,  5-Au) :   0.1621 B(  4-Au, 10-Au) :   0.1813
B(  4-Au, 12-Fe) :   0.5612 B(  5-Au,  8-Au) :   0.1046 B(  5-Au,  9-Au) :   0.2921
B(  5-Au, 10-Au) :   0.1297 B(  5-Au, 12-Fe) :   0.4630 B(  6-Au,  7-Au) :   0.2284
B(  6-Au, 11-Au) :   0.1830 B(  6-Au, 12-Fe) :   0.5866 B(  7-Au,  8-Au) :   0.3302
B(  7-Au, 12-Fe) :   0.5134 B(  8-Au,  9-Au) :   0.4072 B(  8-Au, 10-Au) :   0.1494
B(  8-Au, 12-Fe) :   0.5435 B(  9-Au, 10-Au) :   0.2954 B( 10-Au, 11-Au) :   0.4054
B( 10-Au, 12-Fe) :   0.5344 B( 11-Au, 12-Fe) :   0.6141

FINAL SINGLE POINT ENERGY     -2893.396483069042

DIPOLE MOMENT
-------------
                                X             Y             Z
Electronic contribution:     -4.92541      18.46471     -22.71483
Nuclear contribution   :      4.85410     -18.21002      22.71175
                        -----------------------------------------
Total Dipole Moment    :     -0.07131       0.25469      -0.00308
                        -----------------------------------------
Magnitude (a.u.)       :      0.26450
Magnitude (Debye)      :      0.67231

Rotational constants in cm-1:     0.001597     0.001248     0.001082
Rotational constants in MHz :    47.876721    37.425027    32.435477

                             ****ORCA TERMINATED NORMALLY****
TOTAL RUN TIME: 0 days 1 hours 59 minutes 47 seconds 268 msec
