                         Program Version 5.0.3 -  RELEASE  -
|  1> !SC-NEVPT2 def2-TZVP def2-TZVP/C
|  2> !MOREAD RIJCOSX def2/J
|  3> %maxcore 4000
|  4> %moinp "casscf.gbw"
|  5> %pal nprocs 6 end
|  6>
|  7> %casscf
|  8>  mult 6,4
|  9>  bweight 1,1
| 10>  nroots 1,24
| 11>  nel 5
| 12>  norb 5
| 13>  ptsettings
| 14>   d4tpre 1e-14 # default = 1e-10
| 15>   d3tpre 1e-14
| 16>  end
| 17>  rel
| 18>    dosoc true
| 19>    gtensor true
| 20>  end
| 21> end
| 22>
| 23>
| 24> *xyzfile 0 6 pbe.xyz
| 25>
| 26>
| 27>                          ****END OF INPUT****

CARTESIAN COORDINATES (ANGSTROEM)
---------------------------------
  Au     9.244805    6.943356    6.019619
  Au     6.718053    7.250413    5.287987
  Au     4.055270    7.764955    5.376700
  Au     9.323203    5.814004    8.859157
  Au    11.494314    6.852477    7.532431
  Au     9.908348    9.004264    8.173069
  Au     8.512599    7.997079   10.311913
  Au     5.291929    8.388183    9.384256
  Au     6.687267    5.888417    9.613627
  Au     5.492601    9.542651    6.901492
  Au     7.468358   10.138520    8.708064
  Au     4.909358    6.355975    7.578373
  Mn     7.435525    7.651922    7.772803

 Total Charge           Charge          ....    0
 Multiplicity           Mult            ....    6
 Number of Electrons    NEL             ....  253
 Basis Dimension        Dim             ....  525

ORBITAL ENERGIES
----------------

  NO   OCC          E(Eh)            E(eV)
   0   2.0000    -240.548035     -6545.6448
   1   2.0000     -29.125284      -792.5393
   2   2.0000     -24.830166      -675.6632
   3   2.0000     -24.829881      -675.6554
   4   2.0000     -24.829705      -675.6506
   5   2.0000      -4.724441      -128.5586
   6   2.0000      -4.724412      -128.5578
   7   2.0000      -4.720629      -128.4549
   8   2.0000      -4.720621      -128.4546
   9   2.0000      -4.710663      -128.1837
  10   2.0000      -4.710228      -128.1718
  11   2.0000      -4.706921      -128.0818
  12   2.0000      -4.706866      -128.0803
  13   2.0000      -4.706845      -128.0798
  14   2.0000      -4.706742      -128.0770
  15   2.0000      -4.701265      -127.9279
  16   2.0000      -4.701193      -127.9260
  17   2.0000      -3.831531      -104.2613
  18   2.0000      -2.763890       -75.2093
  19   2.0000      -2.763797       -75.2067
  20   2.0000      -2.761172       -75.1353
  21   2.0000      -2.760625       -75.1204
  22   2.0000      -2.760199       -75.1088
  23   2.0000      -2.759441       -75.0882
  24   2.0000      -2.758778       -75.0702
  25   2.0000      -2.758547       -75.0639
  26   2.0000      -2.755783       -74.9887
  27   2.0000      -2.755571       -74.9829
  28   2.0000      -2.755250       -74.9742
  29   2.0000      -2.755243       -74.9740
  30   2.0000      -2.753094       -74.9155
  31   2.0000      -2.747531       -74.7641
  32   2.0000      -2.747272       -74.7571
  33   2.0000      -2.745227       -74.7014
  34   2.0000      -2.744713       -74.6874
  35   2.0000      -2.744495       -74.6815
  36   2.0000      -2.744097       -74.6707
  37   2.0000      -2.743658       -74.6587
  38   2.0000      -2.742391       -74.6243
  39   2.0000      -2.742382       -74.6240
  40   2.0000      -2.742071       -74.6155
  41   2.0000      -2.741707       -74.6056
  42   2.0000      -2.741127       -74.5899
  43   2.0000      -2.740761       -74.5799
  44   2.0000      -2.739773       -74.5530
  45   2.0000      -2.739726       -74.5517
  46   2.0000      -2.739679       -74.5504
  47   2.0000      -2.739591       -74.5481
  48   2.0000      -2.736653       -74.4681
  49   2.0000      -2.735755       -74.4437
  50   2.0000      -2.734573       -74.4115
  51   2.0000      -2.734488       -74.4092
  52   2.0000      -2.734352       -74.4055
  53   2.0000      -2.734093       -74.3984
  54   2.0000      -2.499353       -68.0109
  55   2.0000      -2.499315       -68.0098
  56   2.0000      -2.499082       -68.0035
  57   2.0000      -0.576162       -15.6782
  58   2.0000      -0.557437       -15.1686
  59   2.0000      -0.552948       -15.0465
  60   2.0000      -0.550202       -14.9717
  61   2.0000      -0.549394       -14.9498
  62   2.0000      -0.544734       -14.8230
  63   2.0000      -0.543341       -14.7850
  64   2.0000      -0.540398       -14.7050
  65   2.0000      -0.538864       -14.6632
  66   2.0000      -0.534283       -14.5386
  67   2.0000      -0.531749       -14.4696
  68   2.0000      -0.529649       -14.4125
  69   2.0000      -0.528889       -14.3918
  70   2.0000      -0.527773       -14.3614
  71   2.0000      -0.521268       -14.1844
  72   2.0000      -0.519954       -14.1487
  73   2.0000      -0.516002       -14.0411
  74   2.0000      -0.513239       -13.9660
  75   2.0000      -0.511958       -13.9311
  76   2.0000      -0.509281       -13.8582
  77   2.0000      -0.506716       -13.7884
  78   2.0000      -0.506037       -13.7700
  79   2.0000      -0.497205       -13.5296
  80   2.0000      -0.497008       -13.5243
  81   2.0000      -0.491328       -13.3697
  82   2.0000      -0.489321       -13.3151
  83   2.0000      -0.483744       -13.1633
  84   2.0000      -0.479164       -13.0387
  85   2.0000      -0.479044       -13.0354
  86   2.0000      -0.475159       -12.9297
  87   2.0000      -0.474032       -12.8991
  88   2.0000      -0.470974       -12.8159
  89   2.0000      -0.470634       -12.8066
  90   2.0000      -0.466075       -12.6825
  91   2.0000      -0.462985       -12.5985
  92   2.0000      -0.458264       -12.4700
  93   2.0000      -0.457721       -12.4552
  94   2.0000      -0.457398       -12.4464
  95   2.0000      -0.456334       -12.4175
  96   2.0000      -0.450714       -12.2645
  97   2.0000      -0.449591       -12.2340
  98   2.0000      -0.449398       -12.2287
  99   2.0000      -0.445521       -12.1232
 100   2.0000      -0.442097       -12.0301
 101   2.0000      -0.439210       -11.9515
 102   2.0000      -0.438200       -11.9240
 103   2.0000      -0.437937       -11.9169
 104   2.0000      -0.434620       -11.8266
 105   2.0000      -0.432083       -11.7576
 106   2.0000      -0.431964       -11.7543
 107   2.0000      -0.431190       -11.7333
 108   2.0000      -0.431018       -11.7286
 109   2.0000      -0.429902       -11.6982
 110   2.0000      -0.427812       -11.6414
 111   2.0000      -0.427633       -11.6365
 112   2.0000      -0.423329       -11.5194
 113   2.0000      -0.419931       -11.4269
 114   2.0000      -0.418853       -11.3976
 115   2.0000      -0.399182       -10.8623
 116   2.0000      -0.391630       -10.6568
 117   2.0000      -0.390059       -10.6140
 118   2.0000      -0.381449       -10.3798
 119   2.0000      -0.336546        -9.1579
 120   2.0000      -0.316589        -8.6148
 121   2.0000      -0.253208        -6.8901
 122   2.0000      -0.249614        -6.7924
 123   2.0000      -0.220363        -5.9964
 124   1.0000      -0.150865        -4.1052
 125   1.0000      -0.145650        -3.9633
 126   1.0000      -0.150365        -4.0916
 127   1.0000      -0.150192        -4.0869
 128   1.0000      -0.144721        -3.9381
 129   0.0000      -0.029858        -0.8125
 130   0.0000      -0.014092        -0.3835
 131   0.0000      -0.006532        -0.1777
 132   0.0000      -0.000379        -0.0103
 133   0.0000       0.013923         0.3789

MULLIKEN ATOMIC CHARGES AND SPIN DENSITIES
------------------------------------------
   0 Au:    0.004094    0.011691
   1 Au:    0.005003    0.011676
   2 Au:    0.344710    0.004601
   3 Au:   -0.039536    0.009835
   4 Au:    0.344517    0.004604
   5 Au:   -0.038357    0.009882
   6 Au:    0.288895    0.008123
   7 Au:    0.289720    0.008095
   8 Au:    0.337029    0.009452
   9 Au:   -0.040036    0.009875
  10 Au:    0.337086    0.009452
  11 Au:   -0.038819    0.009893
  12 Mn:   -1.794303    3.892822
Sum of atomic charges       :    0.0000000

LOEWDIN ATOMIC CHARGES AND SPIN DENSITIES
-----------------------------------------
   0 Au:   -0.016387    0.017069
   1 Au:   -0.015939    0.017054
   2 Au:    0.119250    0.005256
   3 Au:   -0.054312    0.013042
   4 Au:    0.118695    0.005261
   5 Au:   -0.054144    0.013101
   6 Au:    0.040274    0.010544
   7 Au:    0.040596    0.010514
   8 Au:    0.072468    0.015341
   9 Au:   -0.054518    0.013091
  10 Au:    0.072521    0.015336
  11 Au:   -0.054624    0.013111
  12 Mn:   -0.213879    3.851280

  Mayer bond orders larger than 0.100000
B(  0-Au,  1-Au) :   0.4120 B(  0-Au,  3-Au) :   0.1334 B(  0-Au,  4-Au) :   0.3570
B(  0-Au,  5-Au) :   0.1337 B(  0-Au, 12-Mn) :   0.5330 B(  1-Au,  2-Au) :   0.3556
B(  1-Au,  9-Au) :   0.1331 B(  1-Au, 11-Au) :   0.1334 B(  1-Au, 12-Mn) :   0.5331
B(  2-Au,  9-Au) :   0.2873 B(  2-Au, 11-Au) :   0.2870 B(  3-Au,  4-Au) :   0.2866
B(  3-Au,  5-Au) :   0.1522 B(  3-Au,  6-Au) :   0.2590 B(  3-Au,  8-Au) :   0.2783
B(  3-Au, 12-Mn) :   0.3462 B(  4-Au,  5-Au) :   0.2871 B(  5-Au,  6-Au) :   0.2582
B(  5-Au, 10-Au) :   0.2779 B(  5-Au, 12-Mn) :   0.3466 B(  6-Au,  8-Au) :   0.1548
B(  6-Au, 10-Au) :   0.1553 B(  6-Au, 12-Mn) :   0.4300 B(  7-Au,  8-Au) :   0.1556
B(  7-Au,  9-Au) :   0.2585 B(  7-Au, 10-Au) :   0.1548 B(  7-Au, 11-Au) :   0.2582
B(  7-Au, 12-Mn) :   0.4291 B(  8-Au, 11-Au) :   0.2789 B(  8-Au, 12-Mn) :   0.3675
B(  9-Au, 10-Au) :   0.2787 B(  9-Au, 11-Au) :   0.1527 B(  9-Au, 12-Mn) :   0.3469
B( 10-Au, 12-Mn) :   0.3680 B( 11-Au, 12-Mn) :   0.3470

FINAL SINGLE POINT ENERGY     -2773.498551385989

DIPOLE MOMENT
-------------
                                X             Y             Z
Electronic contribution:     -0.45409       0.44507       1.77284
Nuclear contribution   :      0.36442      -0.35543      -1.43425
                        -----------------------------------------
Total Dipole Moment    :     -0.08967       0.08964       0.33860
                        -----------------------------------------
Magnitude (a.u.)       :      0.36156
Magnitude (Debye)      :      0.91901

Rotational constants in cm-1:     0.001746     0.001047     0.000958
Rotational constants in MHz :    52.342186    31.390193    28.725520

                             ****ORCA TERMINATED NORMALLY****
TOTAL RUN TIME: 0 days 1 hours 15 minutes 55 seconds 713 msec
