                         Program Version 5.0.3 -  RELEASE  -
|  1> %pal nprocs 1 end
|  2>
|  3> !PBE def2-TZVP OPT UNO
|  4> !SLOWCONV KDIIS
|  5>
|  6> %geom maxiter 300 end
|  7>
|  8> *xyzfile 0 3 8.xyz                           ****END OF INPUT****
 Total Charge           Charge          ....    0
 Multiplicity           Mult            ....    3
 Number of Electrons    NEL             ....  252
FINAL SINGLE POINT ENERGY     -2674.157328176585
FINAL SINGLE POINT ENERGY     -2674.159152028014
FINAL SINGLE POINT ENERGY     -2674.160022933942
FINAL SINGLE POINT ENERGY     -2674.160400829042
FINAL SINGLE POINT ENERGY     -2674.160378814887
FINAL SINGLE POINT ENERGY     -2674.160512734429
FINAL SINGLE POINT ENERGY     -2674.160528767711
FINAL SINGLE POINT ENERGY     -2674.160547623775
FINAL SINGLE POINT ENERGY     -2674.160560059445
FINAL SINGLE POINT ENERGY     -2674.160566698155
FINAL SINGLE POINT ENERGY     -2674.160580577076
FINAL SINGLE POINT ENERGY     -2674.160589904805
FINAL SINGLE POINT ENERGY     -2674.160599665498
FINAL SINGLE POINT ENERGY     -2674.160610537216
FINAL SINGLE POINT ENERGY     -2674.160629401126
FINAL SINGLE POINT ENERGY     -2674.160634347183
FINAL SINGLE POINT ENERGY     -2674.160637183006
                    ***********************HURRAY********************

CARTESIAN COORDINATES (ANGSTROEM)
---------------------------------
  Au     9.918460    5.397088    4.024773
  Au    10.288722    4.969622    9.312304
  Au     9.552622    5.437846   11.924308
  Au     7.436786    5.198268   10.214112
  Au     9.253384    7.606288   10.291937
  Au     6.629418    7.739465    9.185799
  Au     6.308588    4.795054    7.821308
  Au     6.746636    7.701035    6.447184
  Au     9.425640    8.880621    7.943985
  Au    10.411795    4.955877    6.700019
  Au     9.470075    7.579766    5.604816
  Au     7.662131    5.153455    5.540904
  Cr     8.504685    6.353033    7.913750

 Multiplicity           Mult            ....    3
 Number of Electrons    NEL             ....  252
 Basis Dimension        Dim             ....  525

ORBITAL ENERGIES
----------------
                 SPIN UP ORBITALS
  NO   OCC          E(Eh)            E(eV)
   0   1.0000    -214.507445     -5837.0443
   1   1.0000     -24.310801      -661.5305
   2   1.0000     -20.675456      -562.6078
   3   1.0000     -20.675366      -562.6053
   4   1.0000     -20.672501      -562.5273
   5   1.0000      -4.027570      -109.5957
   6   1.0000      -4.027245      -109.5869
   7   1.0000      -4.023556      -109.4865
   8   1.0000      -4.023533      -109.4859
   9   1.0000      -4.023470      -109.4842
  10   1.0000      -4.023387      -109.4819
  11   1.0000      -4.020841      -109.4127
  12   1.0000      -4.020781      -109.4110
  13   1.0000      -4.017120      -109.3114
  14   1.0000      -4.016949      -109.3067
  15   1.0000      -4.014948      -109.2523
  16   1.0000      -4.014528      -109.2409
  17   1.0000      -2.806510       -76.3690
  18   1.0000      -2.249367       -61.2084
  19   1.0000      -2.243944       -61.0608
  20   1.0000      -2.242706       -61.0271
  21   1.0000      -2.242670       -61.0261
  22   1.0000      -2.241817       -61.0029
  23   1.0000      -2.241715       -61.0002
  24   1.0000      -2.241265       -60.9879
  25   1.0000      -2.240874       -60.9773
  26   1.0000      -2.237778       -60.8930
  27   1.0000      -2.237540       -60.8866
  28   1.0000      -2.236087       -60.8470
  29   1.0000      -2.236067       -60.8465
  30   1.0000      -2.236008       -60.8449
  31   1.0000      -2.235927       -60.8427
  32   1.0000      -2.235708       -60.8367
  33   1.0000      -2.234626       -60.8073
  34   1.0000      -2.232355       -60.7455
  35   1.0000      -2.232211       -60.7415
  36   1.0000      -2.232179       -60.7407
  37   1.0000      -2.231905       -60.7332
  38   1.0000      -2.231699       -60.7276
  39   1.0000      -2.231674       -60.7269
  40   1.0000      -2.231577       -60.7243
  41   1.0000      -2.231517       -60.7227
  42   1.0000      -2.231382       -60.7190
  43   1.0000      -2.231089       -60.7110
  44   1.0000      -2.230713       -60.7008
  45   1.0000      -2.230452       -60.6937
  46   1.0000      -2.229929       -60.6794
  47   1.0000      -2.229879       -60.6781
  48   1.0000      -2.229527       -60.6685
  49   1.0000      -2.227488       -60.6130
  50   1.0000      -2.225593       -60.5615
  51   1.0000      -2.225245       -60.5520
  52   1.0000      -2.221268       -60.4438
  53   1.0000      -2.220743       -60.4295
  54   1.0000      -1.797214       -48.9047
  55   1.0000      -1.796993       -48.8987
  56   1.0000      -1.792469       -48.7756
  57   1.0000      -0.415268       -11.3000
  58   1.0000      -0.384272       -10.4566
  59   1.0000      -0.381550       -10.3825
  60   1.0000      -0.370341       -10.0775
  61   1.0000      -0.367363        -9.9965
  62   1.0000      -0.359938        -9.7944
  63   1.0000      -0.359473        -9.7818
  64   1.0000      -0.359197        -9.7742
  65   1.0000      -0.344710        -9.3800
  66   1.0000      -0.343368        -9.3435
  67   1.0000      -0.339560        -9.2399
  68   1.0000      -0.339323        -9.2334
  69   1.0000      -0.336973        -9.1695
  70   1.0000      -0.333962        -9.0876
  71   1.0000      -0.333110        -9.0644
  72   1.0000      -0.330399        -8.9906
  73   1.0000      -0.329050        -8.9539
  74   1.0000      -0.324454        -8.8288
  75   1.0000      -0.323623        -8.8062
  76   1.0000      -0.321182        -8.7398
  77   1.0000      -0.315871        -8.5953
  78   1.0000      -0.312935        -8.5154
  79   1.0000      -0.312473        -8.5028
  80   1.0000      -0.312111        -8.4930
  81   1.0000      -0.306301        -8.3349
  82   1.0000      -0.301397        -8.2014
  83   1.0000      -0.295527        -8.0417
  84   1.0000      -0.295192        -8.0326
  85   1.0000      -0.292902        -7.9703
  86   1.0000      -0.292829        -7.9683
  87   1.0000      -0.291819        -7.9408
  88   1.0000      -0.290129        -7.8948
  89   1.0000      -0.286357        -7.7922
  90   1.0000      -0.284062        -7.7297
  91   1.0000      -0.281385        -7.6569
  92   1.0000      -0.279980        -7.6186
  93   1.0000      -0.278196        -7.5701
  94   1.0000      -0.277803        -7.5594
  95   1.0000      -0.277095        -7.5401
  96   1.0000      -0.273408        -7.4398
  97   1.0000      -0.273015        -7.4291
  98   1.0000      -0.269163        -7.3243
  99   1.0000      -0.268611        -7.3093
 100   1.0000      -0.267430        -7.2771
 101   1.0000      -0.266518        -7.2523
 102   1.0000      -0.261448        -7.1144
 103   1.0000      -0.259711        -7.0671
 104   1.0000      -0.259454        -7.0601
 105   1.0000      -0.258738        -7.0406
 106   1.0000      -0.257486        -7.0066
 107   1.0000      -0.256582        -6.9820
 108   1.0000      -0.254385        -6.9222
 109   1.0000      -0.253707        -6.9037
 110   1.0000      -0.253160        -6.8888
 111   1.0000      -0.251380        -6.8404
 112   1.0000      -0.249602        -6.7920
 113   1.0000      -0.248392        -6.7591
 114   1.0000      -0.244473        -6.6524
 115   1.0000      -0.242875        -6.6090
 116   1.0000      -0.241091        -6.5604
 117   1.0000      -0.240637        -6.5481
 118   1.0000      -0.237597        -6.4654
 119   1.0000      -0.234519        -6.3816
 120   1.0000      -0.231125        -6.2892
 121   1.0000      -0.229539        -6.2461
 122   1.0000      -0.211540        -5.7563
 123   1.0000      -0.209216        -5.6930
 124   1.0000      -0.208760        -5.6806
 125   1.0000      -0.206330        -5.6145
 126   1.0000      -0.199553        -5.4301
 127   0.0000      -0.181162        -4.9297
 128   0.0000      -0.167691        -4.5631
 129   0.0000      -0.160566        -4.3692
 130   0.0000      -0.134507        -3.6601
 131   0.0000      -0.131851        -3.5878

                 SPIN DOWN ORBITALS
  NO   OCC          E(Eh)            E(eV)
   0   1.0000    -214.507034     -5837.0331
   1   1.0000     -24.268479      -660.3789
   2   1.0000     -20.644147      -561.7558
   3   1.0000     -20.643115      -561.7277
   4   1.0000     -20.639021      -561.6163
   5   1.0000      -4.027636      -109.5975
   6   1.0000      -4.027310      -109.5887
   7   1.0000      -4.023258      -109.4784
   8   1.0000      -4.023244      -109.4780
   9   1.0000      -4.023173      -109.4761
  10   1.0000      -4.023094      -109.4739
  11   1.0000      -4.021100      -109.4197
  12   1.0000      -4.021040      -109.4181
  13   1.0000      -4.017636      -109.3254
  14   1.0000      -4.017465      -109.3208
  15   1.0000      -4.014557      -109.2417
  16   1.0000      -4.014112      -109.2296
  17   1.0000      -2.692945       -73.2788
  18   1.0000      -2.249593       -61.2145
  19   1.0000      -2.243867       -61.0587
  20   1.0000      -2.242729       -61.0278
  21   1.0000      -2.242627       -61.0250
  22   1.0000      -2.241652       -60.9984
  23   1.0000      -2.241513       -60.9947
  24   1.0000      -2.241145       -60.9846
  25   1.0000      -2.240954       -60.9795
  26   1.0000      -2.237404       -60.8829
  27   1.0000      -2.237237       -60.8783
  28   1.0000      -2.236032       -60.8455
  29   1.0000      -2.235815       -60.8396
  30   1.0000      -2.235497       -60.8310
  31   1.0000      -2.235340       -60.8267
  32   1.0000      -2.235305       -60.8257
  33   1.0000      -2.234490       -60.8036
  34   1.0000      -2.232531       -60.7503
  35   1.0000      -2.232410       -60.7470
  36   1.0000      -2.232246       -60.7425
  37   1.0000      -2.231954       -60.7345
  38   1.0000      -2.231939       -60.7341
  39   1.0000      -2.231837       -60.7314
  40   1.0000      -2.231817       -60.7308
  41   1.0000      -2.231674       -60.7269
  42   1.0000      -2.231341       -60.7179
  43   1.0000      -2.230978       -60.7080
  44   1.0000      -2.230492       -60.6948
  45   1.0000      -2.229897       -60.6786
  46   1.0000      -2.229850       -60.6773
  47   1.0000      -2.229559       -60.6694
  48   1.0000      -2.229509       -60.6680
  49   1.0000      -2.228255       -60.6339
  50   1.0000      -2.226464       -60.5852
  51   1.0000      -2.226122       -60.5759
  52   1.0000      -2.220805       -60.4312
  53   1.0000      -2.220252       -60.4161
  54   1.0000      -1.688478       -45.9458
  55   1.0000      -1.686232       -45.8847
  56   1.0000      -1.676658       -45.6242
  57   1.0000      -0.410784       -11.1780
  58   1.0000      -0.384586       -10.4651
  59   1.0000      -0.379973       -10.3396
  60   1.0000      -0.368056       -10.0153
  61   1.0000      -0.367235        -9.9930
  62   1.0000      -0.357628        -9.7315
  63   1.0000      -0.356837        -9.7100
  64   1.0000      -0.355606        -9.6765
  65   1.0000      -0.344986        -9.3876
  66   1.0000      -0.342537        -9.3209
  67   1.0000      -0.339119        -9.2279
  68   1.0000      -0.336901        -9.1675
  69   1.0000      -0.334758        -9.1092
  70   1.0000      -0.334266        -9.0958
  71   1.0000      -0.331259        -9.0140
  72   1.0000      -0.329410        -8.9637
  73   1.0000      -0.326638        -8.8883
  74   1.0000      -0.322899        -8.7865
  75   1.0000      -0.321531        -8.7493
  76   1.0000      -0.320865        -8.7312
  77   1.0000      -0.315180        -8.5765
  78   1.0000      -0.313571        -8.5327
  79   1.0000      -0.313037        -8.5182
  80   1.0000      -0.311176        -8.4675
  81   1.0000      -0.304793        -8.2938
  82   1.0000      -0.301627        -8.2077
  83   1.0000      -0.296550        -8.0695
  84   1.0000      -0.294001        -8.0002
  85   1.0000      -0.292732        -7.9656
  86   1.0000      -0.292699        -7.9647
  87   1.0000      -0.292363        -7.9556
  88   1.0000      -0.290261        -7.8984
  89   1.0000      -0.287109        -7.8126
  90   1.0000      -0.284611        -7.7447
  91   1.0000      -0.281006        -7.6466
  92   1.0000      -0.280451        -7.6315
  93   1.0000      -0.278185        -7.5698
  94   1.0000      -0.277644        -7.5551
  95   1.0000      -0.277575        -7.5532
  96   1.0000      -0.273712        -7.4481
  97   1.0000      -0.273082        -7.4309
  98   1.0000      -0.270992        -7.3741
  99   1.0000      -0.267802        -7.2873
 100   1.0000      -0.267522        -7.2796
 101   1.0000      -0.266579        -7.2540
 102   1.0000      -0.262597        -7.1456
 103   1.0000      -0.259895        -7.0721
 104   1.0000      -0.259514        -7.0617
 105   1.0000      -0.259418        -7.0591
 106   1.0000      -0.258533        -7.0350
 107   1.0000      -0.257598        -7.0096
 108   1.0000      -0.255168        -6.9435
 109   1.0000      -0.254845        -6.9347
 110   1.0000      -0.254186        -6.9168
 111   1.0000      -0.252609        -6.8738
 112   1.0000      -0.250555        -6.8180
 113   1.0000      -0.249043        -6.7768
 114   1.0000      -0.244678        -6.6580
 115   1.0000      -0.244177        -6.6444
 116   1.0000      -0.241778        -6.5791
 117   1.0000      -0.241375        -6.5682
 118   1.0000      -0.237628        -6.4662
 119   1.0000      -0.235527        -6.4090
 120   1.0000      -0.233282        -6.3479
 121   1.0000      -0.223708        -6.0874
 122   1.0000      -0.203768        -5.5448
 123   1.0000      -0.192288        -5.2324
 124   1.0000      -0.191064        -5.1991
 125   0.0000      -0.144428        -3.9301
 126   0.0000      -0.143528        -3.9056
 127   0.0000      -0.135150        -3.6776
 128   0.0000      -0.118876        -3.2348
 129   0.0000      -0.116980        -3.1832

MULLIKEN ATOMIC CHARGES AND SPIN POPULATIONS
--------------------------------------------
   0 Au:    0.377634   -0.028117
   1 Au:    0.069850   -0.029463
   2 Au:    0.377189   -0.028922
   3 Au:    0.260494   -0.104463
   4 Au:    0.264641   -0.103710
   5 Au:    0.608323   -0.109113
   6 Au:    0.300245   -0.061901
   7 Au:    0.608246   -0.109158
   8 Au:    0.296327   -0.061239
   9 Au:    0.072471   -0.030307
  10 Au:    0.262965   -0.104614
  11 Au:    0.258331   -0.104495
  12 Cr:   -3.756717    2.875501
Sum of atomic charges         :   -0.0000000

LOEWDIN ATOMIC CHARGES AND SPIN POPULATIONS
-------------------------------------------
   0 Au:    0.138110   -0.044803
   1 Au:    0.095532   -0.044228
   2 Au:    0.138164   -0.045116
   3 Au:    0.030389   -0.072805
   4 Au:    0.029401   -0.072747
   5 Au:    0.128807   -0.124273
   6 Au:    0.148914   -0.086413
   7 Au:    0.129042   -0.124306
   8 Au:    0.150491   -0.085166
   9 Au:    0.094959   -0.044722
  10 Au:    0.029534   -0.072892
  11 Au:    0.030088   -0.072568
  12 Cr:   -1.143430    2.890039

  Mayer bond orders larger than 0.100000
B(  0-Au,  9-Au) :   0.3024 B(  0-Au, 10-Au) :   0.3404 B(  0-Au, 11-Au) :   0.3434
B(  0-Au, 12-Cr) :   0.2540 B(  1-Au,  2-Au) :   0.3027 B(  1-Au,  3-Au) :   0.1252
B(  1-Au,  4-Au) :   0.1248 B(  1-Au,  9-Au) :   0.6387 B(  1-Au, 12-Cr) :   0.6981
B(  2-Au,  3-Au) :   0.3413 B(  2-Au,  4-Au) :   0.3420 B(  2-Au, 12-Cr) :   0.2546
B(  3-Au,  4-Au) :   0.1204 B(  3-Au,  5-Au) :   0.1774 B(  3-Au,  6-Au) :   0.3851
B(  3-Au, 12-Cr) :   0.5536 B(  4-Au,  5-Au) :   0.1834 B(  4-Au,  8-Au) :   0.3829
B(  4-Au, 12-Cr) :   0.5462 B(  5-Au,  7-Au) :   0.2471 B(  5-Au, 12-Cr) :   0.8015
B(  6-Au, 11-Au) :   0.3872 B(  6-Au, 12-Cr) :   0.6531 B(  7-Au, 10-Au) :   0.1814
B(  7-Au, 11-Au) :   0.1796 B(  7-Au, 12-Cr) :   0.8027 B(  8-Au, 10-Au) :   0.3830
B(  8-Au, 12-Cr) :   0.6606 B(  9-Au, 10-Au) :   0.1254 B(  9-Au, 11-Au) :   0.1272
B(  9-Au, 12-Cr) :   0.6968 B( 10-Au, 11-Au) :   0.1183 B( 10-Au, 12-Cr) :   0.5514
B( 11-Au, 12-Cr) :   0.5512

FINAL SINGLE POINT ENERGY     -2674.160638038215

DIPOLE MOMENT
-------------
                                X             Y             Z
Electronic contribution:      3.18520      -2.49556       0.14240
Nuclear contribution   :     -3.06570       2.40452      -0.13586
                        -----------------------------------------
Total Dipole Moment    :      0.11949      -0.09105       0.00654
                        -----------------------------------------
Magnitude (a.u.)       :      0.15037
Magnitude (Debye)      :      0.38221

Rotational constants in cm-1:     0.001735     0.001034     0.000979
Rotational constants in MHz :    52.004082    31.009600    29.358305

                             ****ORCA TERMINATED NORMALLY****
TOTAL RUN TIME: 0 days 2 hours 20 minutes 28 seconds 160 msec
