                         Program Version 5.0.3 -  RELEASE  -
|  1> !SC-NEVPT2 def2-TZVP def2-TZVP/C
|  2> !MOREAD RIJCOSX def2/J
|  3> %maxcore 4000
|  4> %moinp "casscf.gbw"
|  5> %pal nprocs 8 end
|  6>
|  7> %casscf
|  8>  mult 5,3
|  9>  bweight 1,1
| 10>  nroots 5,45
| 11>  nel 6
| 12>  norb 5
| 13>  ptsettings
| 14>   d4tpre 1e-14 # default = 1e-10
| 15>   d3tpre 1e-14
| 16>  end
| 17>  rel
| 18>    dosoc true
| 19>    gtensor true
| 20>  end
| 21> end
| 22>
| 23>
| 24> *xyzfile 0 5 pbe.xyz
| 25>
| 26>
| 27>                          ****END OF INPUT****

CARTESIAN COORDINATES (ANGSTROEM)
---------------------------------
  Au     8.938456    5.033494    6.378415
  Au    10.006233    7.315248    7.501598
  Au     8.685938    8.396027    9.670378
  Au     7.794444    5.823366    8.731261
  Au     6.364709    7.188705   10.656892
  Au     4.792969    6.224404    8.620738
  Au     5.997251   10.621437    6.852013
  Au     8.543826    9.602872    7.007165
  Au     4.074641    8.600952    7.057676
  Au     8.965920    7.521633    4.956189
  Au     6.852690    5.792520    4.502756
  Au     6.355905    8.350521    5.323386
  Au     4.491162    6.140071    5.880394
  Au     6.312901    4.350065    6.920834
  Cr     6.516346    8.219493    8.102522

 Total Charge           Charge          ....    0
 Multiplicity           Mult            ....    5
 Number of Electrons    NEL             ....  290
 Basis Dimension        Dim             ....  605

ORBITAL ENERGIES
----------------

  NO   OCC          E(Eh)            E(eV)
   0   2.0000    -220.495284     -5999.9817
   1   2.0000     -26.330765      -716.4965
   2   2.0000     -22.264568      -605.8497
   3   2.0000     -22.264130      -605.8378
   4   2.0000     -22.250735      -605.4733
   5   2.0000      -4.721532      -128.4794
   6   2.0000      -4.721439      -128.4769
   7   2.0000      -4.715005      -128.3018
   8   2.0000      -4.714828      -128.2970
   9   2.0000      -4.714646      -128.2920
  10   2.0000      -4.714574      -128.2901
  11   2.0000      -4.714457      -128.2869
  12   2.0000      -4.714391      -128.2851
  13   2.0000      -4.705573      -128.0452
  14   2.0000      -4.705508      -128.0434
  15   2.0000      -4.704719      -128.0219
  16   2.0000      -4.704606      -128.0188
  17   2.0000      -4.701082      -127.9229
  18   2.0000      -4.700948      -127.9193
  19   2.0000      -3.387300       -92.1731
  20   2.0000      -2.762073       -75.1598
  21   2.0000      -2.761972       -75.1571
  22   2.0000      -2.758319       -75.0577
  23   2.0000      -2.758203       -75.0545
  24   2.0000      -2.756978       -75.0212
  25   2.0000      -2.756877       -75.0184
  26   2.0000      -2.754663       -74.9582
  27   2.0000      -2.754473       -74.9530
  28   2.0000      -2.753411       -74.9241
  29   2.0000      -2.753185       -74.9180
  30   2.0000      -2.752812       -74.9078
  31   2.0000      -2.752753       -74.9062
  32   2.0000      -2.750836       -74.8541
  33   2.0000      -2.750669       -74.8495
  34   2.0000      -2.750034       -74.8322
  35   2.0000      -2.749550       -74.8191
  36   2.0000      -2.748950       -74.8027
  37   2.0000      -2.748898       -74.8013
  38   2.0000      -2.748100       -74.7796
  39   2.0000      -2.747982       -74.7764
  40   2.0000      -2.747905       -74.7743
  41   2.0000      -2.747535       -74.7642
  42   2.0000      -2.746684       -74.7411
  43   2.0000      -2.746101       -74.7252
  44   2.0000      -2.745063       -74.6970
  45   2.0000      -2.744562       -74.6833
  46   2.0000      -2.742817       -74.6358
  47   2.0000      -2.742341       -74.6229
  48   2.0000      -2.742112       -74.6167
  49   2.0000      -2.741727       -74.6062
  50   2.0000      -2.740750       -74.5796
  51   2.0000      -2.739981       -74.5587
  52   2.0000      -2.739907       -74.5567
  53   2.0000      -2.738672       -74.5231
  54   2.0000      -2.738113       -74.5078
  55   2.0000      -2.738026       -74.5055
  56   2.0000      -2.736369       -74.4604
  57   2.0000      -2.736242       -74.4569
  58   2.0000      -2.735931       -74.4485
  59   2.0000      -2.735023       -74.4238
  60   2.0000      -2.734891       -74.4202
  61   2.0000      -2.734778       -74.4171
  62   2.0000      -2.154727       -58.6331
  63   2.0000      -2.153206       -58.5917
  64   2.0000      -2.138917       -58.2029
  65   2.0000      -0.559717       -15.2307
  66   2.0000      -0.556845       -15.1525
  67   2.0000      -0.554206       -15.0807
  68   2.0000      -0.549418       -14.9504
  69   2.0000      -0.546763       -14.8782
  70   2.0000      -0.543274       -14.7832
  71   2.0000      -0.540514       -14.7081
  72   2.0000      -0.540080       -14.6963
  73   2.0000      -0.539884       -14.6910
  74   2.0000      -0.538179       -14.6446
  75   2.0000      -0.536060       -14.5869
  76   2.0000      -0.534539       -14.5455
  77   2.0000      -0.533712       -14.5230
  78   2.0000      -0.531210       -14.4550
  79   2.0000      -0.528099       -14.3703
  80   2.0000      -0.527928       -14.3657
  81   2.0000      -0.526182       -14.3182
  82   2.0000      -0.525492       -14.2994
  83   2.0000      -0.523916       -14.2565
  84   2.0000      -0.520634       -14.1672
  85   2.0000      -0.516054       -14.0426
  86   2.0000      -0.512430       -13.9439
  87   2.0000      -0.511506       -13.9188
  88   2.0000      -0.509283       -13.8583
  89   2.0000      -0.508477       -13.8364
  90   2.0000      -0.504056       -13.7161
  91   2.0000      -0.499306       -13.5868
  92   2.0000      -0.496132       -13.5004
  93   2.0000      -0.494774       -13.4635
  94   2.0000      -0.491775       -13.3819
  95   2.0000      -0.491489       -13.3741
  96   2.0000      -0.488984       -13.3059
  97   2.0000      -0.485692       -13.2163
  98   2.0000      -0.479708       -13.0535
  99   2.0000      -0.478960       -13.0332
 100   2.0000      -0.472735       -12.8638
 101   2.0000      -0.472536       -12.8583
 102   2.0000      -0.471080       -12.8187
 103   2.0000      -0.463895       -12.6232
 104   2.0000      -0.463339       -12.6081
 105   2.0000      -0.461820       -12.5668
 106   2.0000      -0.461626       -12.5615
 107   2.0000      -0.457614       -12.4523
 108   2.0000      -0.457350       -12.4451
 109   2.0000      -0.456237       -12.4149
 110   2.0000      -0.454937       -12.3795
 111   2.0000      -0.453016       -12.3272
 112   2.0000      -0.451981       -12.2990
 113   2.0000      -0.451151       -12.2764
 114   2.0000      -0.450958       -12.2712
 115   2.0000      -0.443707       -12.0739
 116   2.0000      -0.442786       -12.0488
 117   2.0000      -0.438264       -11.9258
 118   2.0000      -0.436846       -11.8872
 119   2.0000      -0.435958       -11.8630
 120   2.0000      -0.434166       -11.8143
 121   2.0000      -0.431895       -11.7525
 122   2.0000      -0.428508       -11.6603
 123   2.0000      -0.428346       -11.6559
 124   2.0000      -0.425438       -11.5767
 125   2.0000      -0.425143       -11.5687
 126   2.0000      -0.424440       -11.5496
 127   2.0000      -0.418437       -11.3862
 128   2.0000      -0.416833       -11.3426
 129   2.0000      -0.414668       -11.2837
 130   2.0000      -0.409818       -11.1517
 131   2.0000      -0.408140       -11.1060
 132   2.0000      -0.406305       -11.0561
 133   2.0000      -0.400027       -10.8853
 134   2.0000      -0.395793       -10.7701
 135   2.0000      -0.390943       -10.6381
 136   2.0000      -0.359384        -9.7793
 137   2.0000      -0.350889        -9.5482
 138   2.0000      -0.349629        -9.5139
 139   2.0000      -0.248140        -6.7522
 140   2.0000      -0.240696        -6.5497
 141   2.0000      -0.220792        -6.0081
 142   1.2000      -0.093557        -2.5458
 143   1.2000      -0.107761        -2.9323
 144   1.2000      -0.127425        -3.4674
 145   1.2000      -0.083254        -2.2655
 146   1.2000      -0.105826        -2.8797
 147   0.0000      -0.043289        -1.1780
 148   0.0000      -0.012196        -0.3319
 149   0.0000       0.002746         0.0747
 150   0.0000       0.007409         0.2016
 151   0.0000       0.012735         0.3465

MULLIKEN ATOMIC CHARGES AND SPIN DENSITIES
------------------------------------------
   0 Au:    0.181283    0.018295
   1 Au:    0.118132    0.015758
   2 Au:    0.496051    0.024855
   3 Au:   -0.260600    0.022777
   4 Au:    0.586282    0.028610
   5 Au:    0.185730    0.087339
   6 Au:    0.586286    0.028152
   7 Au:    0.184751    0.085923
   8 Au:    0.496454    0.024069
   9 Au:    0.095291    0.026468
  10 Au:    0.179500    0.018776
  11 Au:   -0.259264    0.022820
  12 Au:    0.118672    0.015676
  13 Au:    0.093687    0.025543
  14 Cr:   -2.802255    2.554938
Sum of atomic charges       :    0.0000000

LOEWDIN ATOMIC CHARGES AND SPIN DENSITIES
-----------------------------------------
   0 Au:    0.022641    0.016645
   1 Au:    0.015901    0.036863
   2 Au:    0.125770    0.052618
   3 Au:   -0.035611    0.045578
   4 Au:    0.217488    0.050323
   5 Au:    0.039812    0.067818
   6 Au:    0.216876    0.049449
   7 Au:    0.039203    0.067223
   8 Au:    0.125914    0.052004
   9 Au:    0.037077    0.030209
  10 Au:    0.022443    0.016916
  11 Au:   -0.035478    0.045437
  12 Au:    0.015621    0.036848
  13 Au:    0.036531    0.029940
  14 Cr:   -0.844189    2.402128

  Mayer bond orders larger than 0.100000
B(  0-Au,  1-Au) :   0.2853 B(  0-Au,  3-Au) :   0.5278 B(  0-Au,  9-Au) :   0.1998
B(  0-Au, 13-Au) :   0.2574 B(  1-Au,  2-Au) :   0.1352 B(  1-Au,  3-Au) :   0.1947
B(  1-Au,  7-Au) :   0.2786 B(  1-Au,  9-Au) :   0.2540 B(  1-Au, 14-Cr) :   0.3245
B(  2-Au,  3-Au) :   0.1085 B(  2-Au,  4-Au) :   0.1935 B(  2-Au,  7-Au) :   0.1580
B(  2-Au,  8-Au) :   0.2266 B(  2-Au, 14-Cr) :   0.2009 B(  3-Au,  4-Au) :   0.1755
B(  3-Au, 13-Au) :   0.3729 B(  3-Au, 14-Cr) :   0.2837 B(  4-Au,  5-Au) :   0.1468
B(  4-Au, 14-Cr) :   0.2914 B(  5-Au,  8-Au) :   0.1556 B(  5-Au, 12-Au) :   0.2793
B(  5-Au, 13-Au) :   0.1252 B(  5-Au, 14-Cr) :   0.3735 B(  6-Au,  7-Au) :   0.1463
B(  6-Au,  8-Au) :   0.1940 B(  6-Au, 11-Au) :   0.1744 B(  6-Au, 14-Cr) :   0.2911
B(  7-Au,  9-Au) :   0.1248 B(  7-Au, 14-Cr) :   0.3754 B(  8-Au, 11-Au) :   0.1100
B(  8-Au, 12-Au) :   0.1352 B(  8-Au, 14-Cr) :   0.2020 B(  9-Au, 10-Au) :   0.2572
B(  9-Au, 11-Au) :   0.3759 B( 10-Au, 11-Au) :   0.5269 B( 10-Au, 12-Au) :   0.2852
B( 10-Au, 13-Au) :   0.2010 B( 11-Au, 12-Au) :   0.1912 B( 11-Au, 14-Cr) :   0.2844
B( 12-Au, 13-Au) :   0.2551 B( 12-Au, 14-Cr) :   0.3250

FINAL SINGLE POINT ENERGY     -2937.546446421313

DIPOLE MOMENT
-------------
                                X             Y             Z
Electronic contribution:     17.15644     -34.84198     -33.01912
Nuclear contribution   :    -17.47493      35.49108      33.64006
                        -----------------------------------------
Total Dipole Moment    :     -0.31849       0.64909       0.62094
                        -----------------------------------------
Magnitude (a.u.)       :      0.95306
Magnitude (Debye)      :      2.42250

Rotational constants in cm-1:     0.001038     0.001028     0.000965
Rotational constants in MHz :    31.129881    30.818174    28.939542

                             ****ORCA TERMINATED NORMALLY****
TOTAL RUN TIME: 0 days 1 hours 20 minutes 12 seconds 967 msec
