                         Program Version 5.0.3 -  RELEASE  -
|  1> !RI-B2PLYP def2-TZVP def2-TZVP/C
|  2> !RIJCOSX VERYSLOWCONV
|  3>
|  4> %scf
|  5>   AutoTRAHIter 200
|  6>   maxiter 400
|  7> end
|  8>
|  9>
| 10> %pal nprocs 6 end
| 11>
| 12> *xyzfile 0 6 pbe.xyz
| 13>
| 14> $new_job
| 15>
| 16> !RI-B2PLYP def2-TZVP def2-TZVP/C
| 17> !RIJCOSX VERYSLOWCONV
| 18>
| 19> %scf
| 20>   AutoTRAHIter 200
| 21>   maxiter 400
| 22> end
| 23>
| 24>
| 25> %pal nprocs 6 end
| 26>
| 27> *xyzfile 0 4 pbe.xyz
| 28>
| 29>
| 30>
| 31>
| 32>
| 33>                          ****END OF INPUT****
 Total Charge           Charge          ....    0
 Multiplicity           Mult            ....    6
 Number of Electrons    NEL             ....  329
MP2 TOTAL ENERGY:    -3320.282886675 Eh
FINAL SINGLE POINT ENERGY     -3320.282886675135

CARTESIAN COORDINATES (ANGSTROEM)
---------------------------------
  Au     9.326877    7.658931    8.189430
  Au     8.762021    7.295466    5.545611
  Au     6.317129    7.079788    4.290942
  Au     4.969423    7.026647   10.175521
  Au     7.605943    5.558655    8.849821
  Au     7.039236    5.187380    6.164281
  Au     4.017135    6.416059    5.663252
  Au     9.193222    9.868782    6.505574
  Au     7.322984    9.639048    4.501853
  Au     6.606929   10.824436    6.917203
  Au     8.279638   10.264202    9.070360
  Au     5.600501    9.623573    9.311146
  Au     3.892976   10.796169    7.493490
  Au     3.728672    8.016067    7.904370
  Au     4.800196    9.111570    5.507743
  Au     7.583450    7.899661   10.310206
  Mn     5.198419    5.750440    7.902485

 Multiplicity           Mult            ....    4
 Number of Electrons    NEL             ....  329
 Basis Dimension        Dim             ....  685

ORBITAL ENERGIES
----------------
                 SPIN UP ORBITALS
  NO   OCC          E(Eh)            E(eV)
   0   1.0000    -237.636368     -6466.4143
   1   1.0000     -28.140368      -765.7383
   2   1.0000     -24.059481      -654.6918
   3   1.0000     -24.057057      -654.6258
   4   1.0000     -24.056986      -654.6239
   5   1.0000      -4.407967      -119.9469
   6   1.0000      -4.403407      -119.8228
   7   1.0000      -4.403233      -119.8181
   8   1.0000      -4.402772      -119.8055
   9   1.0000      -4.401931      -119.7826
  10   1.0000      -4.401793      -119.7789
  11   1.0000      -4.401663      -119.7753
  12   1.0000      -4.396538      -119.6359
  13   1.0000      -4.396083      -119.6235
  14   1.0000      -4.395444      -119.6061
  15   1.0000      -4.395299      -119.6022
  16   1.0000      -4.394557      -119.5820
  17   1.0000      -4.394285      -119.5746
  18   1.0000      -4.394164      -119.5713
  19   1.0000      -4.393146      -119.5436
  20   1.0000      -4.391075      -119.4872
  21   1.0000      -3.618409       -98.4619
  22   1.0000      -2.528697       -68.8093
  23   1.0000      -2.526322       -68.7447
  24   1.0000      -2.525832       -68.7314
  25   1.0000      -2.524750       -68.7019
  26   1.0000      -2.523875       -68.6781
  27   1.0000      -2.522635       -68.6444
  28   1.0000      -2.522267       -68.6344
  29   1.0000      -2.522055       -68.6286
  30   1.0000      -2.521847       -68.6229
  31   1.0000      -2.521567       -68.6153
  32   1.0000      -2.520867       -68.5963
  33   1.0000      -2.519693       -68.5643
  34   1.0000      -2.519002       -68.5455
  35   1.0000      -2.518822       -68.5406
  36   1.0000      -2.518435       -68.5301
  37   1.0000      -2.518338       -68.5275
  38   1.0000      -2.518241       -68.5248
  39   1.0000      -2.517438       -68.5030
  40   1.0000      -2.517170       -68.4957
  41   1.0000      -2.516768       -68.4847
  42   1.0000      -2.516465       -68.4765
  43   1.0000      -2.516321       -68.4726
  44   1.0000      -2.515955       -68.4626
  45   1.0000      -2.515907       -68.4613
  46   1.0000      -2.514795       -68.4311
  47   1.0000      -2.514373       -68.4196
  48   1.0000      -2.513760       -68.4029
  49   1.0000      -2.513678       -68.4007
  50   1.0000      -2.513299       -68.3903
  51   1.0000      -2.512880       -68.3789
  52   1.0000      -2.512321       -68.3637
  53   1.0000      -2.511695       -68.3467
  54   1.0000      -2.511538       -68.3424
  55   1.0000      -2.511283       -68.3355
  56   1.0000      -2.510519       -68.3147
  57   1.0000      -2.510450       -68.3128
  58   1.0000      -2.510014       -68.3010
  59   1.0000      -2.509857       -68.2967
  60   1.0000      -2.509346       -68.2828
  61   1.0000      -2.509162       -68.2778
  62   1.0000      -2.509039       -68.2744
  63   1.0000      -2.508797       -68.2678
  64   1.0000      -2.508582       -68.2620
  65   1.0000      -2.508411       -68.2573
  66   1.0000      -2.507676       -68.2373
  67   1.0000      -2.507158       -68.2232
  68   1.0000      -2.506760       -68.2124
  69   1.0000      -2.506121       -68.1950
  70   1.0000      -2.422476       -65.9189
  71   1.0000      -2.418053       -65.7986
  72   1.0000      -2.417680       -65.7884
  73   1.0000      -0.519497       -14.1362
  74   1.0000      -0.517108       -14.0712
  75   1.0000      -0.513670       -13.9777
  76   1.0000      -0.512430       -13.9439
  77   1.0000      -0.510724       -13.8975
  78   1.0000      -0.476412       -12.9638
  79   1.0000      -0.469815       -12.7843
  80   1.0000      -0.468779       -12.7561
  81   1.0000      -0.468187       -12.7400
  82   1.0000      -0.465378       -12.6636
  83   1.0000      -0.463876       -12.6227
  84   1.0000      -0.460920       -12.5423
  85   1.0000      -0.459293       -12.4980
  86   1.0000      -0.457316       -12.4442
  87   1.0000      -0.455411       -12.3924
  88   1.0000      -0.454519       -12.3681
  89   1.0000      -0.452771       -12.3205
  90   1.0000      -0.451552       -12.2874
  91   1.0000      -0.450888       -12.2693
  92   1.0000      -0.450592       -12.2612
  93   1.0000      -0.449620       -12.2348
  94   1.0000      -0.448079       -12.1928
  95   1.0000      -0.447812       -12.1856
  96   1.0000      -0.445205       -12.1146
  97   1.0000      -0.444661       -12.0998
  98   1.0000      -0.442476       -12.0404
  99   1.0000      -0.440569       -11.9885
 100   1.0000      -0.437464       -11.9040
 101   1.0000      -0.434032       -11.8106
 102   1.0000      -0.433177       -11.7873
 103   1.0000      -0.431813       -11.7502
 104   1.0000      -0.430426       -11.7125
 105   1.0000      -0.427175       -11.6240
 106   1.0000      -0.425298       -11.5729
 107   1.0000      -0.421247       -11.4627
 108   1.0000      -0.416663       -11.3380
 109   1.0000      -0.415605       -11.3092
 110   1.0000      -0.412997       -11.2382
 111   1.0000      -0.412533       -11.2256
 112   1.0000      -0.412289       -11.2189
 113   1.0000      -0.407631       -11.0922
 114   1.0000      -0.406706       -11.0670
 115   1.0000      -0.406417       -11.0592
 116   1.0000      -0.405425       -11.0322
 117   1.0000      -0.401291       -10.9197
 118   1.0000      -0.398735       -10.8501
 119   1.0000      -0.394160       -10.7256
 120   1.0000      -0.391778       -10.6608
 121   1.0000      -0.387245       -10.5375
 122   1.0000      -0.386312       -10.5121
 123   1.0000      -0.383531       -10.4364
 124   1.0000      -0.382298       -10.4029
 125   1.0000      -0.376191       -10.2367
 126   1.0000      -0.375629       -10.2214
 127   1.0000      -0.374614       -10.1938
 128   1.0000      -0.373779       -10.1710
 129   1.0000      -0.369382       -10.0514
 130   1.0000      -0.366544        -9.9742
 131   1.0000      -0.366339        -9.9686
 132   1.0000      -0.365481        -9.9453
 133   1.0000      -0.365042        -9.9333
 134   1.0000      -0.364616        -9.9217
 135   1.0000      -0.364291        -9.9128
 136   1.0000      -0.362132        -9.8541
 137   1.0000      -0.360498        -9.8096
 138   1.0000      -0.359443        -9.7809
 139   1.0000      -0.359231        -9.7752
 140   1.0000      -0.352827        -9.6009
 141   1.0000      -0.351812        -9.5733
 142   1.0000      -0.351229        -9.5574
 143   1.0000      -0.349888        -9.5209
 144   1.0000      -0.349704        -9.5159
 145   1.0000      -0.347834        -9.4650
 146   1.0000      -0.347223        -9.4484
 147   1.0000      -0.346446        -9.4273
 148   1.0000      -0.344148        -9.3647
 149   1.0000      -0.342930        -9.3316
 150   1.0000      -0.339799        -9.2464
 151   1.0000      -0.339501        -9.2383
 152   1.0000      -0.337729        -9.1901
 153   1.0000      -0.335603        -9.1322
 154   1.0000      -0.330318        -8.9884
 155   1.0000      -0.330146        -8.9837
 156   1.0000      -0.324317        -8.8251
 157   1.0000      -0.319744        -8.7007
 158   1.0000      -0.319061        -8.6821
 159   1.0000      -0.317174        -8.6307
 160   1.0000      -0.312122        -8.4933
 161   1.0000      -0.311865        -8.4863
 162   1.0000      -0.255004        -6.9390
 163   1.0000      -0.249759        -6.7963
 164   1.0000      -0.235918        -6.4196
 165   1.0000      -0.227160        -6.1813
 166   0.0000      -0.155040        -4.2188
 167   0.0000      -0.082986        -2.2582
 168   0.0000      -0.079433        -2.1615
 169   0.0000      -0.073468        -1.9992
 170   0.0000      -0.069406        -1.8886

                 SPIN DOWN ORBITALS
  NO   OCC          E(Eh)            E(eV)
   0   1.0000    -237.634402     -6466.3608
   1   1.0000     -28.039237      -762.9864
   2   1.0000     -23.965592      -652.1369
   3   1.0000     -23.964722      -652.1132
   4   1.0000     -23.964627      -652.1107
   5   1.0000      -4.407663      -119.9386
   6   1.0000      -4.403749      -119.8321
   7   1.0000      -4.403420      -119.8231
   8   1.0000      -4.402347      -119.7939
   9   1.0000      -4.402169      -119.7891
  10   1.0000      -4.401360      -119.7671
  11   1.0000      -4.400966      -119.7564
  12   1.0000      -4.397807      -119.6704
  13   1.0000      -4.397031      -119.6493
  14   1.0000      -4.396832      -119.6439
  15   1.0000      -4.396726      -119.6410
  16   1.0000      -4.395694      -119.6129
  17   1.0000      -4.394899      -119.5913
  18   1.0000      -4.394493      -119.5802
  19   1.0000      -4.393446      -119.5517
  20   1.0000      -4.392952      -119.5383
  21   1.0000      -3.333529       -90.7099
  22   1.0000      -2.527029       -68.7639
  23   1.0000      -2.526056       -68.7375
  24   1.0000      -2.525399       -68.7196
  25   1.0000      -2.524044       -68.6827
  26   1.0000      -2.523393       -68.6650
  27   1.0000      -2.522706       -68.6463
  28   1.0000      -2.522246       -68.6338
  29   1.0000      -2.521601       -68.6163
  30   1.0000      -2.521406       -68.6109
  31   1.0000      -2.520257       -68.5797
  32   1.0000      -2.520019       -68.5732
  33   1.0000      -2.519929       -68.5707
  34   1.0000      -2.519020       -68.5460
  35   1.0000      -2.518668       -68.5364
  36   1.0000      -2.518434       -68.5301
  37   1.0000      -2.518217       -68.5242
  38   1.0000      -2.518157       -68.5225
  39   1.0000      -2.517783       -68.5124
  40   1.0000      -2.517733       -68.5110
  41   1.0000      -2.517284       -68.4988
  42   1.0000      -2.517078       -68.4932
  43   1.0000      -2.516469       -68.4766
  44   1.0000      -2.516074       -68.4659
  45   1.0000      -2.515660       -68.4546
  46   1.0000      -2.515107       -68.4395
  47   1.0000      -2.514730       -68.4293
  48   1.0000      -2.514683       -68.4280
  49   1.0000      -2.514521       -68.4236
  50   1.0000      -2.514375       -68.4196
  51   1.0000      -2.513828       -68.4047
  52   1.0000      -2.512868       -68.3786
  53   1.0000      -2.512698       -68.3740
  54   1.0000      -2.512522       -68.3692
  55   1.0000      -2.512117       -68.3582
  56   1.0000      -2.511298       -68.3359
  57   1.0000      -2.510946       -68.3263
  58   1.0000      -2.510718       -68.3201
  59   1.0000      -2.510414       -68.3118
  60   1.0000      -2.510274       -68.3080
  61   1.0000      -2.510074       -68.3026
  62   1.0000      -2.509835       -68.2961
  63   1.0000      -2.509587       -68.2893
  64   1.0000      -2.509147       -68.2774
  65   1.0000      -2.509029       -68.2742
  66   1.0000      -2.508910       -68.2709
  67   1.0000      -2.507866       -68.2425
  68   1.0000      -2.507143       -68.2228
  69   1.0000      -2.506664       -68.2098
  70   1.0000      -2.094345       -56.9900
  71   1.0000      -2.092885       -56.9503
  72   1.0000      -2.092034       -56.9272
  73   1.0000      -0.483058       -13.1447
  74   1.0000      -0.473518       -12.8851
  75   1.0000      -0.471751       -12.8370
  76   1.0000      -0.470764       -12.8101
  77   1.0000      -0.468876       -12.7588
  78   1.0000      -0.466309       -12.6889
  79   1.0000      -0.463868       -12.6225
  80   1.0000      -0.461015       -12.5449
  81   1.0000      -0.458826       -12.4853
  82   1.0000      -0.457350       -12.4451
  83   1.0000      -0.456460       -12.4209
  84   1.0000      -0.455777       -12.4023
  85   1.0000      -0.455037       -12.3822
  86   1.0000      -0.454194       -12.3593
  87   1.0000      -0.452638       -12.3169
  88   1.0000      -0.452159       -12.3039
  89   1.0000      -0.450817       -12.2674
  90   1.0000      -0.449470       -12.2307
  91   1.0000      -0.448552       -12.2057
  92   1.0000      -0.448373       -12.2009
  93   1.0000      -0.446318       -12.1449
  94   1.0000      -0.444902       -12.1064
  95   1.0000      -0.441321       -12.0090
  96   1.0000      -0.440672       -11.9913
  97   1.0000      -0.437479       -11.9044
  98   1.0000      -0.436700       -11.8832
  99   1.0000      -0.431756       -11.7487
 100   1.0000      -0.430000       -11.7009
 101   1.0000      -0.429410       -11.6848
 102   1.0000      -0.425959       -11.5909
 103   1.0000      -0.422118       -11.4864
 104   1.0000      -0.420860       -11.4522
 105   1.0000      -0.419121       -11.4049
 106   1.0000      -0.415062       -11.2944
 107   1.0000      -0.414120       -11.2688
 108   1.0000      -0.412900       -11.2356
 109   1.0000      -0.409663       -11.1475
 110   1.0000      -0.408567       -11.1177
 111   1.0000      -0.407780       -11.0963
 112   1.0000      -0.406382       -11.0582
 113   1.0000      -0.401397       -10.9226
 114   1.0000      -0.400087       -10.8869
 115   1.0000      -0.398160       -10.8345
 116   1.0000      -0.392319       -10.6756
 117   1.0000      -0.388458       -10.5705
 118   1.0000      -0.386047       -10.5049
 119   1.0000      -0.384632       -10.4664
 120   1.0000      -0.379435       -10.3249
 121   1.0000      -0.379143       -10.3170
 122   1.0000      -0.377664       -10.2767
 123   1.0000      -0.375764       -10.2250
 124   1.0000      -0.373485       -10.1630
 125   1.0000      -0.372296       -10.1307
 126   1.0000      -0.370778       -10.0894
 127   1.0000      -0.367676       -10.0050
 128   1.0000      -0.367168        -9.9911
 129   1.0000      -0.367031        -9.9874
 130   1.0000      -0.366403        -9.9703
 131   1.0000      -0.364513        -9.9189
 132   1.0000      -0.363841        -9.9006
 133   1.0000      -0.362657        -9.8684
 134   1.0000      -0.361541        -9.8380
 135   1.0000      -0.355987        -9.6869
 136   1.0000      -0.355272        -9.6674
 137   1.0000      -0.352904        -9.6030
 138   1.0000      -0.352221        -9.5844
 139   1.0000      -0.351715        -9.5706
 140   1.0000      -0.350003        -9.5241
 141   1.0000      -0.348554        -9.4846
 142   1.0000      -0.348208        -9.4752
 143   1.0000      -0.346682        -9.4337
 144   1.0000      -0.344472        -9.3736
 145   1.0000      -0.343230        -9.3398
 146   1.0000      -0.340956        -9.2779
 147   1.0000      -0.339357        -9.2344
 148   1.0000      -0.337893        -9.1945
 149   1.0000      -0.334378        -9.0989
 150   1.0000      -0.333009        -9.0616
 151   1.0000      -0.326175        -8.8757
 152   1.0000      -0.325591        -8.8598
 153   1.0000      -0.322747        -8.7824
 154   1.0000      -0.322596        -8.7783
 155   1.0000      -0.320987        -8.7345
 156   1.0000      -0.314642        -8.5618
 157   1.0000      -0.266610        -7.2548
 158   1.0000      -0.259390        -7.0583
 159   1.0000      -0.246257        -6.7010
 160   1.0000      -0.235197        -6.4000
 161   1.0000      -0.233847        -6.3633
 162   1.0000      -0.166065        -4.5189
 163   0.0000      -0.088937        -2.4201
 164   0.0000      -0.084047        -2.2870
 165   0.0000      -0.076623        -2.0850
 166   0.0000      -0.075745        -2.0611
 167   0.0000      -0.068745        -1.8707

MULLIKEN ATOMIC CHARGES AND SPIN POPULATIONS
--------------------------------------------
   0 Au:   -0.117980   -0.149558
   1 Au:   -0.113394   -0.201364
   2 Au:    0.038942   -0.038179
   3 Au:    0.186227   -0.168528
   4 Au:    0.099110   -0.069311
   5 Au:    0.091500   -0.052005
   6 Au:    0.190796   -0.153597
   7 Au:    0.102387   -0.094207
   8 Au:    0.170405   -0.071534
   9 Au:   -0.242396   -0.211985
  10 Au:    0.169799   -0.045918
  11 Au:   -0.500917    0.039747
  12 Au:    0.385142   -0.358953
  13 Au:   -0.018576   -0.139553
  14 Au:   -0.494800    0.048130
  15 Au:    0.044086   -0.028957
  16 Mn:    0.009670    4.695772
Sum of atomic charges         :   -0.0000000

LOEWDIN ATOMIC CHARGES AND SPIN POPULATIONS
-------------------------------------------
   0 Au:   -0.033290   -0.109404
   1 Au:   -0.028755   -0.131580
   2 Au:   -0.063084   -0.061282
   3 Au:    0.019256   -0.119318
   4 Au:   -0.012641   -0.089474
   5 Au:   -0.010307   -0.091145
   6 Au:    0.015668   -0.102491
   7 Au:    0.033370   -0.152214
   8 Au:    0.045487   -0.081330
   9 Au:   -0.061496   -0.141122
  10 Au:    0.038635   -0.061158
  11 Au:   -0.100591   -0.052681
  12 Au:    0.099591   -0.236869
  13 Au:   -0.060860   -0.063949
  14 Au:   -0.100335   -0.052184
  15 Au:   -0.065315   -0.051044
  16 Mn:    0.284667    4.597245

  Mayer bond orders larger than 0.100000
B(  0-Au,  1-Au) :   0.3191 B(  0-Au,  4-Au) :   0.3530 B(  0-Au,  7-Au) :   0.3003
B(  0-Au, 10-Au) :   0.1642 B(  0-Au, 15-Au) :   0.3316 B(  1-Au,  2-Au) :   0.3209
B(  1-Au,  5-Au) :   0.3315 B(  1-Au,  7-Au) :   0.3066 B(  1-Au,  8-Au) :   0.1768
B(  2-Au,  5-Au) :   0.2832 B(  2-Au,  6-Au) :   0.2921 B(  2-Au,  8-Au) :   0.2932
B(  2-Au, 14-Au) :   0.2745 B(  3-Au, 11-Au) :   0.2550 B(  3-Au, 13-Au) :   0.1789
B(  3-Au, 15-Au) :   0.2905 B(  3-Au, 16-Mn) :   0.4746 B(  4-Au,  5-Au) :   0.2453
B(  4-Au, 15-Au) :   0.2861 B(  4-Au, 16-Mn) :   0.4375 B(  5-Au, 16-Mn) :   0.4583
B(  6-Au, 13-Au) :   0.1829 B(  6-Au, 14-Au) :   0.2543 B(  6-Au, 16-Mn) :   0.4672
B(  7-Au,  8-Au) :   0.2173 B(  7-Au,  9-Au) :   0.3574 B(  7-Au, 10-Au) :   0.2160
B(  8-Au,  9-Au) :   0.2323 B(  8-Au, 14-Au) :   0.3810 B(  9-Au, 10-Au) :   0.2395
B(  9-Au, 11-Au) :   0.3405 B(  9-Au, 12-Au) :   0.3228 B(  9-Au, 14-Au) :   0.3249
B( 10-Au, 11-Au) :   0.3941 B( 10-Au, 15-Au) :   0.2863 B( 11-Au, 12-Au) :   0.2141
B( 11-Au, 13-Au) :   0.3254 B( 11-Au, 15-Au) :   0.2720 B( 12-Au, 13-Au) :   0.1231
B( 12-Au, 14-Au) :   0.2205 B( 13-Au, 14-Au) :   0.3318 B( 13-Au, 16-Mn) :   0.4502

MP2 TOTAL ENERGY:    -3320.224451295 Eh
FINAL SINGLE POINT ENERGY     -3320.224451295329

DIPOLE MOMENT
-------------
                                X             Y             Z
Electronic contribution:     49.79040      91.74585     -22.90639
Nuclear contribution   :    -50.01811     -92.06900      22.95805
                        -----------------------------------------
Total Dipole Moment    :     -0.22771      -0.32315       0.05166
                        -----------------------------------------
Magnitude (a.u.)       :      0.39868
Magnitude (Debye)      :      1.01336

Rotational constants in cm-1:     0.000822     0.000804     0.000775
Rotational constants in MHz :    24.635340    24.093288    23.227279

                             ****ORCA TERMINATED NORMALLY****
TOTAL RUN TIME: 0 days 1 hours 34 minutes 52 seconds 626 msec
