                         Program Version 5.0.3 -  RELEASE  -
|  1> !PBE def2-TZVP VERYSLOWCONV
|  2> !KDIIS
|  3>
|  4> %scf
|  5>   AutoTRAHIter 200
|  6>   maxiter 400
|  7> end
|  8>
|  9>
| 10> %pal nprocs 6 end
| 11>
| 12> *xyzfile 0 6 pbe.xyz
| 13>
| 14> $new_job
| 15>
| 16> !PBE def2-TZVP VERYSLOWCONV
| 17> !KDIIS
| 18>
| 19> %scf
| 20>   AutoTRAHIter 200
| 21>   maxiter 400
| 22> end
| 23>
| 24>
| 25> %pal nprocs 6 end
| 26>
| 27> *xyzfile 0 4 pbe.xyz
| 28>
| 29>
| 30>
| 31>
| 32>
| 33>                          ****END OF INPUT****
 Total Charge           Charge          ....    0
 Multiplicity           Mult            ....    6
 Number of Electrons    NEL             ....  329
FINAL SINGLE POINT ENERGY     -3324.038120896609

CARTESIAN COORDINATES (ANGSTROEM)
---------------------------------
  Au     9.326877    7.658931    8.189430
  Au     8.762021    7.295466    5.545611
  Au     6.317129    7.079788    4.290942
  Au     4.969423    7.026647   10.175521
  Au     7.605943    5.558655    8.849821
  Au     7.039236    5.187380    6.164281
  Au     4.017135    6.416059    5.663252
  Au     9.193222    9.868782    6.505574
  Au     7.322984    9.639048    4.501853
  Au     6.606929   10.824436    6.917203
  Au     8.279638   10.264202    9.070360
  Au     5.600501    9.623573    9.311146
  Au     3.892976   10.796169    7.493490
  Au     3.728672    8.016067    7.904370
  Au     4.800196    9.111570    5.507743
  Au     7.583450    7.899661   10.310206
  Mn     5.198419    5.750440    7.902485

 Multiplicity           Mult            ....    4
 Number of Electrons    NEL             ....  329
 Basis Dimension        Dim             ....  685

ORBITAL ENERGIES
----------------
                 SPIN UP ORBITALS
  NO   OCC          E(Eh)            E(eV)
   0   1.0000    -234.196612     -6372.8138
   1   1.0000     -26.889271      -731.6943
   2   1.0000     -23.043412      -627.0431
   3   1.0000     -23.035379      -626.8245
   4   1.0000     -23.035128      -626.8177
   5   1.0000      -4.036584      -109.8410
   6   1.0000      -4.032496      -109.7298
   7   1.0000      -4.031584      -109.7050
   8   1.0000      -4.031225      -109.6952
   9   1.0000      -4.030916      -109.6868
  10   1.0000      -4.030701      -109.6809
  11   1.0000      -4.030406      -109.6729
  12   1.0000      -4.027233      -109.5866
  13   1.0000      -4.027205      -109.5858
  14   1.0000      -4.026315      -109.5616
  15   1.0000      -4.025947      -109.5516
  16   1.0000      -4.025845      -109.5488
  17   1.0000      -4.025345      -109.5352
  18   1.0000      -4.023964      -109.4976
  19   1.0000      -4.022843      -109.4671
  20   1.0000      -4.022332      -109.4532
  21   1.0000      -3.099872       -84.3518
  22   1.0000      -2.253495       -61.3207
  23   1.0000      -2.250909       -61.2503
  24   1.0000      -2.250150       -61.2297
  25   1.0000      -2.249062       -61.2001
  26   1.0000      -2.248513       -61.1851
  27   1.0000      -2.247842       -61.1669
  28   1.0000      -2.247477       -61.1570
  29   1.0000      -2.247248       -61.1507
  30   1.0000      -2.246710       -61.1361
  31   1.0000      -2.245831       -61.1122
  32   1.0000      -2.245190       -61.0947
  33   1.0000      -2.244586       -61.0783
  34   1.0000      -2.244140       -61.0661
  35   1.0000      -2.243911       -61.0599
  36   1.0000      -2.243703       -61.0543
  37   1.0000      -2.243053       -61.0366
  38   1.0000      -2.242977       -61.0345
  39   1.0000      -2.242666       -61.0260
  40   1.0000      -2.242362       -61.0178
  41   1.0000      -2.242264       -61.0151
  42   1.0000      -2.241791       -61.0022
  43   1.0000      -2.241153       -60.9849
  44   1.0000      -2.241028       -60.9815
  45   1.0000      -2.240866       -60.9771
  46   1.0000      -2.240684       -60.9721
  47   1.0000      -2.240491       -60.9668
  48   1.0000      -2.240461       -60.9660
  49   1.0000      -2.239863       -60.9498
  50   1.0000      -2.239363       -60.9362
  51   1.0000      -2.239000       -60.9263
  52   1.0000      -2.238879       -60.9230
  53   1.0000      -2.238750       -60.9195
  54   1.0000      -2.238391       -60.9097
  55   1.0000      -2.238212       -60.9049
  56   1.0000      -2.237830       -60.8944
  57   1.0000      -2.237686       -60.8905
  58   1.0000      -2.236877       -60.8685
  59   1.0000      -2.235979       -60.8441
  60   1.0000      -2.235849       -60.8405
  61   1.0000      -2.235216       -60.8233
  62   1.0000      -2.234973       -60.8167
  63   1.0000      -2.234681       -60.8088
  64   1.0000      -2.234023       -60.7909
  65   1.0000      -2.233944       -60.7887
  66   1.0000      -2.233370       -60.7731
  67   1.0000      -2.233071       -60.7649
  68   1.0000      -2.230821       -60.7037
  69   1.0000      -2.229777       -60.6753
  70   1.0000      -2.015230       -54.8372
  71   1.0000      -1.997229       -54.3474
  72   1.0000      -1.996316       -54.3225
  73   1.0000      -0.413571       -11.2538
  74   1.0000      -0.385269       -10.4837
  75   1.0000      -0.383970       -10.4484
  76   1.0000      -0.383850       -10.4451
  77   1.0000      -0.370417       -10.0796
  78   1.0000      -0.367356        -9.9963
  79   1.0000      -0.366742        -9.9796
  80   1.0000      -0.365243        -9.9388
  81   1.0000      -0.364961        -9.9311
  82   1.0000      -0.361007        -9.8235
  83   1.0000      -0.359586        -9.7848
  84   1.0000      -0.357246        -9.7212
  85   1.0000      -0.355707        -9.6793
  86   1.0000      -0.354770        -9.6538
  87   1.0000      -0.353275        -9.6131
  88   1.0000      -0.351297        -9.5593
  89   1.0000      -0.350258        -9.5310
  90   1.0000      -0.348628        -9.4867
  91   1.0000      -0.348429        -9.4812
  92   1.0000      -0.345537        -9.4025
  93   1.0000      -0.344582        -9.3765
  94   1.0000      -0.343789        -9.3550
  95   1.0000      -0.342497        -9.3198
  96   1.0000      -0.339357        -9.2344
  97   1.0000      -0.338772        -9.2184
  98   1.0000      -0.335430        -9.1275
  99   1.0000      -0.334231        -9.0949
 100   1.0000      -0.329866        -8.9761
 101   1.0000      -0.328581        -8.9412
 102   1.0000      -0.327098        -8.9008
 103   1.0000      -0.324942        -8.8421
 104   1.0000      -0.322733        -8.7820
 105   1.0000      -0.321621        -8.7518
 106   1.0000      -0.319410        -8.6916
 107   1.0000      -0.314931        -8.5697
 108   1.0000      -0.313670        -8.5354
 109   1.0000      -0.312616        -8.5067
 110   1.0000      -0.311990        -8.4897
 111   1.0000      -0.311226        -8.4689
 112   1.0000      -0.308272        -8.3885
 113   1.0000      -0.307272        -8.3613
 114   1.0000      -0.301449        -8.2029
 115   1.0000      -0.300513        -8.1774
 116   1.0000      -0.299238        -8.1427
 117   1.0000      -0.293384        -7.9834
 118   1.0000      -0.288987        -7.8637
 119   1.0000      -0.287629        -7.8268
 120   1.0000      -0.286133        -7.7861
 121   1.0000      -0.285635        -7.7725
 122   1.0000      -0.283422        -7.7123
 123   1.0000      -0.282506        -7.6874
 124   1.0000      -0.281394        -7.6571
 125   1.0000      -0.279202        -7.5975
 126   1.0000      -0.277412        -7.5488
 127   1.0000      -0.273333        -7.4378
 128   1.0000      -0.271201        -7.3798
 129   1.0000      -0.270472        -7.3599
 130   1.0000      -0.269707        -7.3391
 131   1.0000      -0.269200        -7.3253
 132   1.0000      -0.266999        -7.2654
 133   1.0000      -0.266541        -7.2530
 134   1.0000      -0.266068        -7.2401
 135   1.0000      -0.265798        -7.2327
 136   1.0000      -0.261466        -7.1149
 137   1.0000      -0.260881        -7.0989
 138   1.0000      -0.259901        -7.0723
 139   1.0000      -0.258603        -7.0370
 140   1.0000      -0.258330        -7.0295
 141   1.0000      -0.257091        -6.9958
 142   1.0000      -0.256308        -6.9745
 143   1.0000      -0.255148        -6.9429
 144   1.0000      -0.254312        -6.9202
 145   1.0000      -0.253627        -6.9015
 146   1.0000      -0.251724        -6.8498
 147   1.0000      -0.251323        -6.8388
 148   1.0000      -0.250852        -6.8260
 149   1.0000      -0.250064        -6.8046
 150   1.0000      -0.248807        -6.7704
 151   1.0000      -0.247721        -6.7408
 152   1.0000      -0.246320        -6.7027
 153   1.0000      -0.246185        -6.6990
 154   1.0000      -0.244721        -6.6592
 155   1.0000      -0.244281        -6.6472
 156   1.0000      -0.241807        -6.5799
 157   1.0000      -0.241236        -6.5644
 158   1.0000      -0.238119        -6.4795
 159   1.0000      -0.236478        -6.4349
 160   1.0000      -0.231284        -6.2936
 161   1.0000      -0.227670        -6.1952
 162   1.0000      -0.224761        -6.1161
 163   1.0000      -0.223773        -6.0892
 164   1.0000      -0.216088        -5.8801
 165   1.0000      -0.209011        -5.6875
 166   0.0000      -0.209176        -5.6920
 167   0.0000      -0.144552        -3.9334
 168   0.0000      -0.143475        -3.9041
 169   0.0000      -0.139986        -3.8092
 170   0.0000      -0.133381        -3.6295

                 SPIN DOWN ORBITALS
  NO   OCC          E(Eh)            E(eV)
   0   1.0000    -234.195928     -6372.7952
   1   1.0000     -26.824504      -729.9319
   2   1.0000     -22.990966      -625.6160
   3   1.0000     -22.987766      -625.5289
   4   1.0000     -22.987678      -625.5265
   5   1.0000      -4.035871      -109.8216
   6   1.0000      -4.033677      -109.7619
   7   1.0000      -4.030930      -109.6872
   8   1.0000      -4.030888      -109.6860
   9   1.0000      -4.030496      -109.6754
  10   1.0000      -4.030393      -109.6726
  11   1.0000      -4.030129      -109.6654
  12   1.0000      -4.028207      -109.6131
  13   1.0000      -4.028196      -109.6128
  14   1.0000      -4.026640      -109.5704
  15   1.0000      -4.026480      -109.5661
  16   1.0000      -4.026177      -109.5578
  17   1.0000      -4.026002      -109.5531
  18   1.0000      -4.024758      -109.5192
  19   1.0000      -4.023548      -109.4863
  20   1.0000      -4.023036      -109.4724
  21   1.0000      -2.939668       -79.9924
  22   1.0000      -2.252410       -61.2912
  23   1.0000      -2.250305       -61.2339
  24   1.0000      -2.250302       -61.2338
  25   1.0000      -2.249228       -61.2046
  26   1.0000      -2.248318       -61.1798
  27   1.0000      -2.247977       -61.1706
  28   1.0000      -2.247560       -61.1592
  29   1.0000      -2.246791       -61.1383
  30   1.0000      -2.246537       -61.1314
  31   1.0000      -2.246155       -61.1210
  32   1.0000      -2.245953       -61.1155
  33   1.0000      -2.245694       -61.1084
  34   1.0000      -2.244714       -61.0818
  35   1.0000      -2.244255       -61.0693
  36   1.0000      -2.243954       -61.0611
  37   1.0000      -2.243362       -61.0450
  38   1.0000      -2.243188       -61.0403
  39   1.0000      -2.243003       -61.0352
  40   1.0000      -2.242604       -61.0244
  41   1.0000      -2.242259       -61.0150
  42   1.0000      -2.242116       -61.0111
  43   1.0000      -2.241346       -60.9901
  44   1.0000      -2.241185       -60.9857
  45   1.0000      -2.241047       -60.9820
  46   1.0000      -2.240863       -60.9770
  47   1.0000      -2.240626       -60.9705
  48   1.0000      -2.240353       -60.9631
  49   1.0000      -2.239678       -60.9447
  50   1.0000      -2.239589       -60.9423
  51   1.0000      -2.239408       -60.9374
  52   1.0000      -2.239300       -60.9344
  53   1.0000      -2.239192       -60.9315
  54   1.0000      -2.238957       -60.9251
  55   1.0000      -2.238930       -60.9244
  56   1.0000      -2.238408       -60.9102
  57   1.0000      -2.238159       -60.9034
  58   1.0000      -2.237542       -60.8866
  59   1.0000      -2.237042       -60.8730
  60   1.0000      -2.236638       -60.8620
  61   1.0000      -2.236085       -60.8470
  62   1.0000      -2.235530       -60.8319
  63   1.0000      -2.235452       -60.8297
  64   1.0000      -2.234487       -60.8035
  65   1.0000      -2.234430       -60.8019
  66   1.0000      -2.233640       -60.7804
  67   1.0000      -2.233277       -60.7706
  68   1.0000      -2.231233       -60.7149
  69   1.0000      -2.230209       -60.6871
  70   1.0000      -1.847613       -50.2761
  71   1.0000      -1.844598       -50.1941
  72   1.0000      -1.844473       -50.1907
  73   1.0000      -0.414167       -11.2701
  74   1.0000      -0.386532       -10.5181
  75   1.0000      -0.384776       -10.4703
  76   1.0000      -0.382225       -10.4009
  77   1.0000      -0.371362       -10.1053
  78   1.0000      -0.368637       -10.0311
  79   1.0000      -0.366431        -9.9711
  80   1.0000      -0.364767        -9.9258
  81   1.0000      -0.363282        -9.8854
  82   1.0000      -0.361554        -9.8384
  83   1.0000      -0.358920        -9.7667
  84   1.0000      -0.356909        -9.7120
  85   1.0000      -0.356768        -9.7082
  86   1.0000      -0.354830        -9.6554
  87   1.0000      -0.351825        -9.5736
  88   1.0000      -0.350804        -9.5459
  89   1.0000      -0.349502        -9.5104
  90   1.0000      -0.348464        -9.4822
  91   1.0000      -0.348036        -9.4705
  92   1.0000      -0.346432        -9.4269
  93   1.0000      -0.343019        -9.3340
  94   1.0000      -0.341760        -9.2998
  95   1.0000      -0.340681        -9.2704
  96   1.0000      -0.338320        -9.2062
  97   1.0000      -0.337675        -9.1886
  98   1.0000      -0.336274        -9.1505
  99   1.0000      -0.329999        -8.9797
 100   1.0000      -0.328812        -8.9474
 101   1.0000      -0.327195        -8.9034
 102   1.0000      -0.326601        -8.8873
 103   1.0000      -0.322149        -8.7661
 104   1.0000      -0.321155        -8.7391
 105   1.0000      -0.318370        -8.6633
 106   1.0000      -0.316856        -8.6221
 107   1.0000      -0.314930        -8.5697
 108   1.0000      -0.312895        -8.5143
 109   1.0000      -0.312329        -8.4989
 110   1.0000      -0.310752        -8.4560
 111   1.0000      -0.309255        -8.4153
 112   1.0000      -0.307154        -8.3581
 113   1.0000      -0.304890        -8.2965
 114   1.0000      -0.301781        -8.2119
 115   1.0000      -0.299924        -8.1613
 116   1.0000      -0.299188        -8.1413
 117   1.0000      -0.291784        -7.9398
 118   1.0000      -0.287882        -7.8337
 119   1.0000      -0.287117        -7.8129
 120   1.0000      -0.286936        -7.8079
 121   1.0000      -0.284481        -7.7411
 122   1.0000      -0.282435        -7.6854
 123   1.0000      -0.279923        -7.6171
 124   1.0000      -0.279101        -7.5947
 125   1.0000      -0.278223        -7.5708
 126   1.0000      -0.276978        -7.5370
 127   1.0000      -0.273340        -7.4380
 128   1.0000      -0.271332        -7.3833
 129   1.0000      -0.270955        -7.3731
 130   1.0000      -0.270139        -7.3509
 131   1.0000      -0.269033        -7.3208
 132   1.0000      -0.267658        -7.2833
 133   1.0000      -0.267292        -7.2734
 134   1.0000      -0.265847        -7.2341
 135   1.0000      -0.263057        -7.1581
 136   1.0000      -0.261549        -7.1171
 137   1.0000      -0.260482        -7.0881
 138   1.0000      -0.259327        -7.0567
 139   1.0000      -0.257870        -7.0170
 140   1.0000      -0.257663        -7.0114
 141   1.0000      -0.256329        -6.9751
 142   1.0000      -0.255741        -6.9591
 143   1.0000      -0.254362        -6.9215
 144   1.0000      -0.252955        -6.8832
 145   1.0000      -0.252601        -6.8736
 146   1.0000      -0.251915        -6.8549
 147   1.0000      -0.250892        -6.8271
 148   1.0000      -0.248632        -6.7656
 149   1.0000      -0.247679        -6.7397
 150   1.0000      -0.247520        -6.7354
 151   1.0000      -0.246178        -6.6989
 152   1.0000      -0.245622        -6.6837
 153   1.0000      -0.242305        -6.5935
 154   1.0000      -0.241042        -6.5591
 155   1.0000      -0.238143        -6.4802
 156   1.0000      -0.232720        -6.3326
 157   1.0000      -0.228487        -6.2175
 158   1.0000      -0.226772        -6.1708
 159   1.0000      -0.218256        -5.9390
 160   1.0000      -0.213597        -5.8123
 161   1.0000      -0.210591        -5.7305
 162   1.0000      -0.165376        -4.5001
 163   0.0000      -0.156378        -4.2553
 164   0.0000      -0.145289        -3.9535
 165   0.0000      -0.141286        -3.8446
 166   0.0000      -0.135085        -3.6758
 167   0.0000      -0.133370        -3.6292

MULLIKEN ATOMIC CHARGES AND SPIN POPULATIONS
--------------------------------------------
   0 Au:   -0.147970   -0.117990
   1 Au:   -0.157807   -0.134331
   2 Au:    0.061288   -0.035360
   3 Au:    0.268139   -0.073806
   4 Au:    0.138312   -0.046220
   5 Au:    0.143770   -0.043452
   6 Au:    0.268077   -0.069912
   7 Au:    0.159231   -0.100867
   8 Au:    0.203264   -0.074912
   9 Au:   -0.331329   -0.179178
  10 Au:    0.203514   -0.069117
  11 Au:   -0.548354   -0.019248
  12 Au:    0.480125   -0.196208
  13 Au:   -0.032262   -0.080701
  14 Au:   -0.540828   -0.015091
  15 Au:    0.063321   -0.030999
  16 Mn:   -0.230492    4.287392
Sum of atomic charges         :   -0.0000000

LOEWDIN ATOMIC CHARGES AND SPIN POPULATIONS
-------------------------------------------
   0 Au:   -0.036963   -0.088122
   1 Au:   -0.036992   -0.094725
   2 Au:   -0.047545   -0.041750
   3 Au:    0.070459   -0.047552
   4 Au:    0.034146   -0.047897
   5 Au:    0.036535   -0.050503
   6 Au:    0.068738   -0.042430
   7 Au:    0.031651   -0.136926
   8 Au:    0.037287   -0.084823
   9 Au:   -0.064136   -0.115695
  10 Au:    0.035395   -0.078884
  11 Au:   -0.094843   -0.058194
  12 Au:    0.110932   -0.156423
  13 Au:   -0.031484   -0.018773
  14 Au:   -0.093911   -0.057750
  15 Au:   -0.048179   -0.037791
  16 Mn:    0.028910    4.158239

  Mayer bond orders larger than 0.100000
B(  0-Au,  1-Au) :   0.3778 B(  0-Au,  4-Au) :   0.3618 B(  0-Au,  7-Au) :   0.3327
B(  0-Au, 10-Au) :   0.1987 B(  0-Au, 15-Au) :   0.3504 B(  1-Au,  2-Au) :   0.3486
B(  1-Au,  5-Au) :   0.3583 B(  1-Au,  7-Au) :   0.3366 B(  1-Au,  8-Au) :   0.2028
B(  2-Au,  5-Au) :   0.3104 B(  2-Au,  6-Au) :   0.3181 B(  2-Au,  8-Au) :   0.3230
B(  2-Au, 14-Au) :   0.3112 B(  3-Au, 11-Au) :   0.2916 B(  3-Au, 13-Au) :   0.2129
B(  3-Au, 15-Au) :   0.3173 B(  3-Au, 16-Mn) :   0.5278 B(  4-Au,  5-Au) :   0.2480
B(  4-Au, 15-Au) :   0.3112 B(  4-Au, 16-Mn) :   0.5033 B(  5-Au, 16-Mn) :   0.5059
B(  6-Au, 13-Au) :   0.2155 B(  6-Au, 14-Au) :   0.2905 B(  6-Au, 16-Mn) :   0.5250
B(  7-Au,  8-Au) :   0.2718 B(  7-Au,  9-Au) :   0.3658 B(  7-Au, 10-Au) :   0.2707
B(  8-Au,  9-Au) :   0.2756 B(  8-Au, 14-Au) :   0.3857 B(  9-Au, 10-Au) :   0.2777
B(  9-Au, 11-Au) :   0.3799 B(  9-Au, 12-Au) :   0.3279 B(  9-Au, 14-Au) :   0.3749
B( 10-Au, 11-Au) :   0.3902 B( 10-Au, 15-Au) :   0.3203 B( 11-Au, 12-Au) :   0.2459
B( 11-Au, 13-Au) :   0.3650 B( 11-Au, 15-Au) :   0.3125 B( 12-Au, 13-Au) :   0.1730
B( 12-Au, 14-Au) :   0.2457 B( 12-Au, 16-Mn) :   0.1109 B( 13-Au, 14-Au) :   0.3643
B( 13-Au, 16-Mn) :   0.4846

FINAL SINGLE POINT ENERGY     -3323.996127364343

DIPOLE MOMENT
-------------
                                X             Y             Z
Electronic contribution:     49.63848      91.77787     -22.85073
Nuclear contribution   :    -50.01811     -92.06900      22.95805
                        -----------------------------------------
Total Dipole Moment    :     -0.37963      -0.29114       0.10732
                        -----------------------------------------
Magnitude (a.u.)       :      0.49030
Magnitude (Debye)      :      1.24625

Rotational constants in cm-1:     0.000822     0.000804     0.000775
Rotational constants in MHz :    24.635340    24.093288    23.227279

                             ****ORCA TERMINATED NORMALLY****
TOTAL RUN TIME: 0 days 0 hours 10 minutes 1 seconds 665 msec
