                         Program Version 5.0.3 -  RELEASE  -
|  1> !R2SCAN def2-TZVP VERYSLOWCONV
|  2> !KDIIS
|  3> %scf
|  4>   AutoTRAHIter 200
|  5>   maxiter 400
|  6> end
|  7>
|  8> %pal nprocs 6 end
|  9>
| 10> *xyzfile 0 6 pbe.xyz
| 11>
| 12> $new_job
| 13>
| 14> !R2SCAN def2-TZVP VERYSLOWCONV
| 15> !KDIIS
| 16> %scf
| 17>   AutoTRAHIter 200
| 18>   maxiter 400
| 19> end
| 20>
| 21>
| 22> %pal nprocs 6 end
| 23>
| 24> *xyzfile 0 4 pbe.xyz
| 25>
| 26>
| 27>
| 28>
| 29>
| 30>                          ****END OF INPUT****
 Total Charge           Charge          ....    0
 Multiplicity           Mult            ....    6
 Number of Electrons    NEL             ....  329
FINAL SINGLE POINT ENERGY     -3324.587872000617

CARTESIAN COORDINATES (ANGSTROEM)
---------------------------------
  Au     9.326877    7.658931    8.189430
  Au     8.762021    7.295466    5.545611
  Au     6.317129    7.079788    4.290942
  Au     4.969423    7.026647   10.175521
  Au     7.605943    5.558655    8.849821
  Au     7.039236    5.187380    6.164281
  Au     4.017135    6.416059    5.663252
  Au     9.193222    9.868782    6.505574
  Au     7.322984    9.639048    4.501853
  Au     6.606929   10.824436    6.917203
  Au     8.279638   10.264202    9.070360
  Au     5.600501    9.623573    9.311146
  Au     3.892976   10.796169    7.493490
  Au     3.728672    8.016067    7.904370
  Au     4.800196    9.111570    5.507743
  Au     7.583450    7.899661   10.310206
  Mn     5.198419    5.750440    7.902485

 Multiplicity           Mult            ....    4
 Number of Electrons    NEL             ....  329
 Basis Dimension        Dim             ....  685

ORBITAL ENERGIES
----------------
                 SPIN UP ORBITALS
  NO   OCC          E(Eh)            E(eV)
   0   1.0000    -235.041755     -6395.8113
   1   1.0000     -27.219766      -740.6875
   2   1.0000     -23.271003      -633.2362
   3   1.0000     -23.264555      -633.0607
   4   1.0000     -23.264187      -633.0507
   5   1.0000      -4.127824      -112.3238
   6   1.0000      -4.123936      -112.2180
   7   1.0000      -4.122916      -112.1903
   8   1.0000      -4.122595      -112.1815
   9   1.0000      -4.121997      -112.1652
  10   1.0000      -4.121828      -112.1606
  11   1.0000      -4.121288      -112.1459
  12   1.0000      -4.117207      -112.0349
  13   1.0000      -4.117154      -112.0335
  14   1.0000      -4.116635      -112.0193
  15   1.0000      -4.116379      -112.0124
  16   1.0000      -4.116328      -112.0110
  17   1.0000      -4.115905      -111.9995
  18   1.0000      -4.114676      -111.9660
  19   1.0000      -4.114351      -111.9572
  20   1.0000      -4.113842      -111.9433
  21   1.0000      -3.242795       -88.2409
  22   1.0000      -2.317452       -63.0611
  23   1.0000      -2.314833       -62.9898
  24   1.0000      -2.314255       -62.9741
  25   1.0000      -2.312954       -62.9387
  26   1.0000      -2.312508       -62.9265
  27   1.0000      -2.311854       -62.9087
  28   1.0000      -2.311269       -62.8928
  29   1.0000      -2.311055       -62.8870
  30   1.0000      -2.310532       -62.8728
  31   1.0000      -2.309413       -62.8423
  32   1.0000      -2.308894       -62.8282
  33   1.0000      -2.307747       -62.7970
  34   1.0000      -2.307468       -62.7894
  35   1.0000      -2.307271       -62.7840
  36   1.0000      -2.307157       -62.7809
  37   1.0000      -2.307033       -62.7776
  38   1.0000      -2.306564       -62.7648
  39   1.0000      -2.306186       -62.7545
  40   1.0000      -2.306172       -62.7541
  41   1.0000      -2.305800       -62.7440
  42   1.0000      -2.305718       -62.7418
  43   1.0000      -2.304705       -62.7142
  44   1.0000      -2.304525       -62.7093
  45   1.0000      -2.304431       -62.7067
  46   1.0000      -2.304376       -62.7053
  47   1.0000      -2.304203       -62.7005
  48   1.0000      -2.303872       -62.6916
  49   1.0000      -2.303339       -62.6771
  50   1.0000      -2.302593       -62.6567
  51   1.0000      -2.302313       -62.6491
  52   1.0000      -2.302020       -62.6411
  53   1.0000      -2.301890       -62.6376
  54   1.0000      -2.301760       -62.6341
  55   1.0000      -2.301671       -62.6317
  56   1.0000      -2.301453       -62.6257
  57   1.0000      -2.301264       -62.6206
  58   1.0000      -2.300791       -62.6077
  59   1.0000      -2.299695       -62.5779
  60   1.0000      -2.299401       -62.5699
  61   1.0000      -2.298845       -62.5547
  62   1.0000      -2.298359       -62.5415
  63   1.0000      -2.298329       -62.5407
  64   1.0000      -2.297383       -62.5150
  65   1.0000      -2.297314       -62.5131
  66   1.0000      -2.296742       -62.4975
  67   1.0000      -2.296491       -62.4907
  68   1.0000      -2.295570       -62.4656
  69   1.0000      -2.294564       -62.4383
  70   1.0000      -2.109886       -57.4129
  71   1.0000      -2.095149       -57.0119
  72   1.0000      -2.093929       -56.9787
  73   1.0000      -0.417977       -11.3737
  74   1.0000      -0.391088       -10.6421
  75   1.0000      -0.390485       -10.6256
  76   1.0000      -0.389117       -10.5884
  77   1.0000      -0.378912       -10.3107
  78   1.0000      -0.375640       -10.2217
  79   1.0000      -0.375520       -10.2184
  80   1.0000      -0.374300       -10.1852
  81   1.0000      -0.373680       -10.1684
  82   1.0000      -0.369761       -10.0617
  83   1.0000      -0.368556       -10.0289
  84   1.0000      -0.367188        -9.9917
  85   1.0000      -0.364572        -9.9205
  86   1.0000      -0.364483        -9.9181
  87   1.0000      -0.363022        -9.8783
  88   1.0000      -0.361154        -9.8275
  89   1.0000      -0.360583        -9.8119
  90   1.0000      -0.358837        -9.7645
  91   1.0000      -0.357888        -9.7386
  92   1.0000      -0.355098        -9.6627
  93   1.0000      -0.354806        -9.6548
  94   1.0000      -0.353965        -9.6319
  95   1.0000      -0.352577        -9.5941
  96   1.0000      -0.349191        -9.5020
  97   1.0000      -0.348733        -9.4895
  98   1.0000      -0.346337        -9.4243
  99   1.0000      -0.344189        -9.3659
 100   1.0000      -0.339410        -9.2358
 101   1.0000      -0.338599        -9.2137
 102   1.0000      -0.337102        -9.1730
 103   1.0000      -0.335216        -9.1217
 104   1.0000      -0.334004        -9.0887
 105   1.0000      -0.331440        -9.0190
 106   1.0000      -0.329396        -8.9633
 107   1.0000      -0.324060        -8.8181
 108   1.0000      -0.323581        -8.8051
 109   1.0000      -0.321488        -8.7481
 110   1.0000      -0.321051        -8.7363
 111   1.0000      -0.320160        -8.7120
 112   1.0000      -0.317343        -8.6353
 113   1.0000      -0.316702        -8.6179
 114   1.0000      -0.310287        -8.4433
 115   1.0000      -0.309556        -8.4234
 116   1.0000      -0.307945        -8.3796
 117   1.0000      -0.305158        -8.3038
 118   1.0000      -0.299983        -8.1630
 119   1.0000      -0.297995        -8.1089
 120   1.0000      -0.295023        -8.0280
 121   1.0000      -0.293916        -7.9979
 122   1.0000      -0.293668        -7.9911
 123   1.0000      -0.292208        -7.9514
 124   1.0000      -0.292029        -7.9465
 125   1.0000      -0.287949        -7.8355
 126   1.0000      -0.287632        -7.8269
 127   1.0000      -0.283912        -7.7257
 128   1.0000      -0.282257        -7.6806
 129   1.0000      -0.281723        -7.6661
 130   1.0000      -0.278867        -7.5884
 131   1.0000      -0.277698        -7.5566
 132   1.0000      -0.276577        -7.5260
 133   1.0000      -0.275527        -7.4975
 134   1.0000      -0.274870        -7.4796
 135   1.0000      -0.274259        -7.4630
 136   1.0000      -0.272311        -7.4100
 137   1.0000      -0.272021        -7.4021
 138   1.0000      -0.269829        -7.3424
 139   1.0000      -0.268927        -7.3179
 140   1.0000      -0.267017        -7.2659
 141   1.0000      -0.266264        -7.2454
 142   1.0000      -0.264615        -7.2005
 143   1.0000      -0.262996        -7.1565
 144   1.0000      -0.262798        -7.1511
 145   1.0000      -0.262347        -7.1388
 146   1.0000      -0.261425        -7.1137
 147   1.0000      -0.260513        -7.0889
 148   1.0000      -0.259451        -7.0600
 149   1.0000      -0.258858        -7.0439
 150   1.0000      -0.257568        -7.0088
 151   1.0000      -0.256655        -6.9839
 152   1.0000      -0.254283        -6.9194
 153   1.0000      -0.252732        -6.8772
 154   1.0000      -0.252120        -6.8605
 155   1.0000      -0.251370        -6.8401
 156   1.0000      -0.251034        -6.8310
 157   1.0000      -0.249037        -6.7766
 158   1.0000      -0.247792        -6.7428
 159   1.0000      -0.244748        -6.6599
 160   1.0000      -0.241503        -6.5716
 161   1.0000      -0.235409        -6.4058
 162   1.0000      -0.228327        -6.2131
 163   1.0000      -0.226938        -6.1753
 164   1.0000      -0.218098        -5.9347
 165   1.0000      -0.210935        -5.7398
 166   0.0000      -0.208999        -5.6872
 167   0.0000      -0.140931        -3.8349
 168   0.0000      -0.140394        -3.8203
 169   0.0000      -0.136121        -3.7041
 170   0.0000      -0.129797        -3.5319

                 SPIN DOWN ORBITALS
  NO   OCC          E(Eh)            E(eV)
   0   1.0000    -235.040811     -6395.7856
   1   1.0000     -27.132873      -738.3230
   2   1.0000     -23.201402      -631.3422
   3   1.0000     -23.199335      -631.2860
   4   1.0000     -23.199195      -631.2822
   5   1.0000      -4.127231      -112.3077
   6   1.0000      -4.125426      -112.2585
   7   1.0000      -4.122190      -112.1705
   8   1.0000      -4.122055      -112.1668
   9   1.0000      -4.121847      -112.1612
  10   1.0000      -4.121527      -112.1525
  11   1.0000      -4.121316      -112.1467
  12   1.0000      -4.118337      -112.0656
  13   1.0000      -4.118307      -112.0648
  14   1.0000      -4.117248      -112.0360
  15   1.0000      -4.116840      -112.0249
  16   1.0000      -4.116724      -112.0217
  17   1.0000      -4.116507      -112.0158
  18   1.0000      -4.115895      -111.9992
  19   1.0000      -4.115270      -111.9822
  20   1.0000      -4.114737      -111.9677
  21   1.0000      -3.034052       -82.5608
  22   1.0000      -2.316241       -63.0281
  23   1.0000      -2.314630       -62.9843
  24   1.0000      -2.314193       -62.9724
  25   1.0000      -2.313041       -62.9410
  26   1.0000      -2.312489       -62.9260
  27   1.0000      -2.312033       -62.9136
  28   1.0000      -2.311297       -62.8936
  29   1.0000      -2.310425       -62.8698
  30   1.0000      -2.310106       -62.8612
  31   1.0000      -2.309803       -62.8529
  32   1.0000      -2.309228       -62.8373
  33   1.0000      -2.308611       -62.8205
  34   1.0000      -2.308524       -62.8181
  35   1.0000      -2.307972       -62.8031
  36   1.0000      -2.307332       -62.7857
  37   1.0000      -2.307178       -62.7815
  38   1.0000      -2.306813       -62.7716
  39   1.0000      -2.306420       -62.7609
  40   1.0000      -2.306382       -62.7599
  41   1.0000      -2.306146       -62.7534
  42   1.0000      -2.305701       -62.7413
  43   1.0000      -2.304966       -62.7213
  44   1.0000      -2.304645       -62.7126
  45   1.0000      -2.304593       -62.7112
  46   1.0000      -2.304507       -62.7088
  47   1.0000      -2.304330       -62.7040
  48   1.0000      -2.304291       -62.7029
  49   1.0000      -2.303251       -62.6747
  50   1.0000      -2.303197       -62.6732
  51   1.0000      -2.302874       -62.6644
  52   1.0000      -2.302745       -62.6609
  53   1.0000      -2.302649       -62.6583
  54   1.0000      -2.302409       -62.6517
  55   1.0000      -2.302248       -62.6473
  56   1.0000      -2.302110       -62.6436
  57   1.0000      -2.302015       -62.6410
  58   1.0000      -2.301645       -62.6309
  59   1.0000      -2.300748       -62.6065
  60   1.0000      -2.300557       -62.6014
  61   1.0000      -2.299851       -62.5821
  62   1.0000      -2.299302       -62.5672
  63   1.0000      -2.299071       -62.5609
  64   1.0000      -2.297955       -62.5305
  65   1.0000      -2.297915       -62.5294
  66   1.0000      -2.297115       -62.5077
  67   1.0000      -2.296766       -62.4982
  68   1.0000      -2.296070       -62.4792
  69   1.0000      -2.295124       -62.4535
  70   1.0000      -1.893265       -51.5184
  71   1.0000      -1.891391       -51.4674
  72   1.0000      -1.891204       -51.4623
  73   1.0000      -0.419313       -11.4101
  74   1.0000      -0.392580       -10.6827
  75   1.0000      -0.390199       -10.6179
  76   1.0000      -0.389814       -10.6074
  77   1.0000      -0.380071       -10.3423
  78   1.0000      -0.377140       -10.2625
  79   1.0000      -0.374936       -10.2025
  80   1.0000      -0.373053       -10.1513
  81   1.0000      -0.372500       -10.1363
  82   1.0000      -0.370049       -10.0695
  83   1.0000      -0.367601       -10.0029
  84   1.0000      -0.366239        -9.9659
  85   1.0000      -0.365596        -9.9484
  86   1.0000      -0.363863        -9.9012
  87   1.0000      -0.361651        -9.8410
  88   1.0000      -0.360163        -9.8005
  89   1.0000      -0.359088        -9.7713
  90   1.0000      -0.357617        -9.7312
  91   1.0000      -0.357337        -9.7236
  92   1.0000      -0.355885        -9.6841
  93   1.0000      -0.352597        -9.5947
  94   1.0000      -0.351302        -9.5594
  95   1.0000      -0.349856        -9.5201
  96   1.0000      -0.347303        -9.4506
  97   1.0000      -0.347237        -9.4488
  98   1.0000      -0.345617        -9.4047
  99   1.0000      -0.339021        -9.2252
 100   1.0000      -0.338729        -9.2173
 101   1.0000      -0.336634        -9.1603
 102   1.0000      -0.336266        -9.1503
 103   1.0000      -0.331667        -9.0251
 104   1.0000      -0.330109        -8.9827
 105   1.0000      -0.327645        -8.9157
 106   1.0000      -0.326360        -8.8807
 107   1.0000      -0.323980        -8.8159
 108   1.0000      -0.321996        -8.7620
 109   1.0000      -0.321529        -8.7492
 110   1.0000      -0.319657        -8.6983
 111   1.0000      -0.318394        -8.6640
 112   1.0000      -0.316549        -8.6137
 113   1.0000      -0.313628        -8.5342
 114   1.0000      -0.310825        -8.4580
 115   1.0000      -0.308795        -8.4027
 116   1.0000      -0.307535        -8.3685
 117   1.0000      -0.300608        -8.1800
 118   1.0000      -0.296681        -8.0731
 119   1.0000      -0.296031        -8.0554
 120   1.0000      -0.295546        -8.0422
 121   1.0000      -0.293133        -7.9766
 122   1.0000      -0.291158        -7.9228
 123   1.0000      -0.288477        -7.8498
 124   1.0000      -0.287397        -7.8205
 125   1.0000      -0.286903        -7.8070
 126   1.0000      -0.285432        -7.7670
 127   1.0000      -0.282025        -7.6743
 128   1.0000      -0.280038        -7.6202
 129   1.0000      -0.279404        -7.6030
 130   1.0000      -0.278773        -7.5858
 131   1.0000      -0.277776        -7.5587
 132   1.0000      -0.276318        -7.5190
 133   1.0000      -0.276115        -7.5135
 134   1.0000      -0.274414        -7.4672
 135   1.0000      -0.270982        -7.3738
 136   1.0000      -0.269636        -7.3372
 137   1.0000      -0.268868        -7.3163
 138   1.0000      -0.267691        -7.2842
 139   1.0000      -0.266174        -7.2430
 140   1.0000      -0.265876        -7.2349
 141   1.0000      -0.264755        -7.2044
 142   1.0000      -0.263869        -7.1802
 143   1.0000      -0.262387        -7.1399
 144   1.0000      -0.260693        -7.0938
 145   1.0000      -0.260248        -7.0817
 146   1.0000      -0.260151        -7.0791
 147   1.0000      -0.258547        -7.0354
 148   1.0000      -0.255940        -6.9645
 149   1.0000      -0.255199        -6.9443
 150   1.0000      -0.254618        -6.9285
 151   1.0000      -0.253256        -6.8914
 152   1.0000      -0.252971        -6.8837
 153   1.0000      -0.249978        -6.8022
 154   1.0000      -0.247671        -6.7395
 155   1.0000      -0.244966        -6.6659
 156   1.0000      -0.239337        -6.5127
 157   1.0000      -0.232871        -6.3367
 158   1.0000      -0.230500        -6.2722
 159   1.0000      -0.221515        -6.0277
 160   1.0000      -0.215647        -5.8681
 161   1.0000      -0.213135        -5.7997
 162   1.0000      -0.163470        -4.4483
 163   0.0000      -0.152397        -4.1469
 164   0.0000      -0.143054        -3.8927
 165   0.0000      -0.137253        -3.7348
 166   0.0000      -0.131478        -3.5777
 167   0.0000      -0.129822        -3.5326

MULLIKEN ATOMIC CHARGES AND SPIN POPULATIONS
--------------------------------------------
   0 Au:   -0.131133   -0.139226
   1 Au:   -0.139927   -0.154330
   2 Au:    0.055536   -0.027803
   3 Au:    0.234780   -0.103757
   4 Au:    0.107774   -0.050150
   5 Au:    0.112852   -0.046156
   6 Au:    0.234741   -0.099653
   7 Au:    0.138015   -0.103016
   8 Au:    0.191983   -0.077639
   9 Au:   -0.295809   -0.180582
  10 Au:    0.192169   -0.071669
  11 Au:   -0.516973    0.001342
  12 Au:    0.444963   -0.257413
  13 Au:   -0.057880   -0.109711
  14 Au:   -0.509346    0.005040
  15 Au:    0.057929   -0.024436
  16 Mn:   -0.119674    4.439159
Sum of atomic charges         :   -0.0000000

LOEWDIN ATOMIC CHARGES AND SPIN POPULATIONS
-------------------------------------------
   0 Au:   -0.032962   -0.100678
   1 Au:   -0.032797   -0.106921
   2 Au:   -0.051099   -0.042668
   3 Au:    0.055587   -0.067211
   4 Au:    0.021291   -0.056368
   5 Au:    0.023194   -0.057652
   6 Au:    0.054306   -0.062453
   7 Au:    0.032812   -0.144747
   8 Au:    0.036256   -0.083847
   9 Au:   -0.061009   -0.122944
  10 Au:    0.034413   -0.078128
  11 Au:   -0.094819   -0.057642
  12 Au:    0.105783   -0.189564
  13 Au:   -0.038528   -0.035050
  14 Au:   -0.093952   -0.057057
  15 Au:   -0.051428   -0.039545
  16 Mn:    0.092951    4.302475

  Mayer bond orders larger than 0.100000
B(  0-Au,  1-Au) :   0.3581 B(  0-Au,  4-Au) :   0.3491 B(  0-Au,  7-Au) :   0.3164
B(  0-Au, 10-Au) :   0.1828 B(  0-Au, 15-Au) :   0.3401 B(  1-Au,  2-Au) :   0.3386
B(  1-Au,  5-Au) :   0.3457 B(  1-Au,  7-Au) :   0.3203 B(  1-Au,  8-Au) :   0.1875
B(  2-Au,  5-Au) :   0.2914 B(  2-Au,  6-Au) :   0.3000 B(  2-Au,  8-Au) :   0.3078
B(  2-Au, 14-Au) :   0.2983 B(  3-Au, 11-Au) :   0.2682 B(  3-Au, 13-Au) :   0.1997
B(  3-Au, 15-Au) :   0.2990 B(  3-Au, 16-Mn) :   0.5221 B(  4-Au,  5-Au) :   0.2476
B(  4-Au, 15-Au) :   0.2921 B(  4-Au, 16-Mn) :   0.4949 B(  5-Au, 16-Mn) :   0.4975
B(  6-Au, 13-Au) :   0.2027 B(  6-Au, 14-Au) :   0.2674 B(  6-Au, 16-Mn) :   0.5195
B(  7-Au,  8-Au) :   0.2510 B(  7-Au,  9-Au) :   0.3663 B(  7-Au, 10-Au) :   0.2499
B(  8-Au,  9-Au) :   0.2580 B(  8-Au, 14-Au) :   0.3805 B(  9-Au, 10-Au) :   0.2601
B(  9-Au, 11-Au) :   0.3537 B(  9-Au, 12-Au) :   0.3305 B(  9-Au, 14-Au) :   0.3492
B( 10-Au, 11-Au) :   0.3856 B( 10-Au, 15-Au) :   0.3053 B( 11-Au, 12-Au) :   0.2303
B( 11-Au, 13-Au) :   0.3470 B( 11-Au, 15-Au) :   0.3000 B( 12-Au, 13-Au) :   0.1427
B( 12-Au, 14-Au) :   0.2303 B( 13-Au, 14-Au) :   0.3461 B( 13-Au, 16-Mn) :   0.4989

FINAL SINGLE POINT ENERGY     -3324.540235765338

DIPOLE MOMENT
-------------
                                X             Y             Z
Electronic contribution:     49.68551      91.76938     -22.85842
Nuclear contribution   :    -50.01811     -92.06900      22.95805
                        -----------------------------------------
Total Dipole Moment    :     -0.33260      -0.29963       0.09963
                        -----------------------------------------
Magnitude (a.u.)       :      0.45861
Magnitude (Debye)      :      1.16570

Rotational constants in cm-1:     0.000822     0.000804     0.000775
Rotational constants in MHz :    24.635340    24.093288    23.227279

                             ****ORCA TERMINATED NORMALLY****
TOTAL RUN TIME: 0 days 0 hours 13 minutes 20 seconds 525 msec
