                         Program Version 5.0.3 -  RELEASE  -
|  1> %pal nprocs 1 end
|  2>
|  3> !PBE def2-TZVP OPT UNO
|  4> !SLOWCONV KDIIS
|  5>
|  6> %geom maxiter 300 end
|  7>
|  8> *xyzfile 0 5 1.xyz                           ****END OF INPUT****
 Total Charge           Charge          ....    0
 Multiplicity           Mult            ....    5
 Number of Electrons    NEL             ....  254
FINAL SINGLE POINT ENERGY     -2893.364700898423
FINAL SINGLE POINT ENERGY     -2893.367711540798
FINAL SINGLE POINT ENERGY     -2893.368683041392
FINAL SINGLE POINT ENERGY     -2893.370663457205
FINAL SINGLE POINT ENERGY     -2893.372613397547
FINAL SINGLE POINT ENERGY     -2893.375625299723
FINAL SINGLE POINT ENERGY     -2893.381711017531
FINAL SINGLE POINT ENERGY     -2893.385988195264
FINAL SINGLE POINT ENERGY     -2893.392741480940
FINAL SINGLE POINT ENERGY     -2893.398418692697
FINAL SINGLE POINT ENERGY     -2893.402409817370
FINAL SINGLE POINT ENERGY     -2893.402466753851
FINAL SINGLE POINT ENERGY     -2893.402499750222
FINAL SINGLE POINT ENERGY     -2893.402510798915
FINAL SINGLE POINT ENERGY     -2893.402522458257
FINAL SINGLE POINT ENERGY     -2893.402532540645
FINAL SINGLE POINT ENERGY     -2893.402545826921
FINAL SINGLE POINT ENERGY     -2893.402553343002
FINAL SINGLE POINT ENERGY     -2893.402556319060
                    ***********************HURRAY********************

CARTESIAN COORDINATES (ANGSTROEM)
---------------------------------
  Au     7.547249    7.336288    3.852044
  Au     4.831003    7.641231    4.334739
  Au     4.836273    5.755754    6.370296
  Au     7.558319    5.478969    5.912984
  Au     9.287035    7.709757    5.978770
  Au     6.593218    6.140445    8.481452
  Au     6.561848    9.868892    4.400605
  Au     8.324028    8.368095    8.547543
  Au     5.596777   10.530026    6.969272
  Au     3.868363    8.299373    6.903423
  Au     5.607696    8.673088    9.029924
  Au     8.318790   10.253742    6.511569
  Fe     6.577554    8.004658    6.441081

 Multiplicity           Mult            ....    5
 Number of Electrons    NEL             ....  254
 Basis Dimension        Dim             ....  525

ORBITAL ENERGIES
----------------
                 SPIN UP ORBITALS
  NO   OCC          E(Eh)            E(eV)
   0   1.0000    -254.771803     -6932.6932
   1   1.0000     -29.611401      -805.7672
   2   1.0000     -25.553934      -695.3579
   3   1.0000     -25.542667      -695.0513
   4   1.0000     -25.542228      -695.0393
   5   1.0000      -4.024841      -109.5215
   6   1.0000      -4.024811      -109.5207
   7   1.0000      -4.024765      -109.5194
   8   1.0000      -4.024739      -109.5187
   9   1.0000      -4.024678      -109.5171
  10   1.0000      -4.024652      -109.5163
  11   1.0000      -4.024601      -109.5150
  12   1.0000      -4.024577      -109.5143
  13   1.0000      -4.022842      -109.4671
  14   1.0000      -4.022821      -109.4665
  15   1.0000      -4.022811      -109.4662
  16   1.0000      -4.022794      -109.4658
  17   1.0000      -3.390936       -92.2721
  18   1.0000      -2.241338       -60.9899
  19   1.0000      -2.241323       -60.9895
  20   1.0000      -2.241154       -60.9849
  21   1.0000      -2.240998       -60.9807
  22   1.0000      -2.240949       -60.9793
  23   1.0000      -2.240768       -60.9744
  24   1.0000      -2.240699       -60.9725
  25   1.0000      -2.240387       -60.9640
  26   1.0000      -2.238912       -60.9239
  27   1.0000      -2.238651       -60.9168
  28   1.0000      -2.238327       -60.9080
  29   1.0000      -2.238305       -60.9074
  30   1.0000      -2.238289       -60.9069
  31   1.0000      -2.238240       -60.9056
  32   1.0000      -2.238195       -60.9044
  33   1.0000      -2.237455       -60.8842
  34   1.0000      -2.237270       -60.8792
  35   1.0000      -2.236891       -60.8689
  36   1.0000      -2.236880       -60.8686
  37   1.0000      -2.236862       -60.8681
  38   1.0000      -2.236829       -60.8672
  39   1.0000      -2.236608       -60.8612
  40   1.0000      -2.235902       -60.8420
  41   1.0000      -2.235665       -60.8355
  42   1.0000      -2.235283       -60.8252
  43   1.0000      -2.234569       -60.8057
  44   1.0000      -2.234523       -60.8045
  45   1.0000      -2.234475       -60.8032
  46   1.0000      -2.234444       -60.8023
  47   1.0000      -2.234267       -60.7975
  48   1.0000      -2.234049       -60.7916
  49   1.0000      -2.233986       -60.7899
  50   1.0000      -2.232709       -60.7551
  51   1.0000      -2.232639       -60.7532
  52   1.0000      -2.232606       -60.7523
  53   1.0000      -2.232175       -60.7406
  54   1.0000      -2.219713       -60.4015
  55   1.0000      -2.196819       -59.7785
  56   1.0000      -2.195926       -59.7542
  57   1.0000      -0.430791       -11.7224
  58   1.0000      -0.375792       -10.2258
  59   1.0000      -0.375726       -10.2240
  60   1.0000      -0.373836       -10.1726
  61   1.0000      -0.373780       -10.1711
  62   1.0000      -0.373361       -10.1597
  63   1.0000      -0.373340       -10.1591
  64   1.0000      -0.365401        -9.9431
  65   1.0000      -0.363802        -9.8996
  66   1.0000      -0.357412        -9.7257
  67   1.0000      -0.355984        -9.6868
  68   1.0000      -0.341126        -9.2825
  69   1.0000      -0.339963        -9.2509
  70   1.0000      -0.339904        -9.2493
  71   1.0000      -0.338853        -9.2207
  72   1.0000      -0.338777        -9.2186
  73   1.0000      -0.337244        -9.1769
  74   1.0000      -0.329151        -8.9566
  75   1.0000      -0.327859        -8.9215
  76   1.0000      -0.325217        -8.8496
  77   1.0000      -0.324830        -8.8391
  78   1.0000      -0.324676        -8.8349
  79   1.0000      -0.319742        -8.7006
  80   1.0000      -0.319651        -8.6982
  81   1.0000      -0.319504        -8.6942
  82   1.0000      -0.319232        -8.6867
  83   1.0000      -0.319074        -8.6824
  84   1.0000      -0.318562        -8.6685
  85   1.0000      -0.310561        -8.4508
  86   1.0000      -0.309870        -8.4320
  87   1.0000      -0.304004        -8.2724
  88   1.0000      -0.303886        -8.2692
  89   1.0000      -0.298669        -8.1272
  90   1.0000      -0.298505        -8.1227
  91   1.0000      -0.295265        -8.0346
  92   1.0000      -0.294169        -8.0047
  93   1.0000      -0.293523        -7.9872
  94   1.0000      -0.279152        -7.5961
  95   1.0000      -0.277795        -7.5592
  96   1.0000      -0.277771        -7.5585
  97   1.0000      -0.275321        -7.4919
  98   1.0000      -0.274472        -7.4688
  99   1.0000      -0.274359        -7.4657
 100   1.0000      -0.265520        -7.2252
 101   1.0000      -0.263810        -7.1786
 102   1.0000      -0.261482        -7.1153
 103   1.0000      -0.261382        -7.1126
 104   1.0000      -0.259501        -7.0614
 105   1.0000      -0.259365        -7.0577
 106   1.0000      -0.258396        -7.0313
 107   1.0000      -0.258278        -7.0281
 108   1.0000      -0.256474        -6.9790
 109   1.0000      -0.256092        -6.9686
 110   1.0000      -0.254343        -6.9210
 111   1.0000      -0.252353        -6.8669
 112   1.0000      -0.252188        -6.8624
 113   1.0000      -0.251555        -6.8452
 114   1.0000      -0.251552        -6.8451
 115   1.0000      -0.251417        -6.8414
 116   1.0000      -0.251031        -6.8309
 117   1.0000      -0.250818        -6.8251
 118   1.0000      -0.249042        -6.7768
 119   1.0000      -0.246491        -6.7074
 120   1.0000      -0.245795        -6.6884
 121   1.0000      -0.245632        -6.6840
 122   1.0000      -0.244908        -6.6643
 123   1.0000      -0.244796        -6.6612
 124   1.0000      -0.243083        -6.6146
 125   1.0000      -0.219639        -5.9767
 126   1.0000      -0.199804        -5.4370
 127   1.0000      -0.197441        -5.3726
 128   1.0000      -0.197352        -5.3702
 129   0.0000      -0.170723        -4.6456
 130   0.0000      -0.166676        -4.5355
 131   0.0000      -0.131839        -3.5875
 132   0.0000      -0.106781        -2.9057
 133   0.0000      -0.106417        -2.8958

                 SPIN DOWN ORBITALS
  NO   OCC          E(Eh)            E(eV)
   0   1.0000    -254.771088     -6932.6737
   1   1.0000     -29.549766      -804.0900
   2   1.0000     -25.503850      -693.9951
   3   1.0000     -25.497793      -693.8302
   4   1.0000     -25.497548      -693.8236
   5   1.0000      -4.024204      -109.5042
   6   1.0000      -4.024172      -109.5033
   7   1.0000      -4.024123      -109.5020
   8   1.0000      -4.024096      -109.5012
   9   1.0000      -4.024046      -109.4999
  10   1.0000      -4.024019      -109.4991
  11   1.0000      -4.023965      -109.4976
  12   1.0000      -4.023941      -109.4970
  13   1.0000      -4.022512      -109.4581
  14   1.0000      -4.022491      -109.4575
  15   1.0000      -4.022480      -109.4572
  16   1.0000      -4.022464      -109.4568
  17   1.0000      -3.252133       -88.4950
  18   1.0000      -2.240779       -60.9747
  19   1.0000      -2.240181       -60.9584
  20   1.0000      -2.240155       -60.9577
  21   1.0000      -2.240088       -60.9559
  22   1.0000      -2.240066       -60.9553
  23   1.0000      -2.239870       -60.9499
  24   1.0000      -2.239815       -60.9485
  25   1.0000      -2.239778       -60.9475
  26   1.0000      -2.237966       -60.8982
  27   1.0000      -2.237747       -60.8922
  28   1.0000      -2.237712       -60.8912
  29   1.0000      -2.237590       -60.8879
  30   1.0000      -2.237535       -60.8864
  31   1.0000      -2.237435       -60.8837
  32   1.0000      -2.237364       -60.8818
  33   1.0000      -2.236878       -60.8685
  34   1.0000      -2.236850       -60.8678
  35   1.0000      -2.236347       -60.8541
  36   1.0000      -2.236342       -60.8540
  37   1.0000      -2.236220       -60.8506
  38   1.0000      -2.236192       -60.8499
  39   1.0000      -2.236089       -60.8471
  40   1.0000      -2.235362       -60.8273
  41   1.0000      -2.235069       -60.8193
  42   1.0000      -2.234839       -60.8131
  43   1.0000      -2.234099       -60.7929
  44   1.0000      -2.234027       -60.7910
  45   1.0000      -2.234024       -60.7909
  46   1.0000      -2.234009       -60.7905
  47   1.0000      -2.233745       -60.7833
  48   1.0000      -2.233535       -60.7776
  49   1.0000      -2.233492       -60.7764
  50   1.0000      -2.232690       -60.7546
  51   1.0000      -2.232599       -60.7521
  52   1.0000      -2.232567       -60.7512
  53   1.0000      -2.232058       -60.7374
  54   1.0000      -2.072690       -56.4008
  55   1.0000      -2.066356       -56.2284
  56   1.0000      -2.066060       -56.2204
  57   1.0000      -0.425557       -11.5800
  58   1.0000      -0.374735       -10.1971
  59   1.0000      -0.374652       -10.1948
  60   1.0000      -0.372364       -10.1325
  61   1.0000      -0.362939        -9.8761
  62   1.0000      -0.361685        -9.8420
  63   1.0000      -0.361679        -9.8418
  64   1.0000      -0.361662        -9.8413
  65   1.0000      -0.357036        -9.7154
  66   1.0000      -0.346608        -9.4317
  67   1.0000      -0.345116        -9.3911
  68   1.0000      -0.339774        -9.2457
  69   1.0000      -0.339394        -9.2354
  70   1.0000      -0.339361        -9.2345
  71   1.0000      -0.338016        -9.1979
  72   1.0000      -0.337958        -9.1963
  73   1.0000      -0.336811        -9.1651
  74   1.0000      -0.328995        -8.9524
  75   1.0000      -0.327692        -8.9169
  76   1.0000      -0.324989        -8.8434
  77   1.0000      -0.323637        -8.8066
  78   1.0000      -0.323493        -8.8027
  79   1.0000      -0.319504        -8.6941
  80   1.0000      -0.319404        -8.6914
  81   1.0000      -0.318300        -8.6614
  82   1.0000      -0.317680        -8.6445
  83   1.0000      -0.310363        -8.4454
  84   1.0000      -0.305394        -8.3102
  85   1.0000      -0.305029        -8.3003
  86   1.0000      -0.298435        -8.1208
  87   1.0000      -0.298248        -8.1157
  88   1.0000      -0.297143        -8.0857
  89   1.0000      -0.296759        -8.0752
  90   1.0000      -0.294227        -8.0063
  91   1.0000      -0.293595        -7.9891
  92   1.0000      -0.280831        -7.6418
  93   1.0000      -0.277046        -7.5388
  94   1.0000      -0.277011        -7.5379
  95   1.0000      -0.276314        -7.5189
  96   1.0000      -0.273480        -7.4418
  97   1.0000      -0.273070        -7.4306
  98   1.0000      -0.272418        -7.4129
  99   1.0000      -0.272322        -7.4103
 100   1.0000      -0.262649        -7.1470
 101   1.0000      -0.261114        -7.1053
 102   1.0000      -0.258136        -7.0242
 103   1.0000      -0.258021        -7.0211
 104   1.0000      -0.256973        -6.9926
 105   1.0000      -0.255318        -6.9475
 106   1.0000      -0.252661        -6.8752
 107   1.0000      -0.251616        -6.8468
 108   1.0000      -0.251484        -6.8432
 109   1.0000      -0.251394        -6.8408
 110   1.0000      -0.250323        -6.8116
 111   1.0000      -0.250207        -6.8085
 112   1.0000      -0.250013        -6.8032
 113   1.0000      -0.247909        -6.7460
 114   1.0000      -0.245891        -6.6910
 115   1.0000      -0.244987        -6.6664
 116   1.0000      -0.244820        -6.6619
 117   1.0000      -0.243624        -6.6293
 118   1.0000      -0.243497        -6.6259
 119   1.0000      -0.241130        -6.5615
 120   1.0000      -0.219371        -5.9694
 121   1.0000      -0.212046        -5.7701
 122   1.0000      -0.211902        -5.7661
 123   1.0000      -0.209775        -5.7083
 124   1.0000      -0.193897        -5.2762
 125   0.0000      -0.185451        -5.0464
 126   0.0000      -0.161515        -4.3950
 127   0.0000      -0.161195        -4.3863
 128   0.0000      -0.156345        -4.2544
 129   0.0000      -0.151727        -4.1287

MULLIKEN ATOMIC CHARGES AND SPIN POPULATIONS
--------------------------------------------
   0 Au:    0.231854    0.054862
   1 Au:    0.188841    0.083346
   2 Au:    0.231796    0.054992
   3 Au:    0.188828    0.083547
   4 Au:    0.190545    0.082068
   5 Au:    0.190581    0.081906
   6 Au:    0.190595    0.081890
   7 Au:    0.188845    0.083353
   8 Au:    0.188815    0.083561
   9 Au:    0.190531    0.082066
  10 Au:    0.231887    0.054846
  11 Au:    0.231813    0.054993
  12 Fe:   -2.444929    3.118569
Sum of atomic charges         :   -0.0000000

LOEWDIN ATOMIC CHARGES AND SPIN POPULATIONS
-------------------------------------------
   0 Au:    0.048890    0.036975
   1 Au:    0.056310    0.067645
   2 Au:    0.048883    0.037041
   3 Au:    0.056303    0.067762
   4 Au:    0.055969    0.066387
   5 Au:    0.055990    0.066311
   6 Au:    0.055991    0.066301
   7 Au:    0.056309    0.067646
   8 Au:    0.056314    0.067776
   9 Au:    0.055981    0.066391
  10 Au:    0.048904    0.036966
  11 Au:    0.048887    0.037038
  12 Fe:   -0.644733    3.315762

  Mayer bond orders larger than 0.100000
B(  0-Au,  1-Au) :   0.2479 B(  0-Au,  3-Au) :   0.2485 B(  0-Au,  4-Au) :   0.2501
B(  0-Au,  6-Au) :   0.2503 B(  0-Au, 12-Fe) :   0.4279 B(  1-Au,  2-Au) :   0.2484
B(  1-Au,  6-Au) :   0.2073 B(  1-Au,  9-Au) :   0.2077 B(  1-Au, 12-Fe) :   0.5200
B(  2-Au,  3-Au) :   0.2488 B(  2-Au,  5-Au) :   0.2499 B(  2-Au,  9-Au) :   0.2500
B(  2-Au, 12-Fe) :   0.4275 B(  3-Au,  4-Au) :   0.2068 B(  3-Au,  5-Au) :   0.2070
B(  3-Au, 12-Fe) :   0.5199 B(  4-Au,  7-Au) :   0.2076 B(  4-Au, 11-Au) :   0.2498
B(  4-Au, 12-Fe) :   0.5162 B(  5-Au,  7-Au) :   0.2073 B(  5-Au, 10-Au) :   0.2503
B(  5-Au, 12-Fe) :   0.5165 B(  6-Au,  8-Au) :   0.2070 B(  6-Au, 11-Au) :   0.2499
B(  6-Au, 12-Fe) :   0.5164 B(  7-Au, 10-Au) :   0.2478 B(  7-Au, 11-Au) :   0.2483
B(  7-Au, 12-Fe) :   0.5200 B(  8-Au,  9-Au) :   0.2069 B(  8-Au, 10-Au) :   0.2487
B(  8-Au, 11-Au) :   0.2488 B(  8-Au, 12-Fe) :   0.5200 B(  9-Au, 10-Au) :   0.2503
B(  9-Au, 12-Fe) :   0.5162 B( 10-Au, 12-Fe) :   0.4279 B( 11-Au, 12-Fe) :   0.4275

FINAL SINGLE POINT ENERGY     -2893.402556920490

DIPOLE MOMENT
-------------
                                X             Y             Z
Electronic contribution:     -0.00054      -0.00064      -0.00106
Nuclear contribution   :      0.00016       0.00075       0.00113
                        -----------------------------------------
Total Dipole Moment    :     -0.00038       0.00011       0.00007
                        -----------------------------------------
Magnitude (a.u.)       :      0.00040
Magnitude (Debye)      :      0.00102

Rotational constants in cm-1:     0.001398     0.001395     0.001333
Rotational constants in MHz :    41.902040    41.819734    39.950129

                             ****ORCA TERMINATED NORMALLY****
TOTAL RUN TIME: 0 days 3 hours 10 minutes 2 seconds 684 msec
