                         Program Version 5.0.3 -  RELEASE  -
|  1> !RI-B2PLYP def2-TZVP def2-TZVP/C
|  2> !RIJCOSX VERYSLOWCONV
|  3>
|  4> %scf
|  5>   AutoTRAHIter 200
|  6>   maxiter 400
|  7> end
|  8>
|  9>
| 10> %pal nprocs 6 end
| 11>
| 12> *xyzfile 0 5 pbe.xyz
| 13>
| 14> $new_job
| 15>
| 16> !RI-B2PLYP def2-TZVP def2-TZVP/C
| 17> !RIJCOSX VERYSLOWCONV
| 18>
| 19> %scf
| 20>   AutoTRAHIter 200
| 21>   maxiter 400
| 22> end
| 23>
| 24>
| 25> %pal nprocs 6 end
| 26>
| 27> *xyzfile 0 3 pbe.xyz
| 28>
| 29>
| 30>
| 31>
| 32>
| 33>                          ****END OF INPUT****
 Total Charge           Charge          ....    0
 Multiplicity           Mult            ....    5
 Number of Electrons    NEL             ....  254
MP2 TOTAL ENERGY:    -2890.525634787 Eh
FINAL SINGLE POINT ENERGY     -2890.525634786930

CARTESIAN COORDINATES (ANGSTROEM)
---------------------------------
  Au     9.240305    9.726279   10.556914
  Au     9.580922    7.052430   11.566076
  Au     7.749529    5.727456   10.128264
  Au     7.288653    6.733367    7.399832
  Au     6.538064    8.956084    6.108726
  Au     7.167447    4.110388    7.933412
  Au     7.284568    9.343597    8.766912
  Au    11.816259    8.734373   11.167367
  Au    11.594301    6.511839    9.436243
  Au     9.727454    5.204315    8.030504
  Au    11.247117    9.186008    8.434993
  Au     9.261027    8.803305    6.679170
  Fe     9.255484    7.602007    9.034956

 Multiplicity           Mult            ....    3
 Number of Electrons    NEL             ....  254
 Basis Dimension        Dim             ....  525

ORBITAL ENERGIES
----------------
                 SPIN UP ORBITALS
  NO   OCC          E(Eh)            E(eV)
   0   1.0000    -258.324195     -7029.3587
   1   1.0000     -30.886511      -840.4647
   2   1.0000     -26.605371      -723.9689
   3   1.0000     -26.574888      -723.1395
   4   1.0000     -26.573401      -723.0990
   5   1.0000      -4.415692      -120.1571
   6   1.0000      -4.396045      -119.6225
   7   1.0000      -4.396043      -119.6224
   8   1.0000      -4.395968      -119.6204
   9   1.0000      -4.395960      -119.6202
  10   1.0000      -4.393504      -119.5533
  11   1.0000      -4.393393      -119.5503
  12   1.0000      -4.389518      -119.4449
  13   1.0000      -4.389460      -119.4433
  14   1.0000      -4.389379      -119.4411
  15   1.0000      -4.389287      -119.4386
  16   1.0000      -4.379015      -119.1590
  17   1.0000      -3.897649      -106.0604
  18   1.0000      -2.649831       -72.1056
  19   1.0000      -2.584310       -70.3227
  20   1.0000      -2.583337       -70.2962
  21   1.0000      -2.537890       -69.0595
  22   1.0000      -2.534497       -68.9672
  23   1.0000      -2.526798       -68.7577
  24   1.0000      -2.518293       -68.5262
  25   1.0000      -2.518045       -68.5195
  26   1.0000      -2.517628       -68.5081
  27   1.0000      -2.517540       -68.5057
  28   1.0000      -2.516794       -68.4854
  29   1.0000      -2.516396       -68.4746
  30   1.0000      -2.514697       -68.4284
  31   1.0000      -2.514609       -68.4260
  32   1.0000      -2.513340       -68.3915
  33   1.0000      -2.512932       -68.3804
  34   1.0000      -2.511079       -68.3299
  35   1.0000      -2.510259       -68.3076
  36   1.0000      -2.510178       -68.3054
  37   1.0000      -2.509878       -68.2973
  38   1.0000      -2.509396       -68.2841
  39   1.0000      -2.509340       -68.2826
  40   1.0000      -2.508487       -68.2594
  41   1.0000      -2.508446       -68.2583
  42   1.0000      -2.508328       -68.2551
  43   1.0000      -2.508150       -68.2502
  44   1.0000      -2.507288       -68.2268
  45   1.0000      -2.507179       -68.2238
  46   1.0000      -2.506703       -68.2109
  47   1.0000      -2.506330       -68.2007
  48   1.0000      -2.506026       -68.1924
  49   1.0000      -2.505169       -68.1691
  50   1.0000      -2.503795       -68.1317
  51   1.0000      -2.502208       -68.0885
  52   1.0000      -2.501948       -68.0815
  53   1.0000      -2.500894       -68.0528
  54   1.0000      -2.496324       -67.9284
  55   1.0000      -2.495895       -67.9168
  56   1.0000      -2.494419       -67.8766
  57   1.0000      -0.553764       -15.0687
  58   1.0000      -0.549215       -14.9449
  59   1.0000      -0.541411       -14.7325
  60   1.0000      -0.521353       -14.1867
  61   1.0000      -0.506008       -13.7692
  62   1.0000      -0.491246       -13.3675
  63   1.0000      -0.483521       -13.1573
  64   1.0000      -0.472042       -12.8449
  65   1.0000      -0.459251       -12.4969
  66   1.0000      -0.457661       -12.4536
  67   1.0000      -0.449075       -12.2200
  68   1.0000      -0.447239       -12.1700
  69   1.0000      -0.444471       -12.0947
  70   1.0000      -0.443602       -12.0710
  71   1.0000      -0.440610       -11.9896
  72   1.0000      -0.438929       -11.9439
  73   1.0000      -0.433558       -11.7977
  74   1.0000      -0.432406       -11.7664
  75   1.0000      -0.429100       -11.6764
  76   1.0000      -0.427537       -11.6339
  77   1.0000      -0.425822       -11.5872
  78   1.0000      -0.425043       -11.5660
  79   1.0000      -0.417714       -11.3666
  80   1.0000      -0.415568       -11.3082
  81   1.0000      -0.408979       -11.1289
  82   1.0000      -0.407804       -11.0969
  83   1.0000      -0.405336       -11.0298
  84   1.0000      -0.404294       -11.0014
  85   1.0000      -0.403331       -10.9752
  86   1.0000      -0.397995       -10.8300
  87   1.0000      -0.396670       -10.7939
  88   1.0000      -0.395821       -10.7708
  89   1.0000      -0.394324       -10.7301
  90   1.0000      -0.389356       -10.5949
  91   1.0000      -0.389021       -10.5858
  92   1.0000      -0.388934       -10.5834
  93   1.0000      -0.382571       -10.4103
  94   1.0000      -0.379999       -10.3403
  95   1.0000      -0.377450       -10.2709
  96   1.0000      -0.374761       -10.1978
  97   1.0000      -0.374108       -10.1800
  98   1.0000      -0.373002       -10.1499
  99   1.0000      -0.372571       -10.1382
 100   1.0000      -0.371074       -10.0974
 101   1.0000      -0.368934       -10.0392
 102   1.0000      -0.368151       -10.0179
 103   1.0000      -0.365320        -9.9408
 104   1.0000      -0.364459        -9.9174
 105   1.0000      -0.360680        -9.8146
 106   1.0000      -0.360487        -9.8093
 107   1.0000      -0.357350        -9.7240
 108   1.0000      -0.354686        -9.6515
 109   1.0000      -0.354553        -9.6479
 110   1.0000      -0.354225        -9.6390
 111   1.0000      -0.350295        -9.5320
 112   1.0000      -0.348628        -9.4867
 113   1.0000      -0.346727        -9.4349
 114   1.0000      -0.346100        -9.4179
 115   1.0000      -0.342806        -9.3282
 116   1.0000      -0.338535        -9.2120
 117   1.0000      -0.338119        -9.2007
 118   1.0000      -0.336622        -9.1600
 119   1.0000      -0.331690        -9.0258
 120   1.0000      -0.327154        -8.9023
 121   1.0000      -0.324647        -8.8341
 122   1.0000      -0.320493        -8.7211
 123   1.0000      -0.317724        -8.6457
 124   1.0000      -0.310260        -8.4426
 125   1.0000      -0.248887        -6.7726
 126   1.0000      -0.233066        -6.3420
 127   1.0000      -0.226142        -6.1536
 128   0.0000      -0.112135        -3.0513
 129   0.0000      -0.094850        -2.5810
 130   0.0000      -0.092777        -2.5246
 131   0.0000      -0.068202        -1.8559
 132   0.0000      -0.060161        -1.6371

                 SPIN DOWN ORBITALS
  NO   OCC          E(Eh)            E(eV)
   0   1.0000    -258.322093     -7029.3015
   1   1.0000     -30.794965      -837.9736
   2   1.0000     -26.506247      -721.2716
   3   1.0000     -26.498747      -721.0676
   4   1.0000     -26.497966      -721.0463
   5   1.0000      -4.414385      -120.1215
   6   1.0000      -4.396677      -119.6397
   7   1.0000      -4.396654      -119.6390
   8   1.0000      -4.396594      -119.6374
   9   1.0000      -4.396581      -119.6370
  10   1.0000      -4.394049      -119.5682
  11   1.0000      -4.393948      -119.5654
  12   1.0000      -4.389900      -119.4553
  13   1.0000      -4.389837      -119.4535
  14   1.0000      -4.389753      -119.4512
  15   1.0000      -4.389644      -119.4483
  16   1.0000      -4.379474      -119.1715
  17   1.0000      -3.656591       -99.5009
  18   1.0000      -2.536015       -69.0085
  19   1.0000      -2.531383       -68.8824
  20   1.0000      -2.526575       -68.7516
  21   1.0000      -2.518013       -68.5186
  22   1.0000      -2.517657       -68.5089
  23   1.0000      -2.516864       -68.4873
  24   1.0000      -2.516762       -68.4846
  25   1.0000      -2.516156       -68.4681
  26   1.0000      -2.516027       -68.4646
  27   1.0000      -2.514382       -68.4198
  28   1.0000      -2.514321       -68.4181
  29   1.0000      -2.513688       -68.4009
  30   1.0000      -2.513357       -68.3919
  31   1.0000      -2.510364       -68.3105
  32   1.0000      -2.510150       -68.3046
  33   1.0000      -2.509547       -68.2883
  34   1.0000      -2.509452       -68.2857
  35   1.0000      -2.509336       -68.2825
  36   1.0000      -2.508932       -68.2715
  37   1.0000      -2.508836       -68.2689
  38   1.0000      -2.508578       -68.2619
  39   1.0000      -2.508383       -68.2566
  40   1.0000      -2.508326       -68.2550
  41   1.0000      -2.507960       -68.2451
  42   1.0000      -2.507306       -68.2273
  43   1.0000      -2.507099       -68.2216
  44   1.0000      -2.506857       -68.2150
  45   1.0000      -2.506407       -68.2028
  46   1.0000      -2.505359       -68.1743
  47   1.0000      -2.504465       -68.1499
  48   1.0000      -2.502893       -68.1072
  49   1.0000      -2.502720       -68.1025
  50   1.0000      -2.501761       -68.0764
  51   1.0000      -2.497235       -67.9532
  52   1.0000      -2.495743       -67.9126
  53   1.0000      -2.495299       -67.9006
  54   1.0000      -2.335663       -63.5566
  55   1.0000      -2.334274       -63.5188
  56   1.0000      -2.322278       -63.1924
  57   1.0000      -0.503460       -13.6998
  58   1.0000      -0.489088       -13.3088
  59   1.0000      -0.480378       -13.0718
  60   1.0000      -0.464961       -12.6522
  61   1.0000      -0.460841       -12.5401
  62   1.0000      -0.456971       -12.4348
  63   1.0000      -0.452587       -12.3155
  64   1.0000      -0.450847       -12.2682
  65   1.0000      -0.448677       -12.2091
  66   1.0000      -0.447196       -12.1688
  67   1.0000      -0.443074       -12.0566
  68   1.0000      -0.440673       -11.9913
  69   1.0000      -0.440073       -11.9750
  70   1.0000      -0.435724       -11.8566
  71   1.0000      -0.433607       -11.7991
  72   1.0000      -0.431126       -11.7315
  73   1.0000      -0.429125       -11.6771
  74   1.0000      -0.428358       -11.6562
  75   1.0000      -0.426521       -11.6062
  76   1.0000      -0.418013       -11.3747
  77   1.0000      -0.411297       -11.1920
  78   1.0000      -0.410725       -11.1764
  79   1.0000      -0.409671       -11.1477
  80   1.0000      -0.407671       -11.0933
  81   1.0000      -0.407590       -11.0911
  82   1.0000      -0.404083       -10.9957
  83   1.0000      -0.403042       -10.9673
  84   1.0000      -0.399716       -10.8768
  85   1.0000      -0.398914       -10.8550
  86   1.0000      -0.393186       -10.6991
  87   1.0000      -0.391361       -10.6495
  88   1.0000      -0.391079       -10.6418
  89   1.0000      -0.383940       -10.4475
  90   1.0000      -0.383852       -10.4451
  91   1.0000      -0.379895       -10.3375
  92   1.0000      -0.378924       -10.3110
  93   1.0000      -0.377763       -10.2795
  94   1.0000      -0.377056       -10.2602
  95   1.0000      -0.375461       -10.2168
  96   1.0000      -0.373430       -10.1615
  97   1.0000      -0.370847       -10.0913
  98   1.0000      -0.370632       -10.0854
  99   1.0000      -0.370235       -10.0746
 100   1.0000      -0.363460        -9.8902
 101   1.0000      -0.362270        -9.8579
 102   1.0000      -0.360947        -9.8219
 103   1.0000      -0.357580        -9.7302
 104   1.0000      -0.356171        -9.6919
 105   1.0000      -0.354738        -9.6529
 106   1.0000      -0.354420        -9.6443
 107   1.0000      -0.352937        -9.6039
 108   1.0000      -0.350437        -9.5359
 109   1.0000      -0.347572        -9.4579
 110   1.0000      -0.344948        -9.3865
 111   1.0000      -0.340827        -9.2744
 112   1.0000      -0.339645        -9.2422
 113   1.0000      -0.336883        -9.1671
 114   1.0000      -0.334764        -9.1094
 115   1.0000      -0.329973        -8.9790
 116   1.0000      -0.329848        -8.9756
 117   1.0000      -0.328353        -8.9349
 118   1.0000      -0.327481        -8.9112
 119   1.0000      -0.324104        -8.8193
 120   1.0000      -0.315453        -8.5839
 121   1.0000      -0.279159        -7.5963
 122   1.0000      -0.245972        -6.6932
 123   1.0000      -0.234930        -6.3928
 124   1.0000      -0.221473        -6.0266
 125   1.0000      -0.186859        -5.0847
 126   0.0000      -0.097467        -2.6522
 127   0.0000      -0.075323        -2.0496
 128   0.0000      -0.059426        -1.6171
 129   0.0000      -0.046508        -1.2655
 130   0.0000      -0.039407        -1.0723

MULLIKEN ATOMIC CHARGES AND SPIN POPULATIONS
--------------------------------------------
   0 Au:    0.107729   -0.144395
   1 Au:    0.106777   -0.143881
   2 Au:    0.149413   -0.276336
   3 Au:   -0.502990   -0.012833
   4 Au:    0.454894    0.053780
   5 Au:    0.455161    0.053643
   6 Au:    0.149641   -0.278182
   7 Au:    0.277511   -0.007772
   8 Au:    0.106452   -0.145328
   9 Au:    0.148405   -0.278525
  10 Au:    0.107492   -0.146186
  11 Au:    0.148343   -0.280700
  12 Fe:   -1.708827    3.606715
Sum of atomic charges         :   -0.0000000

LOEWDIN ATOMIC CHARGES AND SPIN POPULATIONS
-------------------------------------------
   0 Au:    0.013418   -0.138355
   1 Au:    0.013683   -0.137648
   2 Au:    0.025300   -0.171724
   3 Au:   -0.139514   -0.038695
   4 Au:    0.148170   -0.028188
   5 Au:    0.148124   -0.028225
   6 Au:    0.025306   -0.173162
   7 Au:    0.033781   -0.075173
   8 Au:    0.013774   -0.138602
   9 Au:    0.024641   -0.172719
  10 Au:    0.013473   -0.139504
  11 Au:    0.024579   -0.174356
  12 Fe:   -0.344736    3.416351

  Mayer bond orders larger than 0.100000
B(  0-Au,  1-Au) :   0.1663 B(  0-Au,  6-Au) :   0.2974 B(  0-Au,  7-Au) :   0.2459
B(  0-Au, 10-Au) :   0.1020 B(  0-Au, 12-Fe) :   0.5104 B(  1-Au,  2-Au) :   0.2974
B(  1-Au,  7-Au) :   0.2467 B(  1-Au, 12-Fe) :   0.5115 B(  2-Au,  3-Au) :   0.1813
B(  2-Au,  5-Au) :   0.1823 B(  2-Au, 12-Fe) :   0.4985 B(  3-Au,  4-Au) :   0.5744
B(  3-Au,  5-Au) :   0.5730 B(  3-Au,  6-Au) :   0.1805 B(  3-Au,  9-Au) :   0.1794
B(  3-Au, 11-Au) :   0.1790 B(  3-Au, 12-Fe) :   0.2143 B(  4-Au,  6-Au) :   0.1821
B(  4-Au, 11-Au) :   0.1851 B(  5-Au,  9-Au) :   0.1854 B(  6-Au, 12-Fe) :   0.4963
B(  7-Au,  8-Au) :   0.2471 B(  7-Au, 10-Au) :   0.2463 B(  7-Au, 12-Fe) :   0.1123
B(  8-Au,  9-Au) :   0.2968 B(  8-Au, 10-Au) :   0.1657 B(  8-Au, 12-Fe) :   0.5114
B(  9-Au, 12-Fe) :   0.4967 B( 10-Au, 11-Au) :   0.2966 B( 10-Au, 12-Fe) :   0.5099
B( 11-Au, 12-Fe) :   0.4945

MP2 TOTAL ENERGY:    -2890.522420719 Eh
FINAL SINGLE POINT ENERGY     -2890.522420718779

DIPOLE MOMENT
-------------
                                X             Y             Z
Electronic contribution:     -8.64839      -3.81837      -7.43193
Nuclear contribution   :      8.15018       3.59804       7.01142
                        -----------------------------------------
Total Dipole Moment    :     -0.49821      -0.22033      -0.42052
                        -----------------------------------------
Magnitude (a.u.)       :      0.68818
Magnitude (Debye)      :      1.74922

Rotational constants in cm-1:     0.001574     0.001181     0.000930
Rotational constants in MHz :    47.185650    35.403241    27.888150

                             ****ORCA TERMINATED NORMALLY****
TOTAL RUN TIME: 0 days 0 hours 57 minutes 0 seconds 78 msec
