                         Program Version 5.0.3 -  RELEASE  -
|  1> !R2SCAN def2-TZVP VERYSLOWCONV
|  2> !KDIIS
|  3> %scf
|  4>   AutoTRAHIter 200
|  5>   maxiter 400
|  6> end
|  7>
|  8> %pal nprocs 6 end
|  9>
| 10> *xyzfile 0 5 pbe.xyz
| 11>
| 12> $new_job
| 13>
| 14> !R2SCAN def2-TZVP VERYSLOWCONV
| 15> !KDIIS
| 16> %scf
| 17>   AutoTRAHIter 200
| 18>   maxiter 400
| 19> end
| 20>
| 21>
| 22> %pal nprocs 6 end
| 23>
| 24> *xyzfile 0 3 pbe.xyz
| 25>
| 26>
| 27>
| 28>
| 29>
| 30>                          ****END OF INPUT****
 Total Charge           Charge          ....    0
 Multiplicity           Mult            ....    5
 Number of Electrons    NEL             ....  254
FINAL SINGLE POINT ENERGY     -2893.826250718532

CARTESIAN COORDINATES (ANGSTROEM)
---------------------------------
  Au     9.240305    9.726279   10.556914
  Au     9.580922    7.052430   11.566076
  Au     7.749529    5.727456   10.128264
  Au     7.288653    6.733367    7.399832
  Au     6.538064    8.956084    6.108726
  Au     7.167447    4.110388    7.933412
  Au     7.284568    9.343597    8.766912
  Au    11.816259    8.734373   11.167367
  Au    11.594301    6.511839    9.436243
  Au     9.727454    5.204315    8.030504
  Au    11.247117    9.186008    8.434993
  Au     9.261027    8.803305    6.679170
  Fe     9.255484    7.602007    9.034956

 Multiplicity           Mult            ....    3
 Number of Electrons    NEL             ....  254
 Basis Dimension        Dim             ....  525

ORBITAL ENERGIES
----------------
                 SPIN UP ORBITALS
  NO   OCC          E(Eh)            E(eV)
   0   1.0000    -255.623521     -6955.8696
   1   1.0000     -29.922772      -814.2400
   2   1.0000     -25.759768      -700.9589
   3   1.0000     -25.753560      -700.7900
   4   1.0000     -25.747118      -700.6147
   5   1.0000      -4.123396      -112.2033
   6   1.0000      -4.113495      -111.9339
   7   1.0000      -4.113433      -111.9322
   8   1.0000      -4.113421      -111.9319
   9   1.0000      -4.113366      -111.9304
  10   1.0000      -4.111205      -111.8716
  11   1.0000      -4.111152      -111.8701
  12   1.0000      -4.111085      -111.8683
  13   1.0000      -4.111031      -111.8668
  14   1.0000      -4.108608      -111.8009
  15   1.0000      -4.108487      -111.7976
  16   1.0000      -4.103228      -111.6545
  17   1.0000      -3.499205       -95.2182
  18   1.0000      -2.314988       -62.9940
  19   1.0000      -2.309139       -62.8349
  20   1.0000      -2.305078       -62.7243
  21   1.0000      -2.305023       -62.7229
  22   1.0000      -2.304892       -62.7193
  23   1.0000      -2.304611       -62.7116
  24   1.0000      -2.303573       -62.6834
  25   1.0000      -2.302082       -62.6428
  26   1.0000      -2.301956       -62.6394
  27   1.0000      -2.300725       -62.6059
  28   1.0000      -2.300604       -62.6026
  29   1.0000      -2.300483       -62.5993
  30   1.0000      -2.299807       -62.5809
  31   1.0000      -2.299693       -62.5778
  32   1.0000      -2.299085       -62.5613
  33   1.0000      -2.298752       -62.5522
  34   1.0000      -2.297751       -62.5250
  35   1.0000      -2.297704       -62.5237
  36   1.0000      -2.297318       -62.5132
  37   1.0000      -2.296815       -62.4995
  38   1.0000      -2.296370       -62.4874
  39   1.0000      -2.293862       -62.4192
  40   1.0000      -2.293725       -62.4154
  41   1.0000      -2.293087       -62.3981
  42   1.0000      -2.292955       -62.3945
  43   1.0000      -2.292873       -62.3922
  44   1.0000      -2.292092       -62.3710
  45   1.0000      -2.291955       -62.3673
  46   1.0000      -2.291835       -62.3640
  47   1.0000      -2.291767       -62.3621
  48   1.0000      -2.291703       -62.3604
  49   1.0000      -2.291606       -62.3578
  50   1.0000      -2.291045       -62.3425
  51   1.0000      -2.288651       -62.2774
  52   1.0000      -2.288411       -62.2708
  53   1.0000      -2.288193       -62.2649
  54   1.0000      -2.275728       -61.9257
  55   1.0000      -2.264608       -61.6231
  56   1.0000      -2.252004       -61.2801
  57   1.0000      -0.426629       -11.6092
  58   1.0000      -0.399422       -10.8688
  59   1.0000      -0.388525       -10.5723
  60   1.0000      -0.380165       -10.3448
  61   1.0000      -0.372196       -10.1280
  62   1.0000      -0.371653       -10.1132
  63   1.0000      -0.369566       -10.0564
  64   1.0000      -0.366541        -9.9741
  65   1.0000      -0.355832        -9.6827
  66   1.0000      -0.355358        -9.6698
  67   1.0000      -0.352834        -9.6011
  68   1.0000      -0.352645        -9.5959
  69   1.0000      -0.346394        -9.4259
  70   1.0000      -0.345880        -9.4119
  71   1.0000      -0.342222        -9.3123
  72   1.0000      -0.341977        -9.3057
  73   1.0000      -0.337471        -9.1831
  74   1.0000      -0.337254        -9.1771
  75   1.0000      -0.333036        -9.0624
  76   1.0000      -0.332202        -9.0397
  77   1.0000      -0.327725        -8.9179
  78   1.0000      -0.323627        -8.8063
  79   1.0000      -0.319694        -8.6993
  80   1.0000      -0.317931        -8.6513
  81   1.0000      -0.316876        -8.6226
  82   1.0000      -0.314435        -8.5562
  83   1.0000      -0.310495        -8.4490
  84   1.0000      -0.309740        -8.4285
  85   1.0000      -0.305790        -8.3210
  86   1.0000      -0.302509        -8.2317
  87   1.0000      -0.302101        -8.2206
  88   1.0000      -0.301645        -8.2082
  89   1.0000      -0.296120        -8.0578
  90   1.0000      -0.295797        -8.0490
  91   1.0000      -0.293708        -7.9922
  92   1.0000      -0.290672        -7.9096
  93   1.0000      -0.290484        -7.9045
  94   1.0000      -0.289066        -7.8659
  95   1.0000      -0.285041        -7.7564
  96   1.0000      -0.284335        -7.7372
  97   1.0000      -0.281219        -7.6524
  98   1.0000      -0.280153        -7.6234
  99   1.0000      -0.277771        -7.5585
 100   1.0000      -0.276957        -7.5364
 101   1.0000      -0.275085        -7.4854
 102   1.0000      -0.274938        -7.4814
 103   1.0000      -0.274533        -7.4704
 104   1.0000      -0.274332        -7.4649
 105   1.0000      -0.271812        -7.3964
 106   1.0000      -0.269284        -7.3276
 107   1.0000      -0.265499        -7.2246
 108   1.0000      -0.264151        -7.1879
 109   1.0000      -0.263906        -7.1812
 110   1.0000      -0.259475        -7.0607
 111   1.0000      -0.257727        -7.0131
 112   1.0000      -0.256811        -6.9882
 113   1.0000      -0.255879        -6.9628
 114   1.0000      -0.255339        -6.9481
 115   1.0000      -0.254567        -6.9271
 116   1.0000      -0.252399        -6.8681
 117   1.0000      -0.249858        -6.7990
 118   1.0000      -0.249820        -6.7980
 119   1.0000      -0.247515        -6.7352
 120   1.0000      -0.247203        -6.7267
 121   1.0000      -0.244266        -6.6468
 122   1.0000      -0.242489        -6.5985
 123   1.0000      -0.237684        -6.4677
 124   1.0000      -0.234605        -6.3839
 125   1.0000      -0.225275        -6.1300
 126   1.0000      -0.210743        -5.7346
 127   1.0000      -0.209548        -5.7021
 128   0.0000      -0.174691        -4.7536
 129   0.0000      -0.156271        -4.2523
 130   0.0000      -0.149471        -4.0673
 131   0.0000      -0.129766        -3.5311
 132   0.0000      -0.119110        -3.2411

                 SPIN DOWN ORBITALS
  NO   OCC          E(Eh)            E(eV)
   0   1.0000    -255.622553     -6955.8433
   1   1.0000     -29.848366      -812.2153
   2   1.0000     -25.700417      -699.3439
   3   1.0000     -25.695947      -699.2223
   4   1.0000     -25.693818      -699.1643
   5   1.0000      -4.123815      -112.2147
   6   1.0000      -4.113604      -111.9369
   7   1.0000      -4.113531      -111.9349
   8   1.0000      -4.113530      -111.9348
   9   1.0000      -4.113463      -111.9330
  10   1.0000      -4.111260      -111.8731
  11   1.0000      -4.111204      -111.8715
  12   1.0000      -4.111127      -111.8695
  13   1.0000      -4.111067      -111.8678
  14   1.0000      -4.109627      -111.8286
  15   1.0000      -4.109518      -111.8257
  16   1.0000      -4.103765      -111.6691
  17   1.0000      -3.335930       -90.7753
  18   1.0000      -2.316010       -63.0218
  19   1.0000      -2.308730       -62.8237
  20   1.0000      -2.304779       -62.7162
  21   1.0000      -2.304627       -62.7121
  22   1.0000      -2.304493       -62.7084
  23   1.0000      -2.304233       -62.7014
  24   1.0000      -2.303939       -62.6934
  25   1.0000      -2.301919       -62.6384
  26   1.0000      -2.301742       -62.6336
  27   1.0000      -2.300465       -62.5988
  28   1.0000      -2.300339       -62.5954
  29   1.0000      -2.299864       -62.5825
  30   1.0000      -2.299535       -62.5735
  31   1.0000      -2.298939       -62.5573
  32   1.0000      -2.298837       -62.5545
  33   1.0000      -2.298567       -62.5472
  34   1.0000      -2.298126       -62.5352
  35   1.0000      -2.298030       -62.5326
  36   1.0000      -2.297841       -62.5274
  37   1.0000      -2.297126       -62.5080
  38   1.0000      -2.296148       -62.4814
  39   1.0000      -2.294249       -62.4297
  40   1.0000      -2.294092       -62.4254
  41   1.0000      -2.293493       -62.4091
  42   1.0000      -2.293341       -62.4050
  43   1.0000      -2.293248       -62.4025
  44   1.0000      -2.292834       -62.3912
  45   1.0000      -2.292748       -62.3888
  46   1.0000      -2.292741       -62.3887
  47   1.0000      -2.292607       -62.3850
  48   1.0000      -2.292401       -62.3794
  49   1.0000      -2.292217       -62.3744
  50   1.0000      -2.291447       -62.3534
  51   1.0000      -2.289462       -62.2994
  52   1.0000      -2.289106       -62.2897
  53   1.0000      -2.288462       -62.2722
  54   1.0000      -2.107634       -57.3516
  55   1.0000      -2.101644       -57.1886
  56   1.0000      -2.101280       -57.1787
  57   1.0000      -0.425359       -11.5746
  58   1.0000      -0.399465       -10.8700
  59   1.0000      -0.387285       -10.5386
  60   1.0000      -0.376085       -10.2338
  61   1.0000      -0.367596       -10.0028
  62   1.0000      -0.367254        -9.9935
  63   1.0000      -0.366469        -9.9721
  64   1.0000      -0.363433        -9.8895
  65   1.0000      -0.352426        -9.5900
  66   1.0000      -0.348966        -9.4958
  67   1.0000      -0.347107        -9.4452
  68   1.0000      -0.346263        -9.4223
  69   1.0000      -0.343708        -9.3528
  70   1.0000      -0.341395        -9.2898
  71   1.0000      -0.340057        -9.2534
  72   1.0000      -0.339630        -9.2418
  73   1.0000      -0.336943        -9.1687
  74   1.0000      -0.334004        -9.0887
  75   1.0000      -0.333792        -9.0829
  76   1.0000      -0.324929        -8.8418
  77   1.0000      -0.322646        -8.7797
  78   1.0000      -0.319345        -8.6898
  79   1.0000      -0.318786        -8.6746
  80   1.0000      -0.318349        -8.6627
  81   1.0000      -0.316116        -8.6020
  82   1.0000      -0.315076        -8.5737
  83   1.0000      -0.310205        -8.4411
  84   1.0000      -0.310140        -8.4393
  85   1.0000      -0.305742        -8.3197
  86   1.0000      -0.301632        -8.2078
  87   1.0000      -0.300923        -8.1885
  88   1.0000      -0.300811        -8.1855
  89   1.0000      -0.293658        -7.9908
  90   1.0000      -0.293367        -7.9829
  91   1.0000      -0.291138        -7.9223
  92   1.0000      -0.290059        -7.8929
  93   1.0000      -0.288734        -7.8569
  94   1.0000      -0.288292        -7.8448
  95   1.0000      -0.285459        -7.7677
  96   1.0000      -0.285081        -7.7574
  97   1.0000      -0.282058        -7.6752
  98   1.0000      -0.278985        -7.5916
  99   1.0000      -0.277873        -7.5613
 100   1.0000      -0.276898        -7.5348
 101   1.0000      -0.276754        -7.5309
 102   1.0000      -0.275933        -7.5085
 103   1.0000      -0.272078        -7.4036
 104   1.0000      -0.270713        -7.3665
 105   1.0000      -0.270550        -7.3620
 106   1.0000      -0.267355        -7.2751
 107   1.0000      -0.264579        -7.1995
 108   1.0000      -0.263783        -7.1779
 109   1.0000      -0.260672        -7.0932
 110   1.0000      -0.258910        -7.0453
 111   1.0000      -0.258843        -7.0435
 112   1.0000      -0.255772        -6.9599
 113   1.0000      -0.255467        -6.9516
 114   1.0000      -0.254134        -6.9153
 115   1.0000      -0.252490        -6.8706
 116   1.0000      -0.249465        -6.7883
 117   1.0000      -0.248810        -6.7705
 118   1.0000      -0.247171        -6.7259
 119   1.0000      -0.238279        -6.4839
 120   1.0000      -0.232125        -6.3164
 121   1.0000      -0.219080        -5.9615
 122   1.0000      -0.216660        -5.8956
 123   1.0000      -0.202370        -5.5068
 124   1.0000      -0.182080        -4.9547
 125   1.0000      -0.172727        -4.7001
 126   0.0000      -0.149787        -4.0759
 127   0.0000      -0.142576        -3.8797
 128   0.0000      -0.141768        -3.8577
 129   0.0000      -0.134289        -3.6542
 130   0.0000      -0.128095        -3.4856

MULLIKEN ATOMIC CHARGES AND SPIN POPULATIONS
--------------------------------------------
   0 Au:    0.133386   -0.069590
   1 Au:    0.133276   -0.068578
   2 Au:    0.178730   -0.150999
   3 Au:   -0.342782    0.031625
   4 Au:    0.389457   -0.061686
   5 Au:    0.388717   -0.063887
   6 Au:    0.178657   -0.152263
   7 Au:    0.248189   -0.014409
   8 Au:    0.132408   -0.069720
   9 Au:    0.178141   -0.151990
  10 Au:    0.132926   -0.070908
  11 Au:    0.177797   -0.153636
  12 Fe:   -1.928902    2.996043
Sum of atomic charges         :    0.0000000

LOEWDIN ATOMIC CHARGES AND SPIN POPULATIONS
-------------------------------------------
   0 Au:    0.049196   -0.077329
   1 Au:    0.049749   -0.076530
   2 Au:    0.054918   -0.108682
   3 Au:   -0.109448   -0.038196
   4 Au:    0.115216   -0.075750
   5 Au:    0.114706   -0.077141
   6 Au:    0.054811   -0.109590
   7 Au:    0.026442   -0.040579
   8 Au:    0.049664   -0.077260
   9 Au:    0.054311   -0.109172
  10 Au:    0.049186   -0.078274
  11 Au:    0.054159   -0.110313
  12 Fe:   -0.562910    2.978818

  Mayer bond orders larger than 0.100000
B(  0-Au,  1-Au) :   0.1366 B(  0-Au,  6-Au) :   0.3661 B(  0-Au,  7-Au) :   0.2571
B(  0-Au, 10-Au) :   0.1418 B(  0-Au, 12-Fe) :   0.5524 B(  1-Au,  2-Au) :   0.3659
B(  1-Au,  7-Au) :   0.2580 B(  1-Au,  8-Au) :   0.1383 B(  1-Au, 12-Fe) :   0.5544
B(  2-Au,  3-Au) :   0.1359 B(  2-Au,  5-Au) :   0.2389 B(  2-Au,  9-Au) :   0.1156
B(  2-Au, 12-Fe) :   0.5681 B(  3-Au,  4-Au) :   0.5567 B(  3-Au,  5-Au) :   0.5554
B(  3-Au,  6-Au) :   0.1355 B(  3-Au,  9-Au) :   0.1346 B(  3-Au, 11-Au) :   0.1341
B(  3-Au, 12-Fe) :   0.3069 B(  4-Au,  6-Au) :   0.2387 B(  4-Au, 11-Au) :   0.2417
B(  4-Au, 12-Fe) :   0.1063 B(  5-Au,  9-Au) :   0.2419 B(  5-Au, 12-Fe) :   0.1073
B(  6-Au, 11-Au) :   0.1175 B(  6-Au, 12-Fe) :   0.5659 B(  7-Au,  8-Au) :   0.2581
B(  7-Au, 10-Au) :   0.2572 B(  8-Au,  9-Au) :   0.3660 B(  8-Au, 10-Au) :   0.1364
B(  8-Au, 12-Fe) :   0.5544 B(  9-Au, 12-Fe) :   0.5665 B( 10-Au, 11-Au) :   0.3661
B( 10-Au, 12-Fe) :   0.5522 B( 11-Au, 12-Fe) :   0.5646

FINAL SINGLE POINT ENERGY     -2893.830681669886

DIPOLE MOMENT
-------------
                                X             Y             Z
Electronic contribution:     -8.36239      -3.68842      -7.19287
Nuclear contribution   :      8.15018       3.59804       7.01142
                        -----------------------------------------
Total Dipole Moment    :     -0.21221      -0.09038      -0.18145
                        -----------------------------------------
Magnitude (a.u.)       :      0.29347
Magnitude (Debye)      :      0.74595

Rotational constants in cm-1:     0.001574     0.001181     0.000930
Rotational constants in MHz :    47.185650    35.403241    27.888150

                             ****ORCA TERMINATED NORMALLY****
TOTAL RUN TIME: 0 days 0 hours 7 minutes 52 seconds 183 msec
