                         Program Version 5.0.3 -  RELEASE  -
|  1> !SC-NEVPT2 def2-TZVP def2-TZVP/C
|  2> !MOREAD RIJCOSX def2/J
|  3> %maxcore 4000
|  4> %moinp "casscf.gbw"
|  5> %pal nprocs 6 end
|  6>
|  7> %casscf
|  8>  mult 6,4
|  9>  bweight 1,1
| 10>  nroots 1,24
| 11>  nel 5
| 12>  norb 5
| 13>  ptsettings
| 14>   d4tpre 1e-14 # default = 1e-10
| 15>   d3tpre 1e-14
| 16>  end
| 17>  rel
| 18>    dosoc true
| 19>    gtensor true
| 20>  end
| 21> end
| 22>
| 23>
| 24> *xyzfile 0 6 pbe.xyz
| 25>
| 26>
| 27>                          ****END OF INPUT****

CARTESIAN COORDINATES (ANGSTROEM)
---------------------------------
  Au     9.121353    6.787251    6.002820
  Au     4.819747    6.438734    7.657259
  Au     5.305204    9.294607    7.237225
  Au     6.569836    7.069740    5.485500
  Au     3.891017    7.727508    5.469539
  Au     4.100976    5.994391   10.224760
  Au     6.732328    5.514526    9.559130
  Au     9.230099    5.695812    8.785905
  Au    11.380151    6.771933    7.516496
  Au     5.393603    8.382572    9.782510
  Au     7.472658   10.006541    8.850143
  Au     9.790585    8.864945    8.323878
  Mn     7.498866    7.536105    7.971652

 Total Charge           Charge          ....    0
 Multiplicity           Mult            ....    6
 Number of Electrons    NEL             ....  253
 Basis Dimension        Dim             ....  525

ORBITAL ENERGIES
----------------

  NO   OCC          E(Eh)            E(eV)
   0   2.0000    -240.539898     -6545.4234
   1   2.0000     -29.117797      -792.3355
   2   2.0000     -24.822502      -675.4546
   3   2.0000     -24.822467      -675.4537
   4   2.0000     -24.822129      -675.4445
   5   2.0000      -4.731608      -128.7536
   6   2.0000      -4.721506      -128.4787
   7   2.0000      -4.720737      -128.4578
   8   2.0000      -4.716527      -128.3432
   9   2.0000      -4.716473      -128.3418
  10   2.0000      -4.715035      -128.3026
  11   2.0000      -4.714640      -128.2919
  12   2.0000      -4.709176      -128.1432
  13   2.0000      -4.696895      -127.8090
  14   2.0000      -4.696585      -127.8006
  15   2.0000      -4.696113      -127.7877
  16   2.0000      -4.685948      -127.5111
  17   2.0000      -3.823496      -104.0426
  18   2.0000      -2.772691       -75.4488
  19   2.0000      -2.768573       -75.3367
  20   2.0000      -2.766132       -75.2703
  21   2.0000      -2.763393       -75.1958
  22   2.0000      -2.758953       -75.0749
  23   2.0000      -2.758419       -75.0604
  24   2.0000      -2.757124       -75.0252
  25   2.0000      -2.756101       -74.9973
  26   2.0000      -2.755614       -74.9841
  27   2.0000      -2.755273       -74.9748
  28   2.0000      -2.753058       -74.9145
  29   2.0000      -2.752408       -74.8968
  30   2.0000      -2.751586       -74.8745
  31   2.0000      -2.750945       -74.8570
  32   2.0000      -2.750532       -74.8458
  33   2.0000      -2.750157       -74.8356
  34   2.0000      -2.749761       -74.8248
  35   2.0000      -2.748591       -74.7929
  36   2.0000      -2.748383       -74.7873
  37   2.0000      -2.747650       -74.7674
  38   2.0000      -2.745601       -74.7116
  39   2.0000      -2.745267       -74.7025
  40   2.0000      -2.743228       -74.6470
  41   2.0000      -2.741132       -74.5900
  42   2.0000      -2.737124       -74.4809
  43   2.0000      -2.734593       -74.4120
  44   2.0000      -2.734262       -74.4031
  45   2.0000      -2.732354       -74.3511
  46   2.0000      -2.731407       -74.3254
  47   2.0000      -2.728437       -74.2445
  48   2.0000      -2.727779       -74.2266
  49   2.0000      -2.727689       -74.2242
  50   2.0000      -2.726979       -74.2049
  51   2.0000      -2.723149       -74.1006
  52   2.0000      -2.719266       -73.9950
  53   2.0000      -2.716423       -73.9176
  54   2.0000      -2.491956       -67.8096
  55   2.0000      -2.490389       -67.7669
  56   2.0000      -2.490313       -67.7649
  57   2.0000      -0.577142       -15.7048
  58   2.0000      -0.566003       -15.4017
  59   2.0000      -0.563508       -15.3338
  60   2.0000      -0.555446       -15.1145
  61   2.0000      -0.551763       -15.0142
  62   2.0000      -0.544322       -14.8117
  63   2.0000      -0.542388       -14.7591
  64   2.0000      -0.541009       -14.7216
  65   2.0000      -0.536734       -14.6053
  66   2.0000      -0.533839       -14.5265
  67   2.0000      -0.531625       -14.4662
  68   2.0000      -0.525895       -14.3103
  69   2.0000      -0.521364       -14.1870
  70   2.0000      -0.517441       -14.0803
  71   2.0000      -0.515597       -14.0301
  72   2.0000      -0.510718       -13.8973
  73   2.0000      -0.510666       -13.8959
  74   2.0000      -0.509412       -13.8618
  75   2.0000      -0.503265       -13.6945
  76   2.0000      -0.501919       -13.6579
  77   2.0000      -0.500214       -13.6115
  78   2.0000      -0.492040       -13.3891
  79   2.0000      -0.491659       -13.3787
  80   2.0000      -0.488276       -13.2867
  81   2.0000      -0.487214       -13.2578
  82   2.0000      -0.483840       -13.1659
  83   2.0000      -0.479713       -13.0536
  84   2.0000      -0.479405       -13.0453
  85   2.0000      -0.475544       -12.9402
  86   2.0000      -0.472781       -12.8650
  87   2.0000      -0.471591       -12.8326
  88   2.0000      -0.468215       -12.7408
  89   2.0000      -0.465237       -12.6597
  90   2.0000      -0.461417       -12.5558
  91   2.0000      -0.459445       -12.5021
  92   2.0000      -0.459162       -12.4944
  93   2.0000      -0.457214       -12.4414
  94   2.0000      -0.456326       -12.4173
  95   2.0000      -0.454527       -12.3683
  96   2.0000      -0.454051       -12.3553
  97   2.0000      -0.451542       -12.2871
  98   2.0000      -0.449568       -12.2334
  99   2.0000      -0.448125       -12.1941
 100   2.0000      -0.444753       -12.1023
 101   2.0000      -0.443254       -12.0615
 102   2.0000      -0.440868       -11.9966
 103   2.0000      -0.436952       -11.8901
 104   2.0000      -0.434189       -11.8149
 105   2.0000      -0.430187       -11.7060
 106   2.0000      -0.429939       -11.6992
 107   2.0000      -0.427751       -11.6397
 108   2.0000      -0.423722       -11.5301
 109   2.0000      -0.423251       -11.5173
 110   2.0000      -0.420321       -11.4375
 111   2.0000      -0.419441       -11.4136
 112   2.0000      -0.416295       -11.3280
 113   2.0000      -0.413485       -11.2515
 114   2.0000      -0.411091       -11.1864
 115   2.0000      -0.400531       -10.8990
 116   2.0000      -0.389321       -10.5939
 117   2.0000      -0.382094       -10.3973
 118   2.0000      -0.376637       -10.2488
 119   2.0000      -0.346275        -9.4226
 120   2.0000      -0.327215        -8.9040
 121   2.0000      -0.256408        -6.9772
 122   2.0000      -0.248025        -6.7491
 123   2.0000      -0.223437        -6.0800
 124   1.0000      -0.142453        -3.8763
 125   1.0000      -0.141946        -3.8625
 126   1.0000      -0.136947        -3.7265
 127   1.0000      -0.141436        -3.8487
 128   1.0000      -0.141870        -3.8605
 129   0.0000      -0.028725        -0.7816
 130   0.0000      -0.014890        -0.4052
 131   0.0000      -0.005520        -0.1502
 132   0.0000      -0.003178        -0.0865
 133   0.0000       0.010073         0.2741

MULLIKEN ATOMIC CHARGES AND SPIN DENSITIES
------------------------------------------
   0 Au:    0.052508    0.011084
   1 Au:   -0.444018    0.004999
   2 Au:    0.038108    0.006810
   3 Au:   -0.061778    0.010255
   4 Au:    0.513330    0.002857
   5 Au:    0.501654    0.002989
   6 Au:   -0.032427    0.010552
   7 Au:    0.053932    0.011207
   8 Au:    0.341531    0.003541
   9 Au:    0.034445    0.007009
  10 Au:    0.368362    0.010155
  11 Au:   -0.080854    0.013492
  12 Mn:   -1.284793    3.905051
Sum of atomic charges       :    0.0000000

LOEWDIN ATOMIC CHARGES AND SPIN DENSITIES
-----------------------------------------
   0 Au:   -0.067948    0.015863
   1 Au:   -0.157990    0.009646
   2 Au:   -0.013857    0.009705
   3 Au:   -0.013359    0.014696
   4 Au:    0.191992    0.003708
   5 Au:    0.188442    0.003790
   6 Au:   -0.009896    0.015125
   7 Au:   -0.062827    0.016016
   8 Au:    0.117393    0.004455
   9 Au:   -0.009952    0.009990
  10 Au:    0.036790    0.016253
  11 Au:   -0.090364    0.017027
  12 Mn:   -0.108423    3.863728

  Mayer bond orders larger than 0.100000
B(  0-Au,  3-Au) :   0.5252 B(  0-Au,  7-Au) :   0.1335 B(  0-Au,  8-Au) :   0.3425
B(  0-Au, 12-Mn) :   0.4115 B(  1-Au,  2-Au) :   0.2640 B(  1-Au,  3-Au) :   0.2918
B(  1-Au,  4-Au) :   0.4325 B(  1-Au,  5-Au) :   0.4432 B(  1-Au,  6-Au) :   0.2859
B(  1-Au,  9-Au) :   0.2577 B(  1-Au, 12-Mn) :   0.1593 B(  2-Au,  3-Au) :   0.1083
B(  2-Au,  4-Au) :   0.2290 B(  2-Au,  9-Au) :   0.4188 B(  2-Au, 10-Au) :   0.1531
B(  2-Au, 12-Mn) :   0.3163 B(  3-Au,  4-Au) :   0.2248 B(  3-Au, 12-Mn) :   0.5145
B(  5-Au,  6-Au) :   0.2175 B(  5-Au,  9-Au) :   0.2294 B(  6-Au,  7-Au) :   0.5138
B(  6-Au, 12-Mn) :   0.5170 B(  7-Au,  8-Au) :   0.3392 B(  7-Au, 12-Mn) :   0.4195
B(  8-Au, 11-Au) :   0.2447 B(  9-Au, 10-Au) :   0.1545 B(  9-Au, 12-Mn) :   0.3184
B( 10-Au, 11-Au) :   0.4497 B( 10-Au, 12-Mn) :   0.4704 B( 11-Au, 12-Mn) :   0.4680

FINAL SINGLE POINT ENERGY     -2773.499833495398

DIPOLE MOMENT
-------------
                                X             Y             Z
Electronic contribution:    -20.16350      -5.78132      -2.27278
Nuclear contribution   :     18.73347       5.71418       2.31836
                        -----------------------------------------
Total Dipole Moment    :     -1.43003      -0.06715       0.04558
                        -----------------------------------------
Magnitude (a.u.)       :      1.43233
Magnitude (Debye)      :      3.64071

Rotational constants in cm-1:     0.001608     0.000971     0.000892
Rotational constants in MHz :    48.201623    29.097495    26.750089

                             ****ORCA TERMINATED NORMALLY****
TOTAL RUN TIME: 0 days 1 hours 7 minutes 10 seconds 435 msec
