                         Program Version 5.0.3 -  RELEASE  -
|  1> !RI-B2PLYP def2-TZVP def2-TZVP/C
|  2> !RIJCOSX VERYSLOWCONV
|  3>
|  4> %scf
|  5>   AutoTRAHIter 200
|  6>   maxiter 400
|  7> end
|  8>
|  9>
| 10> %pal nprocs 6 end
| 11>
| 12> *xyzfile 0 5 pbe.xyz
| 13>
| 14> $new_job
| 15>
| 16> !RI-B2PLYP def2-TZVP def2-TZVP/C
| 17> !RIJCOSX VERYSLOWCONV
| 18>
| 19> %scf
| 20>   AutoTRAHIter 200
| 21>   maxiter 400
| 22> end
| 23>
| 24>
| 25> %pal nprocs 6 end
| 26>
| 27> *xyzfile 0 3 pbe.xyz
| 28>
| 29>
| 30>
| 31>
| 32>
| 33>                          ****END OF INPUT****
 Total Charge           Charge          ....    0
 Multiplicity           Mult            ....    5
 Number of Electrons    NEL             ....  216
MP2 TOTAL ENERGY:    -2619.306698235 Eh
FINAL SINGLE POINT ENERGY     -2619.306698234515

CARTESIAN COORDINATES (ANGSTROEM)
---------------------------------
  Au     9.843594    8.388957    9.424908
  Au     7.456289    6.893656    9.674453
  Au     7.883668    8.792490    7.429436
  Au    11.013209    7.559575    6.986573
  Au    10.586251    5.664541    9.227361
  Au     9.632383    3.867225    7.524603
  Au    10.059158    5.765706    5.279146
  Au     6.931386    6.994032    5.726031
  Au     6.504332    5.099556    7.967250
  Au     7.672787    4.269569    5.528355
  Fe     8.758568    6.329987    7.477295

 Multiplicity           Mult            ....    3
 Number of Electrons    NEL             ....  216
 Basis Dimension        Dim             ....  445

ORBITAL ENERGIES
----------------
                 SPIN UP ORBITALS
  NO   OCC          E(Eh)            E(eV)
   0   1.0000    -258.334759     -7029.6462
   1   1.0000     -30.898490      -840.7907
   2   1.0000     -26.615100      -724.2337
   3   1.0000     -26.587531      -723.4835
   4   1.0000     -26.586971      -723.4683
   5   1.0000      -4.394065      -119.5686
   6   1.0000      -4.394052      -119.5682
   7   1.0000      -4.393958      -119.5657
   8   1.0000      -4.393949      -119.5654
   9   1.0000      -4.393693      -119.5585
  10   1.0000      -4.393689      -119.5584
  11   1.0000      -4.393613      -119.5563
  12   1.0000      -4.393607      -119.5561
  13   1.0000      -4.379462      -119.1712
  14   1.0000      -4.379458      -119.1711
  15   1.0000      -3.907940      -106.3405
  16   1.0000      -2.654839       -72.2418
  17   1.0000      -2.597065       -70.6697
  18   1.0000      -2.596123       -70.6441
  19   1.0000      -2.518439       -68.5302
  20   1.0000      -2.518258       -68.5253
  21   1.0000      -2.518013       -68.5186
  22   1.0000      -2.517906       -68.5157
  23   1.0000      -2.515162       -68.4410
  24   1.0000      -2.515153       -68.4408
  25   1.0000      -2.514338       -68.4186
  26   1.0000      -2.514078       -68.4115
  27   1.0000      -2.513640       -68.3996
  28   1.0000      -2.513482       -68.3953
  29   1.0000      -2.512573       -68.3706
  30   1.0000      -2.512134       -68.3587
  31   1.0000      -2.508906       -68.2708
  32   1.0000      -2.508866       -68.2697
  33   1.0000      -2.508861       -68.2696
  34   1.0000      -2.508513       -68.2601
  35   1.0000      -2.508320       -68.2549
  36   1.0000      -2.508087       -68.2485
  37   1.0000      -2.507978       -68.2456
  38   1.0000      -2.507768       -68.2398
  39   1.0000      -2.507595       -68.2351
  40   1.0000      -2.507360       -68.2287
  41   1.0000      -2.507105       -68.2218
  42   1.0000      -2.506875       -68.2155
  43   1.0000      -2.496005       -67.9197
  44   1.0000      -2.495921       -67.9175
  45   1.0000      -2.495243       -67.8990
  46   1.0000      -2.495175       -67.8972
  47   1.0000      -2.494609       -67.8818
  48   1.0000      -2.494530       -67.8796
  49   1.0000      -0.556934       -15.1549
  50   1.0000      -0.551481       -15.0066
  51   1.0000      -0.550808       -14.9882
  52   1.0000      -0.530804       -14.4439
  53   1.0000      -0.498176       -13.5561
  54   1.0000      -0.497901       -13.5486
  55   1.0000      -0.453071       -12.3287
  56   1.0000      -0.451085       -12.2747
  57   1.0000      -0.443061       -12.0563
  58   1.0000      -0.442643       -12.0449
  59   1.0000      -0.441384       -12.0107
  60   1.0000      -0.439428       -11.9574
  61   1.0000      -0.437940       -11.9170
  62   1.0000      -0.433994       -11.8096
  63   1.0000      -0.431725       -11.7478
  64   1.0000      -0.427959       -11.6454
  65   1.0000      -0.425205       -11.5704
  66   1.0000      -0.424100       -11.5403
  67   1.0000      -0.420989       -11.4557
  68   1.0000      -0.417842       -11.3701
  69   1.0000      -0.414677       -11.2839
  70   1.0000      -0.411168       -11.1884
  71   1.0000      -0.409882       -11.1534
  72   1.0000      -0.402443       -10.9510
  73   1.0000      -0.402095       -10.9416
  74   1.0000      -0.399873       -10.8811
  75   1.0000      -0.399380       -10.8677
  76   1.0000      -0.397572       -10.8185
  77   1.0000      -0.395156       -10.7527
  78   1.0000      -0.393559       -10.7093
  79   1.0000      -0.387329       -10.5398
  80   1.0000      -0.384186       -10.4542
  81   1.0000      -0.382356       -10.4044
  82   1.0000      -0.377331       -10.2677
  83   1.0000      -0.373852       -10.1730
  84   1.0000      -0.367115        -9.9897
  85   1.0000      -0.365268        -9.9395
  86   1.0000      -0.361633        -9.8405
  87   1.0000      -0.361055        -9.8248
  88   1.0000      -0.359702        -9.7880
  89   1.0000      -0.359026        -9.7696
  90   1.0000      -0.358396        -9.7525
  91   1.0000      -0.358288        -9.7495
  92   1.0000      -0.352452        -9.5907
  93   1.0000      -0.351924        -9.5763
  94   1.0000      -0.349788        -9.5182
  95   1.0000      -0.346954        -9.4411
  96   1.0000      -0.346497        -9.4287
  97   1.0000      -0.344689        -9.3795
  98   1.0000      -0.344445        -9.3728
  99   1.0000      -0.344138        -9.3645
 100   1.0000      -0.344023        -9.3613
 101   1.0000      -0.336349        -9.1525
 102   1.0000      -0.330495        -8.9932
 103   1.0000      -0.328825        -8.9478
 104   1.0000      -0.314512        -8.5583
 105   1.0000      -0.297571        -8.0973
 106   1.0000      -0.280845        -7.6422
 107   1.0000      -0.254217        -6.9176
 108   1.0000      -0.198935        -5.4133
 109   0.0000      -0.119379        -3.2485
 110   0.0000      -0.110097        -2.9959
 111   0.0000      -0.091972        -2.5027
 112   0.0000      -0.055739        -1.5167
 113   0.0000      -0.029572        -0.8047

                 SPIN DOWN ORBITALS
  NO   OCC          E(Eh)            E(eV)
   0   1.0000    -258.332624     -7029.5881
   1   1.0000     -30.806000      -838.2739
   2   1.0000     -26.517403      -721.5752
   3   1.0000     -26.509837      -721.3693
   4   1.0000     -26.508975      -721.3459
   5   1.0000      -4.394740      -119.5870
   6   1.0000      -4.394728      -119.5866
   7   1.0000      -4.394633      -119.5840
   8   1.0000      -4.394624      -119.5838
   9   1.0000      -4.394373      -119.5770
  10   1.0000      -4.394370      -119.5769
  11   1.0000      -4.394291      -119.5747
  12   1.0000      -4.394285      -119.5746
  13   1.0000      -4.379919      -119.1837
  14   1.0000      -4.379914      -119.1835
  15   1.0000      -3.665267       -99.7370
  16   1.0000      -2.517976       -68.5176
  17   1.0000      -2.517833       -68.5137
  18   1.0000      -2.517695       -68.5100
  19   1.0000      -2.517566       -68.5065
  20   1.0000      -2.514273       -68.4168
  21   1.0000      -2.514016       -68.4098
  22   1.0000      -2.513806       -68.4041
  23   1.0000      -2.513795       -68.4038
  24   1.0000      -2.512992       -68.3820
  25   1.0000      -2.512784       -68.3763
  26   1.0000      -2.512582       -68.3708
  27   1.0000      -2.512141       -68.3588
  28   1.0000      -2.509632       -68.2906
  29   1.0000      -2.509549       -68.2883
  30   1.0000      -2.509109       -68.2763
  31   1.0000      -2.508996       -68.2733
  32   1.0000      -2.508834       -68.2688
  33   1.0000      -2.508745       -68.2664
  34   1.0000      -2.508364       -68.2561
  35   1.0000      -2.508083       -68.2484
  36   1.0000      -2.508009       -68.2464
  37   1.0000      -2.507817       -68.2412
  38   1.0000      -2.507415       -68.2302
  39   1.0000      -2.507209       -68.2246
  40   1.0000      -2.496651       -67.9373
  41   1.0000      -2.496582       -67.9354
  42   1.0000      -2.496146       -67.9236
  43   1.0000      -2.496067       -67.9214
  44   1.0000      -2.495051       -67.8938
  45   1.0000      -2.494991       -67.8922
  46   1.0000      -2.343096       -63.7589
  47   1.0000      -2.342992       -63.7561
  48   1.0000      -2.331115       -63.4329
  49   1.0000      -0.497803       -13.5459
  50   1.0000      -0.460797       -12.5389
  51   1.0000      -0.454445       -12.3661
  52   1.0000      -0.452869       -12.3232
  53   1.0000      -0.447434       -12.1753
  54   1.0000      -0.446571       -12.1518
  55   1.0000      -0.446485       -12.1495
  56   1.0000      -0.443033       -12.0555
  57   1.0000      -0.441955       -12.0262
  58   1.0000      -0.441585       -12.0161
  59   1.0000      -0.441459       -12.0127
  60   1.0000      -0.438788       -11.9400
  61   1.0000      -0.435573       -11.8525
  62   1.0000      -0.431331       -11.7371
  63   1.0000      -0.430766       -11.7217
  64   1.0000      -0.426394       -11.6028
  65   1.0000      -0.423241       -11.5170
  66   1.0000      -0.413046       -11.2396
  67   1.0000      -0.405952       -11.0465
  68   1.0000      -0.404370       -11.0035
  69   1.0000      -0.402457       -10.9514
  70   1.0000      -0.402306       -10.9473
  71   1.0000      -0.401970       -10.9382
  72   1.0000      -0.401385       -10.9222
  73   1.0000      -0.401295       -10.9198
  74   1.0000      -0.397396       -10.8137
  75   1.0000      -0.395321       -10.7572
  76   1.0000      -0.390867       -10.6360
  77   1.0000      -0.385946       -10.5021
  78   1.0000      -0.385880       -10.5003
  79   1.0000      -0.383712       -10.4413
  80   1.0000      -0.378609       -10.3025
  81   1.0000      -0.367370        -9.9966
  82   1.0000      -0.364284        -9.9127
  83   1.0000      -0.364260        -9.9120
  84   1.0000      -0.361290        -9.8312
  85   1.0000      -0.359238        -9.7754
  86   1.0000      -0.358961        -9.7678
  87   1.0000      -0.356947        -9.7130
  88   1.0000      -0.356141        -9.6911
  89   1.0000      -0.354740        -9.6530
  90   1.0000      -0.352654        -9.5962
  91   1.0000      -0.349507        -9.5106
  92   1.0000      -0.347050        -9.4437
  93   1.0000      -0.346040        -9.4162
  94   1.0000      -0.345985        -9.4147
  95   1.0000      -0.345201        -9.3934
  96   1.0000      -0.341240        -9.2856
  97   1.0000      -0.334778        -9.1098
  98   1.0000      -0.333027        -9.0621
  99   1.0000      -0.318563        -8.6685
 100   1.0000      -0.306023        -8.3273
 101   1.0000      -0.305045        -8.3007
 102   1.0000      -0.303916        -8.2700
 103   1.0000      -0.273570        -7.4442
 104   1.0000      -0.231212        -6.2916
 105   1.0000      -0.210611        -5.7310
 106   1.0000      -0.210490        -5.7277
 107   0.0000      -0.097578        -2.6552
 108   0.0000      -0.059735        -1.6255
 109   0.0000      -0.045404        -1.2355
 110   0.0000      -0.034171        -0.9298
 111   0.0000      -0.028943        -0.7876

MULLIKEN ATOMIC CHARGES AND SPIN POPULATIONS
--------------------------------------------
   0 Au:    0.081899    0.060008
   1 Au:    0.203694   -0.208198
   2 Au:    0.203808   -0.207419
   3 Au:    0.202072   -0.207388
   4 Au:    0.202456   -0.207574
   5 Au:    0.203552   -0.207314
   6 Au:    0.203517   -0.208363
   7 Au:    0.202270   -0.207738
   8 Au:    0.201795   -0.207277
   9 Au:    0.081946    0.060063
  10 Fe:   -1.787009    3.541201
Sum of atomic charges         :   -0.0000000

LOEWDIN ATOMIC CHARGES AND SPIN POPULATIONS
-------------------------------------------
   0 Au:   -0.029412   -0.048413
   1 Au:    0.053763   -0.162542
   2 Au:    0.053365   -0.162048
   3 Au:    0.053590   -0.163549
   4 Au:    0.053851   -0.163578
   5 Au:    0.053255   -0.161947
   6 Au:    0.053650   -0.162602
   7 Au:    0.053733   -0.163634
   8 Au:    0.053473   -0.163447
   9 Au:   -0.029294   -0.048356
  10 Fe:   -0.369974    3.400115

  Mayer bond orders larger than 0.100000
B(  0-Au,  1-Au) :   0.1773 B(  0-Au,  2-Au) :   0.1781 B(  0-Au,  3-Au) :   0.1747
B(  0-Au,  4-Au) :   0.1733 B(  0-Au,  9-Au) :   0.1424 B(  0-Au, 10-Fe) :   0.3664
B(  1-Au,  2-Au) :   0.1324 B(  1-Au,  8-Au) :   0.3430 B(  1-Au, 10-Fe) :   0.5165
B(  2-Au,  7-Au) :   0.3431 B(  2-Au, 10-Fe) :   0.5177 B(  3-Au,  4-Au) :   0.1351
B(  3-Au,  6-Au) :   0.3426 B(  3-Au, 10-Fe) :   0.5186 B(  4-Au,  5-Au) :   0.3435
B(  4-Au, 10-Fe) :   0.5171 B(  5-Au,  6-Au) :   0.1324 B(  5-Au,  9-Au) :   0.1782
B(  5-Au, 10-Fe) :   0.5177 B(  6-Au,  9-Au) :   0.1777 B(  6-Au, 10-Fe) :   0.5165
B(  7-Au,  8-Au) :   0.1351 B(  7-Au,  9-Au) :   0.1736 B(  7-Au, 10-Fe) :   0.5170
B(  8-Au,  9-Au) :   0.1748 B(  8-Au, 10-Fe) :   0.5186 B(  9-Au, 10-Fe) :   0.3655

MP2 TOTAL ENERGY:    -2619.318252287 Eh
FINAL SINGLE POINT ENERGY     -2619.318252287117

DIPOLE MOMENT
-------------
                                X             Y             Z
Electronic contribution:     -0.00995      -0.01734      -0.01834
Nuclear contribution   :      0.00993       0.01730       0.01832
                        -----------------------------------------
Total Dipole Moment    :     -0.00001      -0.00004      -0.00002
                        -----------------------------------------
Magnitude (a.u.)       :      0.00005
Magnitude (Debye)      :      0.00013

Rotational constants in cm-1:     0.002107     0.001707     0.001542
Rotational constants in MHz :    63.155337    51.174972    46.214833

                             ****ORCA TERMINATED NORMALLY****
TOTAL RUN TIME: 0 days 0 hours 33 minutes 53 seconds 257 msec
