                         Program Version 5.0.3 -  RELEASE  -
|  1> !PBE def2-TZVP VERYSLOWCONV
|  2>
|  3> %scf
|  4>   AutoTRAHIter 200
|  5>   maxiter 400
|  6> end
|  7>
|  8>
|  9> %pal nprocs 6 end
| 10>
| 11> *xyzfile 0 5 pbe.xyz
| 12>
| 13> $new_job
| 14>
| 15> !PBE def2-TZVP VERYSLOWCONV
| 16>
| 17> %scf
| 18>   AutoTRAHIter 200
| 19>   maxiter 400
| 20> end
| 21>
| 22>
| 23> %pal nprocs 6 end
| 24>
| 25> *xyzfile 0 3 pbe.xyz
| 26>
| 27>
| 28>
| 29>
| 30>
| 31>                          ****END OF INPUT****
 Total Charge           Charge          ....    0
 Multiplicity           Mult            ....    5
 Number of Electrons    NEL             ....  216
FINAL SINGLE POINT ENERGY     -2621.709667932683

CARTESIAN COORDINATES (ANGSTROEM)
---------------------------------
  Au     9.843594    8.388957    9.424908
  Au     7.456289    6.893656    9.674453
  Au     7.883668    8.792490    7.429436
  Au    11.013209    7.559575    6.986573
  Au    10.586251    5.664541    9.227361
  Au     9.632383    3.867225    7.524603
  Au    10.059158    5.765706    5.279146
  Au     6.931386    6.994032    5.726031
  Au     6.504332    5.099556    7.967250
  Au     7.672787    4.269569    5.528355
  Fe     8.758568    6.329987    7.477295

 Multiplicity           Mult            ....    3
 Number of Electrons    NEL             ....  216
 Basis Dimension        Dim             ....  445

ORBITAL ENERGIES
----------------
                 SPIN UP ORBITALS
  NO   OCC          E(Eh)            E(eV)
   0   1.0000    -254.761413     -6932.4105
   1   1.0000     -29.602295      -805.5194
   2   1.0000     -25.542917      -695.0581
   3   1.0000     -25.538087      -694.9267
   4   1.0000     -25.532588      -694.7770
   5   1.0000      -4.018358      -109.3451
   6   1.0000      -4.018351      -109.3449
   7   1.0000      -4.018308      -109.3437
   8   1.0000      -4.018303      -109.3436
   9   1.0000      -4.018077      -109.3374
  10   1.0000      -4.018071      -109.3373
  11   1.0000      -4.018031      -109.3362
  12   1.0000      -4.018026      -109.3361
  13   1.0000      -4.011120      -109.1481
  14   1.0000      -4.011120      -109.1481
  15   1.0000      -3.375310       -91.8469
  16   1.0000      -2.238120       -60.9023
  17   1.0000      -2.237869       -60.8955
  18   1.0000      -2.237742       -60.8921
  19   1.0000      -2.237515       -60.8859
  20   1.0000      -2.235186       -60.8225
  21   1.0000      -2.234886       -60.8143
  22   1.0000      -2.234320       -60.7989
  23   1.0000      -2.234180       -60.7951
  24   1.0000      -2.233496       -60.7765
  25   1.0000      -2.233480       -60.7761
  26   1.0000      -2.232729       -60.7557
  27   1.0000      -2.232370       -60.7459
  28   1.0000      -2.230420       -60.6928
  29   1.0000      -2.230367       -60.6914
  30   1.0000      -2.229962       -60.6804
  31   1.0000      -2.229672       -60.6725
  32   1.0000      -2.227336       -60.6089
  33   1.0000      -2.227155       -60.6040
  34   1.0000      -2.226807       -60.5945
  35   1.0000      -2.226626       -60.5896
  36   1.0000      -2.226556       -60.5877
  37   1.0000      -2.226395       -60.5833
  38   1.0000      -2.226057       -60.5741
  39   1.0000      -2.225896       -60.5697
  40   1.0000      -2.223920       -60.5159
  41   1.0000      -2.223799       -60.5126
  42   1.0000      -2.223387       -60.5014
  43   1.0000      -2.223300       -60.4991
  44   1.0000      -2.222539       -60.4784
  45   1.0000      -2.222466       -60.4764
  46   1.0000      -2.198526       -59.8249
  47   1.0000      -2.188721       -59.5581
  48   1.0000      -2.178436       -59.2783
  49   1.0000      -0.414402       -11.2765
  50   1.0000      -0.367745       -10.0068
  51   1.0000      -0.363163        -9.8822
  52   1.0000      -0.359930        -9.7942
  53   1.0000      -0.359042        -9.7700
  54   1.0000      -0.356449        -9.6995
  55   1.0000      -0.351346        -9.5606
  56   1.0000      -0.345984        -9.4147
  57   1.0000      -0.345761        -9.4086
  58   1.0000      -0.340177        -9.2567
  59   1.0000      -0.339357        -9.2344
  60   1.0000      -0.335734        -9.1358
  61   1.0000      -0.332265        -9.0414
  62   1.0000      -0.328751        -8.9458
  63   1.0000      -0.321662        -8.7529
  64   1.0000      -0.320264        -8.7148
  65   1.0000      -0.314396        -8.5551
  66   1.0000      -0.313190        -8.5223
  67   1.0000      -0.306255        -8.3336
  68   1.0000      -0.304580        -8.2881
  69   1.0000      -0.303545        -8.2599
  70   1.0000      -0.303263        -8.2522
  71   1.0000      -0.301773        -8.2117
  72   1.0000      -0.297885        -8.1059
  73   1.0000      -0.294682        -8.0187
  74   1.0000      -0.294171        -8.0048
  75   1.0000      -0.292321        -7.9545
  76   1.0000      -0.289181        -7.8690
  77   1.0000      -0.286798        -7.8042
  78   1.0000      -0.280237        -7.6256
  79   1.0000      -0.279339        -7.6012
  80   1.0000      -0.274225        -7.4621
  81   1.0000      -0.272924        -7.4266
  82   1.0000      -0.270948        -7.3729
  83   1.0000      -0.267469        -7.2782
  84   1.0000      -0.264541        -7.1985
  85   1.0000      -0.263592        -7.1727
  86   1.0000      -0.261249        -7.1090
  87   1.0000      -0.261147        -7.1062
  88   1.0000      -0.260692        -7.0938
  89   1.0000      -0.259570        -7.0633
  90   1.0000      -0.256712        -6.9855
  91   1.0000      -0.254811        -6.9338
  92   1.0000      -0.254200        -6.9171
  93   1.0000      -0.252522        -6.8715
  94   1.0000      -0.250006        -6.8030
  95   1.0000      -0.249862        -6.7991
  96   1.0000      -0.246831        -6.7166
  97   1.0000      -0.246597        -6.7102
  98   1.0000      -0.242859        -6.6085
  99   1.0000      -0.242503        -6.5989
 100   1.0000      -0.241482        -6.5711
 101   1.0000      -0.238526        -6.4906
 102   1.0000      -0.237149        -6.4532
 103   1.0000      -0.235244        -6.4013
 104   1.0000      -0.233525        -6.3546
 105   1.0000      -0.230643        -6.2761
 106   1.0000      -0.227494        -6.1904
 107   1.0000      -0.223953        -6.0941
 108   1.0000      -0.185979        -5.0607
 109   0.0000      -0.179802        -4.8927
 110   0.0000      -0.173670        -4.7258
 111   0.0000      -0.157289        -4.2800
 112   0.0000      -0.117271        -3.1911
 113   0.0000      -0.102931        -2.8009

                 SPIN DOWN ORBITALS
  NO   OCC          E(Eh)            E(eV)
   0   1.0000    -254.760729     -6932.3919
   1   1.0000     -29.547182      -804.0197
   2   1.0000     -25.499829      -693.8856
   3   1.0000     -25.496626      -693.7985
   4   1.0000     -25.492236      -693.6790
   5   1.0000      -4.018502      -109.3490
   6   1.0000      -4.018494      -109.3488
   7   1.0000      -4.018451      -109.3476
   8   1.0000      -4.018446      -109.3475
   9   1.0000      -4.018222      -109.3414
  10   1.0000      -4.018216      -109.3412
  11   1.0000      -4.018175      -109.3401
  12   1.0000      -4.018171      -109.3400
  13   1.0000      -4.011780      -109.1661
  14   1.0000      -4.011776      -109.1660
  15   1.0000      -3.251280       -88.4718
  16   1.0000      -2.237703       -60.8910
  17   1.0000      -2.237668       -60.8900
  18   1.0000      -2.237484       -60.8850
  19   1.0000      -2.237390       -60.8825
  20   1.0000      -2.234557       -60.8054
  21   1.0000      -2.234360       -60.8000
  22   1.0000      -2.233862       -60.7865
  23   1.0000      -2.233775       -60.7841
  24   1.0000      -2.233745       -60.7833
  25   1.0000      -2.233610       -60.7796
  26   1.0000      -2.232937       -60.7613
  27   1.0000      -2.232612       -60.7524
  28   1.0000      -2.231093       -60.7111
  29   1.0000      -2.231030       -60.7094
  30   1.0000      -2.230627       -60.6985
  31   1.0000      -2.230343       -60.6907
  32   1.0000      -2.227585       -60.6157
  33   1.0000      -2.227394       -60.6105
  34   1.0000      -2.227060       -60.6014
  35   1.0000      -2.226871       -60.5962
  36   1.0000      -2.226822       -60.5949
  37   1.0000      -2.226656       -60.5904
  38   1.0000      -2.226324       -60.5814
  39   1.0000      -2.226154       -60.5767
  40   1.0000      -2.224782       -60.5394
  41   1.0000      -2.224656       -60.5360
  42   1.0000      -2.224202       -60.5236
  43   1.0000      -2.224112       -60.5212
  44   1.0000      -2.222980       -60.4904
  45   1.0000      -2.222911       -60.4885
  46   1.0000      -2.072222       -56.3880
  47   1.0000      -2.067453       -56.2582
  48   1.0000      -2.062200       -56.1153
  49   1.0000      -0.409611       -11.1461
  50   1.0000      -0.363274        -9.8852
  51   1.0000      -0.359700        -9.7879
  52   1.0000      -0.356255        -9.6942
  53   1.0000      -0.348466        -9.4822
  54   1.0000      -0.348381        -9.4799
  55   1.0000      -0.347026        -9.4431
  56   1.0000      -0.343922        -9.3586
  57   1.0000      -0.341587        -9.2951
  58   1.0000      -0.333582        -9.0772
  59   1.0000      -0.333051        -9.0628
  60   1.0000      -0.329961        -8.9787
  61   1.0000      -0.329241        -8.9591
  62   1.0000      -0.328569        -8.9408
  63   1.0000      -0.322003        -8.7621
  64   1.0000      -0.321833        -8.7575
  65   1.0000      -0.315898        -8.5960
  66   1.0000      -0.307543        -8.3687
  67   1.0000      -0.305763        -8.3202
  68   1.0000      -0.305033        -8.3004
  69   1.0000      -0.303778        -8.2662
  70   1.0000      -0.301833        -8.2133
  71   1.0000      -0.299770        -8.1572
  72   1.0000      -0.295656        -8.0452
  73   1.0000      -0.293454        -7.9853
  74   1.0000      -0.291654        -7.9363
  75   1.0000      -0.291313        -7.9270
  76   1.0000      -0.289008        -7.8643
  77   1.0000      -0.288345        -7.8463
  78   1.0000      -0.281712        -7.6658
  79   1.0000      -0.280332        -7.6282
  80   1.0000      -0.274083        -7.4582
  81   1.0000      -0.267759        -7.2861
  82   1.0000      -0.266658        -7.2561
  83   1.0000      -0.264094        -7.1864
  84   1.0000      -0.263421        -7.1680
  85   1.0000      -0.262703        -7.1485
  86   1.0000      -0.262433        -7.1412
  87   1.0000      -0.261913        -7.1270
  88   1.0000      -0.257462        -7.0059
  89   1.0000      -0.256172        -6.9708
  90   1.0000      -0.255249        -6.9457
  91   1.0000      -0.253716        -6.9040
  92   1.0000      -0.251214        -6.8359
  93   1.0000      -0.251076        -6.8321
  94   1.0000      -0.248551        -6.7634
  95   1.0000      -0.247973        -6.7477
  96   1.0000      -0.245174        -6.6715
  97   1.0000      -0.241624        -6.5749
  98   1.0000      -0.238891        -6.5005
  99   1.0000      -0.238784        -6.4976
 100   1.0000      -0.236033        -6.4228
 101   1.0000      -0.229489        -6.2447
 102   1.0000      -0.226582        -6.1656
 103   1.0000      -0.208804        -5.6819
 104   1.0000      -0.196167        -5.3380
 105   1.0000      -0.195886        -5.3303
 106   1.0000      -0.187251        -5.0954
 107   0.0000      -0.166114        -4.5202
 108   0.0000      -0.155053        -4.2192
 109   0.0000      -0.151433        -4.1207
 110   0.0000      -0.149955        -4.0805
 111   0.0000      -0.147327        -4.0090

MULLIKEN ATOMIC CHARGES AND SPIN POPULATIONS
--------------------------------------------
   0 Au:    0.186130    0.059324
   1 Au:    0.222076   -0.122046
   2 Au:    0.221589   -0.121541
   3 Au:    0.221529   -0.121405
   4 Au:    0.221902   -0.121816
   5 Au:    0.221390   -0.121497
   6 Au:    0.221932   -0.122127
   7 Au:    0.221758   -0.121889
   8 Au:    0.221324   -0.121366
   9 Au:    0.186130    0.059113
  10 Fe:   -2.145760    2.855250
Sum of atomic charges         :   -0.0000000

LOEWDIN ATOMIC CHARGES AND SPIN POPULATIONS
-------------------------------------------
   0 Au:   -0.010748   -0.034762
   1 Au:    0.081869   -0.096626
   2 Au:    0.081723   -0.096162
   3 Au:    0.081658   -0.096813
   4 Au:    0.081763   -0.097167
   5 Au:    0.081648   -0.096121
   6 Au:    0.081767   -0.096673
   7 Au:    0.081662   -0.097209
   8 Au:    0.081577   -0.096778
   9 Au:   -0.010713   -0.034921
  10 Fe:   -0.632206    2.843232

  Mayer bond orders larger than 0.100000
B(  0-Au,  1-Au) :   0.2022 B(  0-Au,  2-Au) :   0.2030 B(  0-Au,  3-Au) :   0.2007
B(  0-Au,  4-Au) :   0.1998 B(  0-Au,  9-Au) :   0.1422 B(  0-Au, 10-Fe) :   0.4316
B(  1-Au,  2-Au) :   0.1377 B(  1-Au,  8-Au) :   0.3356 B(  1-Au, 10-Fe) :   0.6299
B(  2-Au,  7-Au) :   0.3354 B(  2-Au, 10-Fe) :   0.6310 B(  3-Au,  4-Au) :   0.1404
B(  3-Au,  6-Au) :   0.3352 B(  3-Au, 10-Fe) :   0.6307 B(  4-Au,  5-Au) :   0.3357
B(  4-Au, 10-Fe) :   0.6297 B(  5-Au,  6-Au) :   0.1376 B(  5-Au,  9-Au) :   0.2032
B(  5-Au, 10-Fe) :   0.6310 B(  6-Au,  9-Au) :   0.2025 B(  6-Au, 10-Fe) :   0.6299
B(  7-Au,  8-Au) :   0.1403 B(  7-Au,  9-Au) :   0.2001 B(  7-Au, 10-Fe) :   0.6297
B(  8-Au,  9-Au) :   0.2009 B(  8-Au, 10-Fe) :   0.6306 B(  9-Au, 10-Fe) :   0.4306

FINAL SINGLE POINT ENERGY     -2621.715264130708

DIPOLE MOMENT
-------------
                                X             Y             Z
Electronic contribution:     -0.01004      -0.01749      -0.01845
Nuclear contribution   :      0.00993       0.01730       0.01832
                        -----------------------------------------
Total Dipole Moment    :     -0.00011      -0.00020      -0.00013
                        -----------------------------------------
Magnitude (a.u.)       :      0.00026
Magnitude (Debye)      :      0.00066

Rotational constants in cm-1:     0.002107     0.001707     0.001542
Rotational constants in MHz :    63.155337    51.174972    46.214833

                             ****ORCA TERMINATED NORMALLY****
TOTAL RUN TIME: 0 days 0 hours 8 minutes 10 seconds 586 msec
