                         Program Version 5.0.3 -  RELEASE  -
|  1> !R2SCAN def2-TZVP VERYSLOWCONV
|  2>
|  3> %scf
|  4>   AutoTRAHIter 400
|  5>   maxiter 800
|  6> end
|  7>
|  8> %pal nprocs 6 end
|  9>
| 10> *xyzfile 0 5 pbe.xyz
| 11>
| 12> $new_job
| 13>
| 14> !R2SCAN def2-TZVP VERYSLOWCONV
| 15> %scf
| 16>   AutoTRAHIter 400
| 17>   maxiter 800
| 18> end
| 19>
| 20>
| 21> %pal nprocs 6 end
| 22>
| 23> *xyzfile 0 3 pbe.xyz
| 24>
| 25>
| 26>
| 27>
| 28>
| 29>                          ****END OF INPUT****
 Total Charge           Charge          ....    0
 Multiplicity           Mult            ....    5
 Number of Electrons    NEL             ....  216
FINAL SINGLE POINT ENERGY     -2622.111350263317

CARTESIAN COORDINATES (ANGSTROEM)
---------------------------------
  Au     9.843594    8.388957    9.424908
  Au     7.456289    6.893656    9.674453
  Au     7.883668    8.792490    7.429436
  Au    11.013209    7.559575    6.986573
  Au    10.586251    5.664541    9.227361
  Au     9.632383    3.867225    7.524603
  Au    10.059158    5.765706    5.279146
  Au     6.931386    6.994032    5.726031
  Au     6.504332    5.099556    7.967250
  Au     7.672787    4.269569    5.528355
  Fe     8.758568    6.329987    7.477295

 Multiplicity           Mult            ....    3
 Number of Electrons    NEL             ....  216
 Basis Dimension        Dim             ....  445

ORBITAL ENERGIES
----------------
                 SPIN UP ORBITALS
  NO   OCC          E(Eh)            E(eV)
   0   1.0000    -255.646656     -6956.4992
   1   1.0000     -29.949699      -814.9728
   2   1.0000     -25.785704      -701.6647
   3   1.0000     -25.779053      -701.4837
   4   1.0000     -25.775289      -701.3813
   5   1.0000      -4.110085      -111.8411
   6   1.0000      -4.110077      -111.8409
   7   1.0000      -4.110029      -111.8396
   8   1.0000      -4.110023      -111.8394
   9   1.0000      -4.109772      -111.8326
  10   1.0000      -4.109765      -111.8324
  11   1.0000      -4.109720      -111.8312
  12   1.0000      -4.109715      -111.8310
  13   1.0000      -4.100610      -111.5833
  14   1.0000      -4.100610      -111.5833
  15   1.0000      -3.525049       -95.9215
  16   1.0000      -2.305898       -62.7467
  17   1.0000      -2.303017       -62.6683
  18   1.0000      -2.302733       -62.6606
  19   1.0000      -2.302329       -62.6495
  20   1.0000      -2.300292       -62.5941
  21   1.0000      -2.299653       -62.5767
  22   1.0000      -2.299353       -62.5686
  23   1.0000      -2.299051       -62.5604
  24   1.0000      -2.298903       -62.5563
  25   1.0000      -2.297934       -62.5300
  26   1.0000      -2.297325       -62.5134
  27   1.0000      -2.296815       -62.4995
  28   1.0000      -2.296743       -62.4976
  29   1.0000      -2.294493       -62.4363
  30   1.0000      -2.294460       -62.4354
  31   1.0000      -2.294050       -62.4243
  32   1.0000      -2.293785       -62.4170
  33   1.0000      -2.292075       -62.3705
  34   1.0000      -2.291889       -62.3655
  35   1.0000      -2.291509       -62.3551
  36   1.0000      -2.291312       -62.3498
  37   1.0000      -2.291274       -62.3487
  38   1.0000      -2.291075       -62.3433
  39   1.0000      -2.290700       -62.3331
  40   1.0000      -2.290542       -62.3288
  41   1.0000      -2.286557       -62.2204
  42   1.0000      -2.285865       -62.2015
  43   1.0000      -2.285779       -62.1992
  44   1.0000      -2.285368       -62.1880
  45   1.0000      -2.285318       -62.1867
  46   1.0000      -2.284651       -62.1685
  47   1.0000      -2.284599       -62.1671
  48   1.0000      -2.279726       -62.0345
  49   1.0000      -0.421492       -11.4694
  50   1.0000      -0.383577       -10.4377
  51   1.0000      -0.377088       -10.2611
  52   1.0000      -0.372660       -10.1406
  53   1.0000      -0.369449       -10.0532
  54   1.0000      -0.368942       -10.0394
  55   1.0000      -0.366229        -9.9656
  56   1.0000      -0.354942        -9.6584
  57   1.0000      -0.353760        -9.6263
  58   1.0000      -0.353549        -9.6206
  59   1.0000      -0.349547        -9.5117
  60   1.0000      -0.345818        -9.4102
  61   1.0000      -0.342102        -9.3091
  62   1.0000      -0.338112        -9.2005
  63   1.0000      -0.331269        -9.0143
  64   1.0000      -0.329879        -8.9765
  65   1.0000      -0.324958        -8.8426
  66   1.0000      -0.323379        -8.7996
  67   1.0000      -0.314601        -8.5607
  68   1.0000      -0.314022        -8.5450
  69   1.0000      -0.313092        -8.5197
  70   1.0000      -0.312933        -8.5153
  71   1.0000      -0.311229        -8.4690
  72   1.0000      -0.307281        -8.3615
  73   1.0000      -0.305729        -8.3193
  74   1.0000      -0.303938        -8.2706
  75   1.0000      -0.301647        -8.2082
  76   1.0000      -0.299038        -8.1372
  77   1.0000      -0.295399        -8.0382
  78   1.0000      -0.295118        -8.0306
  79   1.0000      -0.291428        -7.9302
  80   1.0000      -0.289640        -7.8815
  81   1.0000      -0.288430        -7.8486
  82   1.0000      -0.282313        -7.6821
  83   1.0000      -0.276556        -7.5255
  84   1.0000      -0.273376        -7.4389
  85   1.0000      -0.271998        -7.4014
  86   1.0000      -0.271651        -7.3920
  87   1.0000      -0.270299        -7.3552
  88   1.0000      -0.268864        -7.3162
  89   1.0000      -0.268578        -7.3084
  90   1.0000      -0.265952        -7.2369
  91   1.0000      -0.263904        -7.1812
  92   1.0000      -0.263126        -7.1600
  93   1.0000      -0.259680        -7.0663
  94   1.0000      -0.257870        -7.0170
  95   1.0000      -0.257347        -7.0028
  96   1.0000      -0.256442        -6.9781
  97   1.0000      -0.255097        -6.9415
  98   1.0000      -0.254678        -6.9301
  99   1.0000      -0.253155        -6.8887
 100   1.0000      -0.250484        -6.8160
 101   1.0000      -0.248468        -6.7612
 102   1.0000      -0.244314        -6.6481
 103   1.0000      -0.242405        -6.5962
 104   1.0000      -0.241220        -6.5639
 105   1.0000      -0.240650        -6.5484
 106   1.0000      -0.234146        -6.3714
 107   1.0000      -0.226369        -6.1598
 108   1.0000      -0.186416        -5.0726
 109   0.0000      -0.180162        -4.9025
 110   0.0000      -0.171393        -4.6639
 111   0.0000      -0.153718        -4.1829
 112   0.0000      -0.110292        -3.0012
 113   0.0000      -0.095510        -2.5990

                 SPIN DOWN ORBITALS
  NO   OCC          E(Eh)            E(eV)
   0   1.0000    -255.645621     -6956.4710
   1   1.0000     -29.872099      -812.8611
   2   1.0000     -25.724032      -699.9865
   3   1.0000     -25.720749      -699.8972
   4   1.0000     -25.717687      -699.8138
   5   1.0000      -4.110443      -111.8509
   6   1.0000      -4.110435      -111.8506
   7   1.0000      -4.110386      -111.8493
   8   1.0000      -4.110381      -111.8491
   9   1.0000      -4.110131      -111.8423
  10   1.0000      -4.110124      -111.8422
  11   1.0000      -4.110078      -111.8409
  12   1.0000      -4.110072      -111.8408
  13   1.0000      -4.101495      -111.6074
  14   1.0000      -4.101490      -111.6072
  15   1.0000      -3.357247       -91.3553
  16   1.0000      -2.302464       -62.6532
  17   1.0000      -2.302427       -62.6522
  18   1.0000      -2.302225       -62.6467
  19   1.0000      -2.302122       -62.6439
  20   1.0000      -2.299104       -62.5618
  21   1.0000      -2.298897       -62.5562
  22   1.0000      -2.298382       -62.5422
  23   1.0000      -2.298295       -62.5398
  24   1.0000      -2.298224       -62.5378
  25   1.0000      -2.298078       -62.5339
  26   1.0000      -2.297414       -62.5158
  27   1.0000      -2.297086       -62.5069
  28   1.0000      -2.295360       -62.4599
  29   1.0000      -2.295310       -62.4586
  30   1.0000      -2.294907       -62.4476
  31   1.0000      -2.294641       -62.4404
  32   1.0000      -2.292501       -62.3821
  33   1.0000      -2.292298       -62.3766
  34   1.0000      -2.291930       -62.3666
  35   1.0000      -2.291728       -62.3611
  36   1.0000      -2.291694       -62.3602
  37   1.0000      -2.291523       -62.3555
  38   1.0000      -2.291154       -62.3455
  39   1.0000      -2.290984       -62.3408
  40   1.0000      -2.287121       -62.2357
  41   1.0000      -2.287027       -62.2332
  42   1.0000      -2.286490       -62.2186
  43   1.0000      -2.286425       -62.2168
  44   1.0000      -2.285374       -62.1882
  45   1.0000      -2.285319       -62.1867
  46   1.0000      -2.128081       -57.9080
  47   1.0000      -2.122657       -57.7604
  48   1.0000      -2.120719       -57.7077
  49   1.0000      -0.418020       -11.3749
  50   1.0000      -0.370418       -10.0796
  51   1.0000      -0.368128       -10.0173
  52   1.0000      -0.365197        -9.9375
  53   1.0000      -0.358418        -9.7530
  54   1.0000      -0.358033        -9.7426
  55   1.0000      -0.355975        -9.6866
  56   1.0000      -0.352216        -9.5843
  57   1.0000      -0.351679        -9.5697
  58   1.0000      -0.344153        -9.3649
  59   1.0000      -0.342306        -9.3146
  60   1.0000      -0.339970        -9.2511
  61   1.0000      -0.339294        -9.2327
  62   1.0000      -0.337358        -9.1800
  63   1.0000      -0.332433        -9.0460
  64   1.0000      -0.331962        -9.0331
  65   1.0000      -0.325599        -8.8600
  66   1.0000      -0.316445        -8.6109
  67   1.0000      -0.316060        -8.6004
  68   1.0000      -0.313786        -8.5385
  69   1.0000      -0.313407        -8.5282
  70   1.0000      -0.310459        -8.4480
  71   1.0000      -0.310163        -8.4400
  72   1.0000      -0.306041        -8.3278
  73   1.0000      -0.303613        -8.2617
  74   1.0000      -0.301749        -8.2110
  75   1.0000      -0.300596        -8.1796
  76   1.0000      -0.298955        -8.1350
  77   1.0000      -0.297200        -8.0872
  78   1.0000      -0.291823        -7.9409
  79   1.0000      -0.289957        -7.8901
  80   1.0000      -0.284016        -7.7285
  81   1.0000      -0.276542        -7.5251
  82   1.0000      -0.273774        -7.4498
  83   1.0000      -0.272686        -7.4202
  84   1.0000      -0.272314        -7.4100
  85   1.0000      -0.271462        -7.3869
  86   1.0000      -0.270990        -7.3740
  87   1.0000      -0.270019        -7.3476
  88   1.0000      -0.267039        -7.2665
  89   1.0000      -0.265595        -7.2272
  90   1.0000      -0.264418        -7.1952
  91   1.0000      -0.261609        -7.1188
  92   1.0000      -0.259688        -7.0665
  93   1.0000      -0.259327        -7.0566
  94   1.0000      -0.257790        -7.0148
  95   1.0000      -0.256313        -6.9746
  96   1.0000      -0.253869        -6.9081
  97   1.0000      -0.249214        -6.7815
  98   1.0000      -0.246543        -6.7088
  99   1.0000      -0.244990        -6.6665
 100   1.0000      -0.242149        -6.5892
 101   1.0000      -0.237199        -6.4545
 102   1.0000      -0.231783        -6.3071
 103   1.0000      -0.212268        -5.7761
 104   1.0000      -0.197083        -5.3629
 105   1.0000      -0.195476        -5.3192
 106   1.0000      -0.189778        -5.1641
 107   0.0000      -0.151137        -4.1127
 108   0.0000      -0.148238        -4.0338
 109   0.0000      -0.145240        -3.9522
 110   0.0000      -0.145035        -3.9466
 111   0.0000      -0.131864        -3.5882

MULLIKEN ATOMIC CHARGES AND SPIN POPULATIONS
--------------------------------------------
   0 Au:    0.121123    0.038758
   1 Au:    0.209068   -0.145056
   2 Au:    0.208733   -0.144253
   3 Au:    0.208232   -0.144084
   4 Au:    0.208668   -0.144539
   5 Au:    0.208543   -0.144175
   6 Au:    0.208936   -0.145144
   7 Au:    0.208539   -0.144618
   8 Au:    0.208035   -0.144010
   9 Au:    0.121142    0.038593
  10 Fe:   -1.911020    3.078528
Sum of atomic charges         :   -0.0000000

LOEWDIN ATOMIC CHARGES AND SPIN POPULATIONS
-------------------------------------------
   0 Au:   -0.028451   -0.057537
   1 Au:    0.077349   -0.114639
   2 Au:    0.077196   -0.114005
   3 Au:    0.077164   -0.114851
   4 Au:    0.077235   -0.115206
   5 Au:    0.077119   -0.113945
   6 Au:    0.077247   -0.114688
   7 Au:    0.077136   -0.115247
   8 Au:    0.077085   -0.114794
   9 Au:   -0.028400   -0.057647
  10 Fe:   -0.560680    3.032559

  Mayer bond orders larger than 0.100000
B(  0-Au,  1-Au) :   0.1819 B(  0-Au,  2-Au) :   0.1827 B(  0-Au,  3-Au) :   0.1800
B(  0-Au,  4-Au) :   0.1790 B(  0-Au,  9-Au) :   0.1515 B(  0-Au, 10-Fe) :   0.3931
B(  1-Au,  2-Au) :   0.1240 B(  1-Au,  8-Au) :   0.3447 B(  1-Au, 10-Fe) :   0.6201
B(  2-Au,  7-Au) :   0.3446 B(  2-Au, 10-Fe) :   0.6214 B(  3-Au,  4-Au) :   0.1268
B(  3-Au,  6-Au) :   0.3443 B(  3-Au, 10-Fe) :   0.6211 B(  4-Au,  5-Au) :   0.3449
B(  4-Au, 10-Fe) :   0.6201 B(  5-Au,  6-Au) :   0.1240 B(  5-Au,  9-Au) :   0.1829
B(  5-Au, 10-Fe) :   0.6214 B(  6-Au,  9-Au) :   0.1823 B(  6-Au, 10-Fe) :   0.6201
B(  7-Au,  8-Au) :   0.1268 B(  7-Au,  9-Au) :   0.1793 B(  7-Au, 10-Fe) :   0.6201
B(  8-Au,  9-Au) :   0.1802 B(  8-Au, 10-Fe) :   0.6210 B(  9-Au, 10-Fe) :   0.3921

FINAL SINGLE POINT ENERGY     -2622.113787975818

DIPOLE MOMENT
-------------
                                X             Y             Z
Electronic contribution:     -0.01005      -0.01749      -0.01846
Nuclear contribution   :      0.00993       0.01730       0.01832
                        -----------------------------------------
Total Dipole Moment    :     -0.00012      -0.00019      -0.00014
                        -----------------------------------------
Magnitude (a.u.)       :      0.00027
Magnitude (Debye)      :      0.00067

Rotational constants in cm-1:     0.002107     0.001707     0.001542
Rotational constants in MHz :    63.155337    51.174972    46.214833

                             ****ORCA TERMINATED NORMALLY****
TOTAL RUN TIME: 0 days 0 hours 18 minutes 41 seconds 458 msec
