                         Program Version 5.0.3 -  RELEASE  -
|  1> %pal nprocs 1 end
|  2>
|  3> !PBE def2-TZVP OPT UNO
|  4> !SLOWCONV KDIIS
|  5>
|  6> %geom maxiter 300 end
|  7>
|  8> *xyzfile 0 3 2.xyz                           ****END OF INPUT****
 Total Charge           Charge          ....    0
 Multiplicity           Mult            ....    3
 Number of Electrons    NEL             ....  216
FINAL SINGLE POINT ENERGY     -2621.718711603693
FINAL SINGLE POINT ENERGY     -2621.719935465340
FINAL SINGLE POINT ENERGY     -2621.720551982664
FINAL SINGLE POINT ENERGY     -2621.721385297875
FINAL SINGLE POINT ENERGY     -2621.721775609782
FINAL SINGLE POINT ENERGY     -2621.722223469817
FINAL SINGLE POINT ENERGY     -2621.722688879312
FINAL SINGLE POINT ENERGY     -2621.723164312314
FINAL SINGLE POINT ENERGY     -2621.723565069808
FINAL SINGLE POINT ENERGY     -2621.723991089755
FINAL SINGLE POINT ENERGY     -2621.727594737713
FINAL SINGLE POINT ENERGY     -2621.727717243532
FINAL SINGLE POINT ENERGY     -2621.727771560729
FINAL SINGLE POINT ENERGY     -2621.727810202881
FINAL SINGLE POINT ENERGY     -2621.727837844342
FINAL SINGLE POINT ENERGY     -2621.727851862965
FINAL SINGLE POINT ENERGY     -2621.727858702133
FINAL SINGLE POINT ENERGY     -2621.727863597926
FINAL SINGLE POINT ENERGY     -2621.727866226902
                    ***********************HURRAY********************

CARTESIAN COORDINATES (ANGSTROEM)
---------------------------------
  Au     8.715054    6.645048    7.362254
  Au     8.860016    9.201135    8.513489
  Au     5.226167    9.131295    5.875638
  Au     6.432336    6.761070    5.655489
  Au     6.339119    5.418904    8.175252
  Au     4.962296    7.149173    9.888114
  Au     4.336598   11.521685    6.921196
  Au     4.343637    9.437163    8.699693
  Au     6.794162   10.735389    7.858087
  Au     7.783647    7.054544   10.019132
  Fe     6.510572    8.095436    7.930556

 Multiplicity           Mult            ....    3
 Number of Electrons    NEL             ....  216
 Basis Dimension        Dim             ....  445

ORBITAL ENERGIES
----------------
                 SPIN UP ORBITALS
  NO   OCC          E(Eh)            E(eV)
   0   1.0000    -254.744363     -6931.9465
   1   1.0000     -29.581937      -804.9654
   2   1.0000     -25.527256      -694.6319
   3   1.0000     -25.513705      -694.2632
   4   1.0000     -25.512043      -694.2180
   5   1.0000      -4.022650      -109.4619
   6   1.0000      -4.021948      -109.4428
   7   1.0000      -4.021876      -109.4408
   8   1.0000      -4.020310      -109.3982
   9   1.0000      -4.020175      -109.3945
  10   1.0000      -4.019678      -109.3810
  11   1.0000      -4.017373      -109.3183
  12   1.0000      -4.016601      -109.2973
  13   1.0000      -4.016301      -109.2891
  14   1.0000      -4.015354      -109.2633
  15   1.0000      -3.357276       -91.3561
  16   1.0000      -2.241362       -60.9906
  17   1.0000      -2.240803       -60.9753
  18   1.0000      -2.240398       -60.9643
  19   1.0000      -2.238571       -60.9146
  20   1.0000      -2.237841       -60.8947
  21   1.0000      -2.236806       -60.8666
  22   1.0000      -2.236209       -60.8503
  23   1.0000      -2.236162       -60.8491
  24   1.0000      -2.235891       -60.8417
  25   1.0000      -2.234507       -60.8040
  26   1.0000      -2.234054       -60.7917
  27   1.0000      -2.233370       -60.7731
  28   1.0000      -2.232870       -60.7595
  29   1.0000      -2.231813       -60.7307
  30   1.0000      -2.231612       -60.7253
  31   1.0000      -2.231281       -60.7163
  32   1.0000      -2.230623       -60.6983
  33   1.0000      -2.230424       -60.6929
  34   1.0000      -2.230069       -60.6833
  35   1.0000      -2.229267       -60.6614
  36   1.0000      -2.229059       -60.6558
  37   1.0000      -2.229026       -60.6549
  38   1.0000      -2.228552       -60.6420
  39   1.0000      -2.228416       -60.6383
  40   1.0000      -2.227934       -60.6252
  41   1.0000      -2.227690       -60.6185
  42   1.0000      -2.227622       -60.6167
  43   1.0000      -2.224774       -60.5392
  44   1.0000      -2.224580       -60.5339
  45   1.0000      -2.224271       -60.5255
  46   1.0000      -2.190384       -59.6034
  47   1.0000      -2.162958       -58.8571
  48   1.0000      -2.159616       -58.7661
  49   1.0000      -0.414084       -11.2678
  50   1.0000      -0.384459       -10.4617
  51   1.0000      -0.364329        -9.9139
  52   1.0000      -0.361786        -9.8447
  53   1.0000      -0.361069        -9.8252
  54   1.0000      -0.358236        -9.7481
  55   1.0000      -0.357450        -9.7267
  56   1.0000      -0.355584        -9.6759
  57   1.0000      -0.338026        -9.1981
  58   1.0000      -0.333841        -9.0843
  59   1.0000      -0.333035        -9.0623
  60   1.0000      -0.327063        -8.8998
  61   1.0000      -0.326348        -8.8804
  62   1.0000      -0.325186        -8.8488
  63   1.0000      -0.322667        -8.7802
  64   1.0000      -0.318547        -8.6681
  65   1.0000      -0.318243        -8.6598
  66   1.0000      -0.317846        -8.6490
  67   1.0000      -0.313672        -8.5355
  68   1.0000      -0.313142        -8.5210
  69   1.0000      -0.311401        -8.4737
  70   1.0000      -0.311282        -8.4704
  71   1.0000      -0.301605        -8.2071
  72   1.0000      -0.299951        -8.1621
  73   1.0000      -0.296823        -8.0770
  74   1.0000      -0.289860        -7.8875
  75   1.0000      -0.286293        -7.7904
  76   1.0000      -0.285027        -7.7560
  77   1.0000      -0.284142        -7.7319
  78   1.0000      -0.279073        -7.5940
  79   1.0000      -0.277870        -7.5612
  80   1.0000      -0.275014        -7.4835
  81   1.0000      -0.273578        -7.4444
  82   1.0000      -0.271980        -7.4009
  83   1.0000      -0.271773        -7.3953
  84   1.0000      -0.271638        -7.3917
  85   1.0000      -0.267666        -7.2836
  86   1.0000      -0.266309        -7.2466
  87   1.0000      -0.264454        -7.1962
  88   1.0000      -0.260949        -7.1008
  89   1.0000      -0.259023        -7.0484
  90   1.0000      -0.258489        -7.0338
  91   1.0000      -0.258222        -7.0266
  92   1.0000      -0.254252        -6.9185
  93   1.0000      -0.254189        -6.9168
  94   1.0000      -0.250851        -6.8260
  95   1.0000      -0.250395        -6.8136
  96   1.0000      -0.249312        -6.7841
  97   1.0000      -0.245075        -6.6688
  98   1.0000      -0.242937        -6.6107
  99   1.0000      -0.242478        -6.5982
 100   1.0000      -0.239006        -6.5037
 101   1.0000      -0.237598        -6.4654
 102   1.0000      -0.236433        -6.4337
 103   1.0000      -0.233774        -6.3613
 104   1.0000      -0.231741        -6.3060
 105   1.0000      -0.231487        -6.2991
 106   1.0000      -0.226656        -6.1676
 107   1.0000      -0.218132        -5.9357
 108   1.0000      -0.199699        -5.4341
 109   0.0000      -0.170205        -4.6315
 110   0.0000      -0.169458        -4.6112
 111   0.0000      -0.133302        -3.6273
 112   0.0000      -0.131436        -3.5766
 113   0.0000      -0.126518        -3.4427

                 SPIN DOWN ORBITALS
  NO   OCC          E(Eh)            E(eV)
   0   1.0000    -254.743698     -6931.9284
   1   1.0000     -29.527280      -803.4781
   2   1.0000     -25.482036      -693.4014
   3   1.0000     -25.473996      -693.1827
   4   1.0000     -25.473135      -693.1592
   5   1.0000      -4.022120      -109.4475
   6   1.0000      -4.021701      -109.4360
   7   1.0000      -4.021608      -109.4335
   8   1.0000      -4.020392      -109.4004
   9   1.0000      -4.020258      -109.3968
  10   1.0000      -4.019811      -109.3846
  11   1.0000      -4.018247      -109.3421
  12   1.0000      -4.016757      -109.3015
  13   1.0000      -4.016438      -109.2928
  14   1.0000      -4.015400      -109.2646
  15   1.0000      -3.233374       -87.9846
  16   1.0000      -2.241051       -60.9821
  17   1.0000      -2.239932       -60.9517
  18   1.0000      -2.239825       -60.9487
  19   1.0000      -2.237731       -60.8918
  20   1.0000      -2.237498       -60.8854
  21   1.0000      -2.236210       -60.8504
  22   1.0000      -2.236051       -60.8460
  23   1.0000      -2.235850       -60.8406
  24   1.0000      -2.235475       -60.8304
  25   1.0000      -2.234562       -60.8055
  26   1.0000      -2.234218       -60.7962
  27   1.0000      -2.234079       -60.7924
  28   1.0000      -2.233292       -60.7710
  29   1.0000      -2.231596       -60.7248
  30   1.0000      -2.231429       -60.7203
  31   1.0000      -2.231166       -60.7131
  32   1.0000      -2.230618       -60.6982
  33   1.0000      -2.230517       -60.6955
  34   1.0000      -2.230235       -60.6878
  35   1.0000      -2.229416       -60.6655
  36   1.0000      -2.229273       -60.6616
  37   1.0000      -2.229013       -60.6545
  38   1.0000      -2.228889       -60.6511
  39   1.0000      -2.228674       -60.6453
  40   1.0000      -2.228558       -60.6421
  41   1.0000      -2.228543       -60.6417
  42   1.0000      -2.227996       -60.6269
  43   1.0000      -2.225250       -60.5521
  44   1.0000      -2.224979       -60.5448
  45   1.0000      -2.224263       -60.5253
  46   1.0000      -2.057811       -55.9959
  47   1.0000      -2.046206       -55.6801
  48   1.0000      -2.045206       -55.6529
  49   1.0000      -0.409866       -11.1530
  50   1.0000      -0.385361       -10.4862
  51   1.0000      -0.360407        -9.8072
  52   1.0000      -0.360008        -9.7963
  53   1.0000      -0.355756        -9.6806
  54   1.0000      -0.354628        -9.6499
  55   1.0000      -0.354508        -9.6466
  56   1.0000      -0.352630        -9.5956
  57   1.0000      -0.339482        -9.2378
  58   1.0000      -0.331085        -9.0093
  59   1.0000      -0.329089        -8.9550
  60   1.0000      -0.326823        -8.8933
  61   1.0000      -0.324464        -8.8291
  62   1.0000      -0.320879        -8.7316
  63   1.0000      -0.320147        -8.7116
  64   1.0000      -0.319144        -8.6843
  65   1.0000      -0.315528        -8.5860
  66   1.0000      -0.314764        -8.5652
  67   1.0000      -0.311072        -8.4647
  68   1.0000      -0.308957        -8.4072
  69   1.0000      -0.307326        -8.3628
  70   1.0000      -0.306885        -8.3508
  71   1.0000      -0.301467        -8.2033
  72   1.0000      -0.299719        -8.1558
  73   1.0000      -0.297720        -8.1014
  74   1.0000      -0.289530        -7.8785
  75   1.0000      -0.287225        -7.8158
  76   1.0000      -0.285542        -7.7700
  77   1.0000      -0.279156        -7.5962
  78   1.0000      -0.278323        -7.5736
  79   1.0000      -0.277778        -7.5587
  80   1.0000      -0.274635        -7.4732
  81   1.0000      -0.272321        -7.4102
  82   1.0000      -0.271184        -7.3793
  83   1.0000      -0.270146        -7.3511
  84   1.0000      -0.268404        -7.3036
  85   1.0000      -0.268103        -7.2955
  86   1.0000      -0.266353        -7.2478
  87   1.0000      -0.265371        -7.2211
  88   1.0000      -0.261922        -7.1273
  89   1.0000      -0.258916        -7.0455
  90   1.0000      -0.258346        -7.0300
  91   1.0000      -0.254646        -6.9293
  92   1.0000      -0.253896        -6.9089
  93   1.0000      -0.253263        -6.8916
  94   1.0000      -0.253024        -6.8851
  95   1.0000      -0.251334        -6.8391
  96   1.0000      -0.246377        -6.7043
  97   1.0000      -0.246033        -6.6949
  98   1.0000      -0.236643        -6.4394
  99   1.0000      -0.235645        -6.4122
 100   1.0000      -0.235026        -6.3954
 101   1.0000      -0.234272        -6.3749
 102   1.0000      -0.232467        -6.3257
 103   1.0000      -0.207781        -5.6540
 104   1.0000      -0.193299        -5.2599
 105   1.0000      -0.191345        -5.2068
 106   1.0000      -0.170315        -4.6345
 107   0.0000      -0.155250        -4.2246
 108   0.0000      -0.151853        -4.1321
 109   0.0000      -0.145505        -3.9594
 110   0.0000      -0.141459        -3.8493
 111   0.0000      -0.131058        -3.5663

MULLIKEN ATOMIC CHARGES AND SPIN POPULATIONS
--------------------------------------------
   0 Au:    0.209040   -0.124110
   1 Au:    0.234847   -0.013929
   2 Au:    0.053879   -0.157690
   3 Au:    0.231584    0.000736
   4 Au:    0.209965   -0.128206
   5 Au:    0.235747   -0.016667
   6 Au:    0.343475    0.029616
   7 Au:    0.066417   -0.167594
   8 Au:    0.064624   -0.166763
   9 Au:    0.215327   -0.148643
  10 Fe:   -1.864905    2.893250
Sum of atomic charges         :   -0.0000000

LOEWDIN ATOMIC CHARGES AND SPIN POPULATIONS
-------------------------------------------
   0 Au:    0.036809   -0.104086
   1 Au:    0.094291   -0.083963
   2 Au:    0.025887   -0.075484
   3 Au:    0.098865   -0.061036
   4 Au:    0.038302   -0.105823
   5 Au:    0.092937   -0.088855
   6 Au:    0.080651   -0.037778
   7 Au:    0.012433   -0.101422
   8 Au:    0.015181   -0.097341
   9 Au:    0.047033   -0.116879
  10 Fe:   -0.542388    2.872668

  Mayer bond orders larger than 0.100000
B(  0-Au,  1-Au) :   0.2041 B(  0-Au,  3-Au) :   0.1708 B(  0-Au,  4-Au) :   0.2474
B(  0-Au,  5-Au) :   0.1014 B(  0-Au,  9-Au) :   0.2008 B(  0-Au, 10-Fe) :   0.5260
B(  1-Au,  4-Au) :   0.1006 B(  1-Au,  8-Au) :   0.3867 B(  1-Au,  9-Au) :   0.1790
B(  1-Au, 10-Fe) :   0.5157 B(  2-Au,  3-Au) :   0.3773 B(  2-Au,  6-Au) :   0.3405
B(  2-Au,  7-Au) :   0.1268 B(  2-Au,  8-Au) :   0.1208 B(  2-Au, 10-Fe) :   0.6585
B(  3-Au,  4-Au) :   0.1671 B(  3-Au, 10-Fe) :   0.5306 B(  4-Au,  5-Au) :   0.2097
B(  4-Au,  9-Au) :   0.1911 B(  4-Au, 10-Fe) :   0.5348 B(  5-Au,  7-Au) :   0.3906
B(  5-Au,  9-Au) :   0.1859 B(  5-Au, 10-Fe) :   0.5080 B(  6-Au,  7-Au) :   0.3672
B(  6-Au,  8-Au) :   0.3597 B(  6-Au, 10-Fe) :   0.1209 B(  7-Au,  8-Au) :   0.1537
B(  7-Au, 10-Fe) :   0.6023 B(  8-Au, 10-Fe) :   0.6129 B(  9-Au, 10-Fe) :   0.5811

FINAL SINGLE POINT ENERGY     -2621.727867290416

DIPOLE MOMENT
-------------
                                X             Y             Z
Electronic contribution:     -4.95130       7.91437      -1.32616
Nuclear contribution   :      4.97221      -7.95834       1.27730
                        -----------------------------------------
Total Dipole Moment    :      0.02091      -0.04396      -0.04886
                        -----------------------------------------
Magnitude (a.u.)       :      0.06897
Magnitude (Debye)      :      0.17531

Rotational constants in cm-1:     0.002297     0.001381     0.001375
Rotational constants in MHz :    68.852344    41.391466    41.235010

                             ****ORCA TERMINATED NORMALLY****
TOTAL RUN TIME: 0 days 3 hours 30 minutes 57 seconds 337 msec
