                         Program Version 5.0.3 -  RELEASE  -
|  1> !RI-B2PLYP def2-TZVP def2-TZVP/C
|  2> !RIJCOSX
|  3> %pal nprocs 6 end
|  4>
|  5> *xyzfile 0 5 pbe.xyz
|  6>
|  7> $new_job
|  8>
|  9> !RI-B2PLYP def2-TZVP def2-TZVP/C
| 10> !RIJCOSX
| 11> %pal nprocs 6 end
| 12>
| 13> *xyzfile 0 3 pbe.xyz
| 14>
| 15>
| 16>
| 17>
| 18>
| 19>                          ****END OF INPUT****
 Total Charge           Charge          ....    0
 Multiplicity           Mult            ....    5
 Number of Electrons    NEL             ....  292
MP2 TOTAL ENERGY:    -3161.730563141 Eh
FINAL SINGLE POINT ENERGY     -3161.730563140555

CARTESIAN COORDINATES (ANGSTROEM)
---------------------------------
  Au     4.640727    7.342586    5.916960
  Au     6.266442    9.607293    5.773482
  Au     5.953980    9.884465    8.532732
  Au     8.861896    6.757327    9.333998
  Au     6.345916    7.497728   10.012192
  Au     5.336401    5.522484    7.977943
  Au     3.985990    7.907525    8.564409
  Au    10.697463    7.757989    7.448589
  Au     8.650563    9.421772    8.259063
  Au     8.761671    8.474263    5.580897
  Au    10.668465    5.016784    8.047842
  Au     9.735458    5.866052    5.532473
  Au     7.922767    4.907160    7.462670
  Au     7.035945    6.272128    5.095006
  Fe     6.891541    7.585634    7.426178

 Multiplicity           Mult            ....    3
 Number of Electrons    NEL             ....  292
 Basis Dimension        Dim             ....  605

ORBITAL ENERGIES
----------------
                 SPIN UP ORBITALS
  NO   OCC          E(Eh)            E(eV)
   0   1.0000    -258.333494     -7029.6117
   1   1.0000     -30.892435      -840.6259
   2   1.0000     -26.602291      -723.8851
   3   1.0000     -26.598017      -723.7689
   4   1.0000     -26.571827      -723.0562
   5   1.0000      -4.402312      -119.7930
   6   1.0000      -4.402268      -119.7918
   7   1.0000      -4.400841      -119.7530
   8   1.0000      -4.400538      -119.7447
   9   1.0000      -4.400499      -119.7437
  10   1.0000      -4.397946      -119.6742
  11   1.0000      -4.397753      -119.6689
  12   1.0000      -4.396951      -119.6471
  13   1.0000      -4.396934      -119.6467
  14   1.0000      -4.393655      -119.5574
  15   1.0000      -4.388915      -119.4284
  16   1.0000      -4.388325      -119.4124
  17   1.0000      -4.388170      -119.4082
  18   1.0000      -4.386520      -119.3633
  19   1.0000      -3.904165      -106.2377
  20   1.0000      -2.636859       -71.7526
  21   1.0000      -2.628281       -71.5192
  22   1.0000      -2.573435       -70.0267
  23   1.0000      -2.522946       -68.6529
  24   1.0000      -2.522811       -68.6492
  25   1.0000      -2.522316       -68.6357
  26   1.0000      -2.521974       -68.6264
  27   1.0000      -2.521892       -68.6242
  28   1.0000      -2.521856       -68.6232
  29   1.0000      -2.520966       -68.5990
  30   1.0000      -2.520358       -68.5824
  31   1.0000      -2.520233       -68.5790
  32   1.0000      -2.518559       -68.5335
  33   1.0000      -2.517971       -68.5175
  34   1.0000      -2.516806       -68.4858
  35   1.0000      -2.516523       -68.4781
  36   1.0000      -2.516329       -68.4728
  37   1.0000      -2.516245       -68.4705
  38   1.0000      -2.515647       -68.4542
  39   1.0000      -2.515458       -68.4491
  40   1.0000      -2.515287       -68.4444
  41   1.0000      -2.514662       -68.4274
  42   1.0000      -2.514287       -68.4172
  43   1.0000      -2.513841       -68.4051
  44   1.0000      -2.513734       -68.4022
  45   1.0000      -2.513688       -68.4009
  46   1.0000      -2.513315       -68.3908
  47   1.0000      -2.513273       -68.3896
  48   1.0000      -2.511989       -68.3547
  49   1.0000      -2.511640       -68.3452
  50   1.0000      -2.511463       -68.3404
  51   1.0000      -2.508736       -68.2662
  52   1.0000      -2.508215       -68.2520
  53   1.0000      -2.507365       -68.2289
  54   1.0000      -2.506677       -68.2102
  55   1.0000      -2.506551       -68.2067
  56   1.0000      -2.505626       -68.1816
  57   1.0000      -2.505544       -68.1793
  58   1.0000      -2.505124       -68.1679
  59   1.0000      -2.504642       -68.1548
  60   1.0000      -2.504532       -68.1518
  61   1.0000      -2.503865       -68.1336
  62   1.0000      -2.503182       -68.1150
  63   1.0000      -2.502087       -68.0853
  64   1.0000      -2.502051       -68.0843
  65   1.0000      -0.555868       -15.1259
  66   1.0000      -0.554934       -15.1005
  67   1.0000      -0.537478       -14.6255
  68   1.0000      -0.535192       -14.5633
  69   1.0000      -0.511615       -13.9218
  70   1.0000      -0.496638       -13.5142
  71   1.0000      -0.470046       -12.7906
  72   1.0000      -0.464311       -12.6346
  73   1.0000      -0.460387       -12.5278
  74   1.0000      -0.457099       -12.4383
  75   1.0000      -0.456951       -12.4343
  76   1.0000      -0.456431       -12.4201
  77   1.0000      -0.455819       -12.4035
  78   1.0000      -0.452080       -12.3017
  79   1.0000      -0.451664       -12.2904
  80   1.0000      -0.448596       -12.2069
  81   1.0000      -0.447074       -12.1655
  82   1.0000      -0.445918       -12.1340
  83   1.0000      -0.444948       -12.1076
  84   1.0000      -0.441688       -12.0189
  85   1.0000      -0.440397       -11.9838
  86   1.0000      -0.439404       -11.9568
  87   1.0000      -0.436024       -11.8648
  88   1.0000      -0.435029       -11.8377
  89   1.0000      -0.431567       -11.7435
  90   1.0000      -0.429110       -11.6767
  91   1.0000      -0.428687       -11.6652
  92   1.0000      -0.426120       -11.5953
  93   1.0000      -0.423683       -11.5290
  94   1.0000      -0.422715       -11.5026
  95   1.0000      -0.418320       -11.3831
  96   1.0000      -0.414086       -11.2678
  97   1.0000      -0.413943       -11.2640
  98   1.0000      -0.410989       -11.1836
  99   1.0000      -0.409174       -11.1342
 100   1.0000      -0.403153       -10.9704
 101   1.0000      -0.401398       -10.9226
 102   1.0000      -0.400679       -10.9030
 103   1.0000      -0.397758       -10.8236
 104   1.0000      -0.397029       -10.8037
 105   1.0000      -0.390786       -10.6338
 106   1.0000      -0.390161       -10.6168
 107   1.0000      -0.386936       -10.5291
 108   1.0000      -0.385813       -10.4985
 109   1.0000      -0.380685       -10.3590
 110   1.0000      -0.379551       -10.3281
 111   1.0000      -0.375751       -10.2247
 112   1.0000      -0.374649       -10.1947
 113   1.0000      -0.373317       -10.1585
 114   1.0000      -0.371493       -10.1088
 115   1.0000      -0.371193       -10.1007
 116   1.0000      -0.368953       -10.0397
 117   1.0000      -0.368861       -10.0372
 118   1.0000      -0.365685        -9.9508
 119   1.0000      -0.363456        -9.8901
 120   1.0000      -0.363279        -9.8853
 121   1.0000      -0.362515        -9.8645
 122   1.0000      -0.360695        -9.8150
 123   1.0000      -0.356925        -9.7124
 124   1.0000      -0.355038        -9.6611
 125   1.0000      -0.353618        -9.6224
 126   1.0000      -0.352512        -9.5923
 127   1.0000      -0.350266        -9.5312
 128   1.0000      -0.348878        -9.4934
 129   1.0000      -0.347940        -9.4679
 130   1.0000      -0.346419        -9.4265
 131   1.0000      -0.345807        -9.4099
 132   1.0000      -0.342414        -9.3176
 133   1.0000      -0.337846        -9.1933
 134   1.0000      -0.336918        -9.1680
 135   1.0000      -0.334981        -9.1153
 136   1.0000      -0.331404        -9.0180
 137   1.0000      -0.331039        -9.0080
 138   1.0000      -0.328704        -8.9445
 139   1.0000      -0.327275        -8.9056
 140   1.0000      -0.324724        -8.8362
 141   1.0000      -0.313138        -8.5209
 142   1.0000      -0.293361        -7.9828
 143   1.0000      -0.290959        -7.9174
 144   1.0000      -0.241903        -6.5825
 145   1.0000      -0.224236        -6.1018
 146   1.0000      -0.222544        -6.0557
 147   0.0000      -0.115488        -3.1426
 148   0.0000      -0.108955        -2.9648
 149   0.0000      -0.076657        -2.0859
 150   0.0000      -0.070747        -1.9251
 151   0.0000      -0.069304        -1.8859

                 SPIN DOWN ORBITALS
  NO   OCC          E(Eh)            E(eV)
   0   1.0000    -258.331472     -7029.5567
   1   1.0000     -30.800530      -838.1250
   2   1.0000     -26.510110      -721.3768
   3   1.0000     -26.508886      -721.3435
   4   1.0000     -26.501399      -721.1397
   5   1.0000      -4.402896      -119.8089
   6   1.0000      -4.402871      -119.8082
   7   1.0000      -4.401134      -119.7610
   8   1.0000      -4.401082      -119.7595
   9   1.0000      -4.400799      -119.7518
  10   1.0000      -4.398843      -119.6986
  11   1.0000      -4.398644      -119.6932
  12   1.0000      -4.397692      -119.6673
  13   1.0000      -4.397672      -119.6667
  14   1.0000      -4.394503      -119.5805
  15   1.0000      -4.389242      -119.4373
  16   1.0000      -4.388464      -119.4162
  17   1.0000      -4.388304      -119.4118
  18   1.0000      -4.386435      -119.3610
  19   1.0000      -3.662216       -99.6540
  20   1.0000      -2.522204       -68.6327
  21   1.0000      -2.522128       -68.6306
  22   1.0000      -2.522019       -68.6276
  23   1.0000      -2.521947       -68.6257
  24   1.0000      -2.521645       -68.6174
  25   1.0000      -2.521523       -68.6141
  26   1.0000      -2.520295       -68.5807
  27   1.0000      -2.520210       -68.5784
  28   1.0000      -2.519609       -68.5621
  29   1.0000      -2.518712       -68.5376
  30   1.0000      -2.518268       -68.5256
  31   1.0000      -2.517040       -68.4921
  32   1.0000      -2.516508       -68.4777
  33   1.0000      -2.516215       -68.4697
  34   1.0000      -2.516014       -68.4642
  35   1.0000      -2.515831       -68.4592
  36   1.0000      -2.515776       -68.4577
  37   1.0000      -2.515584       -68.4525
  38   1.0000      -2.515419       -68.4480
  39   1.0000      -2.514766       -68.4303
  40   1.0000      -2.514222       -68.4155
  41   1.0000      -2.513922       -68.4073
  42   1.0000      -2.513892       -68.4065
  43   1.0000      -2.513608       -68.3987
  44   1.0000      -2.513554       -68.3973
  45   1.0000      -2.512962       -68.3812
  46   1.0000      -2.512509       -68.3688
  47   1.0000      -2.512291       -68.3629
  48   1.0000      -2.509309       -68.2818
  49   1.0000      -2.508644       -68.2637
  50   1.0000      -2.508444       -68.2582
  51   1.0000      -2.507218       -68.2249
  52   1.0000      -2.506899       -68.2162
  53   1.0000      -2.506170       -68.1963
  54   1.0000      -2.505917       -68.1895
  55   1.0000      -2.505327       -68.1734
  56   1.0000      -2.505072       -68.1665
  57   1.0000      -2.504821       -68.1596
  58   1.0000      -2.504016       -68.1377
  59   1.0000      -2.503226       -68.1163
  60   1.0000      -2.502068       -68.0847
  61   1.0000      -2.502024       -68.0835
  62   1.0000      -2.343057       -63.7578
  63   1.0000      -2.334565       -63.5268
  64   1.0000      -2.332513       -63.4709
  65   1.0000      -0.508573       -13.8390
  66   1.0000      -0.474106       -12.9011
  67   1.0000      -0.469531       -12.7766
  68   1.0000      -0.466174       -12.6852
  69   1.0000      -0.462820       -12.5940
  70   1.0000      -0.459691       -12.5088
  71   1.0000      -0.459329       -12.4990
  72   1.0000      -0.458900       -12.4873
  73   1.0000      -0.457764       -12.4564
  74   1.0000      -0.455967       -12.4075
  75   1.0000      -0.454254       -12.3609
  76   1.0000      -0.453259       -12.3338
  77   1.0000      -0.453054       -12.3282
  78   1.0000      -0.451974       -12.2988
  79   1.0000      -0.448930       -12.2160
  80   1.0000      -0.447673       -12.1818
  81   1.0000      -0.447310       -12.1719
  82   1.0000      -0.446255       -12.1432
  83   1.0000      -0.446033       -12.1372
  84   1.0000      -0.441756       -12.0208
  85   1.0000      -0.436195       -11.8695
  86   1.0000      -0.434082       -11.8120
  87   1.0000      -0.431448       -11.7403
  88   1.0000      -0.428622       -11.6634
  89   1.0000      -0.425339       -11.5741
  90   1.0000      -0.418962       -11.4005
  91   1.0000      -0.417491       -11.3605
  92   1.0000      -0.417378       -11.3574
  93   1.0000      -0.413143       -11.2422
  94   1.0000      -0.412643       -11.2286
  95   1.0000      -0.411192       -11.1891
  96   1.0000      -0.405526       -11.0349
  97   1.0000      -0.405282       -11.0283
  98   1.0000      -0.401776       -10.9329
  99   1.0000      -0.400457       -10.8970
 100   1.0000      -0.399269       -10.8647
 101   1.0000      -0.396621       -10.7926
 102   1.0000      -0.394050       -10.7226
 103   1.0000      -0.391900       -10.6641
 104   1.0000      -0.386803       -10.5255
 105   1.0000      -0.383828       -10.4445
 106   1.0000      -0.383292       -10.4299
 107   1.0000      -0.379889       -10.3373
 108   1.0000      -0.377721       -10.2783
 109   1.0000      -0.377217       -10.2646
 110   1.0000      -0.376401       -10.2424
 111   1.0000      -0.372649       -10.1403
 112   1.0000      -0.371903       -10.1200
 113   1.0000      -0.369658       -10.0589
 114   1.0000      -0.365553        -9.9472
 115   1.0000      -0.364261        -9.9120
 116   1.0000      -0.363681        -9.8963
 117   1.0000      -0.362189        -9.8557
 118   1.0000      -0.361138        -9.8271
 119   1.0000      -0.355854        -9.6833
 120   1.0000      -0.355315        -9.6686
 121   1.0000      -0.354623        -9.6498
 122   1.0000      -0.352634        -9.5957
 123   1.0000      -0.351197        -9.5566
 124   1.0000      -0.351137        -9.5549
 125   1.0000      -0.347887        -9.4665
 126   1.0000      -0.347648        -9.4600
 127   1.0000      -0.344380        -9.3711
 128   1.0000      -0.343525        -9.3478
 129   1.0000      -0.339601        -9.2410
 130   1.0000      -0.336554        -9.1581
 131   1.0000      -0.333039        -9.0625
 132   1.0000      -0.331771        -9.0280
 133   1.0000      -0.331443        -9.0190
 134   1.0000      -0.329382        -8.9629
 135   1.0000      -0.329021        -8.9531
 136   1.0000      -0.326506        -8.8847
 137   1.0000      -0.318293        -8.6612
 138   1.0000      -0.311325        -8.4716
 139   1.0000      -0.310895        -8.4599
 140   1.0000      -0.245353        -6.6764
 141   1.0000      -0.232937        -6.3385
 142   1.0000      -0.232391        -6.3237
 143   1.0000      -0.216490        -5.8910
 144   1.0000      -0.208753        -5.6805
 145   0.0000      -0.080200        -2.1824
 146   0.0000      -0.073670        -2.0047
 147   0.0000      -0.072746        -1.9795
 148   0.0000      -0.067027        -1.8239
 149   0.0000      -0.051995        -1.4149

MULLIKEN ATOMIC CHARGES AND SPIN POPULATIONS
--------------------------------------------
   0 Au:    0.203117   -0.110538
   1 Au:    0.219176   -0.150448
   2 Au:    0.201479   -0.111698
   3 Au:   -0.114136   -0.175088
   4 Au:    0.231427   -0.167129
   5 Au:    0.238494   -0.169660
   6 Au:    0.230725    0.024737
   7 Au:    0.168221    0.055662
   8 Au:    0.114709   -0.207275
   9 Au:    0.014217   -0.186815
  10 Au:    0.336016    0.027542
  11 Au:    0.176255    0.056588
  12 Au:   -0.131565   -0.170857
  13 Au:    0.111084   -0.208655
  14 Fe:   -1.999218    3.493636
Sum of atomic charges         :   -0.0000000

LOEWDIN ATOMIC CHARGES AND SPIN POPULATIONS
-------------------------------------------
   0 Au:    0.034855   -0.113510
   1 Au:    0.078911   -0.175294
   2 Au:    0.034782   -0.113414
   3 Au:   -0.039294   -0.135537
   4 Au:    0.050511   -0.164460
   5 Au:    0.050365   -0.164733
   6 Au:    0.040760   -0.010748
   7 Au:   -0.015762    0.011188
   8 Au:    0.041949   -0.169229
   9 Au:   -0.018797   -0.131498
  10 Au:    0.098157    0.016520
  11 Au:   -0.012548    0.011813
  12 Au:   -0.042084   -0.133665
  13 Au:    0.041443   -0.169382
  14 Fe:   -0.343248    3.441948

  Mayer bond orders larger than 0.100000
B(  0-Au,  1-Au) :   0.1731 B(  0-Au,  5-Au) :   0.1513 B(  0-Au,  6-Au) :   0.2033
B(  0-Au, 13-Au) :   0.2510 B(  0-Au, 14-Fe) :   0.3845 B(  1-Au,  2-Au) :   0.1726
B(  1-Au,  9-Au) :   0.2594 B(  1-Au, 14-Fe) :   0.4964 B(  2-Au,  4-Au) :   0.1531
B(  2-Au,  6-Au) :   0.2020 B(  2-Au,  8-Au) :   0.2514 B(  2-Au, 14-Fe) :   0.3870
B(  3-Au,  4-Au) :   0.3096 B(  3-Au,  7-Au) :   0.2474 B(  3-Au,  8-Au) :   0.1497
B(  3-Au, 10-Au) :   0.3306 B(  3-Au, 12-Au) :   0.2286 B(  3-Au, 14-Fe) :   0.3808
B(  4-Au,  6-Au) :   0.2299 B(  4-Au, 14-Fe) :   0.4754 B(  5-Au,  6-Au) :   0.2281
B(  5-Au, 12-Au) :   0.3125 B(  5-Au, 14-Fe) :   0.4753 B(  6-Au, 14-Fe) :   0.2357
B(  7-Au,  8-Au) :   0.3377 B(  7-Au,  9-Au) :   0.2481 B(  7-Au, 10-Au) :   0.1798
B(  7-Au, 11-Au) :   0.1852 B(  7-Au, 14-Fe) :   0.1028 B(  8-Au,  9-Au) :   0.1437
B(  8-Au, 14-Fe) :   0.5084 B(  9-Au, 11-Au) :   0.2489 B(  9-Au, 13-Au) :   0.1458
B(  9-Au, 14-Fe) :   0.3976 B( 10-Au, 11-Au) :   0.1765 B( 10-Au, 12-Au) :   0.3409
B( 11-Au, 12-Au) :   0.2492 B( 11-Au, 13-Au) :   0.3373 B( 12-Au, 13-Au) :   0.1528
B( 12-Au, 14-Fe) :   0.3812 B( 13-Au, 14-Fe) :   0.5059

MP2 TOTAL ENERGY:    -3161.738694022 Eh
FINAL SINGLE POINT ENERGY     -3161.738694022493

DIPOLE MOMENT
-------------
                                X             Y             Z
Electronic contribution:     22.65202     -10.74373      -1.12984
Nuclear contribution   :    -22.85850      10.80819       1.16784
                        -----------------------------------------
Total Dipole Moment    :     -0.20648       0.06446       0.03799
                        -----------------------------------------
Magnitude (a.u.)       :      0.21962
Magnitude (Debye)      :      0.55823

Rotational constants in cm-1:     0.001368     0.000879     0.000879
Rotational constants in MHz :    41.014798    26.356590    26.340709

                             ****ORCA TERMINATED NORMALLY****
TOTAL RUN TIME: 0 days 1 hours 20 minutes 35 seconds 121 msec
