                         Program Version 5.0.3 -  RELEASE  -
|  1> !PBE def2-TZVP VERYSLOWCONV
|  2>
|  3> %pal nprocs 6 end
|  4>
|  5> *xyzfile 0 5 pbe.xyz
|  6>
|  7> $new_job
|  8>
|  9> !PBE def2-TZVP VERYSLOWCONV
| 10>
| 11>
| 12> %pal nprocs 6 end
| 13>
| 14> *xyzfile 0 3 pbe.xyz
| 15>
| 16>
| 17>
| 18>
| 19>
| 20>                          ****END OF INPUT****
 Total Charge           Charge          ....    0
 Multiplicity           Mult            ....    5
 Number of Electrons    NEL             ....  292
FINAL SINGLE POINT ENERGY     -3165.061332168231

CARTESIAN COORDINATES (ANGSTROEM)
---------------------------------
  Au     4.640727    7.342586    5.916960
  Au     6.266442    9.607293    5.773482
  Au     5.953980    9.884465    8.532732
  Au     8.861896    6.757327    9.333998
  Au     6.345916    7.497728   10.012192
  Au     5.336401    5.522484    7.977943
  Au     3.985990    7.907525    8.564409
  Au    10.697463    7.757989    7.448589
  Au     8.650563    9.421772    8.259063
  Au     8.761671    8.474263    5.580897
  Au    10.668465    5.016784    8.047842
  Au     9.735458    5.866052    5.532473
  Au     7.922767    4.907160    7.462670
  Au     7.035945    6.272128    5.095006
  Fe     6.891541    7.585634    7.426178

 Multiplicity           Mult            ....    3
 Number of Electrons    NEL             ....  292
 Basis Dimension        Dim             ....  605

ORBITAL ENERGIES
----------------
                 SPIN UP ORBITALS
  NO   OCC          E(Eh)            E(eV)
   0   1.0000    -254.746800     -6932.0128
   1   1.0000     -29.581944      -804.9656
   2   1.0000     -25.522869      -694.5126
   3   1.0000     -25.520507      -694.4483
   4   1.0000     -25.509759      -694.1558
   5   1.0000      -4.030855      -109.6852
   6   1.0000      -4.030750      -109.6823
   7   1.0000      -4.030686      -109.6805
   8   1.0000      -4.027605      -109.5967
   9   1.0000      -4.027279      -109.5878
  10   1.0000      -4.026235      -109.5594
  11   1.0000      -4.026199      -109.5585
  12   1.0000      -4.025544      -109.5406
  13   1.0000      -4.025336      -109.5350
  14   1.0000      -4.022645      -109.4617
  15   1.0000      -4.018261      -109.3425
  16   1.0000      -4.018093      -109.3379
  17   1.0000      -4.017074      -109.3101
  18   1.0000      -4.014144      -109.2304
  19   1.0000      -3.358653       -91.3936
  20   1.0000      -2.246725       -61.1365
  21   1.0000      -2.246686       -61.1354
  22   1.0000      -2.246401       -61.1277
  23   1.0000      -2.245810       -61.1116
  24   1.0000      -2.245510       -61.1034
  25   1.0000      -2.244695       -61.0812
  26   1.0000      -2.244294       -61.0703
  27   1.0000      -2.243175       -61.0399
  28   1.0000      -2.243065       -61.0369
  29   1.0000      -2.242596       -61.0241
  30   1.0000      -2.242523       -61.0221
  31   1.0000      -2.240830       -60.9761
  32   1.0000      -2.240714       -60.9729
  33   1.0000      -2.240406       -60.9645
  34   1.0000      -2.239994       -60.9533
  35   1.0000      -2.239721       -60.9459
  36   1.0000      -2.239367       -60.9363
  37   1.0000      -2.239014       -60.9267
  38   1.0000      -2.238789       -60.9206
  39   1.0000      -2.238599       -60.9154
  40   1.0000      -2.238321       -60.9078
  41   1.0000      -2.237508       -60.8857
  42   1.0000      -2.237201       -60.8773
  43   1.0000      -2.236565       -60.8600
  44   1.0000      -2.236430       -60.8563
  45   1.0000      -2.236208       -60.8503
  46   1.0000      -2.235439       -60.8294
  47   1.0000      -2.235041       -60.8186
  48   1.0000      -2.234565       -60.8056
  49   1.0000      -2.234281       -60.7979
  50   1.0000      -2.233482       -60.7761
  51   1.0000      -2.232633       -60.7530
  52   1.0000      -2.231670       -60.7268
  53   1.0000      -2.230922       -60.7065
  54   1.0000      -2.230855       -60.7046
  55   1.0000      -2.230249       -60.6882
  56   1.0000      -2.229107       -60.6571
  57   1.0000      -2.228192       -60.6322
  58   1.0000      -2.227537       -60.6144
  59   1.0000      -2.227451       -60.6120
  60   1.0000      -2.226262       -60.5797
  61   1.0000      -2.226162       -60.5770
  62   1.0000      -2.182949       -59.4011
  63   1.0000      -2.178240       -59.2729
  64   1.0000      -2.156659       -58.6857
  65   1.0000      -0.427511       -11.6332
  66   1.0000      -0.387915       -10.5557
  67   1.0000      -0.377442       -10.2707
  68   1.0000      -0.376557       -10.2466
  69   1.0000      -0.370663       -10.0863
  70   1.0000      -0.367629       -10.0037
  71   1.0000      -0.364305        -9.9132
  72   1.0000      -0.363262        -9.8849
  73   1.0000      -0.359657        -9.7868
  74   1.0000      -0.354555        -9.6479
  75   1.0000      -0.354457        -9.6453
  76   1.0000      -0.353436        -9.6175
  77   1.0000      -0.350466        -9.5367
  78   1.0000      -0.350260        -9.5311
  79   1.0000      -0.346913        -9.4400
  80   1.0000      -0.344992        -9.3877
  81   1.0000      -0.344392        -9.3714
  82   1.0000      -0.342835        -9.3290
  83   1.0000      -0.342172        -9.3110
  84   1.0000      -0.335408        -9.1269
  85   1.0000      -0.332197        -9.0395
  86   1.0000      -0.331188        -9.0121
  87   1.0000      -0.328427        -8.9370
  88   1.0000      -0.326270        -8.8783
  89   1.0000      -0.323955        -8.8153
  90   1.0000      -0.320918        -8.7326
  91   1.0000      -0.318171        -8.6579
  92   1.0000      -0.317715        -8.6455
  93   1.0000      -0.315664        -8.5897
  94   1.0000      -0.315217        -8.5775
  95   1.0000      -0.312554        -8.5050
  96   1.0000      -0.310037        -8.4365
  97   1.0000      -0.307146        -8.3579
  98   1.0000      -0.304471        -8.2851
  99   1.0000      -0.304311        -8.2807
 100   1.0000      -0.301776        -8.2117
 101   1.0000      -0.299505        -8.1500
 102   1.0000      -0.295369        -8.0374
 103   1.0000      -0.292171        -7.9504
 104   1.0000      -0.292063        -7.9474
 105   1.0000      -0.287911        -7.8344
 106   1.0000      -0.287582        -7.8255
 107   1.0000      -0.284265        -7.7352
 108   1.0000      -0.280882        -7.6432
 109   1.0000      -0.278960        -7.5909
 110   1.0000      -0.277707        -7.5568
 111   1.0000      -0.276698        -7.5293
 112   1.0000      -0.273628        -7.4458
 113   1.0000      -0.273165        -7.4332
 114   1.0000      -0.268597        -7.3089
 115   1.0000      -0.267633        -7.2827
 116   1.0000      -0.267072        -7.2674
 117   1.0000      -0.266517        -7.2523
 118   1.0000      -0.265204        -7.2166
 119   1.0000      -0.264572        -7.1994
 120   1.0000      -0.260642        -7.0924
 121   1.0000      -0.260336        -7.0841
 122   1.0000      -0.258061        -7.0222
 123   1.0000      -0.256606        -6.9826
 124   1.0000      -0.256233        -6.9725
 125   1.0000      -0.255055        -6.9404
 126   1.0000      -0.253191        -6.8897
 127   1.0000      -0.251713        -6.8494
 128   1.0000      -0.250114        -6.8059
 129   1.0000      -0.249834        -6.7983
 130   1.0000      -0.248858        -6.7718
 131   1.0000      -0.247931        -6.7465
 132   1.0000      -0.246447        -6.7062
 133   1.0000      -0.246202        -6.6995
 134   1.0000      -0.243099        -6.6151
 135   1.0000      -0.243051        -6.6138
 136   1.0000      -0.241720        -6.5775
 137   1.0000      -0.240869        -6.5544
 138   1.0000      -0.239587        -6.5195
 139   1.0000      -0.239077        -6.5056
 140   1.0000      -0.238504        -6.4900
 141   1.0000      -0.236879        -6.4458
 142   1.0000      -0.230386        -6.2691
 143   1.0000      -0.230055        -6.2601
 144   1.0000      -0.216927        -5.9029
 145   1.0000      -0.202955        -5.5227
 146   1.0000      -0.200861        -5.4657
 147   0.0000      -0.179103        -4.8736
 148   0.0000      -0.174397        -4.7456
 149   0.0000      -0.138181        -3.7601
 150   0.0000      -0.134036        -3.6473
 151   0.0000      -0.132715        -3.6114

                 SPIN DOWN ORBITALS
  NO   OCC          E(Eh)            E(eV)
   0   1.0000    -254.746155     -6931.9953
   1   1.0000     -29.526780      -803.4645
   2   1.0000     -25.479475      -693.3318
   3   1.0000     -25.478235      -693.2980
   4   1.0000     -25.470472      -693.0868
   5   1.0000      -4.030881      -109.6858
   6   1.0000      -4.030799      -109.6836
   7   1.0000      -4.030727      -109.6817
   8   1.0000      -4.027626      -109.5973
   9   1.0000      -4.027304      -109.5885
  10   1.0000      -4.026514      -109.5670
  11   1.0000      -4.026474      -109.5659
  12   1.0000      -4.026228      -109.5592
  13   1.0000      -4.026011      -109.5533
  14   1.0000      -4.022965      -109.4704
  15   1.0000      -4.018500      -109.3489
  16   1.0000      -4.018330      -109.3443
  17   1.0000      -4.017364      -109.3180
  18   1.0000      -4.014328      -109.2354
  19   1.0000      -3.233588       -87.9904
  20   1.0000      -2.246875       -61.1406
  21   1.0000      -2.246823       -61.1392
  22   1.0000      -2.246419       -61.1282
  23   1.0000      -2.245397       -61.1004
  24   1.0000      -2.245270       -61.0969
  25   1.0000      -2.244957       -61.0884
  26   1.0000      -2.244758       -61.0830
  27   1.0000      -2.242863       -61.0314
  28   1.0000      -2.242693       -61.0268
  29   1.0000      -2.242495       -61.0214
  30   1.0000      -2.242142       -61.0118
  31   1.0000      -2.241103       -60.9835
  32   1.0000      -2.241084       -60.9830
  33   1.0000      -2.240985       -60.9803
  34   1.0000      -2.240553       -60.9686
  35   1.0000      -2.240290       -60.9614
  36   1.0000      -2.239933       -60.9517
  37   1.0000      -2.239086       -60.9286
  38   1.0000      -2.238998       -60.9262
  39   1.0000      -2.238804       -60.9210
  40   1.0000      -2.238639       -60.9165
  41   1.0000      -2.237909       -60.8966
  42   1.0000      -2.237359       -60.8816
  43   1.0000      -2.236982       -60.8714
  44   1.0000      -2.236859       -60.8680
  45   1.0000      -2.236626       -60.8617
  46   1.0000      -2.235836       -60.8402
  47   1.0000      -2.235566       -60.8329
  48   1.0000      -2.234921       -60.8153
  49   1.0000      -2.234659       -60.8082
  50   1.0000      -2.233909       -60.7877
  51   1.0000      -2.233356       -60.7727
  52   1.0000      -2.231950       -60.7345
  53   1.0000      -2.231251       -60.7154
  54   1.0000      -2.231174       -60.7133
  55   1.0000      -2.230694       -60.7003
  56   1.0000      -2.229256       -60.6611
  57   1.0000      -2.228349       -60.6365
  58   1.0000      -2.227720       -60.6193
  59   1.0000      -2.227609       -60.6163
  60   1.0000      -2.226456       -60.5850
  61   1.0000      -2.226309       -60.5809
  62   1.0000      -2.055548       -55.9343
  63   1.0000      -2.054319       -55.9009
  64   1.0000      -2.040580       -55.5270
  65   1.0000      -0.424465       -11.5503
  66   1.0000      -0.387457       -10.5433
  67   1.0000      -0.378056       -10.2874
  68   1.0000      -0.377397       -10.2695
  69   1.0000      -0.366067        -9.9612
  70   1.0000      -0.363517        -9.8918
  71   1.0000      -0.360743        -9.8163
  72   1.0000      -0.358667        -9.7598
  73   1.0000      -0.357641        -9.7319
  74   1.0000      -0.353381        -9.6160
  75   1.0000      -0.352298        -9.5865
  76   1.0000      -0.350869        -9.5476
  77   1.0000      -0.348531        -9.4840
  78   1.0000      -0.347754        -9.4629
  79   1.0000      -0.347067        -9.4442
  80   1.0000      -0.344452        -9.3730
  81   1.0000      -0.343770        -9.3545
  82   1.0000      -0.343639        -9.3509
  83   1.0000      -0.343051        -9.3349
  84   1.0000      -0.337146        -9.1742
  85   1.0000      -0.332848        -9.0572
  86   1.0000      -0.332514        -9.0482
  87   1.0000      -0.329826        -8.9750
  88   1.0000      -0.326742        -8.8911
  89   1.0000      -0.323513        -8.8032
  90   1.0000      -0.321617        -8.7516
  91   1.0000      -0.318358        -8.6630
  92   1.0000      -0.316181        -8.6037
  93   1.0000      -0.313968        -8.5435
  94   1.0000      -0.310943        -8.4612
  95   1.0000      -0.309734        -8.4283
  96   1.0000      -0.307375        -8.3641
  97   1.0000      -0.305561        -8.3147
  98   1.0000      -0.302740        -8.2380
  99   1.0000      -0.301483        -8.2038
 100   1.0000      -0.300037        -8.1644
 101   1.0000      -0.298238        -8.1155
 102   1.0000      -0.295132        -8.0309
 103   1.0000      -0.292964        -7.9720
 104   1.0000      -0.289410        -7.8752
 105   1.0000      -0.287421        -7.8211
 106   1.0000      -0.284471        -7.7409
 107   1.0000      -0.283206        -7.7064
 108   1.0000      -0.280366        -7.6291
 109   1.0000      -0.278909        -7.5895
 110   1.0000      -0.278632        -7.5820
 111   1.0000      -0.275272        -7.4905
 112   1.0000      -0.274684        -7.4745
 113   1.0000      -0.272829        -7.4241
 114   1.0000      -0.267944        -7.2911
 115   1.0000      -0.267535        -7.2800
 116   1.0000      -0.266885        -7.2623
 117   1.0000      -0.266288        -7.2461
 118   1.0000      -0.265457        -7.2234
 119   1.0000      -0.263521        -7.1708
 120   1.0000      -0.260961        -7.1011
 121   1.0000      -0.260526        -7.0893
 122   1.0000      -0.257692        -7.0121
 123   1.0000      -0.257212        -6.9991
 124   1.0000      -0.256434        -6.9779
 125   1.0000      -0.255888        -6.9631
 126   1.0000      -0.253204        -6.8900
 127   1.0000      -0.251227        -6.8362
 128   1.0000      -0.250425        -6.8144
 129   1.0000      -0.250366        -6.8128
 130   1.0000      -0.245849        -6.6899
 131   1.0000      -0.245748        -6.6871
 132   1.0000      -0.244144        -6.6435
 133   1.0000      -0.243719        -6.6319
 134   1.0000      -0.243005        -6.6125
 135   1.0000      -0.241187        -6.5630
 136   1.0000      -0.240892        -6.5550
 137   1.0000      -0.239467        -6.5162
 138   1.0000      -0.232344        -6.3224
 139   1.0000      -0.222875        -6.0647
 140   1.0000      -0.209267        -5.6944
 141   1.0000      -0.208848        -5.6830
 142   1.0000      -0.197901        -5.3852
 143   1.0000      -0.194252        -5.2859
 144   1.0000      -0.174061        -4.7364
 145   0.0000      -0.152309        -4.1445
 146   0.0000      -0.152204        -4.1417
 147   0.0000      -0.148855        -4.0506
 148   0.0000      -0.145528        -3.9600
 149   0.0000      -0.136212        -3.7065

MULLIKEN ATOMIC CHARGES AND SPIN POPULATIONS
--------------------------------------------
   0 Au:    0.264876   -0.063791
   1 Au:    0.284858   -0.084990
   2 Au:    0.262548   -0.063511
   3 Au:   -0.089647   -0.105325
   4 Au:    0.262814   -0.088624
   5 Au:    0.268596   -0.089188
   6 Au:    0.252823    0.008517
   7 Au:    0.180088    0.042497
   8 Au:    0.153228   -0.100479
   9 Au:    0.040518   -0.087487
  10 Au:    0.344444   -0.052315
  11 Au:    0.187943    0.042732
  12 Au:   -0.105858   -0.103647
  13 Au:    0.148894   -0.100647
  14 Fe:   -2.456127    2.846260
Sum of atomic charges         :   -0.0000000

LOEWDIN ATOMIC CHARGES AND SPIN POPULATIONS
-------------------------------------------
   0 Au:    0.060349   -0.072394
   1 Au:    0.106951   -0.107250
   2 Au:    0.060282   -0.072035
   3 Au:   -0.010755   -0.099684
   4 Au:    0.082677   -0.090166
   5 Au:    0.082670   -0.090106
   6 Au:    0.038656   -0.012527
   7 Au:   -0.012645    0.005978
   8 Au:    0.077273   -0.091514
   9 Au:    0.017859   -0.064006
  10 Au:    0.067595   -0.035392
  11 Au:   -0.010014    0.006447
  12 Au:   -0.013395   -0.099000
  13 Au:    0.076644   -0.091527
  14 Fe:   -0.624147    2.913178

  Mayer bond orders larger than 0.100000
B(  0-Au,  1-Au) :   0.2213 B(  0-Au,  5-Au) :   0.1780 B(  0-Au,  6-Au) :   0.2447
B(  0-Au, 13-Au) :   0.2648 B(  0-Au, 14-Fe) :   0.4164 B(  1-Au,  2-Au) :   0.2196
B(  1-Au,  9-Au) :   0.2684 B(  1-Au, 14-Fe) :   0.5277 B(  2-Au,  4-Au) :   0.1800
B(  2-Au,  6-Au) :   0.2433 B(  2-Au,  8-Au) :   0.2645 B(  2-Au, 14-Fe) :   0.4188
B(  3-Au,  4-Au) :   0.3188 B(  3-Au,  7-Au) :   0.2784 B(  3-Au,  8-Au) :   0.1867
B(  3-Au, 10-Au) :   0.3390 B(  3-Au, 12-Au) :   0.2566 B(  3-Au, 14-Fe) :   0.4174
B(  4-Au,  6-Au) :   0.2455 B(  4-Au, 14-Fe) :   0.5246 B(  5-Au,  6-Au) :   0.2441
B(  5-Au, 12-Au) :   0.3219 B(  5-Au, 14-Fe) :   0.5243 B(  6-Au, 14-Fe) :   0.2632
B(  7-Au,  8-Au) :   0.3554 B(  7-Au,  9-Au) :   0.2835 B(  7-Au, 10-Au) :   0.2218
B(  7-Au, 11-Au) :   0.2294 B(  7-Au, 14-Fe) :   0.1090 B(  8-Au,  9-Au) :   0.1727
B(  8-Au, 14-Fe) :   0.5620 B(  9-Au, 11-Au) :   0.2837 B(  9-Au, 13-Au) :   0.1748
B(  9-Au, 14-Fe) :   0.4587 B( 10-Au, 11-Au) :   0.2181 B( 10-Au, 12-Au) :   0.3488
B( 11-Au, 12-Au) :   0.2806 B( 11-Au, 13-Au) :   0.3545 B( 11-Au, 14-Fe) :   0.1060
B( 12-Au, 13-Au) :   0.1914 B( 12-Au, 14-Fe) :   0.4169 B( 13-Au, 14-Fe) :   0.5602

FINAL SINGLE POINT ENERGY     -3165.060410822055

DIPOLE MOMENT
-------------
                                X             Y             Z
Electronic contribution:     22.57568     -10.66385      -1.17187
Nuclear contribution   :    -22.85850      10.80819       1.16784
                        -----------------------------------------
Total Dipole Moment    :     -0.28282       0.14434      -0.00403
                        -----------------------------------------
Magnitude (a.u.)       :      0.31755
Magnitude (Debye)      :      0.80715

Rotational constants in cm-1:     0.001368     0.000879     0.000879
Rotational constants in MHz :    41.014798    26.356590    26.340709

                             ****ORCA TERMINATED NORMALLY****
TOTAL RUN TIME: 0 days 0 hours 10 minutes 57 seconds 389 msec
