                         Program Version 5.0.3 -  RELEASE  -
|  1> !R2SCAN def2-TZVP VERYSLOWCONV
|  2>
|  3> %scf
|  4>   AutoTRAHIter 200
|  5>   maxiter 400
|  6> end
|  7>
|  8> %pal nprocs 6 end
|  9>
| 10> *xyzfile 0 5 pbe.xyz
| 11>
| 12> $new_job
| 13>
| 14> !R2SCAN def2-TZVP VERYSLOWCONV
| 15>
| 16> %scf
| 17>   AutoTRAHIter 200
| 18>   maxiter 400
| 19> end
| 20>
| 21>
| 22> %pal nprocs 6 end
| 23>
| 24> *xyzfile 0 3 pbe.xyz
| 25>
| 26>
| 27>
| 28>
| 29>
| 30>                          ****END OF INPUT****
 Total Charge           Charge          ....    0
 Multiplicity           Mult            ....    5
 Number of Electrons    NEL             ....  292
FINAL SINGLE POINT ENERGY     -3165.553346399922

CARTESIAN COORDINATES (ANGSTROEM)
---------------------------------
  Au     4.640727    7.342586    5.916960
  Au     6.266442    9.607293    5.773482
  Au     5.953980    9.884465    8.532732
  Au     8.861896    6.757327    9.333998
  Au     6.345916    7.497728   10.012192
  Au     5.336401    5.522484    7.977943
  Au     3.985990    7.907525    8.564409
  Au    10.697463    7.757989    7.448589
  Au     8.650563    9.421772    8.259063
  Au     8.761671    8.474263    5.580897
  Au    10.668465    5.016784    8.047842
  Au     9.735458    5.866052    5.532473
  Au     7.922767    4.907160    7.462670
  Au     7.035945    6.272128    5.095006
  Fe     6.891541    7.585634    7.426178

 Multiplicity           Mult            ....    3
 Number of Electrons    NEL             ....  292
 Basis Dimension        Dim             ....  605

ORBITAL ENERGIES
----------------
                 SPIN UP ORBITALS
  NO   OCC          E(Eh)            E(eV)
   0   1.0000    -255.630230     -6956.0522
   1   1.0000     -29.926499      -814.3414
   2   1.0000     -25.762542      -701.0344
   3   1.0000     -25.761299      -701.0006
   4   1.0000     -25.747396      -700.6223
   5   1.0000      -4.122238      -112.1718
   6   1.0000      -4.122186      -112.1704
   7   1.0000      -4.121730      -112.1580
   8   1.0000      -4.119203      -112.0892
   9   1.0000      -4.118876      -112.0803
  10   1.0000      -4.117116      -112.0324
  11   1.0000      -4.117090      -112.0317
  12   1.0000      -4.116519      -112.0162
  13   1.0000      -4.116301      -112.0102
  14   1.0000      -4.113394      -111.9311
  15   1.0000      -4.108764      -111.8052
  16   1.0000      -4.108589      -111.8004
  17   1.0000      -4.107883      -111.7812
  18   1.0000      -4.104825      -111.6980
  19   1.0000      -3.505518       -95.3900
  20   1.0000      -2.310925       -62.8835
  21   1.0000      -2.310878       -62.8822
  22   1.0000      -2.310466       -62.8710
  23   1.0000      -2.310324       -62.8671
  24   1.0000      -2.309674       -62.8494
  25   1.0000      -2.309081       -62.8333
  26   1.0000      -2.308615       -62.8206
  27   1.0000      -2.307641       -62.7941
  28   1.0000      -2.307147       -62.7807
  29   1.0000      -2.307027       -62.7774
  30   1.0000      -2.306348       -62.7589
  31   1.0000      -2.304581       -62.7108
  32   1.0000      -2.304404       -62.7060
  33   1.0000      -2.304352       -62.7046
  34   1.0000      -2.303852       -62.6910
  35   1.0000      -2.303708       -62.6871
  36   1.0000      -2.303350       -62.6773
  37   1.0000      -2.302784       -62.6619
  38   1.0000      -2.302522       -62.6548
  39   1.0000      -2.302371       -62.6507
  40   1.0000      -2.302229       -62.6468
  41   1.0000      -2.301299       -62.6215
  42   1.0000      -2.301095       -62.6160
  43   1.0000      -2.300500       -62.5998
  44   1.0000      -2.300243       -62.5928
  45   1.0000      -2.300229       -62.5924
  46   1.0000      -2.299724       -62.5787
  47   1.0000      -2.298859       -62.5551
  48   1.0000      -2.297940       -62.5301
  49   1.0000      -2.297429       -62.5162
  50   1.0000      -2.296568       -62.4928
  51   1.0000      -2.296118       -62.4806
  52   1.0000      -2.294818       -62.4452
  53   1.0000      -2.294247       -62.4296
  54   1.0000      -2.293975       -62.4222
  55   1.0000      -2.293829       -62.4183
  56   1.0000      -2.292699       -62.3875
  57   1.0000      -2.291869       -62.3649
  58   1.0000      -2.291029       -62.3421
  59   1.0000      -2.290927       -62.3393
  60   1.0000      -2.289645       -62.3044
  61   1.0000      -2.289552       -62.3019
  62   1.0000      -2.281756       -62.0897
  63   1.0000      -2.279248       -62.0215
  64   1.0000      -2.250754       -61.2461
  65   1.0000      -0.433228       -11.7887
  66   1.0000      -0.393268       -10.7014
  67   1.0000      -0.384602       -10.4655
  68   1.0000      -0.382813       -10.4169
  69   1.0000      -0.381704       -10.3867
  70   1.0000      -0.380227       -10.3465
  71   1.0000      -0.376678       -10.2499
  72   1.0000      -0.375506       -10.2181
  73   1.0000      -0.368414       -10.0251
  74   1.0000      -0.365075        -9.9342
  75   1.0000      -0.364982        -9.9317
  76   1.0000      -0.362766        -9.8714
  77   1.0000      -0.360756        -9.8167
  78   1.0000      -0.360666        -9.8142
  79   1.0000      -0.356080        -9.6894
  80   1.0000      -0.354234        -9.6392
  81   1.0000      -0.353925        -9.6308
  82   1.0000      -0.351973        -9.5777
  83   1.0000      -0.351534        -9.5657
  84   1.0000      -0.344544        -9.3755
  85   1.0000      -0.341354        -9.2887
  86   1.0000      -0.340565        -9.2672
  87   1.0000      -0.337460        -9.1828
  88   1.0000      -0.335366        -9.1258
  89   1.0000      -0.333770        -9.0824
  90   1.0000      -0.330953        -9.0057
  91   1.0000      -0.329587        -8.9685
  92   1.0000      -0.327232        -8.9044
  93   1.0000      -0.326670        -8.8891
  94   1.0000      -0.324409        -8.8276
  95   1.0000      -0.321885        -8.7589
  96   1.0000      -0.319961        -8.7066
  97   1.0000      -0.318150        -8.6573
  98   1.0000      -0.314244        -8.5510
  99   1.0000      -0.314028        -8.5451
 100   1.0000      -0.310270        -8.4429
 101   1.0000      -0.308551        -8.3961
 102   1.0000      -0.304870        -8.2959
 103   1.0000      -0.301905        -8.2152
 104   1.0000      -0.300974        -8.1899
 105   1.0000      -0.298221        -8.1150
 106   1.0000      -0.296846        -8.0776
 107   1.0000      -0.293294        -7.9809
 108   1.0000      -0.290679        -7.9098
 109   1.0000      -0.288015        -7.8373
 110   1.0000      -0.287193        -7.8149
 111   1.0000      -0.286009        -7.7827
 112   1.0000      -0.282524        -7.6879
 113   1.0000      -0.282331        -7.6826
 114   1.0000      -0.278238        -7.5712
 115   1.0000      -0.276220        -7.5163
 116   1.0000      -0.276057        -7.5119
 117   1.0000      -0.275127        -7.4866
 118   1.0000      -0.273803        -7.4505
 119   1.0000      -0.273611        -7.4453
 120   1.0000      -0.269642        -7.3373
 121   1.0000      -0.269357        -7.3296
 122   1.0000      -0.268660        -7.3106
 123   1.0000      -0.266157        -7.2425
 124   1.0000      -0.264453        -7.1961
 125   1.0000      -0.263072        -7.1586
 126   1.0000      -0.262981        -7.1561
 127   1.0000      -0.262860        -7.1528
 128   1.0000      -0.261943        -7.1278
 129   1.0000      -0.260494        -7.0884
 130   1.0000      -0.258540        -7.0352
 131   1.0000      -0.257523        -7.0076
 132   1.0000      -0.256804        -6.9880
 133   1.0000      -0.256047        -6.9674
 134   1.0000      -0.251490        -6.8434
 135   1.0000      -0.250310        -6.8113
 136   1.0000      -0.249074        -6.7777
 137   1.0000      -0.247292        -6.7292
 138   1.0000      -0.247017        -6.7217
 139   1.0000      -0.246125        -6.6974
 140   1.0000      -0.245301        -6.6750
 141   1.0000      -0.244949        -6.6654
 142   1.0000      -0.242716        -6.6046
 143   1.0000      -0.236552        -6.4369
 144   1.0000      -0.220257        -5.9935
 145   1.0000      -0.205062        -5.5800
 146   1.0000      -0.203306        -5.5322
 147   0.0000      -0.177670        -4.8346
 148   0.0000      -0.172251        -4.6872
 149   0.0000      -0.134437        -3.6582
 150   0.0000      -0.130519        -3.5516
 151   0.0000      -0.129112        -3.5133

                 SPIN DOWN ORBITALS
  NO   OCC          E(Eh)            E(eV)
   0   1.0000    -255.629260     -6956.0258
   1   1.0000     -29.850470      -812.2726
   2   1.0000     -25.701805      -699.3817
   3   1.0000     -25.701294      -699.3678
   4   1.0000     -25.694137      -699.1730
   5   1.0000      -4.122483      -112.1785
   6   1.0000      -4.122420      -112.1768
   7   1.0000      -4.121939      -112.1637
   8   1.0000      -4.119340      -112.0929
   9   1.0000      -4.119018      -112.0842
  10   1.0000      -4.117621      -112.0462
  11   1.0000      -4.117593      -112.0454
  12   1.0000      -4.117505      -112.0430
  13   1.0000      -4.117278      -112.0368
  14   1.0000      -4.114002      -111.9477
  15   1.0000      -4.108985      -111.8112
  16   1.0000      -4.108807      -111.8063
  17   1.0000      -4.108187      -111.7894
  18   1.0000      -4.105039      -111.7038
  19   1.0000      -3.336798       -90.7989
  20   1.0000      -2.310879       -62.8822
  21   1.0000      -2.310823       -62.8807
  22   1.0000      -2.310202       -62.8638
  23   1.0000      -2.309804       -62.8530
  24   1.0000      -2.309517       -62.8452
  25   1.0000      -2.309192       -62.8363
  26   1.0000      -2.308887       -62.8280
  27   1.0000      -2.307090       -62.7791
  28   1.0000      -2.307055       -62.7782
  29   1.0000      -2.306585       -62.7654
  30   1.0000      -2.306512       -62.7634
  31   1.0000      -2.305115       -62.7254
  32   1.0000      -2.304754       -62.7155
  33   1.0000      -2.304731       -62.7149
  34   1.0000      -2.304612       -62.7117
  35   1.0000      -2.304480       -62.7081
  36   1.0000      -2.304107       -62.6979
  37   1.0000      -2.303311       -62.6763
  38   1.0000      -2.303197       -62.6732
  39   1.0000      -2.302791       -62.6621
  40   1.0000      -2.302479       -62.6536
  41   1.0000      -2.301839       -62.6362
  42   1.0000      -2.301299       -62.6215
  43   1.0000      -2.301053       -62.6148
  44   1.0000      -2.300958       -62.6123
  45   1.0000      -2.300860       -62.6096
  46   1.0000      -2.300364       -62.5961
  47   1.0000      -2.299725       -62.5787
  48   1.0000      -2.298460       -62.5443
  49   1.0000      -2.297832       -62.5272
  50   1.0000      -2.297263       -62.5117
  51   1.0000      -2.297040       -62.5056
  52   1.0000      -2.295166       -62.4546
  53   1.0000      -2.294681       -62.4415
  54   1.0000      -2.294359       -62.4327
  55   1.0000      -2.294283       -62.4306
  56   1.0000      -2.292859       -62.3919
  57   1.0000      -2.292033       -62.3694
  58   1.0000      -2.291254       -62.3482
  59   1.0000      -2.291105       -62.3441
  60   1.0000      -2.289813       -62.3090
  61   1.0000      -2.289712       -62.3062
  62   1.0000      -2.109963       -57.4150
  63   1.0000      -2.109818       -57.4111
  64   1.0000      -2.094742       -57.0008
  65   1.0000      -0.431233       -11.7344
  66   1.0000      -0.393138       -10.6978
  67   1.0000      -0.385234       -10.4828
  68   1.0000      -0.384334       -10.4582
  69   1.0000      -0.374637       -10.1944
  70   1.0000      -0.372447       -10.1348
  71   1.0000      -0.369625       -10.0580
  72   1.0000      -0.367755       -10.0071
  73   1.0000      -0.366235        -9.9658
  74   1.0000      -0.362593        -9.8666
  75   1.0000      -0.361711        -9.8427
  76   1.0000      -0.360494        -9.8095
  77   1.0000      -0.358354        -9.7513
  78   1.0000      -0.357218        -9.7204
  79   1.0000      -0.356396        -9.6980
  80   1.0000      -0.353903        -9.6302
  81   1.0000      -0.353610        -9.6222
  82   1.0000      -0.353393        -9.6163
  83   1.0000      -0.352768        -9.5993
  84   1.0000      -0.347087        -9.4447
  85   1.0000      -0.342448        -9.3185
  86   1.0000      -0.342082        -9.3085
  87   1.0000      -0.339429        -9.2363
  88   1.0000      -0.335940        -9.1414
  89   1.0000      -0.332752        -9.0546
  90   1.0000      -0.330794        -9.0014
  91   1.0000      -0.327587        -8.9141
  92   1.0000      -0.325969        -8.8701
  93   1.0000      -0.323351        -8.7988
  94   1.0000      -0.320519        -8.7218
  95   1.0000      -0.319242        -8.6870
  96   1.0000      -0.316410        -8.6100
  97   1.0000      -0.314891        -8.5686
  98   1.0000      -0.311775        -8.4838
  99   1.0000      -0.310377        -8.4458
 100   1.0000      -0.309274        -8.4158
 101   1.0000      -0.307117        -8.3571
 102   1.0000      -0.304249        -8.2790
 103   1.0000      -0.301907        -8.2153
 104   1.0000      -0.298384        -8.1195
 105   1.0000      -0.296354        -8.0642
 106   1.0000      -0.293554        -7.9880
 107   1.0000      -0.291980        -7.9452
 108   1.0000      -0.289131        -7.8677
 109   1.0000      -0.287910        -7.8344
 110   1.0000      -0.287353        -7.8193
 111   1.0000      -0.283993        -7.7278
 112   1.0000      -0.283646        -7.7184
 113   1.0000      -0.281556        -7.6615
 114   1.0000      -0.276455        -7.5227
 115   1.0000      -0.276220        -7.5163
 116   1.0000      -0.275717        -7.5026
 117   1.0000      -0.274293        -7.4639
 118   1.0000      -0.273800        -7.4505
 119   1.0000      -0.271392        -7.3849
 120   1.0000      -0.269207        -7.3255
 121   1.0000      -0.268792        -7.3142
 122   1.0000      -0.266406        -7.2493
 123   1.0000      -0.265871        -7.2347
 124   1.0000      -0.264381        -7.1942
 125   1.0000      -0.264043        -7.1850
 126   1.0000      -0.261530        -7.1166
 127   1.0000      -0.259379        -7.0581
 128   1.0000      -0.258411        -7.0317
 129   1.0000      -0.258280        -7.0282
 130   1.0000      -0.253630        -6.9016
 131   1.0000      -0.253197        -6.8898
 132   1.0000      -0.251444        -6.8421
 133   1.0000      -0.251057        -6.8316
 134   1.0000      -0.249716        -6.7951
 135   1.0000      -0.248324        -6.7572
 136   1.0000      -0.248121        -6.7517
 137   1.0000      -0.246838        -6.7168
 138   1.0000      -0.239415        -6.5148
 139   1.0000      -0.225563        -6.1379
 140   1.0000      -0.211355        -5.7513
 141   1.0000      -0.210999        -5.7416
 142   1.0000      -0.199289        -5.4229
 143   1.0000      -0.195073        -5.3082
 144   1.0000      -0.180042        -4.8992
 145   0.0000      -0.145725        -3.9654
 146   0.0000      -0.145029        -3.9464
 147   0.0000      -0.138260        -3.7622
 148   0.0000      -0.135831        -3.6961
 149   0.0000      -0.133345        -3.6285

MULLIKEN ATOMIC CHARGES AND SPIN POPULATIONS
--------------------------------------------
   0 Au:    0.237475   -0.082897
   1 Au:    0.245396   -0.110060
   2 Au:    0.235151   -0.082985
   3 Au:   -0.083635   -0.128035
   4 Au:    0.242582   -0.105105
   5 Au:    0.248401   -0.105980
   6 Au:    0.219611    0.014069
   7 Au:    0.164346    0.045910
   8 Au:    0.134964   -0.124164
   9 Au:    0.040702   -0.111977
  10 Au:    0.308870   -0.051168
  11 Au:    0.171381    0.046279
  12 Au:   -0.098609   -0.125828
  13 Au:    0.131058   -0.124519
  14 Fe:   -2.197694    3.046457
Sum of atomic charges         :    0.0000000

LOEWDIN ATOMIC CHARGES AND SPIN POPULATIONS
-------------------------------------------
   0 Au:    0.052601   -0.086875
   1 Au:    0.097712   -0.128465
   2 Au:    0.052576   -0.086608
   3 Au:   -0.015492   -0.116021
   4 Au:    0.076282   -0.105200
   5 Au:    0.076276   -0.105162
   6 Au:    0.033535   -0.010037
   7 Au:   -0.014979    0.006178
   8 Au:    0.070979   -0.109917
   9 Au:    0.012332   -0.080733
  10 Au:    0.066764   -0.032780
  11 Au:   -0.012314    0.006646
  12 Au:   -0.018041   -0.115126
  13 Au:    0.070396   -0.109980
  14 Fe:   -0.548628    3.074079

  Mayer bond orders larger than 0.100000
B(  0-Au,  1-Au) :   0.2097 B(  0-Au,  5-Au) :   0.1650 B(  0-Au,  6-Au) :   0.2303
B(  0-Au, 13-Au) :   0.2618 B(  0-Au, 14-Fe) :   0.4043 B(  1-Au,  2-Au) :   0.2082
B(  1-Au,  9-Au) :   0.2622 B(  1-Au, 14-Fe) :   0.5185 B(  2-Au,  4-Au) :   0.1670
B(  2-Au,  6-Au) :   0.2287 B(  2-Au,  8-Au) :   0.2615 B(  2-Au, 14-Fe) :   0.4067
B(  3-Au,  4-Au) :   0.3242 B(  3-Au,  7-Au) :   0.2580 B(  3-Au,  8-Au) :   0.1705
B(  3-Au, 10-Au) :   0.3353 B(  3-Au, 12-Au) :   0.2369 B(  3-Au, 14-Fe) :   0.4040
B(  4-Au,  6-Au) :   0.2350 B(  4-Au, 14-Fe) :   0.5192 B(  5-Au,  6-Au) :   0.2337
B(  5-Au, 12-Au) :   0.3272 B(  5-Au, 14-Fe) :   0.5190 B(  6-Au, 14-Fe) :   0.2424
B(  7-Au,  8-Au) :   0.3562 B(  7-Au,  9-Au) :   0.2730 B(  7-Au, 10-Au) :   0.2058
B(  7-Au, 11-Au) :   0.2062 B(  7-Au, 14-Fe) :   0.1003 B(  8-Au,  9-Au) :   0.1589
B(  8-Au, 14-Fe) :   0.5553 B(  9-Au, 11-Au) :   0.2737 B(  9-Au, 13-Au) :   0.1610
B(  9-Au, 14-Fe) :   0.4473 B( 10-Au, 11-Au) :   0.2021 B( 10-Au, 12-Au) :   0.3454
B( 11-Au, 12-Au) :   0.2599 B( 11-Au, 13-Au) :   0.3551 B( 12-Au, 13-Au) :   0.1746
B( 12-Au, 14-Fe) :   0.4033 B( 13-Au, 14-Fe) :   0.5535

FINAL SINGLE POINT ENERGY     -3165.553178335132

DIPOLE MOMENT
-------------
                                X             Y             Z
Electronic contribution:     22.58775     -10.67496      -1.16730
Nuclear contribution   :    -22.85850      10.80819       1.16784
                        -----------------------------------------
Total Dipole Moment    :     -0.27075       0.13323       0.00053
                        -----------------------------------------
Magnitude (a.u.)       :      0.30175
Magnitude (Debye)      :      0.76700

Rotational constants in cm-1:     0.001368     0.000879     0.000879
Rotational constants in MHz :    41.014798    26.356590    26.340709

                             ****ORCA TERMINATED NORMALLY****
TOTAL RUN TIME: 0 days 0 hours 21 minutes 22 seconds 518 msec
