                         Program Version 5.0.3 -  RELEASE  -
|  1> %pal nprocs 1 end
|  2>
|  3> !PBE def2-TZVP OPT UNO
|  4> !SLOWCONV
|  5>
|  6> *xyzfile 0 6 2.xyz                           ****END OF INPUT****
 Total Charge           Charge          ....    0
 Multiplicity           Mult            ....    6
 Number of Electrons    NEL             ....  311
FINAL SINGLE POINT ENERGY     -3300.917745056862
FINAL SINGLE POINT ENERGY     -3300.920501973982
FINAL SINGLE POINT ENERGY     -3300.920864756566
FINAL SINGLE POINT ENERGY     -3300.921182694166
FINAL SINGLE POINT ENERGY     -3300.921585246427
FINAL SINGLE POINT ENERGY     -3300.921934830591
FINAL SINGLE POINT ENERGY     -3300.922252765146
FINAL SINGLE POINT ENERGY     -3300.922554630487
FINAL SINGLE POINT ENERGY     -3300.922789024658
FINAL SINGLE POINT ENERGY     -3300.922950135592
FINAL SINGLE POINT ENERGY     -3300.923065003910
FINAL SINGLE POINT ENERGY     -3300.923138140507
FINAL SINGLE POINT ENERGY     -3300.923155503546
FINAL SINGLE POINT ENERGY     -3300.923171776871
FINAL SINGLE POINT ENERGY     -3300.923180285864
FINAL SINGLE POINT ENERGY     -3300.923186591946
                    ***********************HURRAY********************

CARTESIAN COORDINATES (ANGSTROEM)
---------------------------------
  Au     5.213353    5.778699    8.812649
  Au     5.255967    8.729741    8.882869
  Au     7.059081   10.821343    8.091273
  Au     8.178022   10.229749    5.613009
  Au     5.520819    9.618982    6.158427
  Au     7.378810    7.553562    5.259156
  Au     4.869853    7.025329    6.437047
  Au     6.936596    5.131896    6.511335
  Au     6.748647    6.987114   10.735555
  Au     7.881974    9.386745   10.209373
  Au     7.934054    4.968375    9.104080
  Au     9.520838    7.160273    9.747513
  Au     9.523830    6.161510    7.085638
  Au     9.477243    9.201899    7.887660
  Au    10.089472    8.203186    5.357389
  Fe     7.349879    7.460323    8.007837

 Multiplicity           Mult            ....    6
 Number of Electrons    NEL             ....  311
 Basis Dimension        Dim             ....  645

ORBITAL ENERGIES
----------------
                 SPIN UP ORBITALS
  NO   OCC          E(Eh)            E(eV)
   0   1.0000    -254.788365     -6933.1439
   1   1.0000     -29.629811      -806.2681
   2   1.0000     -25.568423      -695.7522
   3   1.0000     -25.562447      -695.5895
   4   1.0000     -25.562387      -695.5879
   5   1.0000      -4.039516      -109.9208
   6   1.0000      -4.039493      -109.9202
   7   1.0000      -4.035653      -109.8157
   8   1.0000      -4.034742      -109.7909
   9   1.0000      -4.034293      -109.7787
  10   1.0000      -4.031315      -109.6977
  11   1.0000      -4.031285      -109.6968
  12   1.0000      -4.030601      -109.6782
  13   1.0000      -4.030408      -109.6730
  14   1.0000      -4.029929      -109.6599
  15   1.0000      -4.029759      -109.6553
  16   1.0000      -4.025527      -109.5402
  17   1.0000      -4.024443      -109.5107
  18   1.0000      -4.024248      -109.5054
  19   1.0000      -4.023451      -109.4837
  20   1.0000      -3.410497       -92.8043
  21   1.0000      -2.255383       -61.3721
  22   1.0000      -2.255351       -61.3712
  23   1.0000      -2.252002       -61.2801
  24   1.0000      -2.251595       -61.2690
  25   1.0000      -2.251486       -61.2661
  26   1.0000      -2.251382       -61.2632
  27   1.0000      -2.250482       -61.2387
  28   1.0000      -2.250439       -61.2376
  29   1.0000      -2.249147       -61.2024
  30   1.0000      -2.248222       -61.1772
  31   1.0000      -2.248183       -61.1762
  32   1.0000      -2.247950       -61.1698
  33   1.0000      -2.247544       -61.1588
  34   1.0000      -2.247479       -61.1570
  35   1.0000      -2.246837       -61.1395
  36   1.0000      -2.245853       -61.1128
  37   1.0000      -2.245669       -61.1077
  38   1.0000      -2.245502       -61.1032
  39   1.0000      -2.245141       -61.0934
  40   1.0000      -2.244445       -61.0745
  41   1.0000      -2.244197       -61.0677
  42   1.0000      -2.244101       -61.0651
  43   1.0000      -2.243517       -61.0492
  44   1.0000      -2.242996       -61.0350
  45   1.0000      -2.242761       -61.0286
  46   1.0000      -2.242625       -61.0249
  47   1.0000      -2.242350       -61.0174
  48   1.0000      -2.242306       -61.0163
  49   1.0000      -2.241796       -61.0024
  50   1.0000      -2.241330       -60.9897
  51   1.0000      -2.240648       -60.9711
  52   1.0000      -2.240376       -60.9637
  53   1.0000      -2.240215       -60.9593
  54   1.0000      -2.239898       -60.9507
  55   1.0000      -2.239665       -60.9444
  56   1.0000      -2.239169       -60.9309
  57   1.0000      -2.237565       -60.8872
  58   1.0000      -2.237471       -60.8847
  59   1.0000      -2.237045       -60.8731
  60   1.0000      -2.236602       -60.8610
  61   1.0000      -2.236232       -60.8510
  62   1.0000      -2.235567       -60.8329
  63   1.0000      -2.234846       -60.8132
  64   1.0000      -2.234642       -60.8077
  65   1.0000      -2.234226       -60.7964
  66   1.0000      -2.231604       -60.7250
  67   1.0000      -2.219546       -60.3969
  68   1.0000      -2.219512       -60.3960
  69   1.0000      -0.445326       -12.1179
  70   1.0000      -0.397949       -10.8287
  71   1.0000      -0.395680       -10.7670
  72   1.0000      -0.391538       -10.6543
  73   1.0000      -0.385561       -10.4916
  74   1.0000      -0.384205       -10.4547
  75   1.0000      -0.381969       -10.3939
  76   1.0000      -0.379965       -10.3394
  77   1.0000      -0.379293       -10.3211
  78   1.0000      -0.371408       -10.1065
  79   1.0000      -0.364200        -9.9104
  80   1.0000      -0.362999        -9.8777
  81   1.0000      -0.361377        -9.8336
  82   1.0000      -0.357106        -9.7174
  83   1.0000      -0.356131        -9.6908
  84   1.0000      -0.353637        -9.6230
  85   1.0000      -0.353602        -9.6220
  86   1.0000      -0.352572        -9.5940
  87   1.0000      -0.350823        -9.5464
  88   1.0000      -0.350027        -9.5247
  89   1.0000      -0.348701        -9.4886
  90   1.0000      -0.346902        -9.4397
  91   1.0000      -0.346181        -9.4201
  92   1.0000      -0.345606        -9.4044
  93   1.0000      -0.342395        -9.3170
  94   1.0000      -0.338853        -9.2207
  95   1.0000      -0.338500        -9.2111
  96   1.0000      -0.333696        -9.0803
  97   1.0000      -0.331714        -9.0264
  98   1.0000      -0.329691        -8.9714
  99   1.0000      -0.325559        -8.8589
 100   1.0000      -0.325272        -8.8511
 101   1.0000      -0.323906        -8.8139
 102   1.0000      -0.320886        -8.7318
 103   1.0000      -0.318685        -8.6719
 104   1.0000      -0.316032        -8.5997
 105   1.0000      -0.314476        -8.5573
 106   1.0000      -0.312719        -8.5095
 107   1.0000      -0.308601        -8.3975
 108   1.0000      -0.307495        -8.3674
 109   1.0000      -0.301001        -8.1907
 110   1.0000      -0.300153        -8.1676
 111   1.0000      -0.297881        -8.1057
 112   1.0000      -0.293056        -7.9745
 113   1.0000      -0.290855        -7.9146
 114   1.0000      -0.288182        -7.8418
 115   1.0000      -0.286796        -7.8041
 116   1.0000      -0.285969        -7.7816
 117   1.0000      -0.283017        -7.7013
 118   1.0000      -0.281341        -7.6557
 119   1.0000      -0.279471        -7.6048
 120   1.0000      -0.278496        -7.5783
 121   1.0000      -0.276498        -7.5239
 122   1.0000      -0.275097        -7.4858
 123   1.0000      -0.274444        -7.4680
 124   1.0000      -0.274405        -7.4669
 125   1.0000      -0.272831        -7.4241
 126   1.0000      -0.272175        -7.4062
 127   1.0000      -0.271864        -7.3978
 128   1.0000      -0.271465        -7.3869
 129   1.0000      -0.271308        -7.3827
 130   1.0000      -0.269124        -7.3232
 131   1.0000      -0.268455        -7.3050
 132   1.0000      -0.265351        -7.2206
 133   1.0000      -0.265091        -7.2135
 134   1.0000      -0.263891        -7.1808
 135   1.0000      -0.261634        -7.1194
 136   1.0000      -0.260631        -7.0921
 137   1.0000      -0.259473        -7.0606
 138   1.0000      -0.259235        -7.0541
 139   1.0000      -0.256799        -6.9879
 140   1.0000      -0.256263        -6.9733
 141   1.0000      -0.254893        -6.9360
 142   1.0000      -0.254597        -6.9279
 143   1.0000      -0.254106        -6.9146
 144   1.0000      -0.250568        -6.8183
 145   1.0000      -0.248973        -6.7749
 146   1.0000      -0.247423        -6.7327
 147   1.0000      -0.246253        -6.7009
 148   1.0000      -0.245644        -6.6843
 149   1.0000      -0.244900        -6.6641
 150   1.0000      -0.241654        -6.5757
 151   1.0000      -0.241506        -6.5717
 152   1.0000      -0.238154        -6.4805
 153   1.0000      -0.220936        -6.0120
 154   1.0000      -0.216540        -5.8924
 155   1.0000      -0.208251        -5.6668
 156   1.0000      -0.200650        -5.4600
 157   1.0000      -0.196926        -5.3586
 158   0.0000      -0.156028        -4.2457
 159   0.0000      -0.137809        -3.7500
 160   0.0000      -0.133576        -3.6348
 161   0.0000      -0.127669        -3.4741
 162   0.0000      -0.118024        -3.2116

                 SPIN DOWN ORBITALS
  NO   OCC          E(Eh)            E(eV)
   0   1.0000    -254.787612     -6933.1234
   1   1.0000     -29.565864      -804.5281
   2   1.0000     -25.518414      -694.3913
   3   1.0000     -25.515114      -694.3015
   4   1.0000     -25.514841      -694.2941
   5   1.0000      -4.038144      -109.8835
   6   1.0000      -4.038123      -109.8829
   7   1.0000      -4.034382      -109.7811
   8   1.0000      -4.033836      -109.7662
   9   1.0000      -4.033374      -109.7537
  10   1.0000      -4.030602      -109.6783
  11   1.0000      -4.030574      -109.6775
  12   1.0000      -4.030082      -109.6641
  13   1.0000      -4.029891      -109.6589
  14   1.0000      -4.029253      -109.6415
  15   1.0000      -4.029082      -109.6369
  16   1.0000      -4.025163      -109.5302
  17   1.0000      -4.024030      -109.4994
  18   1.0000      -4.023836      -109.4942
  19   1.0000      -4.023040      -109.4725
  20   1.0000      -3.266765       -88.8932
  21   1.0000      -2.253778       -61.3284
  22   1.0000      -2.253745       -61.3275
  23   1.0000      -2.250242       -61.2322
  24   1.0000      -2.250007       -61.2258
  25   1.0000      -2.249998       -61.2255
  26   1.0000      -2.249791       -61.2199
  27   1.0000      -2.249276       -61.2059
  28   1.0000      -2.249243       -61.2050
  29   1.0000      -2.247789       -61.1655
  30   1.0000      -2.247495       -61.1574
  31   1.0000      -2.247392       -61.1546
  32   1.0000      -2.246892       -61.1410
  33   1.0000      -2.246690       -61.1355
  34   1.0000      -2.246371       -61.1269
  35   1.0000      -2.245887       -61.1137
  36   1.0000      -2.244955       -61.0883
  37   1.0000      -2.244695       -61.0813
  38   1.0000      -2.244482       -61.0755
  39   1.0000      -2.244375       -61.0725
  40   1.0000      -2.243888       -61.0593
  41   1.0000      -2.243474       -61.0480
  42   1.0000      -2.243255       -61.0421
  43   1.0000      -2.242775       -61.0290
  44   1.0000      -2.242244       -61.0146
  45   1.0000      -2.242131       -61.0115
  46   1.0000      -2.241858       -61.0040
  47   1.0000      -2.241757       -61.0013
  48   1.0000      -2.241581       -60.9965
  49   1.0000      -2.241135       -60.9844
  50   1.0000      -2.240756       -60.9741
  51   1.0000      -2.240137       -60.9572
  52   1.0000      -2.239855       -60.9496
  53   1.0000      -2.239684       -60.9449
  54   1.0000      -2.239469       -60.9390
  55   1.0000      -2.239194       -60.9316
  56   1.0000      -2.238700       -60.9181
  57   1.0000      -2.237169       -60.8765
  58   1.0000      -2.237022       -60.8725
  59   1.0000      -2.236629       -60.8618
  60   1.0000      -2.236169       -60.8492
  61   1.0000      -2.235844       -60.8404
  62   1.0000      -2.235168       -60.8220
  63   1.0000      -2.234443       -60.8023
  64   1.0000      -2.234118       -60.7934
  65   1.0000      -2.233777       -60.7842
  66   1.0000      -2.085964       -56.7620
  67   1.0000      -2.081540       -56.6416
  68   1.0000      -2.081314       -56.6354
  69   1.0000      -0.440040       -11.9741
  70   1.0000      -0.395807       -10.7705
  71   1.0000      -0.393754       -10.7146
  72   1.0000      -0.388776       -10.5791
  73   1.0000      -0.374759       -10.1977
  74   1.0000      -0.373662       -10.1679
  75   1.0000      -0.369973       -10.0675
  76   1.0000      -0.369967       -10.0673
  77   1.0000      -0.369255       -10.0479
  78   1.0000      -0.366326        -9.9682
  79   1.0000      -0.360980        -9.8228
  80   1.0000      -0.359999        -9.7961
  81   1.0000      -0.358532        -9.7562
  82   1.0000      -0.355672        -9.6783
  83   1.0000      -0.353575        -9.6213
  84   1.0000      -0.351334        -9.5603
  85   1.0000      -0.351255        -9.5581
  86   1.0000      -0.350188        -9.5291
  87   1.0000      -0.348721        -9.4892
  88   1.0000      -0.347052        -9.4438
  89   1.0000      -0.346367        -9.4251
  90   1.0000      -0.345023        -9.3885
  91   1.0000      -0.344535        -9.3753
  92   1.0000      -0.344289        -9.3686
  93   1.0000      -0.340117        -9.2551
  94   1.0000      -0.336067        -9.1448
  95   1.0000      -0.332533        -9.0487
  96   1.0000      -0.328203        -8.9309
  97   1.0000      -0.327861        -8.9215
  98   1.0000      -0.325396        -8.8545
  99   1.0000      -0.323730        -8.8091
 100   1.0000      -0.321930        -8.7602
 101   1.0000      -0.317557        -8.6412
 102   1.0000      -0.314187        -8.5495
 103   1.0000      -0.313036        -8.5181
 104   1.0000      -0.307190        -8.3591
 105   1.0000      -0.305606        -8.3160
 106   1.0000      -0.303124        -8.2484
 107   1.0000      -0.299498        -8.1498
 108   1.0000      -0.298392        -8.1197
 109   1.0000      -0.294700        -8.0192
 110   1.0000      -0.291956        -7.9445
 111   1.0000      -0.288712        -7.8563
 112   1.0000      -0.286569        -7.7979
 113   1.0000      -0.283332        -7.7098
 114   1.0000      -0.282323        -7.6824
 115   1.0000      -0.281084        -7.6487
 116   1.0000      -0.279391        -7.6026
 117   1.0000      -0.279370        -7.6020
 118   1.0000      -0.277410        -7.5487
 119   1.0000      -0.277346        -7.5470
 120   1.0000      -0.274893        -7.4802
 121   1.0000      -0.273493        -7.4421
 122   1.0000      -0.272618        -7.4183
 123   1.0000      -0.271828        -7.3968
 124   1.0000      -0.271733        -7.3942
 125   1.0000      -0.270110        -7.3501
 126   1.0000      -0.269897        -7.3443
 127   1.0000      -0.268033        -7.2935
 128   1.0000      -0.267294        -7.2734
 129   1.0000      -0.262938        -7.1549
 130   1.0000      -0.262892        -7.1537
 131   1.0000      -0.260477        -7.0879
 132   1.0000      -0.258268        -7.0278
 133   1.0000      -0.258131        -7.0241
 134   1.0000      -0.255790        -6.9604
 135   1.0000      -0.255370        -6.9490
 136   1.0000      -0.253911        -6.9093
 137   1.0000      -0.253493        -6.8979
 138   1.0000      -0.252586        -6.8732
 139   1.0000      -0.248757        -6.7690
 140   1.0000      -0.247100        -6.7239
 141   1.0000      -0.246247        -6.7007
 142   1.0000      -0.245478        -6.6798
 143   1.0000      -0.245377        -6.6771
 144   1.0000      -0.244240        -6.6461
 145   1.0000      -0.240776        -6.5518
 146   1.0000      -0.240698        -6.5497
 147   1.0000      -0.237301        -6.4573
 148   1.0000      -0.224074        -6.0974
 149   1.0000      -0.220184        -5.9915
 150   1.0000      -0.215484        -5.8636
 151   1.0000      -0.212831        -5.7914
 152   1.0000      -0.207890        -5.6570
 153   0.0000      -0.181564        -4.9406
 154   0.0000      -0.179219        -4.8768
 155   0.0000      -0.178332        -4.8526
 156   0.0000      -0.171803        -4.6750
 157   0.0000      -0.169447        -4.6109

MULLIKEN ATOMIC CHARGES AND SPIN POPULATIONS
--------------------------------------------
   0 Au:    0.257857    0.113338
   1 Au:    0.150426    0.159307
   2 Au:    0.137308    0.090895
   3 Au:    0.197486    0.091862
   4 Au:    0.140801    0.090161
   5 Au:   -0.176051    0.177584
   6 Au:    0.206522    0.108019
   7 Au:    0.300263    0.105551
   8 Au:    0.256684    0.114121
   9 Au:    0.208535    0.107524
  10 Au:    0.326047    0.083015
  11 Au:    0.299513    0.105870
  12 Au:    0.079721    0.138249
  13 Au:   -0.176717    0.177563
  14 Au:    0.391577    0.079682
  15 Fe:   -2.599973    3.257259
Sum of atomic charges         :   -0.0000000

LOEWDIN ATOMIC CHARGES AND SPIN POPULATIONS
-------------------------------------------
   0 Au:    0.047750    0.091799
   1 Au:    0.054936    0.118475
   2 Au:    0.009509    0.095501
   3 Au:    0.010873    0.092524
   4 Au:    0.010266    0.095257
   5 Au:   -0.014277    0.130672
   6 Au:    0.032074    0.102257
   7 Au:    0.064867    0.094684
   8 Au:    0.047485    0.092125
   9 Au:    0.032503    0.102287
  10 Au:    0.060244    0.079427
  11 Au:    0.064622    0.094875
  12 Au:    0.018204    0.111282
  13 Au:   -0.014560    0.130661
  14 Au:    0.089722    0.096394
  15 Fe:   -0.514218    3.471782

  Mayer bond orders larger than 0.100000
B(  0-Au,  1-Au) :   0.1459 B(  0-Au,  6-Au) :   0.3009 B(  0-Au,  7-Au) :   0.1303
B(  0-Au,  8-Au) :   0.2456 B(  0-Au, 10-Au) :   0.1874 B(  0-Au, 15-Fe) :   0.4282
B(  1-Au,  2-Au) :   0.2113 B(  1-Au,  4-Au) :   0.2090 B(  1-Au,  6-Au) :   0.1005
B(  1-Au,  8-Au) :   0.1467 B(  1-Au, 15-Fe) :   0.5942 B(  2-Au,  3-Au) :   0.2659
B(  2-Au,  4-Au) :   0.2503 B(  2-Au,  9-Au) :   0.3310 B(  2-Au, 13-Au) :   0.2020
B(  2-Au, 15-Fe) :   0.2760 B(  3-Au,  4-Au) :   0.2670 B(  3-Au,  5-Au) :   0.2932
B(  3-Au, 13-Au) :   0.2939 B(  3-Au, 14-Au) :   0.2413 B(  3-Au, 15-Fe) :   0.1338
B(  4-Au,  5-Au) :   0.2015 B(  4-Au,  6-Au) :   0.3307 B(  4-Au, 15-Fe) :   0.2740
B(  5-Au,  6-Au) :   0.2151 B(  5-Au,  7-Au) :   0.2651 B(  5-Au, 12-Au) :   0.1314
B(  5-Au, 14-Au) :   0.2775 B(  5-Au, 15-Fe) :   0.4947 B(  6-Au,  7-Au) :   0.1720
B(  6-Au, 15-Fe) :   0.3955 B(  7-Au, 10-Au) :   0.2099 B(  7-Au, 12-Au) :   0.1507
B(  7-Au, 15-Fe) :   0.4615 B(  8-Au,  9-Au) :   0.3008 B(  8-Au, 10-Au) :   0.1872
B(  8-Au, 11-Au) :   0.1295 B(  8-Au, 15-Fe) :   0.4298 B(  9-Au, 11-Au) :   0.1728
B(  9-Au, 13-Au) :   0.2154 B(  9-Au, 15-Fe) :   0.3935 B( 10-Au, 11-Au) :   0.2107
B( 10-Au, 12-Au) :   0.1928 B( 10-Au, 15-Fe) :   0.4356 B( 11-Au, 12-Au) :   0.1504
B( 11-Au, 13-Au) :   0.2647 B( 11-Au, 15-Fe) :   0.4618 B( 12-Au, 13-Au) :   0.1316
B( 12-Au, 14-Au) :   0.3287 B( 12-Au, 15-Fe) :   0.5233 B( 13-Au, 14-Au) :   0.2779
B( 13-Au, 15-Fe) :   0.4944 B( 14-Au, 15-Fe) :   0.1102

FINAL SINGLE POINT ENERGY     -3300.923190657849

DIPOLE MOMENT
-------------
                                X             Y             Z
Electronic contribution:      3.57513      12.73816     -10.80718
Nuclear contribution   :     -3.41612     -12.87961      10.76689
                        -----------------------------------------
Total Dipole Moment    :      0.15901      -0.14144      -0.04029
                        -----------------------------------------
Magnitude (a.u.)       :      0.21659
Magnitude (Debye)      :      0.55054

Rotational constants in cm-1:     0.001057     0.000911     0.000894
Rotational constants in MHz :    31.690719    27.302828    26.810163

                             ****ORCA TERMINATED NORMALLY****
TOTAL RUN TIME: 0 days 3 hours 16 minutes 30 seconds 117 msec
