                         Program Version 5.0.3 -  RELEASE  -
|  1> !RI-B2PLYP def2-TZVP def2-TZVP/C
|  2> !RIJCOSX
|  3> %pal nprocs 16 end
|  4>
|  5> *xyzfile 0 5 pbe.xyz
|  6>
|  7> $new_job
|  8>
|  9> !RI-B2PLYP def2-TZVP def2-TZVP/C
| 10> !RIJCOSX
| 11> %pal nprocs 16 end
| 12>
| 13> *xyzfile 0 3 pbe.xyz
| 14>
| 15>
| 16>
| 17>
| 18>
| 19>                          ****END OF INPUT****
 Total Charge           Charge          ....    0
 Multiplicity           Mult            ....    5
 Number of Electrons    NEL             ....  292
MP2 TOTAL ENERGY:    -3161.757321470 Eh
FINAL SINGLE POINT ENERGY     -3161.757321470002

CARTESIAN COORDINATES (ANGSTROEM)
---------------------------------
  Au     5.363638    7.787579    7.358004
  Au     9.435636    7.204740    9.722100
  Au     9.969017    9.549850    8.399644
  Au     6.752671    6.366778    9.443693
  Au     7.920673   11.415708    8.522004
  Au     5.325143   10.289193    8.469801
  Au     7.372687    9.012968    9.801413
  Au    10.814738    7.205170    7.259268
  Au     9.523106   11.157768    6.205496
  Au     6.993696    9.883674    6.218313
  Au     9.090036    5.863297    5.584176
  Au     6.816282    7.435537    4.943594
  Au     9.385445    8.619782    5.194517
  Au     6.685882    5.364454    6.880328
  Fe     8.096661    7.693351    7.422886

 Multiplicity           Mult            ....    3
 Number of Electrons    NEL             ....  292
 Basis Dimension        Dim             ....  605

ORBITAL ENERGIES
----------------
                 SPIN UP ORBITALS
  NO   OCC          E(Eh)            E(eV)
   0   1.0000    -258.343613     -7029.8871
   1   1.0000     -30.901787      -840.8804
   2   1.0000     -26.611075      -724.1242
   3   1.0000     -26.608569      -724.0560
   4   1.0000     -26.580647      -723.2962
   5   1.0000      -4.406441      -119.9054
   6   1.0000      -4.406402      -119.9043
   7   1.0000      -4.405623      -119.8831
   8   1.0000      -4.405599      -119.8825
   9   1.0000      -4.405468      -119.8789
  10   1.0000      -4.402158      -119.7888
  11   1.0000      -4.398327      -119.6846
  12   1.0000      -4.397604      -119.6649
  13   1.0000      -4.397518      -119.6625
  14   1.0000      -4.394833      -119.5895
  15   1.0000      -4.394663      -119.5849
  16   1.0000      -4.389150      -119.4348
  17   1.0000      -4.389105      -119.4336
  18   1.0000      -4.386636      -119.3664
  19   1.0000      -3.914481      -106.5184
  20   1.0000      -2.646271       -72.0087
  21   1.0000      -2.641420       -71.8767
  22   1.0000      -2.582225       -70.2659
  23   1.0000      -2.527175       -68.7679
  24   1.0000      -2.527070       -68.7651
  25   1.0000      -2.526938       -68.7615
  26   1.0000      -2.526226       -68.7421
  27   1.0000      -2.525650       -68.7264
  28   1.0000      -2.525585       -68.7247
  29   1.0000      -2.524080       -68.6837
  30   1.0000      -2.523623       -68.6713
  31   1.0000      -2.522973       -68.6536
  32   1.0000      -2.522634       -68.6444
  33   1.0000      -2.522230       -68.6334
  34   1.0000      -2.521407       -68.6110
  35   1.0000      -2.521154       -68.6041
  36   1.0000      -2.521039       -68.6010
  37   1.0000      -2.520935       -68.5981
  38   1.0000      -2.520681       -68.5912
  39   1.0000      -2.518941       -68.5439
  40   1.0000      -2.517465       -68.5037
  41   1.0000      -2.517393       -68.5017
  42   1.0000      -2.517219       -68.4970
  43   1.0000      -2.516307       -68.4722
  44   1.0000      -2.515454       -68.4490
  45   1.0000      -2.514922       -68.4345
  46   1.0000      -2.514767       -68.4303
  47   1.0000      -2.514233       -68.4158
  48   1.0000      -2.513168       -68.3868
  49   1.0000      -2.512584       -68.3709
  50   1.0000      -2.512029       -68.3558
  51   1.0000      -2.511463       -68.3404
  52   1.0000      -2.511393       -68.3385
  53   1.0000      -2.509211       -68.2791
  54   1.0000      -2.508866       -68.2697
  55   1.0000      -2.508628       -68.2632
  56   1.0000      -2.508268       -68.2535
  57   1.0000      -2.506970       -68.2181
  58   1.0000      -2.506793       -68.2133
  59   1.0000      -2.506718       -68.2113
  60   1.0000      -2.504519       -68.1514
  61   1.0000      -2.504275       -68.1448
  62   1.0000      -2.503480       -68.1232
  63   1.0000      -2.503379       -68.1204
  64   1.0000      -2.501465       -68.0683
  65   1.0000      -0.567236       -15.4353
  66   1.0000      -0.565551       -15.3894
  67   1.0000      -0.542790       -14.7701
  68   1.0000      -0.542311       -14.7570
  69   1.0000      -0.522918       -14.2293
  70   1.0000      -0.495760       -13.4903
  71   1.0000      -0.475015       -12.9258
  72   1.0000      -0.471984       -12.8433
  73   1.0000      -0.466575       -12.6962
  74   1.0000      -0.465057       -12.6548
  75   1.0000      -0.463704       -12.6180
  76   1.0000      -0.461334       -12.5535
  77   1.0000      -0.460970       -12.5436
  78   1.0000      -0.457920       -12.4606
  79   1.0000      -0.455623       -12.3981
  80   1.0000      -0.453648       -12.3444
  81   1.0000      -0.452995       -12.3266
  82   1.0000      -0.452542       -12.3143
  83   1.0000      -0.449139       -12.2217
  84   1.0000      -0.447268       -12.1708
  85   1.0000      -0.445868       -12.1327
  86   1.0000      -0.442832       -12.0501
  87   1.0000      -0.442003       -12.0275
  88   1.0000      -0.439341       -11.9551
  89   1.0000      -0.438462       -11.9312
  90   1.0000      -0.436867       -11.8878
  91   1.0000      -0.430705       -11.7201
  92   1.0000      -0.427897       -11.6437
  93   1.0000      -0.427344       -11.6286
  94   1.0000      -0.426469       -11.6048
  95   1.0000      -0.422425       -11.4948
  96   1.0000      -0.416342       -11.3292
  97   1.0000      -0.416055       -11.3214
  98   1.0000      -0.414788       -11.2870
  99   1.0000      -0.410239       -11.1632
 100   1.0000      -0.406967       -11.0741
 101   1.0000      -0.401651       -10.9295
 102   1.0000      -0.399967       -10.8837
 103   1.0000      -0.396421       -10.7872
 104   1.0000      -0.393197       -10.6994
 105   1.0000      -0.389837       -10.6080
 106   1.0000      -0.387853       -10.5540
 107   1.0000      -0.387101       -10.5335
 108   1.0000      -0.380784       -10.3617
 109   1.0000      -0.380163       -10.3448
 110   1.0000      -0.377498       -10.2722
 111   1.0000      -0.375572       -10.2198
 112   1.0000      -0.375467       -10.2170
 113   1.0000      -0.374060       -10.1787
 114   1.0000      -0.371796       -10.1171
 115   1.0000      -0.370666       -10.0863
 116   1.0000      -0.369440       -10.0530
 117   1.0000      -0.367968       -10.0129
 118   1.0000      -0.367560       -10.0018
 119   1.0000      -0.364812        -9.9270
 120   1.0000      -0.363960        -9.9039
 121   1.0000      -0.363681        -9.8963
 122   1.0000      -0.363504        -9.8914
 123   1.0000      -0.360662        -9.8141
 124   1.0000      -0.359882        -9.7929
 125   1.0000      -0.358813        -9.7638
 126   1.0000      -0.355510        -9.6739
 127   1.0000      -0.354661        -9.6508
 128   1.0000      -0.352948        -9.6042
 129   1.0000      -0.352343        -9.5877
 130   1.0000      -0.348102        -9.4723
 131   1.0000      -0.346642        -9.4326
 132   1.0000      -0.345123        -9.3913
 133   1.0000      -0.343598        -9.3498
 134   1.0000      -0.343490        -9.3468
 135   1.0000      -0.341096        -9.2817
 136   1.0000      -0.331059        -9.0086
 137   1.0000      -0.330274        -8.9872
 138   1.0000      -0.328320        -8.9340
 139   1.0000      -0.328077        -8.9274
 140   1.0000      -0.320700        -8.7267
 141   1.0000      -0.311841        -8.4856
 142   1.0000      -0.310793        -8.4571
 143   1.0000      -0.303817        -8.2673
 144   1.0000      -0.241307        -6.5663
 145   1.0000      -0.225784        -6.1439
 146   1.0000      -0.211310        -5.7500
 147   0.0000      -0.133523        -3.6334
 148   0.0000      -0.102833        -2.7982
 149   0.0000      -0.086900        -2.3647
 150   0.0000      -0.067378        -1.8335
 151   0.0000      -0.066795        -1.8176

                 SPIN DOWN ORBITALS
  NO   OCC          E(Eh)            E(eV)
   0   1.0000    -258.341651     -7029.8337
   1   1.0000     -30.809216      -838.3614
   2   1.0000     -26.518581      -721.6073
   3   1.0000     -26.517771      -721.5852
   4   1.0000     -26.510391      -721.3844
   5   1.0000      -4.407061      -119.9222
   6   1.0000      -4.406913      -119.9182
   7   1.0000      -4.406677      -119.9118
   8   1.0000      -4.406653      -119.9111
   9   1.0000      -4.406173      -119.8981
  10   1.0000      -4.402826      -119.8070
  11   1.0000      -4.398374      -119.6858
  12   1.0000      -4.397713      -119.6679
  13   1.0000      -4.397619      -119.6653
  14   1.0000      -4.395126      -119.5975
  15   1.0000      -4.394958      -119.5929
  16   1.0000      -4.390405      -119.4690
  17   1.0000      -4.390352      -119.4676
  18   1.0000      -4.386980      -119.3758
  19   1.0000      -3.670646       -99.8833
  20   1.0000      -2.528467       -68.8031
  21   1.0000      -2.527627       -68.7802
  22   1.0000      -2.526157       -68.7402
  23   1.0000      -2.525914       -68.7336
  24   1.0000      -2.525542       -68.7235
  25   1.0000      -2.525419       -68.7201
  26   1.0000      -2.524359       -68.6913
  27   1.0000      -2.523729       -68.6742
  28   1.0000      -2.522977       -68.6537
  29   1.0000      -2.522481       -68.6402
  30   1.0000      -2.522355       -68.6368
  31   1.0000      -2.522055       -68.6286
  32   1.0000      -2.521557       -68.6151
  33   1.0000      -2.521425       -68.6115
  34   1.0000      -2.521294       -68.6079
  35   1.0000      -2.521171       -68.6046
  36   1.0000      -2.519556       -68.5606
  37   1.0000      -2.517204       -68.4966
  38   1.0000      -2.516959       -68.4899
  39   1.0000      -2.516833       -68.4865
  40   1.0000      -2.516354       -68.4735
  41   1.0000      -2.515269       -68.4440
  42   1.0000      -2.514742       -68.4296
  43   1.0000      -2.514681       -68.4280
  44   1.0000      -2.514599       -68.4257
  45   1.0000      -2.512942       -68.3806
  46   1.0000      -2.512507       -68.3688
  47   1.0000      -2.512276       -68.3625
  48   1.0000      -2.511346       -68.3372
  49   1.0000      -2.511270       -68.3351
  50   1.0000      -2.509453       -68.2857
  51   1.0000      -2.509319       -68.2820
  52   1.0000      -2.509312       -68.2818
  53   1.0000      -2.509035       -68.2743
  54   1.0000      -2.508895       -68.2705
  55   1.0000      -2.507790       -68.2404
  56   1.0000      -2.507506       -68.2327
  57   1.0000      -2.506615       -68.2085
  58   1.0000      -2.506428       -68.2034
  59   1.0000      -2.503978       -68.1367
  60   1.0000      -2.503620       -68.1270
  61   1.0000      -2.502628       -68.1000
  62   1.0000      -2.352035       -64.0021
  63   1.0000      -2.341790       -63.7234
  64   1.0000      -2.341131       -63.7054
  65   1.0000      -0.518101       -14.0982
  66   1.0000      -0.480307       -13.0698
  67   1.0000      -0.478525       -13.0213
  68   1.0000      -0.477333       -12.9889
  69   1.0000      -0.471634       -12.8338
  70   1.0000      -0.470160       -12.7937
  71   1.0000      -0.467817       -12.7300
  72   1.0000      -0.464061       -12.6277
  73   1.0000      -0.463616       -12.6156
  74   1.0000      -0.462645       -12.5892
  75   1.0000      -0.462520       -12.5858
  76   1.0000      -0.459803       -12.5119
  77   1.0000      -0.456780       -12.4296
  78   1.0000      -0.455359       -12.3909
  79   1.0000      -0.454983       -12.3807
  80   1.0000      -0.454529       -12.3684
  81   1.0000      -0.450723       -12.2648
  82   1.0000      -0.447388       -12.1741
  83   1.0000      -0.445650       -12.1268
  84   1.0000      -0.441282       -12.0079
  85   1.0000      -0.440125       -11.9764
  86   1.0000      -0.434874       -11.8335
  87   1.0000      -0.432296       -11.7634
  88   1.0000      -0.429970       -11.7001
  89   1.0000      -0.429871       -11.6974
  90   1.0000      -0.428606       -11.6630
  91   1.0000      -0.420007       -11.4290
  92   1.0000      -0.419794       -11.4232
  93   1.0000      -0.418532       -11.3888
  94   1.0000      -0.413040       -11.2394
  95   1.0000      -0.411693       -11.2027
  96   1.0000      -0.406904       -11.0724
  97   1.0000      -0.405121       -11.0239
  98   1.0000      -0.402127       -10.9424
  99   1.0000      -0.397203       -10.8085
 100   1.0000      -0.396294       -10.7837
 101   1.0000      -0.393420       -10.7055
 102   1.0000      -0.392182       -10.6718
 103   1.0000      -0.386652       -10.5213
 104   1.0000      -0.385546       -10.4912
 105   1.0000      -0.383891       -10.4462
 106   1.0000      -0.379598       -10.3294
 107   1.0000      -0.378935       -10.3114
 108   1.0000      -0.378445       -10.2980
 109   1.0000      -0.377473       -10.2716
 110   1.0000      -0.373623       -10.1668
 111   1.0000      -0.373307       -10.1582
 112   1.0000      -0.373007       -10.1500
 113   1.0000      -0.369589       -10.0570
 114   1.0000      -0.368943       -10.0394
 115   1.0000      -0.366402        -9.9703
 116   1.0000      -0.366380        -9.9697
 117   1.0000      -0.364937        -9.9304
 118   1.0000      -0.364679        -9.9234
 119   1.0000      -0.362287        -9.8583
 120   1.0000      -0.361731        -9.8432
 121   1.0000      -0.357638        -9.7318
 122   1.0000      -0.356989        -9.7142
 123   1.0000      -0.356410        -9.6984
 124   1.0000      -0.355615        -9.6768
 125   1.0000      -0.350467        -9.5367
 126   1.0000      -0.349624        -9.5138
 127   1.0000      -0.347905        -9.4670
 128   1.0000      -0.346933        -9.4405
 129   1.0000      -0.345005        -9.3881
 130   1.0000      -0.342239        -9.3128
 131   1.0000      -0.335404        -9.1268
 132   1.0000      -0.333288        -9.0692
 133   1.0000      -0.331087        -9.0093
 134   1.0000      -0.330827        -9.0023
 135   1.0000      -0.330502        -8.9934
 136   1.0000      -0.325354        -8.8533
 137   1.0000      -0.320485        -8.7208
 138   1.0000      -0.319994        -8.7075
 139   1.0000      -0.313585        -8.5331
 140   1.0000      -0.248902        -6.7730
 141   1.0000      -0.234588        -6.3835
 142   1.0000      -0.232611        -6.3297
 143   1.0000      -0.222541        -6.0556
 144   1.0000      -0.190384        -5.1806
 145   0.0000      -0.087503        -2.3811
 146   0.0000      -0.075742        -2.0611
 147   0.0000      -0.069033        -1.8785
 148   0.0000      -0.054924        -1.4946
 149   0.0000      -0.045201        -1.2300

MULLIKEN ATOMIC CHARGES AND SPIN POPULATIONS
--------------------------------------------
   0 Au:    0.071880   -0.177367
   1 Au:    0.274110   -0.231519
   2 Au:   -0.145211   -0.200041
   3 Au:    0.263939   -0.109915
   4 Au:    0.201162   -0.002938
   5 Au:    0.310034   -0.016933
   6 Au:   -0.144391   -0.199177
   7 Au:    0.263091   -0.107479
   8 Au:    0.310632   -0.019233
   9 Au:   -0.296832   -0.235982
  10 Au:    0.283705   -0.029168
  11 Au:    0.191028    0.023012
  12 Au:    0.071739   -0.180256
  13 Au:    0.284729   -0.029476
  14 Fe:   -1.939614    3.516474
Sum of atomic charges         :    0.0000000

LOEWDIN ATOMIC CHARGES AND SPIN POPULATIONS
-------------------------------------------
   0 Au:   -0.010408   -0.097121
   1 Au:    0.079645   -0.236544
   2 Au:   -0.049460   -0.126314
   3 Au:    0.061782   -0.142594
   4 Au:   -0.012456   -0.064425
   5 Au:    0.090199   -0.082514
   6 Au:   -0.048942   -0.126118
   7 Au:    0.061711   -0.141878
   8 Au:    0.090393   -0.084130
   9 Au:   -0.073997   -0.148403
  10 Au:    0.041801   -0.060611
  11 Au:    0.048088   -0.052507
  12 Au:   -0.010455   -0.098283
  13 Au:    0.042029   -0.060707
  14 Fe:   -0.309931    3.522147

  Mayer bond orders larger than 0.100000
B(  0-Au,  3-Au) :   0.1797 B(  0-Au,  5-Au) :   0.2988 B(  0-Au,  6-Au) :   0.1338
B(  0-Au,  9-Au) :   0.1591 B(  0-Au, 11-Au) :   0.1135 B(  0-Au, 13-Au) :   0.1833
B(  0-Au, 14-Fe) :   0.4384 B(  1-Au,  2-Au) :   0.2187 B(  1-Au,  3-Au) :   0.1146
B(  1-Au,  6-Au) :   0.2204 B(  1-Au,  7-Au) :   0.1149 B(  1-Au, 14-Fe) :   0.4474
B(  2-Au,  4-Au) :   0.2678 B(  2-Au,  6-Au) :   0.2090 B(  2-Au,  7-Au) :   0.1547
B(  2-Au,  8-Au) :   0.2518 B(  2-Au, 12-Au) :   0.1351 B(  2-Au, 14-Fe) :   0.4190
B(  3-Au,  6-Au) :   0.1540 B(  3-Au, 13-Au) :   0.2219 B(  3-Au, 14-Fe) :   0.4324
B(  4-Au,  5-Au) :   0.2072 B(  4-Au,  6-Au) :   0.2671 B(  4-Au,  8-Au) :   0.2077
B(  4-Au,  9-Au) :   0.2219 B(  5-Au,  6-Au) :   0.2516 B(  5-Au,  9-Au) :   0.2819
B(  6-Au, 14-Fe) :   0.4185 B(  7-Au, 10-Au) :   0.2211 B(  7-Au, 12-Au) :   0.1792
B(  7-Au, 14-Fe) :   0.4331 B(  8-Au,  9-Au) :   0.2819 B(  8-Au, 12-Au) :   0.2992
B(  9-Au, 11-Au) :   0.2871 B(  9-Au, 12-Au) :   0.1585 B(  9-Au, 14-Fe) :   0.3335
B( 10-Au, 11-Au) :   0.1390 B( 10-Au, 12-Au) :   0.1843 B( 10-Au, 13-Au) :   0.2280
B( 10-Au, 14-Fe) :   0.3582 B( 11-Au, 12-Au) :   0.1141 B( 11-Au, 13-Au) :   0.1380
B( 11-Au, 14-Fe) :   0.4730 B( 12-Au, 14-Fe) :   0.4371 B( 13-Au, 14-Fe) :   0.3579

MP2 TOTAL ENERGY:    -3161.733775933 Eh
FINAL SINGLE POINT ENERGY     -3161.733775933076

DIPOLE MOMENT
-------------
                                X             Y             Z
Electronic contribution:     -5.18697      25.71265       0.21335
Nuclear contribution   :      5.19396     -25.76953      -0.22345
                        -----------------------------------------
Total Dipole Moment    :      0.00700      -0.05688      -0.01010
                        -----------------------------------------
Magnitude (a.u.)       :      0.05820
Magnitude (Debye)      :      0.14792

Rotational constants in cm-1:     0.001155     0.001045     0.000935
Rotational constants in MHz :    34.613255    31.321433    28.035191

                             ****ORCA TERMINATED NORMALLY****
TOTAL RUN TIME: 0 days 0 hours 34 minutes 24 seconds 401 msec
