                         Program Version 5.0.3 -  RELEASE  -
|  1> !R2SCAN def2-TZVP VERYSLOWCONV
|  2>
|  3> %pal nprocs 16 end
|  4>
|  5> %scf
|  6>   AutoTRAHIter 200
|  7>   maxiter 400
|  8> end
|  9>
| 10> *xyzfile 0 5 pbe.xyz
| 11>
| 12> $new_job
| 13>
| 14> !R2SCAN def2-TZVP VERYSLOWCONV
| 15>
| 16>
| 17> %pal nprocs 16 end
| 18>
| 19> %scf
| 20>   AutoTRAHIter 200
| 21>   maxiter 400
| 22> end
| 23>
| 24> *xyzfile 0 3 pbe.xyz
| 25>
| 26>
| 27>
| 28>
| 29>
| 30>                          ****END OF INPUT****
 Total Charge           Charge          ....    0
 Multiplicity           Mult            ....    5
 Number of Electrons    NEL             ....  292
FINAL SINGLE POINT ENERGY     -3165.573284510708

CARTESIAN COORDINATES (ANGSTROEM)
---------------------------------
  Au     5.363638    7.787579    7.358004
  Au     9.435636    7.204740    9.722100
  Au     9.969017    9.549850    8.399644
  Au     6.752671    6.366778    9.443693
  Au     7.920673   11.415708    8.522004
  Au     5.325143   10.289193    8.469801
  Au     7.372687    9.012968    9.801413
  Au    10.814738    7.205170    7.259268
  Au     9.523106   11.157768    6.205496
  Au     6.993696    9.883674    6.218313
  Au     9.090036    5.863297    5.584176
  Au     6.816282    7.435537    4.943594
  Au     9.385445    8.619782    5.194517
  Au     6.685882    5.364454    6.880328
  Fe     8.096661    7.693351    7.422886

 Multiplicity           Mult            ....    3
 Number of Electrons    NEL             ....  292
 Basis Dimension        Dim             ....  605

ORBITAL ENERGIES
----------------
                 SPIN UP ORBITALS
  NO   OCC          E(Eh)            E(eV)
   0   1.0000    -255.635348     -6956.1915
   1   1.0000     -29.930984      -814.4635
   2   1.0000     -25.771141      -701.2684
   3   1.0000     -25.763182      -701.0518
   4   1.0000     -25.749981      -700.6926
   5   1.0000      -4.125763      -112.2677
   6   1.0000      -4.125728      -112.2668
   7   1.0000      -4.125157      -112.2512
   8   1.0000      -4.125016      -112.2474
   9   1.0000      -4.124610      -112.2364
  10   1.0000      -4.121771      -112.1591
  11   1.0000      -4.117820      -112.0516
  12   1.0000      -4.117341      -112.0385
  13   1.0000      -4.117330      -112.0382
  14   1.0000      -4.114731      -111.9675
  15   1.0000      -4.114574      -111.9633
  16   1.0000      -4.111105      -111.8689
  17   1.0000      -4.111019      -111.8665
  18   1.0000      -4.107762      -111.7779
  19   1.0000      -3.511587       -95.5551
  20   1.0000      -2.315180       -62.9993
  21   1.0000      -2.314567       -62.9826
  22   1.0000      -2.314443       -62.9792
  23   1.0000      -2.314426       -62.9787
  24   1.0000      -2.313237       -62.9464
  25   1.0000      -2.313140       -62.9437
  26   1.0000      -2.311675       -62.9039
  27   1.0000      -2.310878       -62.8822
  28   1.0000      -2.310841       -62.8812
  29   1.0000      -2.309401       -62.8420
  30   1.0000      -2.309311       -62.8396
  31   1.0000      -2.309030       -62.8319
  32   1.0000      -2.309011       -62.8314
  33   1.0000      -2.308721       -62.8235
  34   1.0000      -2.308650       -62.8216
  35   1.0000      -2.307903       -62.8012
  36   1.0000      -2.307286       -62.7845
  37   1.0000      -2.305426       -62.7338
  38   1.0000      -2.305407       -62.7333
  39   1.0000      -2.304828       -62.7176
  40   1.0000      -2.304566       -62.7104
  41   1.0000      -2.303641       -62.6853
  42   1.0000      -2.303621       -62.6847
  43   1.0000      -2.303338       -62.6770
  44   1.0000      -2.302616       -62.6574
  45   1.0000      -2.301462       -62.6260
  46   1.0000      -2.301107       -62.6163
  47   1.0000      -2.301059       -62.6150
  48   1.0000      -2.299642       -62.5764
  49   1.0000      -2.299621       -62.5759
  50   1.0000      -2.298891       -62.5560
  51   1.0000      -2.298267       -62.5390
  52   1.0000      -2.297755       -62.5251
  53   1.0000      -2.297384       -62.5150
  54   1.0000      -2.297379       -62.5149
  55   1.0000      -2.297150       -62.5086
  56   1.0000      -2.297074       -62.5066
  57   1.0000      -2.296393       -62.4880
  58   1.0000      -2.295355       -62.4598
  59   1.0000      -2.294928       -62.4482
  60   1.0000      -2.294308       -62.4313
  61   1.0000      -2.292805       -62.3904
  62   1.0000      -2.290810       -62.3361
  63   1.0000      -2.280946       -62.0677
  64   1.0000      -2.252303       -61.2883
  65   1.0000      -0.441687       -12.0189
  66   1.0000      -0.399520       -10.8715
  67   1.0000      -0.394296       -10.7293
  68   1.0000      -0.393644       -10.7116
  69   1.0000      -0.393346       -10.7035
  70   1.0000      -0.388388       -10.5686
  71   1.0000      -0.380527       -10.3547
  72   1.0000      -0.379600       -10.3294
  73   1.0000      -0.373022       -10.1505
  74   1.0000      -0.371077       -10.0975
  75   1.0000      -0.368169       -10.0184
  76   1.0000      -0.365184        -9.9372
  77   1.0000      -0.363815        -9.8999
  78   1.0000      -0.362304        -9.8588
  79   1.0000      -0.358991        -9.7687
  80   1.0000      -0.358968        -9.7680
  81   1.0000      -0.356327        -9.6961
  82   1.0000      -0.354220        -9.6388
  83   1.0000      -0.351171        -9.5558
  84   1.0000      -0.346785        -9.4365
  85   1.0000      -0.346135        -9.4188
  86   1.0000      -0.344910        -9.3855
  87   1.0000      -0.340035        -9.2528
  88   1.0000      -0.337468        -9.1830
  89   1.0000      -0.337148        -9.1743
  90   1.0000      -0.336672        -9.1613
  91   1.0000      -0.336008        -9.1432
  92   1.0000      -0.327558        -8.9133
  93   1.0000      -0.327387        -8.9087
  94   1.0000      -0.326944        -8.8966
  95   1.0000      -0.325069        -8.8456
  96   1.0000      -0.320972        -8.7341
  97   1.0000      -0.320483        -8.7208
  98   1.0000      -0.316946        -8.6245
  99   1.0000      -0.315864        -8.5951
 100   1.0000      -0.313790        -8.5387
 101   1.0000      -0.306686        -8.3453
 102   1.0000      -0.305350        -8.3090
 103   1.0000      -0.303523        -8.2593
 104   1.0000      -0.300322        -8.1722
 105   1.0000      -0.297360        -8.0916
 106   1.0000      -0.295706        -8.0466
 107   1.0000      -0.295043        -8.0285
 108   1.0000      -0.291064        -7.9203
 109   1.0000      -0.289997        -7.8912
 110   1.0000      -0.288031        -7.8377
 111   1.0000      -0.286596        -7.7987
 112   1.0000      -0.285041        -7.7564
 113   1.0000      -0.283102        -7.7036
 114   1.0000      -0.281300        -7.6546
 115   1.0000      -0.281160        -7.6508
 116   1.0000      -0.280572        -7.6347
 117   1.0000      -0.279810        -7.6140
 118   1.0000      -0.277891        -7.5618
 119   1.0000      -0.277273        -7.5450
 120   1.0000      -0.276355        -7.5200
 121   1.0000      -0.275500        -7.4967
 122   1.0000      -0.272371        -7.4116
 123   1.0000      -0.269844        -7.3428
 124   1.0000      -0.268396        -7.3034
 125   1.0000      -0.268004        -7.2928
 126   1.0000      -0.266008        -7.2384
 127   1.0000      -0.265706        -7.2302
 128   1.0000      -0.264070        -7.1857
 129   1.0000      -0.262702        -7.1485
 130   1.0000      -0.262642        -7.1468
 131   1.0000      -0.261595        -7.1184
 132   1.0000      -0.260402        -7.0859
 133   1.0000      -0.258467        -7.0333
 134   1.0000      -0.257348        -7.0028
 135   1.0000      -0.254713        -6.9311
 136   1.0000      -0.253246        -6.8912
 137   1.0000      -0.252862        -6.8807
 138   1.0000      -0.250011        -6.8032
 139   1.0000      -0.249259        -6.7827
 140   1.0000      -0.247275        -6.7287
 141   1.0000      -0.246808        -6.7160
 142   1.0000      -0.245373        -6.6769
 143   1.0000      -0.235241        -6.4012
 144   1.0000      -0.218310        -5.9405
 145   1.0000      -0.206799        -5.6273
 146   1.0000      -0.197081        -5.3629
 147   0.0000      -0.193454        -5.2642
 148   0.0000      -0.166557        -4.5323
 149   0.0000      -0.142780        -3.8852
 150   0.0000      -0.129636        -3.5276
 151   0.0000      -0.126751        -3.4491

                 SPIN DOWN ORBITALS
  NO   OCC          E(Eh)            E(eV)
   0   1.0000    -255.634401     -6956.1657
   1   1.0000     -29.853988      -812.3683
   2   1.0000     -25.707152      -699.5272
   3   1.0000     -25.703371      -699.4243
   4   1.0000     -25.697612      -699.2676
   5   1.0000      -4.126100      -112.2769
   6   1.0000      -4.125960      -112.2731
   7   1.0000      -4.125645      -112.2645
   8   1.0000      -4.125604      -112.2634
   9   1.0000      -4.125033      -112.2479
  10   1.0000      -4.122204      -112.1709
  11   1.0000      -4.117901      -112.0538
  12   1.0000      -4.117383      -112.0397
  13   1.0000      -4.117365      -112.0392
  14   1.0000      -4.114958      -111.9737
  15   1.0000      -4.114798      -111.9694
  16   1.0000      -4.112517      -111.9073
  17   1.0000      -4.112433      -111.9050
  18   1.0000      -4.108332      -111.7934
  19   1.0000      -3.339610       -90.8754
  20   1.0000      -2.316445       -63.0337
  21   1.0000      -2.315862       -63.0178
  22   1.0000      -2.313868       -62.9636
  23   1.0000      -2.313844       -62.9629
  24   1.0000      -2.313338       -62.9491
  25   1.0000      -2.312902       -62.9373
  26   1.0000      -2.311741       -62.9057
  27   1.0000      -2.311288       -62.8933
  28   1.0000      -2.310662       -62.8763
  29   1.0000      -2.310037       -62.8593
  30   1.0000      -2.309581       -62.8469
  31   1.0000      -2.309416       -62.8424
  32   1.0000      -2.309260       -62.8382
  33   1.0000      -2.308992       -62.8309
  34   1.0000      -2.308974       -62.8304
  35   1.0000      -2.308521       -62.8180
  36   1.0000      -2.307647       -62.7943
  37   1.0000      -2.305319       -62.7309
  38   1.0000      -2.305113       -62.7253
  39   1.0000      -2.304635       -62.7123
  40   1.0000      -2.304547       -62.7099
  41   1.0000      -2.303623       -62.6848
  42   1.0000      -2.303596       -62.6840
  43   1.0000      -2.303276       -62.6753
  44   1.0000      -2.303048       -62.6691
  45   1.0000      -2.301772       -62.6344
  46   1.0000      -2.301112       -62.6164
  47   1.0000      -2.300858       -62.6095
  48   1.0000      -2.299712       -62.5784
  49   1.0000      -2.299667       -62.5771
  50   1.0000      -2.299476       -62.5719
  51   1.0000      -2.299092       -62.5615
  52   1.0000      -2.299031       -62.5598
  53   1.0000      -2.298538       -62.5464
  54   1.0000      -2.298421       -62.5432
  55   1.0000      -2.298113       -62.5348
  56   1.0000      -2.297581       -62.5204
  57   1.0000      -2.297015       -62.5050
  58   1.0000      -2.296708       -62.4966
  59   1.0000      -2.294941       -62.4485
  60   1.0000      -2.293567       -62.4111
  61   1.0000      -2.291857       -62.3646
  62   1.0000      -2.115358       -57.5618
  63   1.0000      -2.110884       -57.4401
  64   1.0000      -2.097118       -57.0655
  65   1.0000      -0.439672       -11.9641
  66   1.0000      -0.401311       -10.9202
  67   1.0000      -0.395463       -10.7611
  68   1.0000      -0.393119       -10.6973
  69   1.0000      -0.386252       -10.5105
  70   1.0000      -0.380308       -10.3487
  71   1.0000      -0.375754       -10.2248
  72   1.0000      -0.372092       -10.1251
  73   1.0000      -0.372018       -10.1231
  74   1.0000      -0.370171       -10.0729
  75   1.0000      -0.367817       -10.0088
  76   1.0000      -0.364046        -9.9062
  77   1.0000      -0.363141        -9.8816
  78   1.0000      -0.362655        -9.8683
  79   1.0000      -0.360457        -9.8085
  80   1.0000      -0.359388        -9.7794
  81   1.0000      -0.355669        -9.6782
  82   1.0000      -0.354406        -9.6439
  83   1.0000      -0.351301        -9.5594
  84   1.0000      -0.347986        -9.4692
  85   1.0000      -0.346368        -9.4252
  86   1.0000      -0.344715        -9.3802
  87   1.0000      -0.340436        -9.2637
  88   1.0000      -0.337935        -9.1957
  89   1.0000      -0.337561        -9.1855
  90   1.0000      -0.337014        -9.1706
  91   1.0000      -0.330593        -8.9959
  92   1.0000      -0.328840        -8.9482
  93   1.0000      -0.328080        -8.9275
  94   1.0000      -0.322705        -8.7812
  95   1.0000      -0.320084        -8.7099
  96   1.0000      -0.316626        -8.6158
  97   1.0000      -0.314937        -8.5699
  98   1.0000      -0.312794        -8.5116
  99   1.0000      -0.308025        -8.3818
 100   1.0000      -0.307122        -8.3572
 101   1.0000      -0.305459        -8.3120
 102   1.0000      -0.303540        -8.2597
 103   1.0000      -0.297722        -8.1014
 104   1.0000      -0.296703        -8.0737
 105   1.0000      -0.294629        -8.0173
 106   1.0000      -0.294118        -8.0034
 107   1.0000      -0.293045        -7.9742
 108   1.0000      -0.290565        -7.9067
 109   1.0000      -0.289357        -7.8738
 110   1.0000      -0.286736        -7.8025
 111   1.0000      -0.286676        -7.8009
 112   1.0000      -0.286203        -7.7880
 113   1.0000      -0.282673        -7.6919
 114   1.0000      -0.281508        -7.6602
 115   1.0000      -0.279836        -7.6147
 116   1.0000      -0.279200        -7.5974
 117   1.0000      -0.279036        -7.5930
 118   1.0000      -0.278548        -7.5797
 119   1.0000      -0.276054        -7.5118
 120   1.0000      -0.275728        -7.5029
 121   1.0000      -0.272351        -7.4111
 122   1.0000      -0.272054        -7.4030
 123   1.0000      -0.269707        -7.3391
 124   1.0000      -0.269196        -7.3252
 125   1.0000      -0.265586        -7.2270
 126   1.0000      -0.265059        -7.2126
 127   1.0000      -0.263563        -7.1719
 128   1.0000      -0.262791        -7.1509
 129   1.0000      -0.260883        -7.0990
 130   1.0000      -0.258095        -7.0231
 131   1.0000      -0.256972        -6.9926
 132   1.0000      -0.255110        -6.9419
 133   1.0000      -0.254665        -6.9298
 134   1.0000      -0.251224        -6.8362
 135   1.0000      -0.250248        -6.8096
 136   1.0000      -0.250010        -6.8031
 137   1.0000      -0.248803        -6.7703
 138   1.0000      -0.237697        -6.4681
 139   1.0000      -0.224486        -6.1086
 140   1.0000      -0.215084        -5.8527
 141   1.0000      -0.212669        -5.7870
 142   1.0000      -0.208016        -5.6604
 143   1.0000      -0.189839        -5.1658
 144   1.0000      -0.173259        -4.7146
 145   0.0000      -0.154270        -4.1979
 146   0.0000      -0.150585        -4.0976
 147   0.0000      -0.142878        -3.8879
 148   0.0000      -0.139684        -3.8010
 149   0.0000      -0.130442        -3.5495

MULLIKEN ATOMIC CHARGES AND SPIN POPULATIONS
--------------------------------------------
   0 Au:    0.086207   -0.103890
   1 Au:    0.309849   -0.127579
   2 Au:   -0.124681   -0.169266
   3 Au:    0.271028   -0.067530
   4 Au:    0.196100   -0.038396
   5 Au:    0.301803   -0.054354
   6 Au:   -0.122265   -0.171479
   7 Au:    0.272778   -0.070028
   8 Au:    0.302806   -0.054039
   9 Au:   -0.249543   -0.140747
  10 Au:    0.294695   -0.028470
  11 Au:    0.212693    0.038857
  12 Au:    0.083676   -0.103123
  13 Au:    0.294835   -0.029200
  14 Fe:   -2.129981    3.119243
Sum of atomic charges         :   -0.0000000

LOEWDIN ATOMIC CHARGES AND SPIN POPULATIONS
-------------------------------------------
   0 Au:    0.012202   -0.052047
   1 Au:    0.102347   -0.163513
   2 Au:   -0.025576   -0.103698
   3 Au:    0.077269   -0.096233
   4 Au:   -0.016248   -0.076080
   5 Au:    0.082397   -0.095762
   6 Au:   -0.025347   -0.104464
   7 Au:    0.077452   -0.096885
   8 Au:    0.082683   -0.095420
   9 Au:   -0.043843   -0.108227
  10 Au:    0.054538   -0.049128
  11 Au:    0.061209   -0.023906
  12 Au:    0.011755   -0.051814
  13 Au:    0.054537   -0.049038
  14 Fe:   -0.505377    3.166214

  Mayer bond orders larger than 0.100000
B(  0-Au,  3-Au) :   0.1845 B(  0-Au,  5-Au) :   0.3347 B(  0-Au,  6-Au) :   0.1204
B(  0-Au,  9-Au) :   0.1697 B(  0-Au, 11-Au) :   0.1381 B(  0-Au, 13-Au) :   0.1974
B(  0-Au, 14-Fe) :   0.4677 B(  1-Au,  2-Au) :   0.2437 B(  1-Au,  3-Au) :   0.1316
B(  1-Au,  6-Au) :   0.2426 B(  1-Au,  7-Au) :   0.1328 B(  1-Au, 14-Fe) :   0.4647
B(  2-Au,  4-Au) :   0.2789 B(  2-Au,  6-Au) :   0.2142 B(  2-Au,  7-Au) :   0.1746
B(  2-Au,  8-Au) :   0.2663 B(  2-Au, 12-Au) :   0.1205 B(  2-Au, 14-Fe) :   0.4496
B(  3-Au,  6-Au) :   0.1744 B(  3-Au, 13-Au) :   0.2501 B(  3-Au, 14-Fe) :   0.4450
B(  4-Au,  5-Au) :   0.2338 B(  4-Au,  6-Au) :   0.2771 B(  4-Au,  8-Au) :   0.2339
B(  4-Au,  9-Au) :   0.2096 B(  5-Au,  6-Au) :   0.2675 B(  5-Au,  9-Au) :   0.2950
B(  6-Au, 14-Fe) :   0.4473 B(  7-Au, 10-Au) :   0.2501 B(  7-Au, 12-Au) :   0.1844
B(  7-Au, 14-Fe) :   0.4435 B(  8-Au,  9-Au) :   0.2946 B(  8-Au, 12-Au) :   0.3367
B(  9-Au, 11-Au) :   0.2963 B(  9-Au, 12-Au) :   0.1686 B(  9-Au, 14-Fe) :   0.3887
B( 10-Au, 11-Au) :   0.1434 B( 10-Au, 12-Au) :   0.1997 B( 10-Au, 13-Au) :   0.2550
B( 10-Au, 14-Fe) :   0.3698 B( 11-Au, 12-Au) :   0.1369 B( 11-Au, 13-Au) :   0.1436
B( 11-Au, 14-Fe) :   0.4622 B( 12-Au, 14-Fe) :   0.4673 B( 13-Au, 14-Fe) :   0.3705

FINAL SINGLE POINT ENERGY     -3165.548969746030

DIPOLE MOMENT
-------------
                                X             Y             Z
Electronic contribution:     -5.17797      25.71603       0.23180
Nuclear contribution   :      5.19396     -25.76953      -0.22345
                        -----------------------------------------
Total Dipole Moment    :      0.01599      -0.05350       0.00835
                        -----------------------------------------
Magnitude (a.u.)       :      0.05646
Magnitude (Debye)      :      0.14351

Rotational constants in cm-1:     0.001155     0.001045     0.000935
Rotational constants in MHz :    34.613255    31.321433    28.035191

                             ****ORCA TERMINATED NORMALLY****
TOTAL RUN TIME: 0 days 0 hours 16 minutes 28 seconds 645 msec
