                         Program Version 5.0.3 -  RELEASE  -
|  1> !RI-B2PLYP def2-TZVP def2-TZVP/C
|  2> !RIJCOSX VERYSLOWCONV
|  3>
|  4> %scf
|  5>   AutoTRAHIter 200
|  6>   maxiter 400
|  7> end
|  8>
|  9>
| 10> %pal nprocs 6 end
| 11>
| 12> *xyzfile 0 5 pbe.xyz
| 13>
| 14> $new_job
| 15>
| 16> !RI-B2PLYP def2-TZVP def2-TZVP/C
| 17> !RIJCOSX VERYSLOWCONV
| 18>
| 19> %scf
| 20>   AutoTRAHIter 200
| 21>   maxiter 400
| 22> end
| 23>
| 24>
| 25> %pal nprocs 6 end
| 26>
| 27> *xyzfile 0 3 pbe.xyz
| 28>
| 29>
| 30>
| 31>
| 32>
| 33>                          ****END OF INPUT****
 Total Charge           Charge          ....    0
 Multiplicity           Mult            ....    5
 Number of Electrons    NEL             ....  328
MP2 TOTAL ENERGY:    -3213.746302809 Eh
FINAL SINGLE POINT ENERGY     -3213.746302808939

CARTESIAN COORDINATES (ANGSTROEM)
---------------------------------
  Au     7.052646   10.700714    9.704066
  Au     7.420933    8.978553    5.570170
  Au     7.918355   11.234300    7.123630
  Au     9.987970    9.446073    6.543172
  Au     9.109566    6.809129    6.689849
  Au    10.461272    7.896633    8.861754
  Au     9.819378   10.615543    9.089965
  Au     8.672015    8.749626   10.840933
  Au     5.466146    5.614512    9.280866
  Au     8.214712    6.364495    9.473466
  Au     7.342867    4.742162    7.372827
  Au     6.879041    6.285689    5.077297
  Au     4.742370    8.008860    5.713027
  Au     5.471921   10.017963    7.555115
  Au     3.952388    7.862519    8.435692
  Au     6.026684    8.203389   10.255108
  Cr     6.493007    7.377949    7.595237

 Multiplicity           Mult            ....    3
 Number of Electrons    NEL             ....  328
 Basis Dimension        Dim             ....  685

ORBITAL ENERGIES
----------------
                 SPIN UP ORBITALS
  NO   OCC          E(Eh)            E(eV)
   0   1.0000    -217.773087     -5925.9070
   1   1.0000     -25.459527      -692.7890
   2   1.0000     -21.598897      -587.7359
   3   1.0000     -21.598646      -587.7290
   4   1.0000     -21.593255      -587.5823
   5   1.0000      -4.409265      -119.9822
   6   1.0000      -4.408934      -119.9732
   7   1.0000      -4.407655      -119.9384
   8   1.0000      -4.407597      -119.9368
   9   1.0000      -4.406099      -119.8960
  10   1.0000      -4.403689      -119.8305
  11   1.0000      -4.403351      -119.8213
  12   1.0000      -4.402925      -119.8097
  13   1.0000      -4.402763      -119.8053
  14   1.0000      -4.402650      -119.8022
  15   1.0000      -4.391579      -119.5009
  16   1.0000      -4.391529      -119.4996
  17   1.0000      -4.390085      -119.4603
  18   1.0000      -4.388855      -119.4268
  19   1.0000      -4.388683      -119.4221
  20   1.0000      -4.380132      -119.1895
  21   1.0000      -3.248345       -88.3920
  22   1.0000      -2.530011       -68.8451
  23   1.0000      -2.529687       -68.8363
  24   1.0000      -2.528430       -68.8021
  25   1.0000      -2.528069       -68.7923
  26   1.0000      -2.527128       -68.7666
  27   1.0000      -2.526823       -68.7584
  28   1.0000      -2.526548       -68.7509
  29   1.0000      -2.525618       -68.7256
  30   1.0000      -2.525400       -68.7196
  31   1.0000      -2.525062       -68.7104
  32   1.0000      -2.524592       -68.6976
  33   1.0000      -2.523763       -68.6751
  34   1.0000      -2.523669       -68.6725
  35   1.0000      -2.523518       -68.6684
  36   1.0000      -2.523104       -68.6572
  37   1.0000      -2.523040       -68.6554
  38   1.0000      -2.522560       -68.6424
  39   1.0000      -2.522302       -68.6353
  40   1.0000      -2.521920       -68.6249
  41   1.0000      -2.521345       -68.6093
  42   1.0000      -2.521182       -68.6048
  43   1.0000      -2.519809       -68.5675
  44   1.0000      -2.519069       -68.5473
  45   1.0000      -2.518318       -68.5269
  46   1.0000      -2.517994       -68.5181
  47   1.0000      -2.517597       -68.5073
  48   1.0000      -2.517144       -68.4950
  49   1.0000      -2.516920       -68.4889
  50   1.0000      -2.516335       -68.4730
  51   1.0000      -2.515857       -68.4600
  52   1.0000      -2.511532       -68.3423
  53   1.0000      -2.510878       -68.3245
  54   1.0000      -2.510303       -68.3088
  55   1.0000      -2.510117       -68.3038
  56   1.0000      -2.508826       -68.2686
  57   1.0000      -2.508537       -68.2608
  58   1.0000      -2.507820       -68.2412
  59   1.0000      -2.507582       -68.2348
  60   1.0000      -2.506333       -68.2008
  61   1.0000      -2.506243       -68.1983
  62   1.0000      -2.505887       -68.1887
  63   1.0000      -2.505070       -68.1664
  64   1.0000      -2.504871       -68.1610
  65   1.0000      -2.504431       -68.1490
  66   1.0000      -2.503216       -68.1160
  67   1.0000      -2.497272       -67.9542
  68   1.0000      -2.496969       -67.9460
  69   1.0000      -2.495667       -67.9106
  70   1.0000      -2.141155       -58.2638
  71   1.0000      -2.129568       -57.9485
  72   1.0000      -2.128806       -57.9277
  73   1.0000      -0.510829       -13.9004
  74   1.0000      -0.499224       -13.5846
  75   1.0000      -0.478695       -13.0259
  76   1.0000      -0.475146       -12.9294
  77   1.0000      -0.474896       -12.9226
  78   1.0000      -0.469025       -12.7628
  79   1.0000      -0.467443       -12.7198
  80   1.0000      -0.467136       -12.7114
  81   1.0000      -0.465783       -12.6746
  82   1.0000      -0.464038       -12.6271
  83   1.0000      -0.462230       -12.5779
  84   1.0000      -0.460895       -12.5416
  85   1.0000      -0.460185       -12.5223
  86   1.0000      -0.456750       -12.4288
  87   1.0000      -0.456592       -12.4245
  88   1.0000      -0.452889       -12.3237
  89   1.0000      -0.452304       -12.3078
  90   1.0000      -0.449272       -12.2253
  91   1.0000      -0.447816       -12.1857
  92   1.0000      -0.444387       -12.0924
  93   1.0000      -0.443645       -12.0722
  94   1.0000      -0.442951       -12.0533
  95   1.0000      -0.442628       -12.0445
  96   1.0000      -0.440626       -11.9900
  97   1.0000      -0.438986       -11.9454
  98   1.0000      -0.438382       -11.9290
  99   1.0000      -0.436570       -11.8797
 100   1.0000      -0.433639       -11.7999
 101   1.0000      -0.432828       -11.7778
 102   1.0000      -0.429855       -11.6969
 103   1.0000      -0.426362       -11.6019
 104   1.0000      -0.425708       -11.5841
 105   1.0000      -0.424745       -11.5579
 106   1.0000      -0.422784       -11.5045
 107   1.0000      -0.421911       -11.4808
 108   1.0000      -0.415892       -11.3170
 109   1.0000      -0.412358       -11.2208
 110   1.0000      -0.409299       -11.1376
 111   1.0000      -0.404760       -11.0141
 112   1.0000      -0.403199       -10.9716
 113   1.0000      -0.402711       -10.9583
 114   1.0000      -0.400648       -10.9022
 115   1.0000      -0.396381       -10.7861
 116   1.0000      -0.393261       -10.7012
 117   1.0000      -0.389094       -10.5878
 118   1.0000      -0.388022       -10.5586
 119   1.0000      -0.384762       -10.4699
 120   1.0000      -0.383603       -10.4384
 121   1.0000      -0.378948       -10.3117
 122   1.0000      -0.378572       -10.3015
 123   1.0000      -0.377313       -10.2672
 124   1.0000      -0.376492       -10.2449
 125   1.0000      -0.375095       -10.2069
 126   1.0000      -0.374905       -10.2017
 127   1.0000      -0.372146       -10.1266
 128   1.0000      -0.372116       -10.1258
 129   1.0000      -0.370796       -10.0899
 130   1.0000      -0.369480       -10.0541
 131   1.0000      -0.368965       -10.0401
 132   1.0000      -0.366067        -9.9612
 133   1.0000      -0.363379        -9.8880
 134   1.0000      -0.362562        -9.8658
 135   1.0000      -0.361897        -9.8477
 136   1.0000      -0.361080        -9.8255
 137   1.0000      -0.358983        -9.7684
 138   1.0000      -0.358721        -9.7613
 139   1.0000      -0.354609        -9.6494
 140   1.0000      -0.353124        -9.6090
 141   1.0000      -0.351687        -9.5699
 142   1.0000      -0.350959        -9.5501
 143   1.0000      -0.350897        -9.5484
 144   1.0000      -0.349456        -9.5092
 145   1.0000      -0.345727        -9.4077
 146   1.0000      -0.341154        -9.2833
 147   1.0000      -0.339410        -9.2358
 148   1.0000      -0.338909        -9.2222
 149   1.0000      -0.337180        -9.1751
 150   1.0000      -0.335109        -9.1188
 151   1.0000      -0.334952        -9.1145
 152   1.0000      -0.331770        -9.0279
 153   1.0000      -0.331569        -9.0224
 154   1.0000      -0.329944        -8.9782
 155   1.0000      -0.328660        -8.9433
 156   1.0000      -0.324112        -8.8195
 157   1.0000      -0.321290        -8.7428
 158   1.0000      -0.312633        -8.5072
 159   1.0000      -0.311500        -8.4764
 160   1.0000      -0.310597        -8.4518
 161   1.0000      -0.245991        -6.6938
 162   1.0000      -0.244172        -6.6443
 163   1.0000      -0.238557        -6.4915
 164   1.0000      -0.225580        -6.1383
 165   0.0000      -0.142370        -3.8741
 166   0.0000      -0.094635        -2.5751
 167   0.0000      -0.079266        -2.1569
 168   0.0000      -0.075528        -2.0552
 169   0.0000      -0.071395        -1.9427

                 SPIN DOWN ORBITALS
  NO   OCC          E(Eh)            E(eV)
   0   1.0000    -217.771765     -5925.8710
   1   1.0000     -25.389374      -690.8800
   2   1.0000     -21.540065      -586.1350
   3   1.0000     -21.539017      -586.1065
   4   1.0000     -21.517307      -585.5157
   5   1.0000      -4.409341      -119.9843
   6   1.0000      -4.409049      -119.9763
   7   1.0000      -4.407369      -119.9306
   8   1.0000      -4.407318      -119.9292
   9   1.0000      -4.406665      -119.9114
  10   1.0000      -4.403779      -119.8329
  11   1.0000      -4.403480      -119.8248
  12   1.0000      -4.402583      -119.8004
  13   1.0000      -4.402436      -119.7964
  14   1.0000      -4.402309      -119.7929
  15   1.0000      -4.391736      -119.5052
  16   1.0000      -4.391645      -119.5027
  17   1.0000      -4.390317      -119.4666
  18   1.0000      -4.389958      -119.4568
  19   1.0000      -4.389764      -119.4516
  20   1.0000      -4.381274      -119.2205
  21   1.0000      -3.033888       -82.5563
  22   1.0000      -2.529429       -68.8293
  23   1.0000      -2.529150       -68.8217
  24   1.0000      -2.527464       -68.7758
  25   1.0000      -2.527335       -68.7723
  26   1.0000      -2.527131       -68.7667
  27   1.0000      -2.526680       -68.7545
  28   1.0000      -2.526427       -68.7476
  29   1.0000      -2.525326       -68.7176
  30   1.0000      -2.524857       -68.7049
  31   1.0000      -2.524055       -68.6830
  32   1.0000      -2.523224       -68.6604
  33   1.0000      -2.523079       -68.6565
  34   1.0000      -2.522997       -68.6542
  35   1.0000      -2.522423       -68.6386
  36   1.0000      -2.522346       -68.6365
  37   1.0000      -2.522200       -68.6325
  38   1.0000      -2.522016       -68.6276
  39   1.0000      -2.521906       -68.6246
  40   1.0000      -2.521520       -68.6140
  41   1.0000      -2.521108       -68.6028
  42   1.0000      -2.520546       -68.5875
  43   1.0000      -2.519953       -68.5714
  44   1.0000      -2.518987       -68.5451
  45   1.0000      -2.518295       -68.5263
  46   1.0000      -2.517490       -68.5044
  47   1.0000      -2.517345       -68.5005
  48   1.0000      -2.516339       -68.4731
  49   1.0000      -2.516223       -68.4699
  50   1.0000      -2.515437       -68.4485
  51   1.0000      -2.515319       -68.4453
  52   1.0000      -2.511828       -68.3503
  53   1.0000      -2.511089       -68.3302
  54   1.0000      -2.510242       -68.3072
  55   1.0000      -2.509767       -68.2942
  56   1.0000      -2.509044       -68.2746
  57   1.0000      -2.508777       -68.2673
  58   1.0000      -2.508314       -68.2547
  59   1.0000      -2.507687       -68.2376
  60   1.0000      -2.507281       -68.2266
  61   1.0000      -2.506981       -68.2184
  62   1.0000      -2.506158       -68.1960
  63   1.0000      -2.505568       -68.1800
  64   1.0000      -2.504967       -68.1636
  65   1.0000      -2.504425       -68.1489
  66   1.0000      -2.503700       -68.1291
  67   1.0000      -2.499223       -68.0073
  68   1.0000      -2.498857       -67.9974
  69   1.0000      -2.495861       -67.9158
  70   1.0000      -1.905181       -51.8426
  71   1.0000      -1.903087       -51.7856
  72   1.0000      -1.851447       -50.3804
  73   1.0000      -0.503095       -13.6899
  74   1.0000      -0.478044       -13.0082
  75   1.0000      -0.477551       -12.9948
  76   1.0000      -0.475751       -12.9458
  77   1.0000      -0.475043       -12.9266
  78   1.0000      -0.471625       -12.8336
  79   1.0000      -0.468759       -12.7556
  80   1.0000      -0.465571       -12.6688
  81   1.0000      -0.463324       -12.6077
  82   1.0000      -0.459695       -12.5089
  83   1.0000      -0.458992       -12.4898
  84   1.0000      -0.457334       -12.4447
  85   1.0000      -0.456366       -12.4183
  86   1.0000      -0.455635       -12.3985
  87   1.0000      -0.454691       -12.3728
  88   1.0000      -0.453451       -12.3390
  89   1.0000      -0.450299       -12.2533
  90   1.0000      -0.449471       -12.2307
  91   1.0000      -0.447660       -12.1814
  92   1.0000      -0.444005       -12.0820
  93   1.0000      -0.443477       -12.0676
  94   1.0000      -0.442913       -12.0523
  95   1.0000      -0.441272       -12.0076
  96   1.0000      -0.441011       -12.0005
  97   1.0000      -0.439882       -11.9698
  98   1.0000      -0.438212       -11.9244
  99   1.0000      -0.433394       -11.7932
 100   1.0000      -0.431651       -11.7458
 101   1.0000      -0.428789       -11.6679
 102   1.0000      -0.428351       -11.6560
 103   1.0000      -0.425836       -11.5876
 104   1.0000      -0.425364       -11.5747
 105   1.0000      -0.423815       -11.5326
 106   1.0000      -0.422878       -11.5071
 107   1.0000      -0.412743       -11.2313
 108   1.0000      -0.409713       -11.1489
 109   1.0000      -0.408459       -11.1147
 110   1.0000      -0.406298       -11.0559
 111   1.0000      -0.404751       -11.0138
 112   1.0000      -0.404009       -10.9936
 113   1.0000      -0.401303       -10.9200
 114   1.0000      -0.397627       -10.8200
 115   1.0000      -0.392355       -10.6765
 116   1.0000      -0.390825       -10.6349
 117   1.0000      -0.389659       -10.6032
 118   1.0000      -0.384695       -10.4681
 119   1.0000      -0.382876       -10.4186
 120   1.0000      -0.381502       -10.3812
 121   1.0000      -0.379079       -10.3153
 122   1.0000      -0.378411       -10.2971
 123   1.0000      -0.377048       -10.2600
 124   1.0000      -0.376258       -10.2385
 125   1.0000      -0.373760       -10.1705
 126   1.0000      -0.372891       -10.1469
 127   1.0000      -0.372381       -10.1330
 128   1.0000      -0.371525       -10.1097
 129   1.0000      -0.370200       -10.0737
 130   1.0000      -0.367449        -9.9988
 131   1.0000      -0.367252        -9.9934
 132   1.0000      -0.363169        -9.8823
 133   1.0000      -0.362123        -9.8539
 134   1.0000      -0.361584        -9.8392
 135   1.0000      -0.359891        -9.7931
 136   1.0000      -0.358430        -9.7534
 137   1.0000      -0.356300        -9.6954
 138   1.0000      -0.356166        -9.6918
 139   1.0000      -0.352913        -9.6032
 140   1.0000      -0.352304        -9.5867
 141   1.0000      -0.352055        -9.5799
 142   1.0000      -0.351670        -9.5694
 143   1.0000      -0.347145        -9.4463
 144   1.0000      -0.341422        -9.2906
 145   1.0000      -0.340663        -9.2699
 146   1.0000      -0.339151        -9.2288
 147   1.0000      -0.338886        -9.2216
 148   1.0000      -0.336287        -9.1508
 149   1.0000      -0.334394        -9.0993
 150   1.0000      -0.334111        -9.0916
 151   1.0000      -0.332008        -9.0344
 152   1.0000      -0.325664        -8.8618
 153   1.0000      -0.324401        -8.8274
 154   1.0000      -0.322750        -8.7825
 155   1.0000      -0.321925        -8.7600
 156   1.0000      -0.310966        -8.4618
 157   1.0000      -0.265599        -7.2273
 158   1.0000      -0.261717        -7.1217
 159   1.0000      -0.246363        -6.7039
 160   1.0000      -0.228798        -6.2259
 161   1.0000      -0.227327        -6.1859
 162   1.0000      -0.162329        -4.4172
 163   0.0000      -0.087091        -2.3699
 164   0.0000      -0.085574        -2.3286
 165   0.0000      -0.084218        -2.2917
 166   0.0000      -0.078511        -2.1364
 167   0.0000      -0.064873        -1.7653

MULLIKEN ATOMIC CHARGES AND SPIN POPULATIONS
--------------------------------------------
   0 Au:    0.174326   -0.041393
   1 Au:    0.051452   -0.070562
   2 Au:    0.224765   -0.037031
   3 Au:    0.168389   -0.238881
   4 Au:   -0.016050    0.018678
   5 Au:    0.165728   -0.242625
   6 Au:    0.013111    0.039828
   7 Au:    0.226402   -0.041575
   8 Au:    0.507124   -0.065309
   9 Au:    0.043829   -0.054321
  10 Au:    0.519651   -0.096442
  11 Au:    0.522948   -0.085897
  12 Au:    0.509609   -0.059123
  13 Au:    0.117201   -0.225247
  14 Au:    0.563442   -0.022613
  15 Au:    0.110667   -0.218210
  16 Cr:   -3.902593    3.440724
Sum of atomic charges         :   -0.0000000

LOEWDIN ATOMIC CHARGES AND SPIN POPULATIONS
-------------------------------------------
   0 Au:    0.016496   -0.095326
   1 Au:    0.021767   -0.101736
   2 Au:    0.026794   -0.101552
   3 Au:    0.019196   -0.154592
   4 Au:    0.016730   -0.088486
   5 Au:    0.019733   -0.152336
   6 Au:   -0.014645   -0.006101
   7 Au:    0.028425   -0.100249
   8 Au:    0.133065   -0.106859
   9 Au:    0.021931   -0.098480
  10 Au:    0.134193   -0.088900
  11 Au:    0.135121   -0.086126
  12 Au:    0.133709   -0.106378
  13 Au:    0.024819   -0.131915
  14 Au:    0.130513   -0.123001
  15 Au:    0.024157   -0.129043
  16 Cr:   -0.872002    3.671080

  Mayer bond orders larger than 0.100000
B(  0-Au,  2-Au) :   0.2154 B(  0-Au,  6-Au) :   0.2665 B(  0-Au,  7-Au) :   0.2111
B(  0-Au, 13-Au) :   0.2383 B(  0-Au, 15-Au) :   0.2297 B(  0-Au, 16-Cr) :   0.2783
B(  1-Au,  2-Au) :   0.2166 B(  1-Au,  3-Au) :   0.2914 B(  1-Au,  4-Au) :   0.1698
B(  1-Au,  8-Au) :   0.1302 B(  1-Au, 11-Au) :   0.1599 B(  1-Au, 12-Au) :   0.1595
B(  1-Au, 13-Au) :   0.1534 B(  1-Au, 16-Cr) :   0.5009 B(  2-Au,  3-Au) :   0.1652
B(  2-Au,  6-Au) :   0.2665 B(  2-Au, 13-Au) :   0.3180 B(  2-Au, 16-Cr) :   0.2588
B(  3-Au,  4-Au) :   0.2331 B(  3-Au,  5-Au) :   0.1112 B(  3-Au,  6-Au) :   0.2654
B(  3-Au, 16-Cr) :   0.1634 B(  4-Au,  5-Au) :   0.2438 B(  4-Au,  9-Au) :   0.1740
B(  4-Au, 10-Au) :   0.1718 B(  4-Au, 11-Au) :   0.1738 B(  4-Au, 16-Cr) :   0.5406
B(  5-Au,  6-Au) :   0.2681 B(  5-Au,  7-Au) :   0.1569 B(  5-Au,  9-Au) :   0.2822
B(  5-Au, 16-Cr) :   0.1624 B(  6-Au,  7-Au) :   0.2668 B(  7-Au,  9-Au) :   0.2149
B(  7-Au, 15-Au) :   0.3248 B(  7-Au, 16-Cr) :   0.2544 B(  8-Au,  9-Au) :   0.1578
B(  8-Au, 10-Au) :   0.1789 B(  8-Au, 14-Au) :   0.1933 B(  8-Au, 15-Au) :   0.1183
B(  8-Au, 16-Cr) :   0.5829 B(  9-Au, 10-Au) :   0.1625 B(  9-Au, 12-Au) :   0.1279
B(  9-Au, 15-Au) :   0.1563 B(  9-Au, 16-Cr) :   0.5103 B( 10-Au, 11-Au) :   0.1683
B( 10-Au, 13-Au) :   0.1050 B( 10-Au, 16-Cr) :   0.4632 B( 11-Au, 12-Au) :   0.1807
B( 11-Au, 15-Au) :   0.1059 B( 11-Au, 16-Cr) :   0.4697 B( 12-Au, 13-Au) :   0.1202
B( 12-Au, 14-Au) :   0.1963 B( 12-Au, 16-Cr) :   0.5801 B( 13-Au, 14-Au) :   0.1680
B( 13-Au, 15-Au) :   0.1008 B( 13-Au, 16-Cr) :   0.3997 B( 14-Au, 15-Au) :   0.1713
B( 14-Au, 16-Cr) :   0.5248 B( 15-Au, 16-Cr) :   0.4053

MP2 TOTAL ENERGY:    -3213.687089195 Eh
FINAL SINGLE POINT ENERGY     -3213.687089194892

DIPOLE MOMENT
-------------
                                X             Y             Z
Electronic contribution:     31.74533      29.00278      13.00483
Nuclear contribution   :    -32.31465     -29.74013     -13.37381
                        -----------------------------------------
Total Dipole Moment    :     -0.56932      -0.73735      -0.36898
                        -----------------------------------------
Magnitude (a.u.)       :      1.00198
Magnitude (Debye)      :      2.54683

Rotational constants in cm-1:     0.000949     0.000760     0.000752
Rotational constants in MHz :    28.439881    22.793878    22.549729

                             ****ORCA TERMINATED NORMALLY****
TOTAL RUN TIME: 0 days 1 hours 53 minutes 44 seconds 999 msec
