                         Program Version 5.0.3 -  RELEASE  -
|  1> !PBE def2-TZVP VERYSLOWCONV
|  2>
|  3> %scf
|  4>   AutoTRAHIter 200
|  5>   maxiter 400
|  6> end
|  7>
|  8>
|  9> %pal nprocs 6 end
| 10>
| 11> *xyzfile 0 5 pbe.xyz
| 12>
| 13> $new_job
| 14>
| 15> !PBE def2-TZVP VERYSLOWCONV
| 16>
| 17> %scf
| 18>   AutoTRAHIter 200
| 19>   maxiter 400
| 20> end
| 21>
| 22>
| 23> %pal nprocs 6 end
| 24>
| 25> *xyzfile 0 3 pbe.xyz
| 26>
| 27>
| 28>
| 29>
| 30>
| 31>                          ****END OF INPUT****
 Total Charge           Charge          ....    0
 Multiplicity           Mult            ....    5
 Number of Electrons    NEL             ....  328
FINAL SINGLE POINT ENERGY     -3217.515055469918

CARTESIAN COORDINATES (ANGSTROEM)
---------------------------------
  Au     7.052646   10.700714    9.704066
  Au     7.420933    8.978553    5.570170
  Au     7.918355   11.234300    7.123630
  Au     9.987970    9.446073    6.543172
  Au     9.109566    6.809129    6.689849
  Au    10.461272    7.896633    8.861754
  Au     9.819378   10.615543    9.089965
  Au     8.672015    8.749626   10.840933
  Au     5.466146    5.614512    9.280866
  Au     8.214712    6.364495    9.473466
  Au     7.342867    4.742162    7.372827
  Au     6.879041    6.285689    5.077297
  Au     4.742370    8.008860    5.713027
  Au     5.471921   10.017963    7.555115
  Au     3.952388    7.862519    8.435692
  Au     6.026684    8.203389   10.255108
  Cr     6.493007    7.377949    7.595237

 Multiplicity           Mult            ....    3
 Number of Electrons    NEL             ....  328
 Basis Dimension        Dim             ....  685

ORBITAL ENERGIES
----------------
                 SPIN UP ORBITALS
  NO   OCC          E(Eh)            E(eV)
   0   1.0000    -214.509859     -5837.1100
   1   1.0000     -24.303656      -661.3361
   2   1.0000     -20.673133      -562.5445
   3   1.0000     -20.668266      -562.4121
   4   1.0000     -20.664568      -562.3115
   5   1.0000      -4.037744      -109.8726
   6   1.0000      -4.037643      -109.8698
   7   1.0000      -4.036159      -109.8295
   8   1.0000      -4.034059      -109.7723
   9   1.0000      -4.033983      -109.7703
  10   1.0000      -4.032007      -109.7165
  11   1.0000      -4.031812      -109.7112
  12   1.0000      -4.031365      -109.6990
  13   1.0000      -4.030363      -109.6718
  14   1.0000      -4.029938      -109.6602
  15   1.0000      -4.021624      -109.4339
  16   1.0000      -4.021535      -109.4315
  17   1.0000      -4.020369      -109.3998
  18   1.0000      -4.019435      -109.3744
  19   1.0000      -4.019333      -109.3716
  20   1.0000      -4.015693      -109.2726
  21   1.0000      -2.793079       -76.0035
  22   1.0000      -2.254093       -61.3370
  23   1.0000      -2.254022       -61.3351
  24   1.0000      -2.253022       -61.3078
  25   1.0000      -2.251076       -61.2549
  26   1.0000      -2.250970       -61.2520
  27   1.0000      -2.249383       -61.2088
  28   1.0000      -2.249190       -61.2036
  29   1.0000      -2.249087       -61.2008
  30   1.0000      -2.248857       -61.1945
  31   1.0000      -2.248571       -61.1867
  32   1.0000      -2.248419       -61.1826
  33   1.0000      -2.247163       -61.1484
  34   1.0000      -2.246926       -61.1420
  35   1.0000      -2.246491       -61.1301
  36   1.0000      -2.246454       -61.1291
  37   1.0000      -2.246338       -61.1260
  38   1.0000      -2.245558       -61.1047
  39   1.0000      -2.244593       -61.0785
  40   1.0000      -2.244212       -61.0681
  41   1.0000      -2.243454       -61.0475
  42   1.0000      -2.243225       -61.0412
  43   1.0000      -2.242807       -61.0299
  44   1.0000      -2.242660       -61.0259
  45   1.0000      -2.242598       -61.0242
  46   1.0000      -2.242171       -61.0126
  47   1.0000      -2.241858       -61.0041
  48   1.0000      -2.241561       -60.9960
  49   1.0000      -2.241343       -60.9901
  50   1.0000      -2.240844       -60.9765
  51   1.0000      -2.240035       -60.9544
  52   1.0000      -2.238029       -60.8999
  53   1.0000      -2.237393       -60.8826
  54   1.0000      -2.236537       -60.8593
  55   1.0000      -2.236171       -60.8493
  56   1.0000      -2.235117       -60.8206
  57   1.0000      -2.234924       -60.8154
  58   1.0000      -2.234391       -60.8009
  59   1.0000      -2.234149       -60.7943
  60   1.0000      -2.233768       -60.7839
  61   1.0000      -2.233091       -60.7655
  62   1.0000      -2.231323       -60.7174
  63   1.0000      -2.231294       -60.7166
  64   1.0000      -2.230558       -60.6966
  65   1.0000      -2.229552       -60.6692
  66   1.0000      -2.228965       -60.6532
  67   1.0000      -2.228537       -60.6416
  68   1.0000      -2.227990       -60.6267
  69   1.0000      -2.223871       -60.5146
  70   1.0000      -1.795798       -48.8661
  71   1.0000      -1.778113       -48.3849
  72   1.0000      -1.774283       -48.2807
  73   1.0000      -0.430093       -11.7034
  74   1.0000      -0.392890       -10.6911
  75   1.0000      -0.392454       -10.6792
  76   1.0000      -0.386109       -10.5066
  77   1.0000      -0.382087       -10.3971
  78   1.0000      -0.380064       -10.3421
  79   1.0000      -0.364126        -9.9084
  80   1.0000      -0.363332        -9.8868
  81   1.0000      -0.362532        -9.8650
  82   1.0000      -0.361371        -9.8334
  83   1.0000      -0.360286        -9.8039
  84   1.0000      -0.356758        -9.7079
  85   1.0000      -0.353830        -9.6282
  86   1.0000      -0.353478        -9.6186
  87   1.0000      -0.352829        -9.6010
  88   1.0000      -0.352237        -9.5849
  89   1.0000      -0.348959        -9.4956
  90   1.0000      -0.347851        -9.4655
  91   1.0000      -0.345060        -9.3896
  92   1.0000      -0.344247        -9.3674
  93   1.0000      -0.344114        -9.3638
  94   1.0000      -0.341682        -9.2976
  95   1.0000      -0.340867        -9.2755
  96   1.0000      -0.340536        -9.2665
  97   1.0000      -0.339251        -9.2315
  98   1.0000      -0.335780        -9.1370
  99   1.0000      -0.335118        -9.1190
 100   1.0000      -0.327955        -8.9241
 101   1.0000      -0.327628        -8.9152
 102   1.0000      -0.326779        -8.8921
 103   1.0000      -0.324162        -8.8209
 104   1.0000      -0.323778        -8.8104
 105   1.0000      -0.323547        -8.8042
 106   1.0000      -0.321200        -8.7403
 107   1.0000      -0.315834        -8.5943
 108   1.0000      -0.315533        -8.5861
 109   1.0000      -0.313841        -8.5400
 110   1.0000      -0.307623        -8.3708
 111   1.0000      -0.306586        -8.3426
 112   1.0000      -0.306329        -8.3356
 113   1.0000      -0.305277        -8.3070
 114   1.0000      -0.301954        -8.2166
 115   1.0000      -0.297373        -8.0919
 116   1.0000      -0.295424        -8.0389
 117   1.0000      -0.291285        -7.9263
 118   1.0000      -0.287773        -7.8307
 119   1.0000      -0.285566        -7.7706
 120   1.0000      -0.284539        -7.7427
 121   1.0000      -0.282008        -7.6738
 122   1.0000      -0.280896        -7.6436
 123   1.0000      -0.280795        -7.6408
 124   1.0000      -0.279034        -7.5929
 125   1.0000      -0.278043        -7.5659
 126   1.0000      -0.276467        -7.5230
 127   1.0000      -0.275881        -7.5071
 128   1.0000      -0.275365        -7.4931
 129   1.0000      -0.275202        -7.4886
 130   1.0000      -0.273666        -7.4468
 131   1.0000      -0.271851        -7.3974
 132   1.0000      -0.268566        -7.3080
 133   1.0000      -0.266972        -7.2647
 134   1.0000      -0.266138        -7.2420
 135   1.0000      -0.266049        -7.2396
 136   1.0000      -0.264864        -7.2073
 137   1.0000      -0.263969        -7.1830
 138   1.0000      -0.261193        -7.1074
 139   1.0000      -0.260437        -7.0868
 140   1.0000      -0.259026        -7.0485
 141   1.0000      -0.258140        -7.0243
 142   1.0000      -0.257301        -7.0015
 143   1.0000      -0.256220        -6.9721
 144   1.0000      -0.254542        -6.9264
 145   1.0000      -0.253996        -6.9116
 146   1.0000      -0.251297        -6.8381
 147   1.0000      -0.249065        -6.7774
 148   1.0000      -0.248678        -6.7669
 149   1.0000      -0.248072        -6.7504
 150   1.0000      -0.247540        -6.7359
 151   1.0000      -0.241568        -6.5734
 152   1.0000      -0.240597        -6.5470
 153   1.0000      -0.239991        -6.5305
 154   1.0000      -0.239760        -6.5242
 155   1.0000      -0.238544        -6.4911
 156   1.0000      -0.227552        -6.1920
 157   1.0000      -0.225368        -6.1326
 158   1.0000      -0.224501        -6.1090
 159   1.0000      -0.221846        -6.0367
 160   1.0000      -0.218078        -5.9342
 161   1.0000      -0.215355        -5.8601
 162   1.0000      -0.207904        -5.6573
 163   1.0000      -0.199824        -5.4375
 164   1.0000      -0.192760        -5.2453
 165   0.0000      -0.181033        -4.9262
 166   0.0000      -0.172802        -4.7022
 167   0.0000      -0.145185        -3.9507
 168   0.0000      -0.142568        -3.8795
 169   0.0000      -0.140964        -3.8358

                 SPIN DOWN ORBITALS
  NO   OCC          E(Eh)            E(eV)
   0   1.0000    -214.509568     -5837.1021
   1   1.0000     -24.271498      -660.4610
   2   1.0000     -20.649352      -561.8974
   3   1.0000     -20.645383      -561.7894
   4   1.0000     -20.637523      -561.5756
   5   1.0000      -4.038578      -109.8953
   6   1.0000      -4.038469      -109.8923
   7   1.0000      -4.035763      -109.8187
   8   1.0000      -4.034534      -109.7852
   9   1.0000      -4.034456      -109.7831
  10   1.0000      -4.031755      -109.7096
  11   1.0000      -4.031247      -109.6958
  12   1.0000      -4.030785      -109.6832
  13   1.0000      -4.029838      -109.6575
  14   1.0000      -4.029397      -109.6455
  15   1.0000      -4.021659      -109.4349
  16   1.0000      -4.021568      -109.4324
  17   1.0000      -4.020756      -109.4103
  18   1.0000      -4.019642      -109.3800
  19   1.0000      -4.019540      -109.3772
  20   1.0000      -4.015724      -109.2734
  21   1.0000      -2.706904       -73.6586
  22   1.0000      -2.255106       -61.3645
  23   1.0000      -2.255051       -61.3631
  24   1.0000      -2.252585       -61.2959
  25   1.0000      -2.251775       -61.2739
  26   1.0000      -2.251729       -61.2727
  27   1.0000      -2.250464       -61.2382
  28   1.0000      -2.250337       -61.2348
  29   1.0000      -2.248994       -61.1982
  30   1.0000      -2.248900       -61.1957
  31   1.0000      -2.248624       -61.1882
  32   1.0000      -2.248385       -61.1817
  33   1.0000      -2.246511       -61.1307
  34   1.0000      -2.246489       -61.1301
  35   1.0000      -2.246406       -61.1278
  36   1.0000      -2.246256       -61.1237
  37   1.0000      -2.246161       -61.1211
  38   1.0000      -2.244665       -61.0804
  39   1.0000      -2.244516       -61.0764
  40   1.0000      -2.243789       -61.0566
  41   1.0000      -2.243740       -61.0553
  42   1.0000      -2.243197       -61.0405
  43   1.0000      -2.243017       -61.0356
  44   1.0000      -2.242588       -61.0239
  45   1.0000      -2.241948       -61.0065
  46   1.0000      -2.241628       -60.9978
  47   1.0000      -2.241384       -60.9912
  48   1.0000      -2.241323       -60.9895
  49   1.0000      -2.241035       -60.9817
  50   1.0000      -2.240332       -60.9625
  51   1.0000      -2.239408       -60.9374
  52   1.0000      -2.238161       -60.9035
  53   1.0000      -2.237440       -60.8838
  54   1.0000      -2.236645       -60.8622
  55   1.0000      -2.236266       -60.8519
  56   1.0000      -2.235325       -60.8263
  57   1.0000      -2.235214       -60.8233
  58   1.0000      -2.234769       -60.8112
  59   1.0000      -2.234397       -60.8010
  60   1.0000      -2.234045       -60.7915
  61   1.0000      -2.233277       -60.7706
  62   1.0000      -2.231465       -60.7213
  63   1.0000      -2.231409       -60.7197
  64   1.0000      -2.230608       -60.6979
  65   1.0000      -2.229654       -60.6720
  66   1.0000      -2.229066       -60.6560
  67   1.0000      -2.228621       -60.6439
  68   1.0000      -2.228100       -60.6297
  69   1.0000      -2.223898       -60.5153
  70   1.0000      -1.713021       -46.6137
  71   1.0000      -1.700060       -46.2610
  72   1.0000      -1.680519       -45.7293
  73   1.0000      -0.426181       -11.5970
  74   1.0000      -0.393081       -10.6963
  75   1.0000      -0.391647       -10.6573
  76   1.0000      -0.384464       -10.4618
  77   1.0000      -0.379133       -10.3167
  78   1.0000      -0.378412       -10.2971
  79   1.0000      -0.364331        -9.9139
  80   1.0000      -0.363083        -9.8800
  81   1.0000      -0.362278        -9.8581
  82   1.0000      -0.361431        -9.8350
  83   1.0000      -0.359523        -9.7831
  84   1.0000      -0.356822        -9.7096
  85   1.0000      -0.354272        -9.6402
  86   1.0000      -0.351671        -9.5694
  87   1.0000      -0.351048        -9.5525
  88   1.0000      -0.350498        -9.5375
  89   1.0000      -0.348349        -9.4791
  90   1.0000      -0.348063        -9.4713
  91   1.0000      -0.345006        -9.3881
  92   1.0000      -0.344421        -9.3722
  93   1.0000      -0.344117        -9.3639
  94   1.0000      -0.341299        -9.2872
  95   1.0000      -0.340977        -9.2785
  96   1.0000      -0.340511        -9.2658
  97   1.0000      -0.339387        -9.2352
  98   1.0000      -0.335309        -9.1242
  99   1.0000      -0.333678        -9.0798
 100   1.0000      -0.328436        -8.9372
 101   1.0000      -0.328248        -8.9321
 102   1.0000      -0.326053        -8.8723
 103   1.0000      -0.324582        -8.8323
 104   1.0000      -0.323637        -8.8066
 105   1.0000      -0.323345        -8.7987
 106   1.0000      -0.321641        -8.7523
 107   1.0000      -0.316142        -8.6027
 108   1.0000      -0.314728        -8.5642
 109   1.0000      -0.312473        -8.5028
 110   1.0000      -0.307825        -8.3764
 111   1.0000      -0.306683        -8.3453
 112   1.0000      -0.306214        -8.3325
 113   1.0000      -0.304295        -8.2803
 114   1.0000      -0.300583        -8.1793
 115   1.0000      -0.296730        -8.0744
 116   1.0000      -0.294189        -8.0053
 117   1.0000      -0.291673        -7.9368
 118   1.0000      -0.288145        -7.8408
 119   1.0000      -0.284769        -7.7490
 120   1.0000      -0.284393        -7.7387
 121   1.0000      -0.282140        -7.6774
 122   1.0000      -0.281159        -7.6507
 123   1.0000      -0.279706        -7.6112
 124   1.0000      -0.279254        -7.5989
 125   1.0000      -0.278141        -7.5686
 126   1.0000      -0.276624        -7.5273
 127   1.0000      -0.276009        -7.5106
 128   1.0000      -0.275104        -7.4860
 129   1.0000      -0.274472        -7.4688
 130   1.0000      -0.273595        -7.4449
 131   1.0000      -0.271439        -7.3862
 132   1.0000      -0.268671        -7.3109
 133   1.0000      -0.267337        -7.2746
 134   1.0000      -0.266256        -7.2452
 135   1.0000      -0.265794        -7.2326
 136   1.0000      -0.265016        -7.2115
 137   1.0000      -0.263647        -7.1742
 138   1.0000      -0.261558        -7.1174
 139   1.0000      -0.260990        -7.1019
 140   1.0000      -0.259037        -7.0487
 141   1.0000      -0.258557        -7.0357
 142   1.0000      -0.257347        -7.0028
 143   1.0000      -0.256320        -6.9748
 144   1.0000      -0.254774        -6.9327
 145   1.0000      -0.253811        -6.9065
 146   1.0000      -0.251239        -6.8366
 147   1.0000      -0.249581        -6.7914
 148   1.0000      -0.248889        -6.7726
 149   1.0000      -0.248219        -6.7544
 150   1.0000      -0.247910        -6.7460
 151   1.0000      -0.241985        -6.5847
 152   1.0000      -0.240706        -6.5499
 153   1.0000      -0.239930        -6.5288
 154   1.0000      -0.239840        -6.5264
 155   1.0000      -0.238488        -6.4896
 156   1.0000      -0.227763        -6.1977
 157   1.0000      -0.225026        -6.1233
 158   1.0000      -0.222773        -6.0620
 159   1.0000      -0.213248        -5.8028
 160   1.0000      -0.211488        -5.7549
 161   1.0000      -0.208636        -5.6773
 162   1.0000      -0.167558        -4.5595
 163   0.0000      -0.152592        -4.1522
 164   0.0000      -0.151123        -4.1123
 165   0.0000      -0.149522        -4.0687
 166   0.0000      -0.141885        -3.8609
 167   0.0000      -0.133341        -3.6284

MULLIKEN ATOMIC CHARGES AND SPIN POPULATIONS
--------------------------------------------
   0 Au:    0.189560   -0.016294
   1 Au:    0.035321   -0.031104
   2 Au:    0.235098   -0.024854
   3 Au:    0.229503   -0.055944
   4 Au:    0.016054   -0.003213
   5 Au:    0.228370   -0.059132
   6 Au:    0.036599    0.007144
   7 Au:    0.238305   -0.019853
   8 Au:    0.537783   -0.036090
   9 Au:    0.033888   -0.034867
  10 Au:    0.555854    0.028173
  11 Au:    0.555621    0.026846
  12 Au:    0.539140   -0.036934
  13 Au:    0.092955    0.038097
  14 Au:    0.566821    0.001907
  15 Au:    0.089125    0.037212
  16 Cr:   -4.179997    2.178906
Sum of atomic charges         :   -0.0000000

LOEWDIN ATOMIC CHARGES AND SPIN POPULATIONS
-------------------------------------------
   0 Au:    0.028098   -0.003688
   1 Au:    0.042787   -0.060733
   2 Au:    0.031780   -0.024526
   3 Au:    0.032588   -0.045613
   4 Au:    0.027586    0.005035
   5 Au:    0.032116   -0.046613
   6 Au:   -0.010222   -0.016250
   7 Au:    0.032986   -0.023024
   8 Au:    0.171657   -0.046969
   9 Au:    0.042794   -0.061644
  10 Au:    0.150442    0.009101
  11 Au:    0.151069    0.007930
  12 Au:    0.171777   -0.047439
  13 Au:    0.038898    0.014317
  14 Au:    0.151246   -0.010654
  15 Au:    0.039238    0.013807
  16 Cr:   -1.134840    2.336963

  Mayer bond orders larger than 0.100000
B(  0-Au,  2-Au) :   0.2375 B(  0-Au,  6-Au) :   0.3059 B(  0-Au,  7-Au) :   0.2347
B(  0-Au, 13-Au) :   0.2487 B(  0-Au, 15-Au) :   0.2449 B(  0-Au, 16-Cr) :   0.2789
B(  1-Au,  2-Au) :   0.2505 B(  1-Au,  3-Au) :   0.2710 B(  1-Au,  4-Au) :   0.1853
B(  1-Au,  8-Au) :   0.1139 B(  1-Au, 11-Au) :   0.2182 B(  1-Au, 12-Au) :   0.1668
B(  1-Au, 13-Au) :   0.1520 B(  1-Au, 16-Cr) :   0.6647 B(  2-Au,  3-Au) :   0.2231
B(  2-Au,  6-Au) :   0.3149 B(  2-Au, 13-Au) :   0.2954 B(  2-Au, 16-Cr) :   0.2458
B(  3-Au,  4-Au) :   0.2831 B(  3-Au,  5-Au) :   0.1738 B(  3-Au,  6-Au) :   0.3091
B(  3-Au, 16-Cr) :   0.2352 B(  4-Au,  5-Au) :   0.2879 B(  4-Au,  9-Au) :   0.1906
B(  4-Au, 10-Au) :   0.2118 B(  4-Au, 11-Au) :   0.2113 B(  4-Au, 16-Cr) :   0.5889
B(  5-Au,  6-Au) :   0.3119 B(  5-Au,  7-Au) :   0.2197 B(  5-Au,  9-Au) :   0.2697
B(  5-Au, 16-Cr) :   0.2322 B(  6-Au,  7-Au) :   0.3146 B(  6-Au, 16-Cr) :   0.1212
B(  7-Au,  9-Au) :   0.2501 B(  7-Au, 15-Au) :   0.2985 B(  7-Au, 16-Cr) :   0.2437
B(  8-Au,  9-Au) :   0.1651 B(  8-Au, 10-Au) :   0.2490 B(  8-Au, 14-Au) :   0.2326
B(  8-Au, 15-Au) :   0.1730 B(  8-Au, 16-Cr) :   0.6690 B(  9-Au, 10-Au) :   0.2176
B(  9-Au, 12-Au) :   0.1130 B(  9-Au, 15-Au) :   0.1554 B(  9-Au, 16-Cr) :   0.6644
B( 10-Au, 11-Au) :   0.2430 B( 10-Au, 16-Cr) :   0.4562 B( 11-Au, 12-Au) :   0.2477
B( 11-Au, 16-Cr) :   0.4644 B( 12-Au, 13-Au) :   0.1730 B( 12-Au, 14-Au) :   0.2324
B( 12-Au, 16-Cr) :   0.6690 B( 13-Au, 14-Au) :   0.2172 B( 13-Au, 16-Cr) :   0.5594
B( 14-Au, 15-Au) :   0.2175 B( 14-Au, 16-Cr) :   0.5459 B( 15-Au, 16-Cr) :   0.5656

FINAL SINGLE POINT ENERGY     -3217.481787289092

DIPOLE MOMENT
-------------
                                X             Y             Z
Electronic contribution:     31.67732      29.07282      13.06096
Nuclear contribution   :    -32.31465     -29.74013     -13.37381
                        -----------------------------------------
Total Dipole Moment    :     -0.63733      -0.66731      -0.31285
                        -----------------------------------------
Magnitude (a.u.)       :      0.97436
Magnitude (Debye)      :      2.47661

Rotational constants in cm-1:     0.000949     0.000760     0.000752
Rotational constants in MHz :    28.439881    22.793878    22.549729

                             ****ORCA TERMINATED NORMALLY****
TOTAL RUN TIME: 0 days 1 hours 43 minutes 17 seconds 495 msec
