                         Program Version 5.0.3 -  RELEASE  -
|  1> !R2SCAN def2-TZVP VERYSLOWCONV
|  2> !KDIIS
|  3> %scf
|  4>   AutoTRAHIter 200
|  5>   maxiter 400
|  6> end
|  7>
|  8> %pal nprocs 6 end
|  9>
| 10> *xyzfile 0 5 pbe.xyz
| 11>
| 12> $new_job
| 13>
| 14> !R2SCAN def2-TZVP VERYSLOWCONV
| 15> !KDIIS
| 16> %scf
| 17>   AutoTRAHIter 200
| 18>   maxiter 400
| 19> end
| 20>
| 21>
| 22> %pal nprocs 6 end
| 23>
| 24> *xyzfile 0 3 pbe.xyz
| 25>
| 26>
| 27>
| 28>
| 29>
| 30>                          ****END OF INPUT****
 Total Charge           Charge          ....    0
 Multiplicity           Mult            ....    5
 Number of Electrons    NEL             ....  328
FINAL SINGLE POINT ENERGY     -3218.047647009168

CARTESIAN COORDINATES (ANGSTROEM)
---------------------------------
  Au     7.052646   10.700714    9.704066
  Au     7.420933    8.978553    5.570170
  Au     7.918355   11.234300    7.123630
  Au     9.987970    9.446073    6.543172
  Au     9.109566    6.809129    6.689849
  Au    10.461272    7.896633    8.861754
  Au     9.819378   10.615543    9.089965
  Au     8.672015    8.749626   10.840933
  Au     5.466146    5.614512    9.280866
  Au     8.214712    6.364495    9.473466
  Au     7.342867    4.742162    7.372827
  Au     6.879041    6.285689    5.077297
  Au     4.742370    8.008860    5.713027
  Au     5.471921   10.017963    7.555115
  Au     3.952388    7.862519    8.435692
  Au     6.026684    8.203389   10.255108
  Cr     6.493007    7.377949    7.595237

 Multiplicity           Mult            ....    3
 Number of Electrons    NEL             ....  328
 Basis Dimension        Dim             ....  685

ORBITAL ENERGIES
----------------
                 SPIN UP ORBITALS
  NO   OCC          E(Eh)            E(eV)
   0   1.0000    -215.308359     -5858.8383
   1   1.0000     -24.607946      -669.6163
   2   1.0000     -20.875847      -568.0607
   3   1.0000     -20.875657      -568.0555
   4   1.0000     -20.871746      -567.9491
   5   1.0000      -4.130113      -112.3861
   6   1.0000      -4.130040      -112.3841
   7   1.0000      -4.126772      -112.2952
   8   1.0000      -4.124405      -112.2308
   9   1.0000      -4.124014      -112.2201
  10   1.0000      -4.123690      -112.2113
  11   1.0000      -4.123537      -112.2071
  12   1.0000      -4.123254      -112.1995
  13   1.0000      -4.122832      -112.1880
  14   1.0000      -4.121317      -112.1467
  15   1.0000      -4.113221      -111.9264
  16   1.0000      -4.113191      -111.9256
  17   1.0000      -4.111766      -111.8868
  18   1.0000      -4.107981      -111.7839
  19   1.0000      -4.107853      -111.7804
  20   1.0000      -4.103697      -111.6673
  21   1.0000      -2.923635       -79.5562
  22   1.0000      -2.319261       -63.1103
  23   1.0000      -2.319162       -63.1076
  24   1.0000      -2.316203       -63.0271
  25   1.0000      -2.315120       -62.9976
  26   1.0000      -2.315084       -62.9966
  27   1.0000      -2.314578       -62.9829
  28   1.0000      -2.314327       -62.9760
  29   1.0000      -2.313385       -62.9504
  30   1.0000      -2.313343       -62.9493
  31   1.0000      -2.312567       -62.9281
  32   1.0000      -2.312462       -62.9253
  33   1.0000      -2.311337       -62.8947
  34   1.0000      -2.311109       -62.8885
  35   1.0000      -2.310767       -62.8792
  36   1.0000      -2.310111       -62.8613
  37   1.0000      -2.310060       -62.8599
  38   1.0000      -2.309956       -62.8571
  39   1.0000      -2.308791       -62.8254
  40   1.0000      -2.308679       -62.8224
  41   1.0000      -2.308375       -62.8141
  42   1.0000      -2.308221       -62.8099
  43   1.0000      -2.307846       -62.7997
  44   1.0000      -2.307382       -62.7871
  45   1.0000      -2.306779       -62.7706
  46   1.0000      -2.306315       -62.7580
  47   1.0000      -2.306003       -62.7495
  48   1.0000      -2.305818       -62.7445
  49   1.0000      -2.305634       -62.7395
  50   1.0000      -2.304739       -62.7151
  51   1.0000      -2.304199       -62.7004
  52   1.0000      -2.302135       -62.6443
  53   1.0000      -2.301370       -62.6235
  54   1.0000      -2.300513       -62.6001
  55   1.0000      -2.300359       -62.5959
  56   1.0000      -2.298744       -62.5520
  57   1.0000      -2.298670       -62.5500
  58   1.0000      -2.296768       -62.4982
  59   1.0000      -2.295965       -62.4764
  60   1.0000      -2.295662       -62.4682
  61   1.0000      -2.295189       -62.4553
  62   1.0000      -2.294646       -62.4405
  63   1.0000      -2.294046       -62.4242
  64   1.0000      -2.293754       -62.4162
  65   1.0000      -2.291359       -62.3510
  66   1.0000      -2.290793       -62.3356
  67   1.0000      -2.289758       -62.3075
  68   1.0000      -2.289373       -62.2970
  69   1.0000      -2.285602       -62.1944
  70   1.0000      -1.873390       -50.9775
  71   1.0000      -1.869598       -50.8744
  72   1.0000      -1.867871       -50.8274
  73   1.0000      -0.437262       -11.8985
  74   1.0000      -0.399502       -10.8710
  75   1.0000      -0.398818       -10.8524
  76   1.0000      -0.392140       -10.6707
  77   1.0000      -0.391399       -10.6505
  78   1.0000      -0.389927       -10.6105
  79   1.0000      -0.373415       -10.1611
  80   1.0000      -0.372417       -10.1340
  81   1.0000      -0.371811       -10.1175
  82   1.0000      -0.369418       -10.0524
  83   1.0000      -0.368441       -10.0258
  84   1.0000      -0.365460        -9.9447
  85   1.0000      -0.364469        -9.9177
  86   1.0000      -0.363736        -9.8977
  87   1.0000      -0.362504        -9.8642
  88   1.0000      -0.362310        -9.8590
  89   1.0000      -0.358853        -9.7649
  90   1.0000      -0.357429        -9.7261
  91   1.0000      -0.354779        -9.6540
  92   1.0000      -0.353317        -9.6143
  93   1.0000      -0.352275        -9.5859
  94   1.0000      -0.350312        -9.5325
  95   1.0000      -0.350053        -9.5254
  96   1.0000      -0.348630        -9.4867
  97   1.0000      -0.346800        -9.4369
  98   1.0000      -0.344764        -9.3815
  99   1.0000      -0.344107        -9.3636
 100   1.0000      -0.338108        -9.2004
 101   1.0000      -0.336167        -9.1476
 102   1.0000      -0.335974        -9.1423
 103   1.0000      -0.334262        -9.0957
 104   1.0000      -0.333407        -9.0725
 105   1.0000      -0.332952        -9.0601
 106   1.0000      -0.329787        -8.9740
 107   1.0000      -0.327173        -8.9028
 108   1.0000      -0.324567        -8.8319
 109   1.0000      -0.322224        -8.7682
 110   1.0000      -0.315915        -8.5965
 111   1.0000      -0.315789        -8.5931
 112   1.0000      -0.314173        -8.5491
 113   1.0000      -0.313691        -8.5360
 114   1.0000      -0.310509        -8.4494
 115   1.0000      -0.306085        -8.3290
 116   1.0000      -0.303431        -8.2568
 117   1.0000      -0.300072        -8.1654
 118   1.0000      -0.296392        -8.0652
 119   1.0000      -0.294837        -8.0229
 120   1.0000      -0.292861        -7.9692
 121   1.0000      -0.290244        -7.8980
 122   1.0000      -0.289443        -7.8761
 123   1.0000      -0.289264        -7.8713
 124   1.0000      -0.288243        -7.8435
 125   1.0000      -0.286424        -7.7940
 126   1.0000      -0.284771        -7.7490
 127   1.0000      -0.284606        -7.7445
 128   1.0000      -0.283497        -7.7143
 129   1.0000      -0.283224        -7.7069
 130   1.0000      -0.282537        -7.6882
 131   1.0000      -0.280812        -7.6413
 132   1.0000      -0.277088        -7.5399
 133   1.0000      -0.275443        -7.4952
 134   1.0000      -0.274652        -7.4737
 135   1.0000      -0.273584        -7.4446
 136   1.0000      -0.273389        -7.4393
 137   1.0000      -0.272801        -7.4233
 138   1.0000      -0.268685        -7.3113
 139   1.0000      -0.267853        -7.2887
 140   1.0000      -0.267040        -7.2665
 141   1.0000      -0.265019        -7.2115
 142   1.0000      -0.264724        -7.2035
 143   1.0000      -0.263452        -7.1689
 144   1.0000      -0.261479        -7.1152
 145   1.0000      -0.259719        -7.0673
 146   1.0000      -0.258050        -7.0219
 147   1.0000      -0.256565        -6.9815
 148   1.0000      -0.255521        -6.9531
 149   1.0000      -0.254854        -6.9349
 150   1.0000      -0.254169        -6.9163
 151   1.0000      -0.247410        -6.7324
 152   1.0000      -0.247086        -6.7235
 153   1.0000      -0.246571        -6.7095
 154   1.0000      -0.246482        -6.7071
 155   1.0000      -0.244199        -6.6450
 156   1.0000      -0.235263        -6.4018
 157   1.0000      -0.234043        -6.3686
 158   1.0000      -0.233385        -6.3507
 159   1.0000      -0.231832        -6.3085
 160   1.0000      -0.227034        -6.1779
 161   1.0000      -0.225435        -6.1344
 162   1.0000      -0.210936        -5.7399
 163   1.0000      -0.208630        -5.6771
 164   1.0000      -0.205833        -5.6010
 165   0.0000      -0.188561        -5.1310
 166   0.0000      -0.186676        -5.0797
 167   0.0000      -0.140628        -3.8267
 168   0.0000      -0.138734        -3.7751
 169   0.0000      -0.136224        -3.7068

                 SPIN DOWN ORBITALS
  NO   OCC          E(Eh)            E(eV)
   0   1.0000    -215.307791     -5858.8228
   1   1.0000     -24.549228      -668.0185
   2   1.0000     -20.834318      -566.9306
   3   1.0000     -20.833195      -566.9001
   4   1.0000     -20.820091      -566.5435
   5   1.0000      -4.130867      -112.4066
   6   1.0000      -4.130816      -112.4052
   7   1.0000      -4.126917      -112.2991
   8   1.0000      -4.124071      -112.2217
   9   1.0000      -4.123998      -112.2197
  10   1.0000      -4.123874      -112.2163
  11   1.0000      -4.123498      -112.2061
  12   1.0000      -4.122938      -112.1908
  13   1.0000      -4.122504      -112.1790
  14   1.0000      -4.121173      -112.1428
  15   1.0000      -4.113385      -111.9309
  16   1.0000      -4.113342      -111.9297
  17   1.0000      -4.112483      -111.9063
  18   1.0000      -4.108704      -111.8035
  19   1.0000      -4.108582      -111.8002
  20   1.0000      -4.104306      -111.6839
  21   1.0000      -2.770648       -75.3932
  22   1.0000      -2.319952       -63.1291
  23   1.0000      -2.319867       -63.1268
  24   1.0000      -2.316352       -63.0311
  25   1.0000      -2.315811       -63.0164
  26   1.0000      -2.315772       -63.0154
  27   1.0000      -2.314482       -62.9802
  28   1.0000      -2.314426       -62.9787
  29   1.0000      -2.313834       -62.9626
  30   1.0000      -2.313728       -62.9598
  31   1.0000      -2.312606       -62.9292
  32   1.0000      -2.312352       -62.9223
  33   1.0000      -2.311060       -62.8871
  34   1.0000      -2.310813       -62.8804
  35   1.0000      -2.310449       -62.8705
  36   1.0000      -2.309954       -62.8570
  37   1.0000      -2.309737       -62.8511
  38   1.0000      -2.309411       -62.8423
  39   1.0000      -2.308640       -62.8213
  40   1.0000      -2.308159       -62.8082
  41   1.0000      -2.307943       -62.8023
  42   1.0000      -2.307570       -62.7922
  43   1.0000      -2.307176       -62.7815
  44   1.0000      -2.306987       -62.7763
  45   1.0000      -2.306628       -62.7665
  46   1.0000      -2.306239       -62.7560
  47   1.0000      -2.306072       -62.7514
  48   1.0000      -2.305907       -62.7469
  49   1.0000      -2.305180       -62.7271
  50   1.0000      -2.304827       -62.7175
  51   1.0000      -2.304199       -62.7004
  52   1.0000      -2.302536       -62.6552
  53   1.0000      -2.301535       -62.6280
  54   1.0000      -2.300632       -62.6034
  55   1.0000      -2.300472       -62.5990
  56   1.0000      -2.299386       -62.5695
  57   1.0000      -2.299336       -62.5681
  58   1.0000      -2.297337       -62.5137
  59   1.0000      -2.296421       -62.4888
  60   1.0000      -2.296133       -62.4810
  61   1.0000      -2.295703       -62.4693
  62   1.0000      -2.295145       -62.4541
  63   1.0000      -2.294671       -62.4412
  64   1.0000      -2.294088       -62.4253
  65   1.0000      -2.292031       -62.3693
  66   1.0000      -2.291647       -62.3589
  67   1.0000      -2.290386       -62.3246
  68   1.0000      -2.289941       -62.3124
  69   1.0000      -2.285879       -62.2019
  70   1.0000      -1.729842       -47.0714
  71   1.0000      -1.726653       -46.9846
  72   1.0000      -1.695642       -46.1408
  73   1.0000      -0.432528       -11.7697
  74   1.0000      -0.400562       -10.8998
  75   1.0000      -0.399278       -10.8649
  76   1.0000      -0.390769       -10.6334
  77   1.0000      -0.388161       -10.5624
  78   1.0000      -0.387281       -10.5384
  79   1.0000      -0.374650       -10.1948
  80   1.0000      -0.372562       -10.1379
  81   1.0000      -0.372219       -10.1286
  82   1.0000      -0.370000       -10.0682
  83   1.0000      -0.368619       -10.0306
  84   1.0000      -0.365694        -9.9510
  85   1.0000      -0.363736        -9.8978
  86   1.0000      -0.361919        -9.8483
  87   1.0000      -0.361135        -9.8270
  88   1.0000      -0.360980        -9.8228
  89   1.0000      -0.358843        -9.7646
  90   1.0000      -0.357791        -9.7360
  91   1.0000      -0.355224        -9.6661
  92   1.0000      -0.354028        -9.6336
  93   1.0000      -0.353172        -9.6103
  94   1.0000      -0.350422        -9.5355
  95   1.0000      -0.350243        -9.5306
  96   1.0000      -0.349822        -9.5191
  97   1.0000      -0.347764        -9.4631
  98   1.0000      -0.345014        -9.3883
  99   1.0000      -0.343125        -9.3369
 100   1.0000      -0.338635        -9.2147
 101   1.0000      -0.337265        -9.1774
 102   1.0000      -0.335769        -9.1367
 103   1.0000      -0.335104        -9.1186
 104   1.0000      -0.334099        -9.0913
 105   1.0000      -0.332987        -9.0610
 106   1.0000      -0.331011        -9.0073
 107   1.0000      -0.323808        -8.8113
 108   1.0000      -0.322780        -8.7833
 109   1.0000      -0.321876        -8.7587
 110   1.0000      -0.316942        -8.6244
 111   1.0000      -0.316266        -8.6060
 112   1.0000      -0.314923        -8.5695
 113   1.0000      -0.312664        -8.5080
 114   1.0000      -0.309507        -8.4221
 115   1.0000      -0.305340        -8.3087
 116   1.0000      -0.303042        -8.2462
 117   1.0000      -0.301083        -8.1929
 118   1.0000      -0.296997        -8.0817
 119   1.0000      -0.294398        -8.0110
 120   1.0000      -0.293238        -7.9794
 121   1.0000      -0.290982        -7.9180
 122   1.0000      -0.290577        -7.9070
 123   1.0000      -0.289359        -7.8739
 124   1.0000      -0.289010        -7.8644
 125   1.0000      -0.287353        -7.8193
 126   1.0000      -0.285486        -7.7685
 127   1.0000      -0.284817        -7.7503
 128   1.0000      -0.284351        -7.7376
 129   1.0000      -0.283278        -7.7084
 130   1.0000      -0.283120        -7.7041
 131   1.0000      -0.281275        -7.6539
 132   1.0000      -0.278165        -7.5692
 133   1.0000      -0.276727        -7.5301
 134   1.0000      -0.274784        -7.4773
 135   1.0000      -0.274531        -7.4704
 136   1.0000      -0.274194        -7.4612
 137   1.0000      -0.273114        -7.4318
 138   1.0000      -0.270149        -7.3511
 139   1.0000      -0.269274        -7.3273
 140   1.0000      -0.267393        -7.2761
 141   1.0000      -0.266570        -7.2537
 142   1.0000      -0.265719        -7.2306
 143   1.0000      -0.264519        -7.1979
 144   1.0000      -0.262742        -7.1496
 145   1.0000      -0.261394        -7.1129
 146   1.0000      -0.259407        -7.0588
 147   1.0000      -0.257622        -7.0103
 148   1.0000      -0.257259        -7.0004
 149   1.0000      -0.255975        -6.9654
 150   1.0000      -0.255736        -6.9589
 151   1.0000      -0.249817        -6.7979
 152   1.0000      -0.247799        -6.7430
 153   1.0000      -0.247375        -6.7314
 154   1.0000      -0.246513        -6.7080
 155   1.0000      -0.245128        -6.6703
 156   1.0000      -0.234490        -6.3808
 157   1.0000      -0.229398        -6.2422
 158   1.0000      -0.226689        -6.1685
 159   1.0000      -0.216870        -5.9013
 160   1.0000      -0.213651        -5.8137
 161   1.0000      -0.210544        -5.7292
 162   1.0000      -0.154633        -4.2078
 163   0.0000      -0.147254        -4.0070
 164   0.0000      -0.147136        -4.0038
 165   0.0000      -0.144195        -3.9237
 166   0.0000      -0.136247        -3.7075
 167   0.0000      -0.120711        -3.2847

MULLIKEN ATOMIC CHARGES AND SPIN POPULATIONS
--------------------------------------------
   0 Au:    0.192331   -0.067681
   1 Au:    0.029877   -0.068734
   2 Au:    0.239504   -0.011747
   3 Au:    0.181451   -0.226908
   4 Au:    0.002282   -0.023959
   5 Au:    0.178861   -0.233517
   6 Au:    0.025896    0.017307
   7 Au:    0.241574   -0.005710
   8 Au:    0.481806   -0.119256
   9 Au:    0.028542   -0.070348
  10 Au:    0.508876   -0.006105
  11 Au:    0.508917   -0.007331
  12 Au:    0.484458   -0.113686
  13 Au:    0.053946   -0.071466
  14 Au:    0.535310   -0.013078
  15 Au:    0.049885   -0.071840
  16 Cr:   -3.743514    3.094059
Sum of atomic charges         :   -0.0000000

LOEWDIN ATOMIC CHARGES AND SPIN POPULATIONS
-------------------------------------------
   0 Au:    0.029364   -0.059959
   1 Au:    0.042455   -0.101155
   2 Au:    0.032542   -0.070011
   3 Au:    0.014350   -0.153855
   4 Au:    0.026576   -0.054995
   5 Au:    0.013814   -0.154596
   6 Au:   -0.016768   -0.033730
   7 Au:    0.034302   -0.066252
   8 Au:    0.150349   -0.112642
   9 Au:    0.042130   -0.101198
  10 Au:    0.148976   -0.036331
  11 Au:    0.149566   -0.036734
  12 Au:    0.150943   -0.109335
  13 Au:    0.037283   -0.058979
  14 Au:    0.139508   -0.068792
  15 Au:    0.037496   -0.059111
  16 Cr:   -1.032885    3.277674

  Mayer bond orders larger than 0.100000
B(  0-Au,  2-Au) :   0.2325 B(  0-Au,  6-Au) :   0.2851 B(  0-Au,  7-Au) :   0.2297
B(  0-Au, 13-Au) :   0.2486 B(  0-Au, 15-Au) :   0.2406 B(  0-Au, 16-Cr) :   0.2464
B(  1-Au,  2-Au) :   0.2466 B(  1-Au,  3-Au) :   0.2566 B(  1-Au,  4-Au) :   0.1843
B(  1-Au, 11-Au) :   0.2181 B(  1-Au, 12-Au) :   0.1560 B(  1-Au, 13-Au) :   0.1639
B(  1-Au, 16-Cr) :   0.6313 B(  2-Au,  3-Au) :   0.2087 B(  2-Au,  6-Au) :   0.2942
B(  2-Au, 13-Au) :   0.3102 B(  2-Au, 16-Cr) :   0.2358 B(  3-Au,  4-Au) :   0.2722
B(  3-Au,  5-Au) :   0.1205 B(  3-Au,  6-Au) :   0.2906 B(  3-Au, 16-Cr) :   0.1635
B(  4-Au,  5-Au) :   0.2797 B(  4-Au,  9-Au) :   0.1885 B(  4-Au, 10-Au) :   0.2000
B(  4-Au, 11-Au) :   0.2001 B(  4-Au, 16-Cr) :   0.5439 B(  5-Au,  6-Au) :   0.2927
B(  5-Au,  7-Au) :   0.2011 B(  5-Au,  9-Au) :   0.2524 B(  5-Au, 16-Cr) :   0.1598
B(  6-Au,  7-Au) :   0.2939 B(  6-Au, 16-Cr) :   0.1023 B(  7-Au,  9-Au) :   0.2467
B(  7-Au, 15-Au) :   0.3149 B(  7-Au, 16-Cr) :   0.2357 B(  8-Au,  9-Au) :   0.1525
B(  8-Au, 10-Au) :   0.2208 B(  8-Au, 14-Au) :   0.2233 B(  8-Au, 15-Au) :   0.1324
B(  8-Au, 16-Cr) :   0.7121 B(  9-Au, 10-Au) :   0.2186 B(  9-Au, 15-Au) :   0.1687
B(  9-Au, 16-Cr) :   0.6297 B( 10-Au, 11-Au) :   0.2244 B( 10-Au, 16-Cr) :   0.4800
B( 11-Au, 12-Au) :   0.2216 B( 11-Au, 16-Cr) :   0.4861 B( 12-Au, 13-Au) :   0.1339
B( 12-Au, 14-Au) :   0.2252 B( 12-Au, 16-Cr) :   0.7045 B( 13-Au, 14-Au) :   0.2059
B( 13-Au, 16-Cr) :   0.5258 B( 14-Au, 15-Au) :   0.2086 B( 14-Au, 16-Cr) :   0.5406
B( 15-Au, 16-Cr) :   0.5310

FINAL SINGLE POINT ENERGY     -3218.004955975574

DIPOLE MOMENT
-------------
                                X             Y             Z
Electronic contribution:     31.66025      29.02895      13.03678
Nuclear contribution   :    -32.31465     -29.74013     -13.37381
                        -----------------------------------------
Total Dipole Moment    :     -0.65440      -0.71118      -0.33703
                        -----------------------------------------
Magnitude (a.u.)       :      1.02353
Magnitude (Debye)      :      2.60160

Rotational constants in cm-1:     0.000949     0.000760     0.000752
Rotational constants in MHz :    28.439881    22.793878    22.549729

                             ****ORCA TERMINATED NORMALLY****
TOTAL RUN TIME: 0 days 1 hours 29 minutes 4 seconds 370 msec
