                         Program Version 5.0.3 -  RELEASE  -
|  1> %pal nprocs 1 end
|  2>
|  3> !PBE def2-TZVP OPT UNO
|  4> !SLOWCONV KDIIS
|  5>
|  6> %geom maxiter 300 end
|  7>
|  8> *xyzfile 0 5 8.xyz                           ****END OF INPUT****
 Total Charge           Charge          ....    0
 Multiplicity           Mult            ....    5
 Number of Electrons    NEL             ....  254
FINAL SINGLE POINT ENERGY     -2893.381555165124
FINAL SINGLE POINT ENERGY     -2893.383359454999
FINAL SINGLE POINT ENERGY     -2893.384047864471
FINAL SINGLE POINT ENERGY     -2893.384884302183
FINAL SINGLE POINT ENERGY     -2893.385820576418
FINAL SINGLE POINT ENERGY     -2893.386524711060
FINAL SINGLE POINT ENERGY     -2893.386991696304
FINAL SINGLE POINT ENERGY     -2893.387291336070
FINAL SINGLE POINT ENERGY     -2893.387445267184
FINAL SINGLE POINT ENERGY     -2893.387503159781
FINAL SINGLE POINT ENERGY     -2893.392276972079
FINAL SINGLE POINT ENERGY     -2893.392334543079
FINAL SINGLE POINT ENERGY     -2893.392387220371
FINAL SINGLE POINT ENERGY     -2893.392419229749
FINAL SINGLE POINT ENERGY     -2893.392449250326
FINAL SINGLE POINT ENERGY     -2893.392470801658
FINAL SINGLE POINT ENERGY     -2893.392487070052
FINAL SINGLE POINT ENERGY     -2893.392494720508
FINAL SINGLE POINT ENERGY     -2893.392498181138
                    ***********************HURRAY********************

CARTESIAN COORDINATES (ANGSTROEM)
---------------------------------
  Au     7.401251    9.845662    7.738217
  Au     5.194864   11.269422    6.900361
  Au     4.742720    9.049983    8.402202
  Au     8.780195    7.522906    8.247011
  Au     8.642304    8.446671    5.593223
  Au     7.052702   10.570768    4.899579
  Au     4.651188    6.242341    8.391118
  Au     6.143690    7.826991    4.368060
  Au     7.709229    5.802029    5.362794
  Au     7.191768    5.215650    8.058502
  Au     3.881953    7.690258    6.115396
  Au     4.325212    9.887274    4.580559
  Fe     6.447132    7.497453    6.975368

 Multiplicity           Mult            ....    5
 Number of Electrons    NEL             ....  254
 Basis Dimension        Dim             ....  525

ORBITAL ENERGIES
----------------
                 SPIN UP ORBITALS
  NO   OCC          E(Eh)            E(eV)
   0   1.0000    -254.766433     -6932.5471
   1   1.0000     -29.607894      -805.6718
   2   1.0000     -25.551932      -695.3034
   3   1.0000     -25.541048      -695.0073
   4   1.0000     -25.535361      -694.8525
   5   1.0000      -4.036819      -109.8474
   6   1.0000      -4.036707      -109.8444
   7   1.0000      -4.031493      -109.7025
   8   1.0000      -4.030151      -109.6660
   9   1.0000      -4.030001      -109.6619
  10   1.0000      -4.027944      -109.6059
  11   1.0000      -4.019815      -109.3847
  12   1.0000      -4.018431      -109.3471
  13   1.0000      -4.018423      -109.3468
  14   1.0000      -4.016481      -109.2940
  15   1.0000      -4.016242      -109.2875
  16   1.0000      -4.013762      -109.2200
  17   1.0000      -3.387411       -92.1761
  18   1.0000      -2.253569       -61.3227
  19   1.0000      -2.253517       -61.3213
  20   1.0000      -2.249996       -61.2255
  21   1.0000      -2.249835       -61.2211
  22   1.0000      -2.247930       -61.1693
  23   1.0000      -2.247199       -61.1494
  24   1.0000      -2.246680       -61.1353
  25   1.0000      -2.245884       -61.1136
  26   1.0000      -2.245182       -61.0945
  27   1.0000      -2.245159       -61.0939
  28   1.0000      -2.244653       -61.0801
  29   1.0000      -2.243844       -61.0581
  30   1.0000      -2.243703       -61.0543
  31   1.0000      -2.242575       -61.0236
  32   1.0000      -2.240108       -60.9564
  33   1.0000      -2.239782       -60.9476
  34   1.0000      -2.237991       -60.8988
  35   1.0000      -2.237336       -60.8810
  36   1.0000      -2.237015       -60.8723
  37   1.0000      -2.234953       -60.8162
  38   1.0000      -2.234911       -60.8150
  39   1.0000      -2.232296       -60.7439
  40   1.0000      -2.232035       -60.7368
  41   1.0000      -2.231970       -60.7350
  42   1.0000      -2.231465       -60.7212
  43   1.0000      -2.230681       -60.6999
  44   1.0000      -2.230011       -60.6817
  45   1.0000      -2.229712       -60.6735
  46   1.0000      -2.228740       -60.6471
  47   1.0000      -2.228326       -60.6358
  48   1.0000      -2.227196       -60.6051
  49   1.0000      -2.227148       -60.6038
  50   1.0000      -2.227104       -60.6026
  51   1.0000      -2.226350       -60.5821
  52   1.0000      -2.225067       -60.5471
  53   1.0000      -2.224395       -60.5289
  54   1.0000      -2.219034       -60.3830
  55   1.0000      -2.196608       -59.7727
  56   1.0000      -2.186273       -59.4915
  57   1.0000      -0.424930       -11.5629
  58   1.0000      -0.381999       -10.3947
  59   1.0000      -0.381493       -10.3810
  60   1.0000      -0.380226       -10.3465
  61   1.0000      -0.370797       -10.0899
  62   1.0000      -0.366839        -9.9822
  63   1.0000      -0.365857        -9.9555
  64   1.0000      -0.357149        -9.7185
  65   1.0000      -0.356778        -9.7084
  66   1.0000      -0.356039        -9.6883
  67   1.0000      -0.349964        -9.5230
  68   1.0000      -0.346105        -9.4180
  69   1.0000      -0.345819        -9.4102
  70   1.0000      -0.342837        -9.3291
  71   1.0000      -0.342282        -9.3140
  72   1.0000      -0.338612        -9.2141
  73   1.0000      -0.337104        -9.1731
  74   1.0000      -0.333919        -9.0864
  75   1.0000      -0.333524        -9.0756
  76   1.0000      -0.330471        -8.9926
  77   1.0000      -0.329633        -8.9698
  78   1.0000      -0.327972        -8.9246
  79   1.0000      -0.320285        -8.7154
  80   1.0000      -0.320133        -8.7113
  81   1.0000      -0.319049        -8.6818
  82   1.0000      -0.316844        -8.6218
  83   1.0000      -0.313824        -8.5396
  84   1.0000      -0.306763        -8.3474
  85   1.0000      -0.306511        -8.3406
  86   1.0000      -0.303132        -8.2486
  87   1.0000      -0.300936        -8.1889
  88   1.0000      -0.299147        -8.1402
  89   1.0000      -0.297259        -8.0888
  90   1.0000      -0.294287        -8.0079
  91   1.0000      -0.290776        -7.9124
  92   1.0000      -0.287563        -7.8250
  93   1.0000      -0.285790        -7.7767
  94   1.0000      -0.282460        -7.6861
  95   1.0000      -0.280534        -7.6337
  96   1.0000      -0.278849        -7.5879
  97   1.0000      -0.277672        -7.5559
  98   1.0000      -0.274873        -7.4797
  99   1.0000      -0.273481        -7.4418
 100   1.0000      -0.272705        -7.4207
 101   1.0000      -0.270833        -7.3697
 102   1.0000      -0.267797        -7.2871
 103   1.0000      -0.266014        -7.2386
 104   1.0000      -0.265509        -7.2249
 105   1.0000      -0.262633        -7.1466
 106   1.0000      -0.262307        -7.1377
 107   1.0000      -0.260469        -7.0877
 108   1.0000      -0.260092        -7.0775
 109   1.0000      -0.259113        -7.0508
 110   1.0000      -0.257115        -6.9964
 111   1.0000      -0.255533        -6.9534
 112   1.0000      -0.254901        -6.9362
 113   1.0000      -0.253588        -6.9005
 114   1.0000      -0.251378        -6.8403
 115   1.0000      -0.249967        -6.8020
 116   1.0000      -0.248944        -6.7741
 117   1.0000      -0.247528        -6.7356
 118   1.0000      -0.246996        -6.7211
 119   1.0000      -0.244387        -6.6501
 120   1.0000      -0.242717        -6.6047
 121   1.0000      -0.240637        -6.5481
 122   1.0000      -0.239773        -6.5246
 123   1.0000      -0.239469        -6.5163
 124   1.0000      -0.234303        -6.3757
 125   1.0000      -0.232183        -6.3180
 126   1.0000      -0.207801        -5.6546
 127   1.0000      -0.197521        -5.3748
 128   1.0000      -0.196141        -5.3373
 129   0.0000      -0.162499        -4.4218
 130   0.0000      -0.155613        -4.2345
 131   0.0000      -0.131695        -3.5836
 132   0.0000      -0.124323        -3.3830
 133   0.0000      -0.121726        -3.3123

                 SPIN DOWN ORBITALS
  NO   OCC          E(Eh)            E(eV)
   0   1.0000    -254.765689     -6932.5268
   1   1.0000     -29.547109      -804.0177
   2   1.0000     -25.501749      -693.9379
   3   1.0000     -25.496099      -693.7841
   4   1.0000     -25.492736      -693.6926
   5   1.0000      -4.035630      -109.8151
   6   1.0000      -4.035518      -109.8120
   7   1.0000      -4.030898      -109.6863
   8   1.0000      -4.029226      -109.6408
   9   1.0000      -4.029073      -109.6366
  10   1.0000      -4.026496      -109.5665
  11   1.0000      -4.018304      -109.3436
  12   1.0000      -4.017711      -109.3275
  13   1.0000      -4.017694      -109.3270
  14   1.0000      -4.016299      -109.2891
  15   1.0000      -4.016060      -109.2825
  16   1.0000      -4.013508      -109.2131
  17   1.0000      -3.250141       -88.4408
  18   1.0000      -2.251894       -61.2772
  19   1.0000      -2.251852       -61.2760
  20   1.0000      -2.248825       -61.1936
  21   1.0000      -2.248659       -61.1891
  22   1.0000      -2.246459       -61.1293
  23   1.0000      -2.246132       -61.1203
  24   1.0000      -2.245595       -61.1058
  25   1.0000      -2.244462       -61.0749
  26   1.0000      -2.244381       -61.0727
  27   1.0000      -2.244107       -61.0652
  28   1.0000      -2.243063       -61.0368
  29   1.0000      -2.242743       -61.0281
  30   1.0000      -2.242267       -61.0152
  31   1.0000      -2.242227       -61.0141
  32   1.0000      -2.239392       -60.9370
  33   1.0000      -2.238632       -60.9163
  34   1.0000      -2.237381       -60.8822
  35   1.0000      -2.235479       -60.8305
  36   1.0000      -2.234786       -60.8116
  37   1.0000      -2.233962       -60.7892
  38   1.0000      -2.233936       -60.7885
  39   1.0000      -2.232151       -60.7399
  40   1.0000      -2.231398       -60.7194
  41   1.0000      -2.230864       -60.7049
  42   1.0000      -2.230789       -60.7028
  43   1.0000      -2.230444       -60.6935
  44   1.0000      -2.229459       -60.6667
  45   1.0000      -2.228884       -60.6510
  46   1.0000      -2.228131       -60.6305
  47   1.0000      -2.227423       -60.6113
  48   1.0000      -2.226941       -60.5982
  49   1.0000      -2.226817       -60.5948
  50   1.0000      -2.226774       -60.5936
  51   1.0000      -2.226090       -60.5750
  52   1.0000      -2.224776       -60.5392
  53   1.0000      -2.224106       -60.5210
  54   1.0000      -2.072216       -56.3879
  55   1.0000      -2.064806       -56.1862
  56   1.0000      -2.062297       -56.1180
  57   1.0000      -0.419449       -11.4138
  58   1.0000      -0.378945       -10.3116
  59   1.0000      -0.377013       -10.2590
  60   1.0000      -0.376048       -10.2328
  61   1.0000      -0.363634        -9.8950
  62   1.0000      -0.360297        -9.8042
  63   1.0000      -0.359334        -9.7780
  64   1.0000      -0.351570        -9.5667
  65   1.0000      -0.349792        -9.5183
  66   1.0000      -0.346135        -9.4188
  67   1.0000      -0.344319        -9.3694
  68   1.0000      -0.343009        -9.3338
  69   1.0000      -0.339747        -9.2450
  70   1.0000      -0.338678        -9.2159
  71   1.0000      -0.338478        -9.2105
  72   1.0000      -0.335764        -9.1366
  73   1.0000      -0.335590        -9.1319
  74   1.0000      -0.329830        -8.9751
  75   1.0000      -0.329292        -8.9605
  76   1.0000      -0.327430        -8.9098
  77   1.0000      -0.326512        -8.8848
  78   1.0000      -0.319816        -8.7026
  79   1.0000      -0.318214        -8.6590
  80   1.0000      -0.317380        -8.6364
  81   1.0000      -0.313330        -8.5262
  82   1.0000      -0.309796        -8.4300
  83   1.0000      -0.306421        -8.3381
  84   1.0000      -0.304429        -8.2839
  85   1.0000      -0.300755        -8.1839
  86   1.0000      -0.300077        -8.1655
  87   1.0000      -0.299696        -8.1551
  88   1.0000      -0.295066        -8.0291
  89   1.0000      -0.294405        -8.0112
  90   1.0000      -0.288103        -7.8397
  91   1.0000      -0.285704        -7.7744
  92   1.0000      -0.283395        -7.7116
  93   1.0000      -0.281145        -7.6503
  94   1.0000      -0.276890        -7.5346
  95   1.0000      -0.275549        -7.4981
  96   1.0000      -0.274604        -7.4723
  97   1.0000      -0.274592        -7.4720
  98   1.0000      -0.273081        -7.4309
  99   1.0000      -0.270690        -7.3658
 100   1.0000      -0.270235        -7.3535
 101   1.0000      -0.269632        -7.3370
 102   1.0000      -0.263951        -7.1825
 103   1.0000      -0.263581        -7.1724
 104   1.0000      -0.263160        -7.1610
 105   1.0000      -0.259175        -7.0525
 106   1.0000      -0.258777        -7.0417
 107   1.0000      -0.257588        -7.0093
 108   1.0000      -0.257419        -7.0047
 109   1.0000      -0.255055        -6.9404
 110   1.0000      -0.251678        -6.8485
 111   1.0000      -0.251139        -6.8338
 112   1.0000      -0.249477        -6.7886
 113   1.0000      -0.247205        -6.7268
 114   1.0000      -0.246318        -6.7027
 115   1.0000      -0.244580        -6.6554
 116   1.0000      -0.243180        -6.6173
 117   1.0000      -0.239453        -6.5158
 118   1.0000      -0.239242        -6.5101
 119   1.0000      -0.234030        -6.3683
 120   1.0000      -0.231411        -6.2970
 121   1.0000      -0.212153        -5.7730
 122   1.0000      -0.205435        -5.5902
 123   1.0000      -0.203802        -5.5457
 124   1.0000      -0.188196        -5.1211
 125   0.0000      -0.175014        -4.7624
 126   0.0000      -0.171338        -4.6623
 127   0.0000      -0.163504        -4.4492
 128   0.0000      -0.158169        -4.3040
 129   0.0000      -0.152086        -4.1385

MULLIKEN ATOMIC CHARGES AND SPIN POPULATIONS
--------------------------------------------
   0 Au:    0.049247    0.014964
   1 Au:    0.146519    0.079262
   2 Au:    0.132606    0.051556
   3 Au:    0.284985    0.087746
   4 Au:    0.170739   -0.002735
   5 Au:   -0.007293    0.135439
   6 Au:    0.262726    0.131447
   7 Au:    0.041304    0.014743
   8 Au:    0.286456    0.087669
   9 Au:    0.264725    0.102087
  10 Au:    0.122757    0.051776
  11 Au:    0.160733    0.078961
  12 Fe:   -1.915504    3.167084
Sum of atomic charges         :   -0.0000000

LOEWDIN ATOMIC CHARGES AND SPIN POPULATIONS
-------------------------------------------
   0 Au:    0.021525    0.048979
   1 Au:    0.009302    0.066197
   2 Au:    0.057787    0.047607
   3 Au:    0.092102    0.045586
   4 Au:    0.015252    0.024951
   5 Au:   -0.017709    0.092740
   6 Au:    0.105932    0.091861
   7 Au:    0.020501    0.048947
   8 Au:    0.092180    0.045581
   9 Au:    0.046976    0.091465
  10 Au:    0.055334    0.047933
  11 Au:    0.013455    0.065861
  12 Fe:   -0.512637    3.282294

  Mayer bond orders larger than 0.100000
B(  0-Au,  1-Au) :   0.3441 B(  0-Au,  2-Au) :   0.2134 B(  0-Au,  3-Au) :   0.3334
B(  0-Au,  4-Au) :   0.1954 B(  0-Au,  5-Au) :   0.2169 B(  0-Au, 12-Fe) :   0.5461
B(  1-Au,  2-Au) :   0.4039 B(  1-Au,  5-Au) :   0.2451 B(  1-Au, 11-Au) :   0.2513
B(  1-Au, 12-Fe) :   0.1428 B(  2-Au,  6-Au) :   0.2038 B(  2-Au, 10-Au) :   0.1933
B(  2-Au, 12-Fe) :   0.5026 B(  3-Au,  4-Au) :   0.1844 B(  3-Au,  9-Au) :   0.2084
B(  3-Au, 12-Fe) :   0.5411 B(  4-Au,  5-Au) :   0.3759 B(  4-Au,  7-Au) :   0.1934
B(  4-Au,  8-Au) :   0.1829 B(  4-Au, 12-Fe) :   0.5037 B(  5-Au,  7-Au) :   0.2210
B(  5-Au, 11-Au) :   0.2363 B(  5-Au, 12-Fe) :   0.2103 B(  6-Au,  9-Au) :   0.2288
B(  6-Au, 10-Au) :   0.2092 B(  6-Au, 12-Fe) :   0.5691 B(  7-Au,  8-Au) :   0.3356
B(  7-Au, 10-Au) :   0.2109 B(  7-Au, 11-Au) :   0.3461 B(  7-Au, 12-Fe) :   0.5481
B(  8-Au,  9-Au) :   0.2093 B(  8-Au, 12-Fe) :   0.5398 B(  9-Au, 12-Fe) :   0.6036
B( 10-Au, 11-Au) :   0.4084 B( 10-Au, 12-Fe) :   0.5038 B( 11-Au, 12-Fe) :   0.1381

FINAL SINGLE POINT ENERGY     -2893.392499809998

DIPOLE MOMENT
-------------
                                X             Y             Z
Electronic contribution:     -5.35665      29.69615     -15.89059
Nuclear contribution   :      5.22753     -29.80973      16.00564
                        -----------------------------------------
Total Dipole Moment    :     -0.12912      -0.11358       0.11506
                        -----------------------------------------
Magnitude (a.u.)       :      0.20690
Magnitude (Debye)      :      0.52591

Rotational constants in cm-1:     0.001621     0.001215     0.001098
Rotational constants in MHz :    48.585564    36.426782    32.920928

                             ****ORCA TERMINATED NORMALLY****
TOTAL RUN TIME: 0 days 5 hours 31 minutes 34 seconds 172 msec
