                         Program Version 5.0.3 -  RELEASE  -
|  1> %pal nprocs 1 end
|  2>
|  3> !PBE def2-TZVP OPT UNO
|  4> !SLOWCONV KDIIS
|  5>
|  6> %geom maxiter 300 end
|  7>
|  8> *xyzfile 0 5 8.xyz                           ****END OF INPUT****
 Total Charge           Charge          ....    0
 Multiplicity           Mult            ....    5
 Number of Electrons    NEL             ....  254
FINAL SINGLE POINT ENERGY     -2893.381555165118
FINAL SINGLE POINT ENERGY     -2893.383359455025
FINAL SINGLE POINT ENERGY     -2893.384047864914
FINAL SINGLE POINT ENERGY     -2893.384884302696
FINAL SINGLE POINT ENERGY     -2893.385820576826
FINAL SINGLE POINT ENERGY     -2893.386524711713
FINAL SINGLE POINT ENERGY     -2893.386991696459
FINAL SINGLE POINT ENERGY     -2893.387291336361
FINAL SINGLE POINT ENERGY     -2893.387445267251
FINAL SINGLE POINT ENERGY     -2893.387503159903
FINAL SINGLE POINT ENERGY     -2893.392289995952
FINAL SINGLE POINT ENERGY     -2893.392337734856
FINAL SINGLE POINT ENERGY     -2893.392399652923
FINAL SINGLE POINT ENERGY     -2893.392425563211
FINAL SINGLE POINT ENERGY     -2893.392458649754
FINAL SINGLE POINT ENERGY     -2893.392476115799
FINAL SINGLE POINT ENERGY     -2893.392489609662
FINAL SINGLE POINT ENERGY     -2893.392496298171
FINAL SINGLE POINT ENERGY     -2893.392498681204
                    ***********************HURRAY********************

CARTESIAN COORDINATES (ANGSTROEM)
---------------------------------
  Au     7.401255    9.845710    7.737992
  Au     5.195237   11.269492    6.900977
  Au     4.742314    9.049742    8.402351
  Au     8.779952    7.523361    8.247403
  Au     8.642196    8.446109    5.592928
  Au     7.052565   10.570659    4.899728
  Au     4.651438    6.242109    8.390803
  Au     6.143691    7.827059    4.367569
  Au     7.708836    5.801718    5.363105
  Au     7.192310    5.215906    8.058673
  Au     3.882160    7.690498    6.115407
  Au     4.325244    9.887418    4.580309
  Fe     6.447010    7.497625    6.975144

 Multiplicity           Mult            ....    5
 Number of Electrons    NEL             ....  254
 Basis Dimension        Dim             ....  525

ORBITAL ENERGIES
----------------
                 SPIN UP ORBITALS
  NO   OCC          E(Eh)            E(eV)
   0   1.0000    -254.766424     -6932.5468
   1   1.0000     -29.607883      -805.6714
   2   1.0000     -25.551921      -695.3031
   3   1.0000     -25.541034      -695.0069
   4   1.0000     -25.535353      -694.8523
   5   1.0000      -4.036828      -109.8477
   6   1.0000      -4.036694      -109.8440
   7   1.0000      -4.031489      -109.7024
   8   1.0000      -4.030149      -109.6659
   9   1.0000      -4.030011      -109.6622
  10   1.0000      -4.027944      -109.6059
  11   1.0000      -4.019812      -109.3846
  12   1.0000      -4.018436      -109.3472
  13   1.0000      -4.018416      -109.3466
  14   1.0000      -4.016470      -109.2937
  15   1.0000      -4.016242      -109.2875
  16   1.0000      -4.013767      -109.2202
  17   1.0000      -3.387400       -92.1758
  18   1.0000      -2.253579       -61.3230
  19   1.0000      -2.253502       -61.3209
  20   1.0000      -2.250003       -61.2257
  21   1.0000      -2.249823       -61.2208
  22   1.0000      -2.247936       -61.1695
  23   1.0000      -2.247198       -61.1494
  24   1.0000      -2.246677       -61.1352
  25   1.0000      -2.245888       -61.1137
  26   1.0000      -2.245180       -61.0945
  27   1.0000      -2.245153       -61.0937
  28   1.0000      -2.244656       -61.0802
  29   1.0000      -2.243840       -61.0580
  30   1.0000      -2.243711       -61.0545
  31   1.0000      -2.242572       -61.0235
  32   1.0000      -2.240113       -60.9566
  33   1.0000      -2.239780       -60.9475
  34   1.0000      -2.237996       -60.8990
  35   1.0000      -2.237329       -60.8808
  36   1.0000      -2.237015       -60.8723
  37   1.0000      -2.234951       -60.8161
  38   1.0000      -2.234909       -60.8150
  39   1.0000      -2.232288       -60.7437
  40   1.0000      -2.232034       -60.7367
  41   1.0000      -2.231973       -60.7351
  42   1.0000      -2.231462       -60.7212
  43   1.0000      -2.230680       -60.6999
  44   1.0000      -2.230008       -60.6816
  45   1.0000      -2.229709       -60.6735
  46   1.0000      -2.228739       -60.6471
  47   1.0000      -2.228326       -60.6358
  48   1.0000      -2.227188       -60.6049
  49   1.0000      -2.227149       -60.6038
  50   1.0000      -2.227099       -60.6025
  51   1.0000      -2.226356       -60.5822
  52   1.0000      -2.225061       -60.5470
  53   1.0000      -2.224399       -60.5290
  54   1.0000      -2.219024       -60.3827
  55   1.0000      -2.196590       -59.7723
  56   1.0000      -2.186269       -59.4914
  57   1.0000      -0.424931       -11.5629
  58   1.0000      -0.381998       -10.3947
  59   1.0000      -0.381502       -10.3812
  60   1.0000      -0.380222       -10.3464
  61   1.0000      -0.370795       -10.0898
  62   1.0000      -0.366840        -9.9822
  63   1.0000      -0.365852        -9.9553
  64   1.0000      -0.357138        -9.7182
  65   1.0000      -0.356772        -9.7082
  66   1.0000      -0.356038        -9.6883
  67   1.0000      -0.349966        -9.5231
  68   1.0000      -0.346098        -9.4178
  69   1.0000      -0.345829        -9.4105
  70   1.0000      -0.342829        -9.3289
  71   1.0000      -0.342272        -9.3137
  72   1.0000      -0.338613        -9.2141
  73   1.0000      -0.337094        -9.1728
  74   1.0000      -0.333918        -9.0864
  75   1.0000      -0.333524        -9.0757
  76   1.0000      -0.330463        -8.9923
  77   1.0000      -0.329624        -8.9695
  78   1.0000      -0.327965        -8.9244
  79   1.0000      -0.320296        -8.7157
  80   1.0000      -0.320135        -8.7113
  81   1.0000      -0.319034        -8.6814
  82   1.0000      -0.316864        -8.6223
  83   1.0000      -0.313816        -8.5394
  84   1.0000      -0.306763        -8.3474
  85   1.0000      -0.306504        -8.3404
  86   1.0000      -0.303121        -8.2483
  87   1.0000      -0.300948        -8.1892
  88   1.0000      -0.299134        -8.1399
  89   1.0000      -0.297251        -8.0886
  90   1.0000      -0.294288        -8.0080
  91   1.0000      -0.290785        -7.9127
  92   1.0000      -0.287566        -7.8251
  93   1.0000      -0.285783        -7.7765
  94   1.0000      -0.282456        -7.6860
  95   1.0000      -0.280535        -7.6337
  96   1.0000      -0.278862        -7.5882
  97   1.0000      -0.277676        -7.5559
  98   1.0000      -0.274875        -7.4797
  99   1.0000      -0.273472        -7.4416
 100   1.0000      -0.272703        -7.4206
 101   1.0000      -0.270844        -7.3700
 102   1.0000      -0.267792        -7.2870
 103   1.0000      -0.266004        -7.2383
 104   1.0000      -0.265509        -7.2249
 105   1.0000      -0.262630        -7.1465
 106   1.0000      -0.262309        -7.1378
 107   1.0000      -0.260466        -7.0876
 108   1.0000      -0.260092        -7.0775
 109   1.0000      -0.259117        -7.0509
 110   1.0000      -0.257106        -6.9962
 111   1.0000      -0.255523        -6.9531
 112   1.0000      -0.254910        -6.9364
 113   1.0000      -0.253588        -6.9005
 114   1.0000      -0.251385        -6.8405
 115   1.0000      -0.249958        -6.8017
 116   1.0000      -0.248944        -6.7741
 117   1.0000      -0.247522        -6.7354
 118   1.0000      -0.246990        -6.7209
 119   1.0000      -0.244385        -6.6501
 120   1.0000      -0.242719        -6.6047
 121   1.0000      -0.240631        -6.5479
 122   1.0000      -0.239770        -6.5245
 123   1.0000      -0.239466        -6.5162
 124   1.0000      -0.234303        -6.3757
 125   1.0000      -0.232194        -6.3183
 126   1.0000      -0.207801        -5.6546
 127   1.0000      -0.197526        -5.3750
 128   1.0000      -0.196128        -5.3369
 129   0.0000      -0.162489        -4.4216
 130   0.0000      -0.155624        -4.2347
 131   0.0000      -0.131693        -3.5836
 132   0.0000      -0.124315        -3.3828
 133   0.0000      -0.121729        -3.3124

                 SPIN DOWN ORBITALS
  NO   OCC          E(Eh)            E(eV)
   0   1.0000    -254.765680     -6932.5266
   1   1.0000     -29.547099      -804.0174
   2   1.0000     -25.501739      -693.9376
   3   1.0000     -25.496088      -693.7838
   4   1.0000     -25.492728      -693.6924
   5   1.0000      -4.035638      -109.8153
   6   1.0000      -4.035507      -109.8117
   7   1.0000      -4.030894      -109.6862
   8   1.0000      -4.029224      -109.6408
   9   1.0000      -4.029083      -109.6369
  10   1.0000      -4.026496      -109.5665
  11   1.0000      -4.018302      -109.3436
  12   1.0000      -4.017715      -109.3276
  13   1.0000      -4.017688      -109.3268
  14   1.0000      -4.016288      -109.2888
  15   1.0000      -4.016059      -109.2825
  16   1.0000      -4.013513      -109.2132
  17   1.0000      -3.250133       -88.4406
  18   1.0000      -2.251904       -61.2774
  19   1.0000      -2.251839       -61.2757
  20   1.0000      -2.248830       -61.1938
  21   1.0000      -2.248649       -61.1889
  22   1.0000      -2.246466       -61.1294
  23   1.0000      -2.246131       -61.1203
  24   1.0000      -2.245593       -61.1057
  25   1.0000      -2.244466       -61.0750
  26   1.0000      -2.244374       -61.0725
  27   1.0000      -2.244106       -61.0652
  28   1.0000      -2.243062       -61.0368
  29   1.0000      -2.242747       -61.0282
  30   1.0000      -2.242268       -61.0152
  31   1.0000      -2.242225       -61.0140
  32   1.0000      -2.239397       -60.9371
  33   1.0000      -2.238631       -60.9162
  34   1.0000      -2.237386       -60.8824
  35   1.0000      -2.235478       -60.8304
  36   1.0000      -2.234782       -60.8115
  37   1.0000      -2.233962       -60.7892
  38   1.0000      -2.233933       -60.7884
  39   1.0000      -2.232143       -60.7397
  40   1.0000      -2.231396       -60.7194
  41   1.0000      -2.230863       -60.7049
  42   1.0000      -2.230790       -60.7029
  43   1.0000      -2.230442       -60.6934
  44   1.0000      -2.229456       -60.6666
  45   1.0000      -2.228882       -60.6510
  46   1.0000      -2.228130       -60.6305
  47   1.0000      -2.227423       -60.6113
  48   1.0000      -2.226931       -60.5979
  49   1.0000      -2.226819       -60.5948
  50   1.0000      -2.226769       -60.5935
  51   1.0000      -2.226096       -60.5752
  52   1.0000      -2.224771       -60.5391
  53   1.0000      -2.224110       -60.5211
  54   1.0000      -2.072207       -56.3876
  55   1.0000      -2.064795       -56.1859
  56   1.0000      -2.062291       -56.1178
  57   1.0000      -0.419449       -11.4138
  58   1.0000      -0.378951       -10.3118
  59   1.0000      -0.377012       -10.2590
  60   1.0000      -0.376048       -10.2328
  61   1.0000      -0.363630        -9.8949
  62   1.0000      -0.360295        -9.8041
  63   1.0000      -0.359330        -9.7779
  64   1.0000      -0.351572        -9.5667
  65   1.0000      -0.349788        -9.5182
  66   1.0000      -0.346149        -9.4192
  67   1.0000      -0.344316        -9.3693
  68   1.0000      -0.343001        -9.3335
  69   1.0000      -0.339742        -9.2449
  70   1.0000      -0.338664        -9.2155
  71   1.0000      -0.338469        -9.2102
  72   1.0000      -0.335760        -9.1365
  73   1.0000      -0.335584        -9.1317
  74   1.0000      -0.329824        -8.9750
  75   1.0000      -0.329298        -8.9607
  76   1.0000      -0.327412        -8.9093
  77   1.0000      -0.326533        -8.8854
  78   1.0000      -0.319821        -8.7028
  79   1.0000      -0.318196        -8.6585
  80   1.0000      -0.317384        -8.6364
  81   1.0000      -0.313331        -8.5262
  82   1.0000      -0.309804        -8.4302
  83   1.0000      -0.306402        -8.3376
  84   1.0000      -0.304425        -8.2838
  85   1.0000      -0.300755        -8.1839
  86   1.0000      -0.300083        -8.1657
  87   1.0000      -0.299711        -8.1556
  88   1.0000      -0.295055        -8.0289
  89   1.0000      -0.294396        -8.0109
  90   1.0000      -0.288111        -7.8399
  91   1.0000      -0.285708        -7.7745
  92   1.0000      -0.283388        -7.7114
  93   1.0000      -0.281151        -7.6505
  94   1.0000      -0.276903        -7.5349
  95   1.0000      -0.275547        -7.4980
  96   1.0000      -0.274598        -7.4722
  97   1.0000      -0.274588        -7.4719
  98   1.0000      -0.273083        -7.4310
  99   1.0000      -0.270686        -7.3657
 100   1.0000      -0.270224        -7.3532
 101   1.0000      -0.269641        -7.3373
 102   1.0000      -0.263942        -7.1822
 103   1.0000      -0.263579        -7.1723
 104   1.0000      -0.263156        -7.1608
 105   1.0000      -0.259174        -7.0525
 106   1.0000      -0.258776        -7.0417
 107   1.0000      -0.257591        -7.0094
 108   1.0000      -0.257421        -7.0048
 109   1.0000      -0.255047        -6.9402
 110   1.0000      -0.251687        -6.8488
 111   1.0000      -0.251139        -6.8338
 112   1.0000      -0.249481        -6.7887
 113   1.0000      -0.247209        -6.7269
 114   1.0000      -0.246312        -6.7025
 115   1.0000      -0.244571        -6.6551
 116   1.0000      -0.243180        -6.6173
 117   1.0000      -0.239446        -6.5157
 118   1.0000      -0.239239        -6.5100
 119   1.0000      -0.234031        -6.3683
 120   1.0000      -0.231423        -6.2973
 121   1.0000      -0.212152        -5.7730
 122   1.0000      -0.205438        -5.5903
 123   1.0000      -0.203793        -5.5455
 124   1.0000      -0.188193        -5.1210
 125   0.0000      -0.175013        -4.7623
 126   0.0000      -0.171328        -4.6621
 127   0.0000      -0.163497        -4.4490
 128   0.0000      -0.158168        -4.3040
 129   0.0000      -0.152079        -4.1383

MULLIKEN ATOMIC CHARGES AND SPIN POPULATIONS
--------------------------------------------
   0 Au:    0.049031    0.015023
   1 Au:    0.146603    0.079287
   2 Au:    0.132748    0.051512
   3 Au:    0.284920    0.087714
   4 Au:    0.170843   -0.002748
   5 Au:   -0.007325    0.135472
   6 Au:    0.262682    0.131532
   7 Au:    0.041546    0.014664
   8 Au:    0.286372    0.087712
   9 Au:    0.264781    0.102029
  10 Au:    0.122681    0.051806
  11 Au:    0.160748    0.078974
  12 Fe:   -1.915629    3.167023
Sum of atomic charges         :   -0.0000000

LOEWDIN ATOMIC CHARGES AND SPIN POPULATIONS
-------------------------------------------
   0 Au:    0.021450    0.049026
   1 Au:    0.009348    0.066201
   2 Au:    0.057838    0.047587
   3 Au:    0.092090    0.045560
   4 Au:    0.015329    0.024940
   5 Au:   -0.017751    0.092762
   6 Au:    0.105941    0.091922
   7 Au:    0.020537    0.048873
   8 Au:    0.092168    0.045610
   9 Au:    0.046915    0.091417
  10 Au:    0.055335    0.047977
  11 Au:    0.013488    0.065878
  12 Fe:   -0.512687    3.282246

  Mayer bond orders larger than 0.100000
B(  0-Au,  1-Au) :   0.3445 B(  0-Au,  2-Au) :   0.2133 B(  0-Au,  3-Au) :   0.3337
B(  0-Au,  4-Au) :   0.1953 B(  0-Au,  5-Au) :   0.2170 B(  0-Au, 12-Fe) :   0.5461
B(  1-Au,  2-Au) :   0.4039 B(  1-Au,  5-Au) :   0.2450 B(  1-Au, 11-Au) :   0.2510
B(  1-Au, 12-Fe) :   0.1428 B(  2-Au,  6-Au) :   0.2038 B(  2-Au, 10-Au) :   0.1934
B(  2-Au, 12-Fe) :   0.5025 B(  3-Au,  4-Au) :   0.1842 B(  3-Au,  9-Au) :   0.2085
B(  3-Au, 12-Fe) :   0.5410 B(  4-Au,  5-Au) :   0.3757 B(  4-Au,  7-Au) :   0.1935
B(  4-Au,  8-Au) :   0.1830 B(  4-Au, 12-Fe) :   0.5039 B(  5-Au,  7-Au) :   0.2210
B(  5-Au, 11-Au) :   0.2365 B(  5-Au, 12-Fe) :   0.2104 B(  6-Au,  9-Au) :   0.2287
B(  6-Au, 10-Au) :   0.2091 B(  6-Au, 12-Fe) :   0.5692 B(  7-Au,  8-Au) :   0.3353
B(  7-Au, 10-Au) :   0.2109 B(  7-Au, 11-Au) :   0.3460 B(  7-Au, 12-Fe) :   0.5480
B(  8-Au,  9-Au) :   0.2095 B(  8-Au, 12-Fe) :   0.5399 B(  9-Au, 12-Fe) :   0.6033
B( 10-Au, 11-Au) :   0.4084 B( 10-Au, 12-Fe) :   0.5040 B( 11-Au, 12-Fe) :   0.1381

FINAL SINGLE POINT ENERGY     -2893.392500275103

DIPOLE MOMENT
-------------
                                X             Y             Z
Electronic contribution:     -5.35181      29.68920     -15.88157
Nuclear contribution   :      5.22249     -29.80265      15.99642
                        -----------------------------------------
Total Dipole Moment    :     -0.12932      -0.11344       0.11485
                        -----------------------------------------
Magnitude (a.u.)       :      0.20684
Magnitude (Debye)      :      0.52575

Rotational constants in cm-1:     0.001621     0.001215     0.001098
Rotational constants in MHz :    48.585786    36.424796    32.922684

                             ****ORCA TERMINATED NORMALLY****
TOTAL RUN TIME: 0 days 9 hours 16 minutes 57 seconds 618 msec
