                         Program Version 5.0.3 -  RELEASE  -
|  1> !RI-B2PLYP def2-TZVP def2-TZVP/C
|  2> !RIJCOSX
|  3> %pal nprocs 16 end
|  4>
|  5> *xyzfile 0 5 pbe.xyz
|  6>
|  7> $new_job
|  8>
|  9> !RI-B2PLYP def2-TZVP def2-TZVP/C
| 10> !RIJCOSX
| 11> %pal nprocs 16 end
| 12>
| 13> *xyzfile 0 3 pbe.xyz
| 14>
| 15>
| 16>
| 17>
| 18>
| 19>                          ****END OF INPUT****
 Total Charge           Charge          ....    0
 Multiplicity           Mult            ....    5
 Number of Electrons    NEL             ....  292
MP2 TOTAL ENERGY:    -3161.752773355 Eh
FINAL SINGLE POINT ENERGY     -3161.752773354925

CARTESIAN COORDINATES (ANGSTROEM)
---------------------------------
  Au     7.698036   10.395998    8.651329
  Au     6.568950   10.026107    6.090403
  Au     6.899736    8.255673   10.308620
  Au     5.051799    9.502865    8.484804
  Au     9.243782    9.524036    6.510088
  Au     9.462658    8.345064    9.304271
  Au     4.842774    7.740630    6.251100
  Au     7.495042    5.599349    9.114151
  Au     5.044970    6.667613    8.801930
  Au    10.255145    5.653623    8.959514
  Au     8.754402    5.894695    6.673785
  Au     9.919812    7.440922    4.726272
  Au    11.157242    7.673831    7.234275
  Au     7.165044    7.350695    4.948235
  Fe     7.229094    7.906368    7.641625

 Multiplicity           Mult            ....    3
 Number of Electrons    NEL             ....  292
 Basis Dimension        Dim             ....  605

ORBITAL ENERGIES
----------------
                 SPIN UP ORBITALS
  NO   OCC          E(Eh)            E(eV)
   0   1.0000    -258.338780     -7029.7556
   1   1.0000     -30.897248      -840.7569
   2   1.0000     -26.615314      -724.2395
   3   1.0000     -26.588061      -723.4979
   4   1.0000     -26.583205      -723.3658
   5   1.0000      -4.406708      -119.9126
   6   1.0000      -4.403902      -119.8363
   7   1.0000      -4.403892      -119.8360
   8   1.0000      -4.403687      -119.8304
   9   1.0000      -4.403649      -119.8294
  10   1.0000      -4.403517      -119.8258
  11   1.0000      -4.403509      -119.8256
  12   1.0000      -4.400370      -119.7402
  13   1.0000      -4.396253      -119.6281
  14   1.0000      -4.396045      -119.6225
  15   1.0000      -4.388963      -119.4298
  16   1.0000      -4.388566      -119.4190
  17   1.0000      -4.388457      -119.4160
  18   1.0000      -4.385148      -119.3260
  19   1.0000      -3.909648      -106.3869
  20   1.0000      -2.659611       -72.3717
  21   1.0000      -2.602679       -70.8225
  22   1.0000      -2.592788       -70.5533
  23   1.0000      -2.527643       -68.7806
  24   1.0000      -2.526992       -68.7629
  25   1.0000      -2.525127       -68.7122
  26   1.0000      -2.524812       -68.7036
  27   1.0000      -2.524703       -68.7007
  28   1.0000      -2.524064       -68.6833
  29   1.0000      -2.523998       -68.6815
  30   1.0000      -2.523354       -68.6640
  31   1.0000      -2.522866       -68.6507
  32   1.0000      -2.522861       -68.6505
  33   1.0000      -2.522518       -68.6412
  34   1.0000      -2.521565       -68.6153
  35   1.0000      -2.520800       -68.5945
  36   1.0000      -2.520329       -68.5816
  37   1.0000      -2.519770       -68.5664
  38   1.0000      -2.519452       -68.5578
  39   1.0000      -2.519217       -68.5514
  40   1.0000      -2.518494       -68.5317
  41   1.0000      -2.518419       -68.5297
  42   1.0000      -2.518189       -68.5234
  43   1.0000      -2.517827       -68.5136
  44   1.0000      -2.516498       -68.4774
  45   1.0000      -2.516380       -68.4742
  46   1.0000      -2.516063       -68.4656
  47   1.0000      -2.514567       -68.4248
  48   1.0000      -2.514129       -68.4129
  49   1.0000      -2.513750       -68.4026
  50   1.0000      -2.511966       -68.3541
  51   1.0000      -2.511149       -68.3318
  52   1.0000      -2.509552       -68.2884
  53   1.0000      -2.507445       -68.2311
  54   1.0000      -2.507160       -68.2233
  55   1.0000      -2.506341       -68.2010
  56   1.0000      -2.506057       -68.1933
  57   1.0000      -2.505927       -68.1897
  58   1.0000      -2.504588       -68.1533
  59   1.0000      -2.504217       -68.1432
  60   1.0000      -2.503726       -68.1298
  61   1.0000      -2.503613       -68.1268
  62   1.0000      -2.502413       -68.0941
  63   1.0000      -2.502275       -68.0904
  64   1.0000      -2.499903       -68.0258
  65   1.0000      -0.559467       -15.2239
  66   1.0000      -0.556078       -15.1316
  67   1.0000      -0.552112       -15.0237
  68   1.0000      -0.533835       -14.5264
  69   1.0000      -0.516027       -14.0418
  70   1.0000      -0.504346       -13.7239
  71   1.0000      -0.475201       -12.9309
  72   1.0000      -0.470856       -12.8126
  73   1.0000      -0.468195       -12.7402
  74   1.0000      -0.461198       -12.5498
  75   1.0000      -0.460146       -12.5212
  76   1.0000      -0.457421       -12.4471
  77   1.0000      -0.457156       -12.4398
  78   1.0000      -0.455796       -12.4028
  79   1.0000      -0.454425       -12.3655
  80   1.0000      -0.452388       -12.3101
  81   1.0000      -0.449826       -12.2404
  82   1.0000      -0.449358       -12.2277
  83   1.0000      -0.447807       -12.1855
  84   1.0000      -0.446802       -12.1581
  85   1.0000      -0.443831       -12.0773
  86   1.0000      -0.442147       -12.0314
  87   1.0000      -0.439440       -11.9578
  88   1.0000      -0.438875       -11.9424
  89   1.0000      -0.438076       -11.9207
  90   1.0000      -0.437031       -11.8922
  91   1.0000      -0.434159       -11.8141
  92   1.0000      -0.430071       -11.7028
  93   1.0000      -0.428436       -11.6583
  94   1.0000      -0.425931       -11.5902
  95   1.0000      -0.425718       -11.5844
  96   1.0000      -0.417956       -11.3732
  97   1.0000      -0.417143       -11.3510
  98   1.0000      -0.412963       -11.2373
  99   1.0000      -0.408073       -11.1042
 100   1.0000      -0.403557       -10.9813
 101   1.0000      -0.401110       -10.9148
 102   1.0000      -0.401078       -10.9139
 103   1.0000      -0.397259       -10.8100
 104   1.0000      -0.394137       -10.7250
 105   1.0000      -0.393669       -10.7123
 106   1.0000      -0.383215       -10.4278
 107   1.0000      -0.381733       -10.3875
 108   1.0000      -0.380179       -10.3452
 109   1.0000      -0.380117       -10.3435
 110   1.0000      -0.378601       -10.3023
 111   1.0000      -0.375049       -10.2056
 112   1.0000      -0.374698       -10.1960
 113   1.0000      -0.372688       -10.1414
 114   1.0000      -0.370619       -10.0850
 115   1.0000      -0.369236       -10.0474
 116   1.0000      -0.369195       -10.0463
 117   1.0000      -0.367269        -9.9939
 118   1.0000      -0.366653        -9.9771
 119   1.0000      -0.365286        -9.9399
 120   1.0000      -0.362596        -9.8667
 121   1.0000      -0.362293        -9.8585
 122   1.0000      -0.360356        -9.8058
 123   1.0000      -0.360039        -9.7972
 124   1.0000      -0.358750        -9.7621
 125   1.0000      -0.357587        -9.7304
 126   1.0000      -0.356406        -9.6983
 127   1.0000      -0.353084        -9.6079
 128   1.0000      -0.352264        -9.5856
 129   1.0000      -0.351501        -9.5648
 130   1.0000      -0.349990        -9.5237
 131   1.0000      -0.347756        -9.4629
 132   1.0000      -0.346516        -9.4292
 133   1.0000      -0.344113        -9.3638
 134   1.0000      -0.341424        -9.2906
 135   1.0000      -0.337167        -9.1748
 136   1.0000      -0.336812        -9.1651
 137   1.0000      -0.334862        -9.1121
 138   1.0000      -0.331952        -9.0329
 139   1.0000      -0.329661        -8.9705
 140   1.0000      -0.321623        -8.7518
 141   1.0000      -0.310596        -8.4517
 142   1.0000      -0.306226        -8.3328
 143   1.0000      -0.292557        -7.9609
 144   1.0000      -0.241650        -6.5756
 145   1.0000      -0.230240        -6.2652
 146   1.0000      -0.209573        -5.7028
 147   0.0000      -0.132620        -3.6088
 148   0.0000      -0.106636        -2.9017
 149   0.0000      -0.077704        -2.1144
 150   0.0000      -0.067179        -1.8280
 151   0.0000      -0.064710        -1.7608

                 SPIN DOWN ORBITALS
  NO   OCC          E(Eh)            E(eV)
   0   1.0000    -258.336823     -7029.7023
   1   1.0000     -30.805037      -838.2477
   2   1.0000     -26.516910      -721.5618
   3   1.0000     -26.509334      -721.3556
   4   1.0000     -26.507741      -721.3123
   5   1.0000      -4.407428      -119.9322
   6   1.0000      -4.404271      -119.8463
   7   1.0000      -4.404252      -119.8458
   8   1.0000      -4.404050      -119.8403
   9   1.0000      -4.404009      -119.8392
  10   1.0000      -4.403937      -119.8372
  11   1.0000      -4.403926      -119.8369
  12   1.0000      -4.401322      -119.7661
  13   1.0000      -4.396473      -119.6341
  14   1.0000      -4.396259      -119.6283
  15   1.0000      -4.389822      -119.4531
  16   1.0000      -4.389539      -119.4454
  17   1.0000      -4.389424      -119.4423
  18   1.0000      -4.385493      -119.3353
  19   1.0000      -3.666679       -99.7754
  20   1.0000      -2.527873       -68.7869
  21   1.0000      -2.527234       -68.7695
  22   1.0000      -2.524765       -68.7023
  23   1.0000      -2.524672       -68.6998
  24   1.0000      -2.524280       -68.6892
  25   1.0000      -2.523907       -68.6790
  26   1.0000      -2.523858       -68.6777
  27   1.0000      -2.523301       -68.6625
  28   1.0000      -2.522725       -68.6468
  29   1.0000      -2.522375       -68.6373
  30   1.0000      -2.522023       -68.6277
  31   1.0000      -2.520968       -68.5990
  32   1.0000      -2.520726       -68.5924
  33   1.0000      -2.519768       -68.5664
  34   1.0000      -2.519745       -68.5657
  35   1.0000      -2.519614       -68.5622
  36   1.0000      -2.519504       -68.5592
  37   1.0000      -2.518738       -68.5383
  38   1.0000      -2.518536       -68.5328
  39   1.0000      -2.518208       -68.5239
  40   1.0000      -2.518053       -68.5197
  41   1.0000      -2.516840       -68.4867
  42   1.0000      -2.516693       -68.4827
  43   1.0000      -2.515839       -68.4595
  44   1.0000      -2.514605       -68.4259
  45   1.0000      -2.514162       -68.4138
  46   1.0000      -2.513996       -68.4093
  47   1.0000      -2.511870       -68.3515
  48   1.0000      -2.511440       -68.3398
  49   1.0000      -2.509885       -68.2974
  50   1.0000      -2.508015       -68.2466
  51   1.0000      -2.507739       -68.2391
  52   1.0000      -2.507543       -68.2337
  53   1.0000      -2.507177       -68.2237
  54   1.0000      -2.506585       -68.2076
  55   1.0000      -2.506085       -68.1940
  56   1.0000      -2.505836       -68.1873
  57   1.0000      -2.505264       -68.1717
  58   1.0000      -2.505156       -68.1688
  59   1.0000      -2.503017       -68.1106
  60   1.0000      -2.502958       -68.1090
  61   1.0000      -2.499987       -68.0281
  62   1.0000      -2.345168       -63.8153
  63   1.0000      -2.344423       -63.7950
  64   1.0000      -2.333423       -63.4957
  65   1.0000      -0.516020       -14.0416
  66   1.0000      -0.481855       -13.1119
  67   1.0000      -0.478109       -13.0100
  68   1.0000      -0.477440       -12.9918
  69   1.0000      -0.468074       -12.7370
  70   1.0000      -0.466902       -12.7051
  71   1.0000      -0.465781       -12.6745
  72   1.0000      -0.464756       -12.6467
  73   1.0000      -0.463901       -12.6234
  74   1.0000      -0.459678       -12.5085
  75   1.0000      -0.457986       -12.4624
  76   1.0000      -0.457008       -12.4358
  77   1.0000      -0.453693       -12.3456
  78   1.0000      -0.453005       -12.3269
  79   1.0000      -0.451423       -12.2839
  80   1.0000      -0.450409       -12.2563
  81   1.0000      -0.448926       -12.2159
  82   1.0000      -0.446200       -12.1417
  83   1.0000      -0.443905       -12.0793
  84   1.0000      -0.443381       -12.0650
  85   1.0000      -0.440941       -11.9986
  86   1.0000      -0.439295       -11.9538
  87   1.0000      -0.437770       -11.9123
  88   1.0000      -0.431961       -11.7542
  89   1.0000      -0.429936       -11.6992
  90   1.0000      -0.428791       -11.6680
  91   1.0000      -0.422049       -11.4845
  92   1.0000      -0.420126       -11.4322
  93   1.0000      -0.416853       -11.3432
  94   1.0000      -0.414570       -11.2810
  95   1.0000      -0.409131       -11.1330
  96   1.0000      -0.407257       -11.0820
  97   1.0000      -0.405100       -11.0233
  98   1.0000      -0.404432       -11.0052
  99   1.0000      -0.398227       -10.8363
 100   1.0000      -0.397728       -10.8227
 101   1.0000      -0.389349       -10.5947
 102   1.0000      -0.388333       -10.5671
 103   1.0000      -0.383547       -10.4368
 104   1.0000      -0.382918       -10.4197
 105   1.0000      -0.382244       -10.4014
 106   1.0000      -0.382057       -10.3963
 107   1.0000      -0.378542       -10.3007
 108   1.0000      -0.378234       -10.2923
 109   1.0000      -0.375300       -10.2124
 110   1.0000      -0.373635       -10.1671
 111   1.0000      -0.371377       -10.1057
 112   1.0000      -0.371285       -10.1032
 113   1.0000      -0.369377       -10.0513
 114   1.0000      -0.369210       -10.0467
 115   1.0000      -0.365842        -9.9551
 116   1.0000      -0.365677        -9.9506
 117   1.0000      -0.363789        -9.8992
 118   1.0000      -0.361864        -9.8468
 119   1.0000      -0.360571        -9.8116
 120   1.0000      -0.359088        -9.7713
 121   1.0000      -0.358722        -9.7613
 122   1.0000      -0.355783        -9.6814
 123   1.0000      -0.354865        -9.6564
 124   1.0000      -0.353834        -9.6283
 125   1.0000      -0.352473        -9.5913
 126   1.0000      -0.350840        -9.5469
 127   1.0000      -0.349463        -9.5094
 128   1.0000      -0.346425        -9.4267
 129   1.0000      -0.344214        -9.3666
 130   1.0000      -0.340349        -9.2614
 131   1.0000      -0.339115        -9.2278
 132   1.0000      -0.337352        -9.1798
 133   1.0000      -0.334492        -9.1020
 134   1.0000      -0.333010        -9.0617
 135   1.0000      -0.330569        -8.9952
 136   1.0000      -0.325346        -8.8531
 137   1.0000      -0.319466        -8.6931
 138   1.0000      -0.313130        -8.5207
 139   1.0000      -0.308304        -8.3894
 140   1.0000      -0.252613        -6.8739
 141   1.0000      -0.235185        -6.3997
 142   1.0000      -0.230272        -6.2660
 143   1.0000      -0.221790        -6.0352
 144   1.0000      -0.196855        -5.3567
 145   0.0000      -0.082464        -2.2440
 146   0.0000      -0.076964        -2.0943
 147   0.0000      -0.069614        -1.8943
 148   0.0000      -0.061445        -1.6720
 149   0.0000      -0.055795        -1.5183

MULLIKEN ATOMIC CHARGES AND SPIN POPULATIONS
--------------------------------------------
   0 Au:    0.318943   -0.102214
   1 Au:    0.273833   -0.214754
   2 Au:    0.274380   -0.213428
   3 Au:    0.150664    0.054960
   4 Au:   -0.162128   -0.187794
   5 Au:   -0.160107   -0.191387
   6 Au:    0.260066   -0.080282
   7 Au:    0.116479   -0.176619
   8 Au:    0.260240   -0.078698
   9 Au:    0.297723   -0.029964
  10 Au:   -0.207557   -0.084621
  11 Au:    0.297731   -0.030467
  12 Au:    0.147555    0.038810
  13 Au:    0.117450   -0.177090
  14 Fe:   -1.985273    3.473549
Sum of atomic charges         :   -0.0000000

LOEWDIN ATOMIC CHARGES AND SPIN POPULATIONS
-------------------------------------------
   0 Au:    0.059027   -0.132881
   1 Au:    0.049979   -0.177201
   2 Au:    0.049861   -0.176523
   3 Au:   -0.012184    0.003103
   4 Au:   -0.024838   -0.135633
   5 Au:   -0.024383   -0.136748
   6 Au:    0.052701   -0.105158
   7 Au:    0.034119   -0.163643
   8 Au:    0.052154   -0.104033
   9 Au:    0.073351   -0.056063
  10 Au:   -0.075342   -0.075163
  11 Au:    0.072906   -0.055782
  12 Au:   -0.017677    0.002297
  13 Au:    0.034194   -0.163923
  14 Fe:   -0.323866    3.477352

  Mayer bond orders larger than 0.100000
B(  0-Au,  1-Au) :   0.1210 B(  0-Au,  2-Au) :   0.1222 B(  0-Au,  3-Au) :   0.2413
B(  0-Au,  4-Au) :   0.2010 B(  0-Au,  5-Au) :   0.1995 B(  0-Au, 14-Fe) :   0.3681
B(  1-Au,  3-Au) :   0.1622 B(  1-Au,  4-Au) :   0.1878 B(  1-Au,  6-Au) :   0.1260
B(  1-Au, 13-Au) :   0.1240 B(  1-Au, 14-Fe) :   0.4412 B(  2-Au,  3-Au) :   0.1641
B(  2-Au,  5-Au) :   0.1882 B(  2-Au,  7-Au) :   0.1232 B(  2-Au,  8-Au) :   0.1250
B(  2-Au, 14-Fe) :   0.4401 B(  3-Au,  6-Au) :   0.1346 B(  3-Au,  8-Au) :   0.1342
B(  3-Au, 14-Fe) :   0.3594 B(  4-Au,  5-Au) :   0.2377 B(  4-Au, 11-Au) :   0.2173
B(  4-Au, 12-Au) :   0.3250 B(  4-Au, 14-Fe) :   0.4383 B(  5-Au,  9-Au) :   0.2167
B(  5-Au, 12-Au) :   0.3247 B(  5-Au, 14-Fe) :   0.4377 B(  6-Au,  8-Au) :   0.2305
B(  6-Au, 13-Au) :   0.2591 B(  6-Au, 14-Fe) :   0.3958 B(  7-Au,  8-Au) :   0.2601
B(  7-Au,  9-Au) :   0.2658 B(  7-Au, 10-Au) :   0.2162 B(  7-Au, 14-Fe) :   0.4450
B(  8-Au, 14-Fe) :   0.3967 B(  9-Au, 10-Au) :   0.3329 B(  9-Au, 12-Au) :   0.2156
B( 10-Au, 11-Au) :   0.3320 B( 10-Au, 12-Au) :   0.1309 B( 10-Au, 13-Au) :   0.2179
B( 10-Au, 14-Fe) :   0.3846 B( 11-Au, 12-Au) :   0.2158 B( 11-Au, 13-Au) :   0.2656
B( 13-Au, 14-Fe) :   0.4433

MP2 TOTAL ENERGY:    -3161.735982174 Eh
FINAL SINGLE POINT ENERGY     -3161.735982174294

DIPOLE MOMENT
-------------
                                X             Y             Z
Electronic contribution:     22.73538      -1.63404      -2.49482
Nuclear contribution   :    -22.77657       1.68546       2.51974
                        -----------------------------------------
Total Dipole Moment    :     -0.04119       0.05141       0.02492
                        -----------------------------------------
Magnitude (a.u.)       :      0.07043
Magnitude (Debye)      :      0.17903

Rotational constants in cm-1:     0.001256     0.000989     0.000872
Rotational constants in MHz :    37.657135    29.662957    26.154449

                             ****ORCA TERMINATED NORMALLY****
TOTAL RUN TIME: 0 days 0 hours 25 minutes 33 seconds 836 msec
