                         Program Version 5.0.3 -  RELEASE  -
|  1> !R2SCAN def2-TZVP VERYSLOWCONV
|  2>
|  3> %pal nprocs 16 end
|  4>
|  5> %scf
|  6>   AutoTRAHIter 100
|  7>   maxiter 400
|  8> end
|  9>
| 10> *xyzfile 0 5 pbe.xyz
| 11>
| 12> $new_job
| 13>
| 14> !R2SCAN def2-TZVP VERYSLOWCONV
| 15>
| 16>
| 17> %pal nprocs 16 end
| 18>
| 19> %scf
| 20>   AutoTRAHIter 100
| 21>   maxiter 400
| 22> end
| 23>
| 24> *xyzfile 0 3 pbe.xyz
| 25>
| 26>
| 27>
| 28>
| 29>
| 30>                          ****END OF INPUT****
 Total Charge           Charge          ....    0
 Multiplicity           Mult            ....    5
 Number of Electrons    NEL             ....  292
FINAL SINGLE POINT ENERGY     -3165.570103046699

CARTESIAN COORDINATES (ANGSTROEM)
---------------------------------
  Au     7.698036   10.395998    8.651329
  Au     6.568950   10.026107    6.090403
  Au     6.899736    8.255673   10.308620
  Au     5.051799    9.502865    8.484804
  Au     9.243782    9.524036    6.510088
  Au     9.462658    8.345064    9.304271
  Au     4.842774    7.740630    6.251100
  Au     7.495042    5.599349    9.114151
  Au     5.044970    6.667613    8.801930
  Au    10.255145    5.653623    8.959514
  Au     8.754402    5.894695    6.673785
  Au     9.919812    7.440922    4.726272
  Au    11.157242    7.673831    7.234275
  Au     7.165044    7.350695    4.948235
  Fe     7.229094    7.906368    7.641625

 Multiplicity           Mult            ....    3
 Number of Electrons    NEL             ....  292
 Basis Dimension        Dim             ....  605

ORBITAL ENERGIES
----------------
                 SPIN UP ORBITALS
  NO   OCC          E(Eh)            E(eV)
   0   1.0000    -255.626927     -6955.9623
   1   1.0000     -29.921348      -814.2013
   2   1.0000     -25.763300      -701.0550
   3   1.0000     -25.749108      -700.6689
   4   1.0000     -25.743710      -700.5220
   5   1.0000      -4.126252      -112.2810
   6   1.0000      -4.122731      -112.1852
   7   1.0000      -4.122670      -112.1835
   8   1.0000      -4.122442      -112.1774
   9   1.0000      -4.122245      -112.1720
  10   1.0000      -4.121675      -112.1565
  11   1.0000      -4.121543      -112.1529
  12   1.0000      -4.120658      -112.1288
  13   1.0000      -4.115190      -111.9800
  14   1.0000      -4.114839      -111.9705
  15   1.0000      -4.110450      -111.8510
  16   1.0000      -4.110290      -111.8467
  17   1.0000      -4.109366      -111.8215
  18   1.0000      -4.105295      -111.7108
  19   1.0000      -3.501075       -95.2691
  20   1.0000      -2.314229       -62.9734
  21   1.0000      -2.313893       -62.9642
  22   1.0000      -2.312860       -62.9361
  23   1.0000      -2.312198       -62.9181
  24   1.0000      -2.311984       -62.9123
  25   1.0000      -2.311480       -62.8986
  26   1.0000      -2.311164       -62.8900
  27   1.0000      -2.310673       -62.8766
  28   1.0000      -2.310202       -62.8638
  29   1.0000      -2.310027       -62.8590
  30   1.0000      -2.309609       -62.8476
  31   1.0000      -2.308161       -62.8082
  32   1.0000      -2.308057       -62.8054
  33   1.0000      -2.307810       -62.7987
  34   1.0000      -2.306807       -62.7714
  35   1.0000      -2.306584       -62.7653
  36   1.0000      -2.306276       -62.7570
  37   1.0000      -2.306105       -62.7523
  38   1.0000      -2.305684       -62.7409
  39   1.0000      -2.304978       -62.7216
  40   1.0000      -2.304831       -62.7176
  41   1.0000      -2.303749       -62.6882
  42   1.0000      -2.303379       -62.6781
  43   1.0000      -2.303265       -62.6750
  44   1.0000      -2.302220       -62.6466
  45   1.0000      -2.301866       -62.6369
  46   1.0000      -2.301322       -62.6221
  47   1.0000      -2.300159       -62.5905
  48   1.0000      -2.298331       -62.5408
  49   1.0000      -2.297264       -62.5117
  50   1.0000      -2.297115       -62.5077
  51   1.0000      -2.297090       -62.5070
  52   1.0000      -2.296837       -62.5001
  53   1.0000      -2.296075       -62.4794
  54   1.0000      -2.295371       -62.4602
  55   1.0000      -2.294120       -62.4262
  56   1.0000      -2.294089       -62.4253
  57   1.0000      -2.294066       -62.4247
  58   1.0000      -2.293941       -62.4213
  59   1.0000      -2.292781       -62.3897
  60   1.0000      -2.291314       -62.3498
  61   1.0000      -2.289487       -62.3001
  62   1.0000      -2.287278       -62.2400
  63   1.0000      -2.260103       -61.5005
  64   1.0000      -2.249401       -61.2093
  65   1.0000      -0.439003       -11.9459
  66   1.0000      -0.397937       -10.8284
  67   1.0000      -0.394004       -10.7214
  68   1.0000      -0.393435       -10.7059
  69   1.0000      -0.385640       -10.4938
  70   1.0000      -0.382384       -10.4052
  71   1.0000      -0.382060       -10.3964
  72   1.0000      -0.375402       -10.2152
  73   1.0000      -0.372857       -10.1459
  74   1.0000      -0.372413       -10.1339
  75   1.0000      -0.365117        -9.9353
  76   1.0000      -0.361237        -9.8298
  77   1.0000      -0.359856        -9.7922
  78   1.0000      -0.358787        -9.7631
  79   1.0000      -0.357816        -9.7367
  80   1.0000      -0.355353        -9.6697
  81   1.0000      -0.353288        -9.6134
  82   1.0000      -0.353058        -9.6072
  83   1.0000      -0.349933        -9.5222
  84   1.0000      -0.348286        -9.4773
  85   1.0000      -0.346229        -9.4214
  86   1.0000      -0.345750        -9.4083
  87   1.0000      -0.344565        -9.3761
  88   1.0000      -0.338245        -9.2041
  89   1.0000      -0.337731        -9.1901
  90   1.0000      -0.337077        -9.1723
  91   1.0000      -0.335116        -9.1190
  92   1.0000      -0.329743        -8.9728
  93   1.0000      -0.327917        -8.9231
  94   1.0000      -0.326258        -8.8779
  95   1.0000      -0.325813        -8.8658
  96   1.0000      -0.319074        -8.6824
  97   1.0000      -0.315144        -8.5755
  98   1.0000      -0.314153        -8.5485
  99   1.0000      -0.311655        -8.4806
 100   1.0000      -0.307602        -8.3703
 101   1.0000      -0.306940        -8.3523
 102   1.0000      -0.305043        -8.3006
 103   1.0000      -0.299701        -8.1553
 104   1.0000      -0.296998        -8.0817
 105   1.0000      -0.294246        -8.0069
 106   1.0000      -0.293288        -7.9808
 107   1.0000      -0.292740        -7.9659
 108   1.0000      -0.290872        -7.9150
 109   1.0000      -0.288859        -7.8602
 110   1.0000      -0.288763        -7.8577
 111   1.0000      -0.285127        -7.7587
 112   1.0000      -0.283956        -7.7268
 113   1.0000      -0.282679        -7.6921
 114   1.0000      -0.281056        -7.6479
 115   1.0000      -0.278886        -7.5889
 116   1.0000      -0.277640        -7.5550
 117   1.0000      -0.276855        -7.5336
 118   1.0000      -0.275269        -7.4904
 119   1.0000      -0.273672        -7.4470
 120   1.0000      -0.273319        -7.4374
 121   1.0000      -0.272462        -7.4141
 122   1.0000      -0.269967        -7.3462
 123   1.0000      -0.268955        -7.3186
 124   1.0000      -0.267696        -7.2844
 125   1.0000      -0.267144        -7.2693
 126   1.0000      -0.266232        -7.2445
 127   1.0000      -0.265871        -7.2347
 128   1.0000      -0.262956        -7.1554
 129   1.0000      -0.262645        -7.1469
 130   1.0000      -0.260685        -7.0936
 131   1.0000      -0.259914        -7.0726
 132   1.0000      -0.258855        -7.0438
 133   1.0000      -0.258530        -7.0350
 134   1.0000      -0.256052        -6.9675
 135   1.0000      -0.255434        -6.9507
 136   1.0000      -0.253729        -6.9043
 137   1.0000      -0.252361        -6.8671
 138   1.0000      -0.249618        -6.7925
 139   1.0000      -0.247535        -6.7358
 140   1.0000      -0.246435        -6.7058
 141   1.0000      -0.243374        -6.6225
 142   1.0000      -0.240073        -6.5327
 143   1.0000      -0.234872        -6.3912
 144   1.0000      -0.218210        -5.9378
 145   1.0000      -0.209401        -5.6981
 146   1.0000      -0.194647        -5.2966
 147   0.0000      -0.191222        -5.2034
 148   0.0000      -0.168669        -4.5897
 149   0.0000      -0.135300        -3.6817
 150   0.0000      -0.128215        -3.4889
 151   0.0000      -0.125594        -3.4176

                 SPIN DOWN ORBITALS
  NO   OCC          E(Eh)            E(eV)
   0   1.0000    -255.625998     -6955.9370
   1   1.0000     -29.846115      -812.1541
   2   1.0000     -25.700143      -699.3364
   3   1.0000     -25.693700      -699.1611
   4   1.0000     -25.690155      -699.0647
   5   1.0000      -4.126829      -112.2967
   6   1.0000      -4.122898      -112.1898
   7   1.0000      -4.122793      -112.1869
   8   1.0000      -4.122525      -112.1796
   9   1.0000      -4.122457      -112.1778
  10   1.0000      -4.121981      -112.1648
  11   1.0000      -4.121939      -112.1637
  12   1.0000      -4.121417      -112.1494
  13   1.0000      -4.115385      -111.9853
  14   1.0000      -4.114905      -111.9722
  15   1.0000      -4.111513      -111.8799
  16   1.0000      -4.111184      -111.8710
  17   1.0000      -4.110061      -111.8405
  18   1.0000      -4.105659      -111.7207
  19   1.0000      -3.332768       -90.6892
  20   1.0000      -2.314630       -62.9843
  21   1.0000      -2.314495       -62.9806
  22   1.0000      -2.313548       -62.9548
  23   1.0000      -2.312151       -62.9168
  24   1.0000      -2.311897       -62.9099
  25   1.0000      -2.311359       -62.8953
  26   1.0000      -2.311296       -62.8936
  27   1.0000      -2.311050       -62.8869
  28   1.0000      -2.310094       -62.8609
  29   1.0000      -2.309669       -62.8493
  30   1.0000      -2.309276       -62.8386
  31   1.0000      -2.308365       -62.8138
  32   1.0000      -2.308333       -62.8129
  33   1.0000      -2.308091       -62.8064
  34   1.0000      -2.307153       -62.7808
  35   1.0000      -2.306725       -62.7692
  36   1.0000      -2.306465       -62.7621
  37   1.0000      -2.306174       -62.7542
  38   1.0000      -2.305763       -62.7430
  39   1.0000      -2.305084       -62.7245
  40   1.0000      -2.304948       -62.7208
  41   1.0000      -2.304223       -62.7011
  42   1.0000      -2.303852       -62.6910
  43   1.0000      -2.303385       -62.6783
  44   1.0000      -2.302181       -62.6455
  45   1.0000      -2.302077       -62.6427
  46   1.0000      -2.301687       -62.6321
  47   1.0000      -2.299907       -62.5837
  48   1.0000      -2.298749       -62.5522
  49   1.0000      -2.298572       -62.5473
  50   1.0000      -2.298355       -62.5414
  51   1.0000      -2.297593       -62.5207
  52   1.0000      -2.297465       -62.5172
  53   1.0000      -2.296723       -62.4970
  54   1.0000      -2.296297       -62.4854
  55   1.0000      -2.295458       -62.4626
  56   1.0000      -2.295347       -62.4596
  57   1.0000      -2.295148       -62.4542
  58   1.0000      -2.294170       -62.4275
  59   1.0000      -2.293391       -62.4063
  60   1.0000      -2.291793       -62.3629
  61   1.0000      -2.287447       -62.2446
  62   1.0000      -2.111176       -57.4480
  63   1.0000      -2.100502       -57.1576
  64   1.0000      -2.091794       -56.9206
  65   1.0000      -0.437199       -11.8968
  66   1.0000      -0.399232       -10.8636
  67   1.0000      -0.393512       -10.7080
  68   1.0000      -0.393160       -10.6984
  69   1.0000      -0.380629       -10.3575
  70   1.0000      -0.375481       -10.2174
  71   1.0000      -0.374661       -10.1950
  72   1.0000      -0.374367       -10.1871
  73   1.0000      -0.373493       -10.1632
  74   1.0000      -0.367561       -10.0018
  75   1.0000      -0.363878        -9.9016
  76   1.0000      -0.362152        -9.8547
  77   1.0000      -0.359755        -9.7894
  78   1.0000      -0.359027        -9.7696
  79   1.0000      -0.357913        -9.7393
  80   1.0000      -0.354880        -9.6568
  81   1.0000      -0.353647        -9.6232
  82   1.0000      -0.352597        -9.5946
  83   1.0000      -0.350159        -9.5283
  84   1.0000      -0.348241        -9.4761
  85   1.0000      -0.347528        -9.4567
  86   1.0000      -0.345565        -9.4033
  87   1.0000      -0.344980        -9.3874
  88   1.0000      -0.339528        -9.2390
  89   1.0000      -0.338466        -9.2101
  90   1.0000      -0.336460        -9.1555
  91   1.0000      -0.330479        -8.9928
  92   1.0000      -0.329124        -8.9559
  93   1.0000      -0.325590        -8.8597
  94   1.0000      -0.322672        -8.7803
  95   1.0000      -0.319125        -8.6838
  96   1.0000      -0.319045        -8.6817
  97   1.0000      -0.314469        -8.5571
  98   1.0000      -0.314211        -8.5501
  99   1.0000      -0.309659        -8.4262
 100   1.0000      -0.305870        -8.3231
 101   1.0000      -0.300295        -8.1714
 102   1.0000      -0.297929        -8.1071
 103   1.0000      -0.294036        -8.0011
 104   1.0000      -0.293672        -7.9912
 105   1.0000      -0.292837        -7.9685
 106   1.0000      -0.292804        -7.9676
 107   1.0000      -0.292164        -7.9502
 108   1.0000      -0.289904        -7.8887
 109   1.0000      -0.289178        -7.8689
 110   1.0000      -0.285683        -7.7738
 111   1.0000      -0.283813        -7.7229
 112   1.0000      -0.283676        -7.7192
 113   1.0000      -0.282366        -7.6836
 114   1.0000      -0.281726        -7.6662
 115   1.0000      -0.279418        -7.6033
 116   1.0000      -0.277750        -7.5580
 117   1.0000      -0.277475        -7.5505
 118   1.0000      -0.276268        -7.5176
 119   1.0000      -0.273333        -7.4378
 120   1.0000      -0.271810        -7.3963
 121   1.0000      -0.271604        -7.3907
 122   1.0000      -0.270229        -7.3533
 123   1.0000      -0.269334        -7.3290
 124   1.0000      -0.268140        -7.2965
 125   1.0000      -0.267942        -7.2911
 126   1.0000      -0.266250        -7.2450
 127   1.0000      -0.263956        -7.1826
 128   1.0000      -0.261697        -7.1211
 129   1.0000      -0.260776        -7.0961
 130   1.0000      -0.259285        -7.0555
 131   1.0000      -0.258124        -7.0239
 132   1.0000      -0.256588        -6.9821
 133   1.0000      -0.253936        -6.9100
 134   1.0000      -0.251779        -6.8513
 135   1.0000      -0.250484        -6.8160
 136   1.0000      -0.247140        -6.7250
 137   1.0000      -0.245704        -6.6860
 138   1.0000      -0.237442        -6.4611
 139   1.0000      -0.224181        -6.1003
 140   1.0000      -0.218170        -5.9367
 141   1.0000      -0.209882        -5.7112
 142   1.0000      -0.204049        -5.5524
 143   1.0000      -0.189062        -5.1446
 144   1.0000      -0.174739        -4.7549
 145   0.0000      -0.150085        -4.0840
 146   0.0000      -0.143060        -3.8929
 147   0.0000      -0.140078        -3.8117
 148   0.0000      -0.136310        -3.7092
 149   0.0000      -0.127243        -3.4624

MULLIKEN ATOMIC CHARGES AND SPIN POPULATIONS
--------------------------------------------
   0 Au:    0.343678   -0.083817
   1 Au:    0.287994   -0.130777
   2 Au:    0.286825   -0.117005
   3 Au:    0.161730    0.032333
   4 Au:   -0.158423   -0.099760
   5 Au:   -0.142148   -0.134271
   6 Au:    0.273562   -0.069558
   7 Au:    0.118697   -0.106618
   8 Au:    0.268062   -0.043788
   9 Au:    0.292502   -0.060302
  10 Au:   -0.120997   -0.064029
  11 Au:    0.296286   -0.037619
  12 Au:    0.139451   -0.012244
  13 Au:    0.119860   -0.108406
  14 Fe:   -2.167080    3.035862
Sum of atomic charges         :   -0.0000000

LOEWDIN ATOMIC CHARGES AND SPIN POPULATIONS
-------------------------------------------
   0 Au:    0.078039   -0.100067
   1 Au:    0.075454   -0.111972
   2 Au:    0.074328   -0.104165
   3 Au:    0.001898   -0.007800
   4 Au:   -0.004294   -0.083752
   5 Au:   -0.003183   -0.100217
   6 Au:    0.065166   -0.079069
   7 Au:    0.057204   -0.106613
   8 Au:    0.062321   -0.062416
   9 Au:    0.066046   -0.075261
  10 Au:   -0.034649   -0.066450
  11 Au:    0.065629   -0.054625
  12 Au:   -0.025987   -0.021925
  13 Au:    0.057948   -0.107851
  14 Fe:   -0.535919    3.082183

  Mayer bond orders larger than 0.100000
B(  0-Au,  1-Au) :   0.1463 B(  0-Au,  2-Au) :   0.1512 B(  0-Au,  3-Au) :   0.2430
B(  0-Au,  4-Au) :   0.2189 B(  0-Au,  5-Au) :   0.2212 B(  0-Au, 14-Fe) :   0.3738
B(  1-Au,  3-Au) :   0.1848 B(  1-Au,  4-Au) :   0.2103 B(  1-Au,  6-Au) :   0.1412
B(  1-Au, 13-Au) :   0.1216 B(  1-Au, 14-Fe) :   0.4872 B(  2-Au,  3-Au) :   0.1904
B(  2-Au,  5-Au) :   0.2128 B(  2-Au,  7-Au) :   0.1167 B(  2-Au,  8-Au) :   0.1350
B(  2-Au, 14-Fe) :   0.4897 B(  3-Au,  6-Au) :   0.1473 B(  3-Au,  8-Au) :   0.1445
B(  3-Au, 14-Fe) :   0.3602 B(  4-Au,  5-Au) :   0.2274 B(  4-Au, 11-Au) :   0.2207
B(  4-Au, 12-Au) :   0.3278 B(  4-Au, 14-Fe) :   0.4714 B(  5-Au,  9-Au) :   0.2266
B(  5-Au, 12-Au) :   0.3248 B(  5-Au, 14-Fe) :   0.4592 B(  6-Au,  8-Au) :   0.2546
B(  6-Au, 13-Au) :   0.2840 B(  6-Au, 14-Fe) :   0.3987 B(  7-Au,  8-Au) :   0.2879
B(  7-Au,  9-Au) :   0.2867 B(  7-Au, 10-Au) :   0.2292 B(  7-Au, 14-Fe) :   0.4736
B(  8-Au, 14-Fe) :   0.4086 B(  9-Au, 10-Au) :   0.3580 B(  9-Au, 12-Au) :   0.2498
B( 10-Au, 11-Au) :   0.3593 B( 10-Au, 12-Au) :   0.1406 B( 10-Au, 13-Au) :   0.2367
B( 10-Au, 14-Fe) :   0.4092 B( 11-Au, 12-Au) :   0.2432 B( 11-Au, 13-Au) :   0.2919
B( 13-Au, 14-Fe) :   0.4702

FINAL SINGLE POINT ENERGY     -3165.550468539348

DIPOLE MOMENT
-------------
                                X             Y             Z
Electronic contribution:     22.72214      -1.57660      -2.48810
Nuclear contribution   :    -22.77657       1.68546       2.51974
                        -----------------------------------------
Total Dipole Moment    :     -0.05443       0.10886       0.03164
                        -----------------------------------------
Magnitude (a.u.)       :      0.12576
Magnitude (Debye)      :      0.31965

Rotational constants in cm-1:     0.001256     0.000989     0.000872
Rotational constants in MHz :    37.657135    29.662957    26.154449

                             ****ORCA TERMINATED NORMALLY****
TOTAL RUN TIME: 0 days 1 hours 22 minutes 43 seconds 920 msec
