                         Program Version 5.0.3 -  RELEASE  -
|  1> !RI-B2PLYP def2-TZVP def2-TZVP/C
|  2> !RIJCOSX VERYSLOWCONV
|  3>
|  4> %scf
|  5>   AutoTRAHIter 200
|  6>   maxiter 400
|  7> end
|  8>
|  9>
| 10> %pal nprocs 6 end
| 11>
| 12> *xyzfile 0 6 pbe.xyz
| 13>
| 14> $new_job
| 15>
| 16> !RI-B2PLYP def2-TZVP def2-TZVP/C
| 17> !RIJCOSX VERYSLOWCONV
| 18>
| 19> %scf
| 20>   AutoTRAHIter 200
| 21>   maxiter 400
| 22> end
| 23>
| 24>
| 25> %pal nprocs 6 end
| 26>
| 27> *xyzfile 0 4 pbe.xyz
| 28>
| 29>
| 30>
| 31>
| 32>
| 33>                          ****END OF INPUT****
 Total Charge           Charge          ....    0
 Multiplicity           Mult            ....    6
 Number of Electrons    NEL             ....  215
MP2 TOTAL ENERGY:    -2506.684284168 Eh
FINAL SINGLE POINT ENERGY     -2506.684284168020

CARTESIAN COORDINATES (ANGSTROEM)
---------------------------------
  Au     7.405617    5.697053    5.831257
  Au     7.625696    8.325093    6.799858
  Au     8.050550    5.137461   10.495800
  Au     8.077472    4.011553    8.115388
  Au     6.972625    3.066703    5.741064
  Au     5.305213    4.498749    7.448909
  Au     8.148002    7.659396    4.254384
  Au     4.638091    5.742551    9.670412
  Au     6.349767    7.169350   11.325109
  Au     7.109911    8.904426    9.319408
  Mn     6.891586    6.441369    8.561504

 Multiplicity           Mult            ....    4
 Number of Electrons    NEL             ....  215
 Basis Dimension        Dim             ....  445

ORBITAL ENERGIES
----------------
                 SPIN UP ORBITALS
  NO   OCC          E(Eh)            E(eV)
   0   1.0000    -237.620214     -6465.9747
   1   1.0000     -28.125538      -765.3348
   2   1.0000     -24.043851      -654.2664
   3   1.0000     -24.042872      -654.2398
   4   1.0000     -24.042556      -654.2312
   5   1.0000      -4.406550      -119.9083
   6   1.0000      -4.400323      -119.7389
   7   1.0000      -4.400087      -119.7325
   8   1.0000      -4.399080      -119.7050
   9   1.0000      -4.396954      -119.6472
  10   1.0000      -4.396481      -119.6343
  11   1.0000      -4.396014      -119.6216
  12   1.0000      -4.395891      -119.6183
  13   1.0000      -4.388631      -119.4207
  14   1.0000      -4.372909      -118.9929
  15   1.0000      -3.604234       -98.0762
  16   1.0000      -2.527175       -68.7679
  17   1.0000      -2.525024       -68.7094
  18   1.0000      -2.524490       -68.6949
  19   1.0000      -2.523863       -68.6778
  20   1.0000      -2.523209       -68.6600
  21   1.0000      -2.521841       -68.6228
  22   1.0000      -2.520939       -68.5982
  23   1.0000      -2.518710       -68.5376
  24   1.0000      -2.517242       -68.4976
  25   1.0000      -2.517163       -68.4955
  26   1.0000      -2.516365       -68.4738
  27   1.0000      -2.515914       -68.4615
  28   1.0000      -2.515870       -68.4603
  29   1.0000      -2.514182       -68.4144
  30   1.0000      -2.513387       -68.3927
  31   1.0000      -2.513273       -68.3896
  32   1.0000      -2.512751       -68.3754
  33   1.0000      -2.512348       -68.3645
  34   1.0000      -2.511252       -68.3346
  35   1.0000      -2.511016       -68.3282
  36   1.0000      -2.508110       -68.2491
  37   1.0000      -2.507696       -68.2379
  38   1.0000      -2.507493       -68.2324
  39   1.0000      -2.507210       -68.2246
  40   1.0000      -2.507145       -68.2229
  41   1.0000      -2.504770       -68.1583
  42   1.0000      -2.503382       -68.1205
  43   1.0000      -2.493145       -67.8419
  44   1.0000      -2.489539       -67.7438
  45   1.0000      -2.485959       -67.6464
  46   1.0000      -2.406364       -65.4805
  47   1.0000      -2.405296       -65.4514
  48   1.0000      -2.404932       -65.4415
  49   1.0000      -0.514236       -13.9931
  50   1.0000      -0.511002       -13.9051
  51   1.0000      -0.509168       -13.8552
  52   1.0000      -0.506382       -13.7794
  53   1.0000      -0.500346       -13.6151
  54   1.0000      -0.484523       -13.1846
  55   1.0000      -0.472257       -12.8508
  56   1.0000      -0.462041       -12.5728
  57   1.0000      -0.457401       -12.4465
  58   1.0000      -0.453062       -12.3285
  59   1.0000      -0.447968       -12.1898
  60   1.0000      -0.440831       -11.9956
  61   1.0000      -0.437883       -11.9154
  62   1.0000      -0.436921       -11.8892
  63   1.0000      -0.435561       -11.8522
  64   1.0000      -0.434850       -11.8329
  65   1.0000      -0.433474       -11.7954
  66   1.0000      -0.423020       -11.5110
  67   1.0000      -0.420616       -11.4455
  68   1.0000      -0.420313       -11.4373
  69   1.0000      -0.413705       -11.2575
  70   1.0000      -0.410679       -11.1751
  71   1.0000      -0.406067       -11.0496
  72   1.0000      -0.405466       -11.0333
  73   1.0000      -0.398305       -10.8384
  74   1.0000      -0.391186       -10.6447
  75   1.0000      -0.389504       -10.5989
  76   1.0000      -0.387430       -10.5425
  77   1.0000      -0.385899       -10.5008
  78   1.0000      -0.385685       -10.4950
  79   1.0000      -0.382298       -10.4029
  80   1.0000      -0.381898       -10.3920
  81   1.0000      -0.380136       -10.3440
  82   1.0000      -0.377807       -10.2807
  83   1.0000      -0.374683       -10.1956
  84   1.0000      -0.373924       -10.1750
  85   1.0000      -0.372567       -10.1381
  86   1.0000      -0.370895       -10.0926
  87   1.0000      -0.370372       -10.0783
  88   1.0000      -0.369418       -10.0524
  89   1.0000      -0.367717       -10.0061
  90   1.0000      -0.365533        -9.9467
  91   1.0000      -0.364496        -9.9184
  92   1.0000      -0.362958        -9.8766
  93   1.0000      -0.359314        -9.7774
  94   1.0000      -0.357153        -9.7186
  95   1.0000      -0.354767        -9.6537
  96   1.0000      -0.352893        -9.6027
  97   1.0000      -0.348004        -9.4697
  98   1.0000      -0.343848        -9.3566
  99   1.0000      -0.342144        -9.3102
 100   1.0000      -0.337553        -9.1853
 101   1.0000      -0.335102        -9.1186
 102   1.0000      -0.331844        -9.0299
 103   1.0000      -0.327096        -8.9007
 104   1.0000      -0.315130        -8.5751
 105   1.0000      -0.311661        -8.4807
 106   1.0000      -0.305388        -8.3100
 107   1.0000      -0.252226        -6.8634
 108   1.0000      -0.242715        -6.6046
 109   0.0000      -0.141345        -3.8462
 110   0.0000      -0.083177        -2.2634
 111   0.0000      -0.080544        -2.1917
 112   0.0000      -0.061095        -1.6625
 113   0.0000      -0.041251        -1.1225

                 SPIN DOWN ORBITALS
  NO   OCC          E(Eh)            E(eV)
   0   1.0000    -237.618331     -6465.9235
   1   1.0000     -28.024399      -762.5827
   2   1.0000     -23.950416      -651.7240
   3   1.0000     -23.950259      -651.7197
   4   1.0000     -23.949700      -651.7045
   5   1.0000      -4.407622      -119.9375
   6   1.0000      -4.400652      -119.7478
   7   1.0000      -4.400348      -119.7395
   8   1.0000      -4.400161      -119.7345
   9   1.0000      -4.396066      -119.6230
  10   1.0000      -4.395631      -119.6112
  11   1.0000      -4.395427      -119.6056
  12   1.0000      -4.395002      -119.5941
  13   1.0000      -4.391328      -119.4941
  14   1.0000      -4.374928      -119.0478
  15   1.0000      -3.319564       -90.3299
  16   1.0000      -2.526839       -68.7588
  17   1.0000      -2.524749       -68.7019
  18   1.0000      -2.524190       -68.6867
  19   1.0000      -2.524069       -68.6834
  20   1.0000      -2.522718       -68.6467
  21   1.0000      -2.522436       -68.6390
  22   1.0000      -2.520562       -68.5880
  23   1.0000      -2.519159       -68.5498
  24   1.0000      -2.517501       -68.5047
  25   1.0000      -2.517392       -68.5017
  26   1.0000      -2.514586       -68.4254
  27   1.0000      -2.514393       -68.4201
  28   1.0000      -2.514078       -68.4115
  29   1.0000      -2.513566       -68.3976
  30   1.0000      -2.512925       -68.3802
  31   1.0000      -2.512703       -68.3741
  32   1.0000      -2.512257       -68.3620
  33   1.0000      -2.511914       -68.3527
  34   1.0000      -2.511199       -68.3332
  35   1.0000      -2.511096       -68.3304
  36   1.0000      -2.509939       -68.2989
  37   1.0000      -2.506754       -68.2122
  38   1.0000      -2.506297       -68.1998
  39   1.0000      -2.505935       -68.1900
  40   1.0000      -2.505849       -68.1876
  41   1.0000      -2.505796       -68.1862
  42   1.0000      -2.505619       -68.1814
  43   1.0000      -2.496022       -67.9202
  44   1.0000      -2.491601       -67.7999
  45   1.0000      -2.486694       -67.6664
  46   1.0000      -2.079755       -56.5930
  47   1.0000      -2.079135       -56.5761
  48   1.0000      -2.078880       -56.5692
  49   1.0000      -0.496516       -13.5109
  50   1.0000      -0.475403       -12.9364
  51   1.0000      -0.468022       -12.7355
  52   1.0000      -0.461222       -12.5505
  53   1.0000      -0.461090       -12.5469
  54   1.0000      -0.457253       -12.4425
  55   1.0000      -0.451828       -12.2949
  56   1.0000      -0.447813       -12.1856
  57   1.0000      -0.445842       -12.1320
  58   1.0000      -0.438719       -11.9382
  59   1.0000      -0.437938       -11.9169
  60   1.0000      -0.435587       -11.8529
  61   1.0000      -0.430151       -11.7050
  62   1.0000      -0.426849       -11.6152
  63   1.0000      -0.423486       -11.5236
  64   1.0000      -0.421231       -11.4623
  65   1.0000      -0.417464       -11.3598
  66   1.0000      -0.417215       -11.3530
  67   1.0000      -0.408861       -11.1257
  68   1.0000      -0.406895       -11.0722
  69   1.0000      -0.404871       -11.0171
  70   1.0000      -0.400805       -10.9065
  71   1.0000      -0.392910       -10.6916
  72   1.0000      -0.390741       -10.6326
  73   1.0000      -0.389302       -10.5934
  74   1.0000      -0.386810       -10.5256
  75   1.0000      -0.386354       -10.5132
  76   1.0000      -0.381419       -10.3790
  77   1.0000      -0.380298       -10.3484
  78   1.0000      -0.380169       -10.3449
  79   1.0000      -0.377358       -10.2684
  80   1.0000      -0.376479       -10.2445
  81   1.0000      -0.373145       -10.1538
  82   1.0000      -0.372641       -10.1401
  83   1.0000      -0.372513       -10.1366
  84   1.0000      -0.370665       -10.0863
  85   1.0000      -0.369701       -10.0601
  86   1.0000      -0.368511       -10.0277
  87   1.0000      -0.366905        -9.9840
  88   1.0000      -0.360662        -9.8141
  89   1.0000      -0.359984        -9.7957
  90   1.0000      -0.356402        -9.6982
  91   1.0000      -0.354326        -9.6417
  92   1.0000      -0.350971        -9.5504
  93   1.0000      -0.346470        -9.4279
  94   1.0000      -0.344618        -9.3775
  95   1.0000      -0.342946        -9.3320
  96   1.0000      -0.338729        -9.2173
  97   1.0000      -0.336758        -9.1637
  98   1.0000      -0.331213        -9.0128
  99   1.0000      -0.327922        -8.9232
 100   1.0000      -0.321382        -8.7453
 101   1.0000      -0.315828        -8.5941
 102   1.0000      -0.267038        -7.2665
 103   1.0000      -0.260771        -7.0959
 104   1.0000      -0.239839        -6.5264
 105   1.0000      -0.173093        -4.7101
 106   0.0000      -0.092408        -2.5145
 107   0.0000      -0.083983        -2.2853
 108   0.0000      -0.058675        -1.5966
 109   0.0000      -0.038577        -1.0497
 110   0.0000      -0.032524        -0.8850

MULLIKEN ATOMIC CHARGES AND SPIN POPULATIONS
--------------------------------------------
   0 Au:   -0.670220   -0.048963
   1 Au:   -0.043073   -0.154260
   2 Au:    0.072515    0.040619
   3 Au:    0.142174   -0.095238
   4 Au:    0.359525   -0.540702
   5 Au:    0.143820   -0.090186
   6 Au:    0.374786   -0.314499
   7 Au:    0.067852    0.036180
   8 Au:    0.291720   -0.475817
   9 Au:    0.120608    0.047154
  10 Mn:   -0.859707    4.595715
Sum of atomic charges         :   -0.0000000

LOEWDIN ATOMIC CHARGES AND SPIN POPULATIONS
-------------------------------------------
   0 Au:   -0.160589   -0.150600
   1 Au:   -0.078625   -0.138805
   2 Au:    0.041902   -0.061329
   3 Au:   -0.028717   -0.126303
   4 Au:    0.087007   -0.369510
   5 Au:   -0.028777   -0.124961
   6 Au:    0.088129   -0.220795
   7 Au:    0.039245   -0.063662
   8 Au:    0.041729   -0.252151
   9 Au:    0.049195   -0.082040
  10 Mn:   -0.050499    4.590156

  Mayer bond orders larger than 0.100000
B(  0-Au,  1-Au) :   0.4032 B(  0-Au,  3-Au) :   0.2089 B(  0-Au,  4-Au) :   0.2409
B(  0-Au,  5-Au) :   0.2145 B(  0-Au,  6-Au) :   0.5233 B(  0-Au, 10-Mn) :   0.4615
B(  1-Au,  6-Au) :   0.3957 B(  1-Au,  9-Au) :   0.5016 B(  1-Au, 10-Mn) :   0.3796
B(  2-Au,  3-Au) :   0.5363 B(  2-Au,  8-Au) :   0.1611 B(  2-Au, 10-Mn) :   0.5113
B(  3-Au,  4-Au) :   0.2531 B(  3-Au,  5-Au) :   0.1447 B(  3-Au, 10-Mn) :   0.3872
B(  4-Au,  5-Au) :   0.2478 B(  5-Au,  7-Au) :   0.5392 B(  5-Au, 10-Mn) :   0.3856
B(  7-Au,  8-Au) :   0.1615 B(  7-Au, 10-Mn) :   0.5074 B(  8-Au,  9-Au) :   0.1747
B(  8-Au, 10-Mn) :   0.3115 B(  9-Au, 10-Mn) :   0.5441

MP2 TOTAL ENERGY:    -2506.635711056 Eh
FINAL SINGLE POINT ENERGY     -2506.635711056015

DIPOLE MOMENT
-------------
                                X             Y             Z
Electronic contribution:      2.63578     -15.05514     -23.22552
Nuclear contribution   :     -2.77823      15.21648      23.95259
                        -----------------------------------------
Total Dipole Moment    :     -0.14245       0.16134       0.72706
                        -----------------------------------------
Magnitude (a.u.)       :      0.75825
Magnitude (Debye)      :      1.92732

Rotational constants in cm-1:     0.001937     0.001414     0.001023
Rotational constants in MHz :    58.079822    42.397457    30.678600

                             ****ORCA TERMINATED NORMALLY****
TOTAL RUN TIME: 0 days 0 hours 20 minutes 34 seconds 672 msec
