                         Program Version 5.0.3 -  RELEASE  -
|  1> !PBE def2-TZVP VERYSLOWCONV
|  2> !KDIIS
|  3>
|  4> %scf
|  5>   AutoTRAHIter 200
|  6>   maxiter 400
|  7> end
|  8>
|  9>
| 10> %pal nprocs 6 end
| 11>
| 12> *xyzfile 0 6 pbe.xyz
| 13>
| 14> $new_job
| 15>
| 16> !PBE def2-TZVP VERYSLOWCONV
| 17> !KDIIS
| 18>
| 19> %scf
| 20>   AutoTRAHIter 200
| 21>   maxiter 400
| 22> end
| 23>
| 24>
| 25> %pal nprocs 6 end
| 26>
| 27> *xyzfile 0 4 pbe.xyz
| 28>
| 29>
| 30>
| 31>
| 32>
| 33>                          ****END OF INPUT****
 Total Charge           Charge          ....    0
 Multiplicity           Mult            ....    6
 Number of Electrons    NEL             ....  215
FINAL SINGLE POINT ENERGY     -2509.043616703680

CARTESIAN COORDINATES (ANGSTROEM)
---------------------------------
  Au     7.405617    5.697053    5.831257
  Au     7.625696    8.325093    6.799858
  Au     8.050550    5.137461   10.495800
  Au     8.077472    4.011553    8.115388
  Au     6.972625    3.066703    5.741064
  Au     5.305213    4.498749    7.448909
  Au     8.148002    7.659396    4.254384
  Au     4.638091    5.742551    9.670412
  Au     6.349767    7.169350   11.325109
  Au     7.109911    8.904426    9.319408
  Mn     6.891586    6.441369    8.561504

 Multiplicity           Mult            ....    4
 Number of Electrons    NEL             ....  215
 Basis Dimension        Dim             ....  445

ORBITAL ENERGIES
----------------
                 SPIN UP ORBITALS
  NO   OCC          E(Eh)            E(eV)
   0   1.0000    -234.197671     -6372.8426
   1   1.0000     -26.894191      -731.8281
   2   1.0000     -23.044892      -627.0834
   3   1.0000     -23.041926      -627.0027
   4   1.0000     -23.041351      -626.9870
   5   1.0000      -4.031357      -109.6988
   6   1.0000      -4.031134      -109.6927
   7   1.0000      -4.025754      -109.5463
   8   1.0000      -4.024898      -109.5230
   9   1.0000      -4.023924      -109.4965
  10   1.0000      -4.023631      -109.4886
  11   1.0000      -4.023020      -109.4719
  12   1.0000      -4.022392      -109.4548
  13   1.0000      -4.019464      -109.3752
  14   1.0000      -4.004532      -108.9689
  15   1.0000      -3.102445       -84.4218
  16   1.0000      -2.250108       -61.2286
  17   1.0000      -2.246833       -61.1394
  18   1.0000      -2.245721       -61.1092
  19   1.0000      -2.245571       -61.1051
  20   1.0000      -2.244800       -61.0841
  21   1.0000      -2.244569       -61.0778
  22   1.0000      -2.243987       -61.0620
  23   1.0000      -2.243467       -61.0478
  24   1.0000      -2.240362       -60.9633
  25   1.0000      -2.240055       -60.9550
  26   1.0000      -2.239458       -60.9387
  27   1.0000      -2.238988       -60.9260
  28   1.0000      -2.238287       -60.9069
  29   1.0000      -2.237848       -60.8950
  30   1.0000      -2.237404       -60.8828
  31   1.0000      -2.236865       -60.8682
  32   1.0000      -2.236683       -60.8632
  33   1.0000      -2.236528       -60.8590
  34   1.0000      -2.235458       -60.8299
  35   1.0000      -2.233293       -60.7710
  36   1.0000      -2.232154       -60.7400
  37   1.0000      -2.230671       -60.6996
  38   1.0000      -2.229285       -60.6619
  39   1.0000      -2.228936       -60.6524
  40   1.0000      -2.228389       -60.6376
  41   1.0000      -2.228372       -60.6371
  42   1.0000      -2.227698       -60.6187
  43   1.0000      -2.223326       -60.4998
  44   1.0000      -2.217920       -60.3527
  45   1.0000      -2.210467       -60.1499
  46   1.0000      -2.009914       -54.6925
  47   1.0000      -2.003568       -54.5198
  48   1.0000      -2.001362       -54.4598
  49   1.0000      -0.410334       -11.1658
  50   1.0000      -0.384278       -10.4567
  51   1.0000      -0.376028       -10.2323
  52   1.0000      -0.365796        -9.9538
  53   1.0000      -0.364270        -9.9123
  54   1.0000      -0.359184        -9.7739
  55   1.0000      -0.351001        -9.5512
  56   1.0000      -0.346631        -9.4323
  57   1.0000      -0.345002        -9.3880
  58   1.0000      -0.337746        -9.1905
  59   1.0000      -0.336065        -9.1448
  60   1.0000      -0.333414        -9.0727
  61   1.0000      -0.329450        -8.9648
  62   1.0000      -0.328170        -8.9299
  63   1.0000      -0.327016        -8.8986
  64   1.0000      -0.319796        -8.7021
  65   1.0000      -0.319398        -8.6913
  66   1.0000      -0.316843        -8.6217
  67   1.0000      -0.312890        -8.5142
  68   1.0000      -0.311849        -8.4859
  69   1.0000      -0.308676        -8.3995
  70   1.0000      -0.305496        -8.3130
  71   1.0000      -0.302956        -8.2439
  72   1.0000      -0.297216        -8.0876
  73   1.0000      -0.292162        -7.9501
  74   1.0000      -0.288936        -7.8623
  75   1.0000      -0.288140        -7.8407
  76   1.0000      -0.287809        -7.8317
  77   1.0000      -0.284581        -7.7439
  78   1.0000      -0.282986        -7.7004
  79   1.0000      -0.278147        -7.5688
  80   1.0000      -0.277995        -7.5646
  81   1.0000      -0.276453        -7.5227
  82   1.0000      -0.276071        -7.5123
  83   1.0000      -0.273707        -7.4480
  84   1.0000      -0.271910        -7.3990
  85   1.0000      -0.271198        -7.3797
  86   1.0000      -0.270030        -7.3479
  87   1.0000      -0.269353        -7.3295
  88   1.0000      -0.267852        -7.2886
  89   1.0000      -0.264128        -7.1873
  90   1.0000      -0.261543        -7.1169
  91   1.0000      -0.261193        -7.1074
  92   1.0000      -0.258011        -7.0208
  93   1.0000      -0.256007        -6.9663
  94   1.0000      -0.253725        -6.9042
  95   1.0000      -0.253155        -6.8887
  96   1.0000      -0.249817        -6.7979
  97   1.0000      -0.247669        -6.7394
  98   1.0000      -0.247439        -6.7331
  99   1.0000      -0.246727        -6.7138
 100   1.0000      -0.245999        -6.6940
 101   1.0000      -0.245538        -6.6814
 102   1.0000      -0.241507        -6.5717
 103   1.0000      -0.240086        -6.5331
 104   1.0000      -0.235566        -6.4101
 105   1.0000      -0.235281        -6.4023
 106   1.0000      -0.228015        -6.2046
 107   1.0000      -0.216075        -5.8797
 108   1.0000      -0.212410        -5.7800
 109   0.0000      -0.200802        -5.4641
 110   0.0000      -0.148695        -4.0462
 111   0.0000      -0.148313        -4.0358
 112   0.0000      -0.132873        -3.6157
 113   0.0000      -0.115158        -3.1336

                 SPIN DOWN ORBITALS
  NO   OCC          E(Eh)            E(eV)
   0   1.0000    -234.197013     -6372.8247
   1   1.0000     -26.829426      -730.0658
   2   1.0000     -22.994386      -625.7091
   3   1.0000     -22.993453      -625.6837
   4   1.0000     -22.992800      -625.6659
   5   1.0000      -4.031994      -109.7161
   6   1.0000      -4.031803      -109.7109
   7   1.0000      -4.025421      -109.5373
   8   1.0000      -4.024739      -109.5187
   9   1.0000      -4.023595      -109.4876
  10   1.0000      -4.022738      -109.4643
  11   1.0000      -4.021794      -109.4386
  12   1.0000      -4.021224      -109.4231
  13   1.0000      -4.020554      -109.4048
  14   1.0000      -4.005947      -109.0073
  15   1.0000      -2.943315       -80.0917
  16   1.0000      -2.251681       -61.2714
  17   1.0000      -2.247256       -61.1509
  18   1.0000      -2.245693       -61.1084
  19   1.0000      -2.245321       -61.0983
  20   1.0000      -2.245137       -61.0933
  21   1.0000      -2.244612       -61.0790
  22   1.0000      -2.244199       -61.0678
  23   1.0000      -2.243729       -61.0550
  24   1.0000      -2.239557       -60.9415
  25   1.0000      -2.239399       -60.9371
  26   1.0000      -2.238294       -60.9071
  27   1.0000      -2.238250       -60.9059
  28   1.0000      -2.237565       -60.8872
  29   1.0000      -2.237304       -60.8801
  30   1.0000      -2.236811       -60.8667
  31   1.0000      -2.236742       -60.8648
  32   1.0000      -2.236395       -60.8554
  33   1.0000      -2.236075       -60.8467
  34   1.0000      -2.235598       -60.8337
  35   1.0000      -2.232932       -60.7612
  36   1.0000      -2.231861       -60.7320
  37   1.0000      -2.231327       -60.7175
  38   1.0000      -2.230629       -60.6985
  39   1.0000      -2.228149       -60.6310
  40   1.0000      -2.227283       -60.6075
  41   1.0000      -2.227235       -60.6061
  42   1.0000      -2.226611       -60.5892
  43   1.0000      -2.225367       -60.5553
  44   1.0000      -2.219768       -60.4030
  45   1.0000      -2.211202       -60.1699
  46   1.0000      -1.850931       -50.3664
  47   1.0000      -1.848398       -50.2975
  48   1.0000      -1.846916       -50.2571
  49   1.0000      -0.410584       -11.1726
  50   1.0000      -0.378713       -10.3053
  51   1.0000      -0.376927       -10.2567
  52   1.0000      -0.364604        -9.9214
  53   1.0000      -0.360457        -9.8085
  54   1.0000      -0.355966        -9.6863
  55   1.0000      -0.351158        -9.5555
  56   1.0000      -0.343803        -9.3553
  57   1.0000      -0.340463        -9.2645
  58   1.0000      -0.335842        -9.1387
  59   1.0000      -0.335235        -9.1222
  60   1.0000      -0.331340        -9.0162
  61   1.0000      -0.329196        -8.9579
  62   1.0000      -0.322489        -8.7754
  63   1.0000      -0.320773        -8.7287
  64   1.0000      -0.317373        -8.6362
  65   1.0000      -0.315410        -8.5827
  66   1.0000      -0.314034        -8.5453
  67   1.0000      -0.307263        -8.3611
  68   1.0000      -0.306572        -8.3423
  69   1.0000      -0.305694        -8.3184
  70   1.0000      -0.305356        -8.3092
  71   1.0000      -0.296769        -8.0755
  72   1.0000      -0.296378        -8.0649
  73   1.0000      -0.290569        -7.9068
  74   1.0000      -0.289710        -7.8834
  75   1.0000      -0.287583        -7.8255
  76   1.0000      -0.287064        -7.8114
  77   1.0000      -0.282637        -7.6909
  78   1.0000      -0.279394        -7.6027
  79   1.0000      -0.277044        -7.5387
  80   1.0000      -0.276713        -7.5297
  81   1.0000      -0.275999        -7.5103
  82   1.0000      -0.274798        -7.4776
  83   1.0000      -0.273457        -7.4411
  84   1.0000      -0.273199        -7.4341
  85   1.0000      -0.271558        -7.3895
  86   1.0000      -0.270219        -7.3530
  87   1.0000      -0.269793        -7.3414
  88   1.0000      -0.268289        -7.3005
  89   1.0000      -0.263104        -7.1594
  90   1.0000      -0.262219        -7.1353
  91   1.0000      -0.261502        -7.1158
  92   1.0000      -0.257239        -6.9998
  93   1.0000      -0.255242        -6.9455
  94   1.0000      -0.252234        -6.8636
  95   1.0000      -0.251676        -6.8484
  96   1.0000      -0.250790        -6.8243
  97   1.0000      -0.247708        -6.7405
  98   1.0000      -0.247454        -6.7336
  99   1.0000      -0.244960        -6.6657
 100   1.0000      -0.242772        -6.6062
 101   1.0000      -0.236470        -6.4347
 102   1.0000      -0.225911        -6.1473
 103   1.0000      -0.225267        -6.1298
 104   1.0000      -0.213776        -5.8171
 105   1.0000      -0.161260        -4.3881
 106   0.0000      -0.161920        -4.4061
 107   0.0000      -0.151474        -4.1218
 108   0.0000      -0.132200        -3.5973
 109   0.0000      -0.128531        -3.4975
 110   0.0000      -0.128131        -3.4866

MULLIKEN ATOMIC CHARGES AND SPIN POPULATIONS
--------------------------------------------
   0 Au:   -0.527077   -0.132497
   1 Au:   -0.005276   -0.066413
   2 Au:    0.127455    0.054962
   3 Au:    0.136441   -0.040254
   4 Au:    0.405571   -0.347883
   5 Au:    0.141222   -0.028882
   6 Au:    0.349944   -0.235817
   7 Au:    0.115800    0.037725
   8 Au:    0.319675   -0.340813
   9 Au:    0.151200    0.033409
  10 Mn:   -1.214953    4.066461
Sum of atomic charges         :    0.0000000

LOEWDIN ATOMIC CHARGES AND SPIN POPULATIONS
-------------------------------------------
   0 Au:   -0.123743   -0.132241
   1 Au:   -0.026546   -0.071810
   2 Au:    0.077787   -0.000961
   3 Au:   -0.001815   -0.058457
   4 Au:    0.088347   -0.275435
   5 Au:   -0.000137   -0.057004
   6 Au:    0.079994   -0.209177
   7 Au:    0.072175   -0.010810
   8 Au:    0.046352   -0.214217
   9 Au:    0.076890   -0.033356
  10 Mn:   -0.289305    4.063470

  Mayer bond orders larger than 0.100000
B(  0-Au,  1-Au) :   0.3541 B(  0-Au,  3-Au) :   0.1937 B(  0-Au,  4-Au) :   0.3435
B(  0-Au,  5-Au) :   0.2129 B(  0-Au,  6-Au) :   0.5723 B(  0-Au, 10-Mn) :   0.4830
B(  1-Au,  6-Au) :   0.4238 B(  1-Au,  9-Au) :   0.4976 B(  1-Au, 10-Mn) :   0.4814
B(  2-Au,  3-Au) :   0.5325 B(  2-Au,  8-Au) :   0.2327 B(  2-Au, 10-Mn) :   0.5811
B(  3-Au,  4-Au) :   0.3055 B(  3-Au,  5-Au) :   0.1638 B(  3-Au, 10-Mn) :   0.4682
B(  4-Au,  5-Au) :   0.2884 B(  4-Au,  6-Au) :   0.1002 B(  5-Au,  7-Au) :   0.5258
B(  5-Au, 10-Mn) :   0.4691 B(  7-Au,  8-Au) :   0.2322 B(  7-Au, 10-Mn) :   0.5795
B(  8-Au,  9-Au) :   0.2439 B(  8-Au, 10-Mn) :   0.3732 B(  9-Au, 10-Mn) :   0.5812

FINAL SINGLE POINT ENERGY     -2509.003567674881

DIPOLE MOMENT
-------------
                                X             Y             Z
Electronic contribution:      2.65384     -15.16150     -23.40292
Nuclear contribution   :     -2.77823      15.21648      23.95259
                        -----------------------------------------
Total Dipole Moment    :     -0.12439       0.05498       0.54967
                        -----------------------------------------
Magnitude (a.u.)       :      0.56624
Magnitude (Debye)      :      1.43927

Rotational constants in cm-1:     0.001937     0.001414     0.001023
Rotational constants in MHz :    58.079822    42.397457    30.678600

                             ****ORCA TERMINATED NORMALLY****
TOTAL RUN TIME: 0 days 0 hours 3 minutes 3 seconds 960 msec
