                         Program Version 5.0.3 -  RELEASE  -
|  1> !R2SCAN def2-TZVP VERYSLOWCONV
|  2> !KDIIS
|  3> %scf
|  4>   AutoTRAHIter 200
|  5>   maxiter 400
|  6> end
|  7>
|  8> %pal nprocs 6 end
|  9>
| 10> *xyzfile 0 6 pbe.xyz
| 11>
| 12> $new_job
| 13>
| 14> !R2SCAN def2-TZVP VERYSLOWCONV
| 15> !KDIIS
| 16> %scf
| 17>   AutoTRAHIter 200
| 18>   maxiter 400
| 19> end
| 20>
| 21>
| 22> %pal nprocs 6 end
| 23>
| 24> *xyzfile 0 4 pbe.xyz
| 25>
| 26>
| 27>
| 28>
| 29>
| 30>                          ****END OF INPUT****
 Total Charge           Charge          ....    0
 Multiplicity           Mult            ....    6
 Number of Electrons    NEL             ....  215
FINAL SINGLE POINT ENERGY     -2509.450196184945

CARTESIAN COORDINATES (ANGSTROEM)
---------------------------------
  Au     7.405617    5.697053    5.831257
  Au     7.625696    8.325093    6.799858
  Au     8.050550    5.137461   10.495800
  Au     8.077472    4.011553    8.115388
  Au     6.972625    3.066703    5.741064
  Au     5.305213    4.498749    7.448909
  Au     8.148002    7.659396    4.254384
  Au     4.638091    5.742551    9.670412
  Au     6.349767    7.169350   11.325109
  Au     7.109911    8.904426    9.319408
  Mn     6.891586    6.441369    8.561504

 Multiplicity           Mult            ....    4
 Number of Electrons    NEL             ....  215
 Basis Dimension        Dim             ....  445

ORBITAL ENERGIES
----------------
                 SPIN UP ORBITALS
  NO   OCC          E(Eh)            E(eV)
   0   1.0000    -235.040902     -6395.7881
   1   1.0000     -27.222176      -740.7531
   2   1.0000     -23.270453      -633.2212
   3   1.0000     -23.268195      -633.1598
   4   1.0000     -23.267752      -633.1477
   5   1.0000      -4.123381      -112.2029
   6   1.0000      -4.120990      -112.1378
   7   1.0000      -4.117251      -112.0361
   8   1.0000      -4.116691      -112.0209
   9   1.0000      -4.116280      -112.0097
  10   1.0000      -4.115919      -111.9999
  11   1.0000      -4.115135      -111.9785
  12   1.0000      -4.114902      -111.9722
  13   1.0000      -4.108725      -111.8041
  14   1.0000      -4.094744      -111.4237
  15   1.0000      -3.244327       -88.2826
  16   1.0000      -2.312310       -62.9212
  17   1.0000      -2.311924       -62.9106
  18   1.0000      -2.310524       -62.8725
  19   1.0000      -2.310344       -62.8676
  20   1.0000      -2.309400       -62.8420
  21   1.0000      -2.309119       -62.8343
  22   1.0000      -2.308484       -62.8170
  23   1.0000      -2.307466       -62.7894
  24   1.0000      -2.305200       -62.7277
  25   1.0000      -2.304862       -62.7185
  26   1.0000      -2.303986       -62.6947
  27   1.0000      -2.303620       -62.6847
  28   1.0000      -2.302752       -62.6611
  29   1.0000      -2.302648       -62.6582
  30   1.0000      -2.302337       -62.6498
  31   1.0000      -2.301562       -62.6287
  32   1.0000      -2.300698       -62.6052
  33   1.0000      -2.299638       -62.5763
  34   1.0000      -2.298006       -62.5319
  35   1.0000      -2.297269       -62.5119
  36   1.0000      -2.296684       -62.4959
  37   1.0000      -2.294559       -62.4381
  38   1.0000      -2.294162       -62.4273
  39   1.0000      -2.293117       -62.3989
  40   1.0000      -2.293110       -62.3987
  41   1.0000      -2.292874       -62.3923
  42   1.0000      -2.291382       -62.3517
  43   1.0000      -2.285850       -62.2011
  44   1.0000      -2.280576       -62.0576
  45   1.0000      -2.273918       -61.8764
  46   1.0000      -2.104203       -57.2583
  47   1.0000      -2.099492       -57.1301
  48   1.0000      -2.098455       -57.1019
  49   1.0000      -0.416379       -11.3302
  50   1.0000      -0.393044       -10.6953
  51   1.0000      -0.384273       -10.4566
  52   1.0000      -0.377004       -10.2588
  53   1.0000      -0.375727       -10.2240
  54   1.0000      -0.370585       -10.0841
  55   1.0000      -0.360204        -9.8016
  56   1.0000      -0.358708        -9.7610
  57   1.0000      -0.357890        -9.7387
  58   1.0000      -0.351698        -9.5702
  59   1.0000      -0.346004        -9.4153
  60   1.0000      -0.344410        -9.3719
  61   1.0000      -0.339826        -9.2471
  62   1.0000      -0.339038        -9.2257
  63   1.0000      -0.338283        -9.2052
  64   1.0000      -0.331924        -9.0321
  65   1.0000      -0.331151        -9.0111
  66   1.0000      -0.327438        -8.9100
  67   1.0000      -0.323900        -8.8138
  68   1.0000      -0.322554        -8.7771
  69   1.0000      -0.317750        -8.6464
  70   1.0000      -0.315310        -8.5800
  71   1.0000      -0.313292        -8.5251
  72   1.0000      -0.306464        -8.3393
  73   1.0000      -0.303543        -8.2598
  74   1.0000      -0.297546        -8.0966
  75   1.0000      -0.297138        -8.0855
  76   1.0000      -0.296032        -8.0554
  77   1.0000      -0.293800        -7.9947
  78   1.0000      -0.292810        -7.9678
  79   1.0000      -0.288530        -7.8513
  80   1.0000      -0.287787        -7.8311
  81   1.0000      -0.286079        -7.7846
  82   1.0000      -0.284500        -7.7416
  83   1.0000      -0.283456        -7.7132
  84   1.0000      -0.280778        -7.6404
  85   1.0000      -0.279407        -7.6031
  86   1.0000      -0.279050        -7.5933
  87   1.0000      -0.278968        -7.5911
  88   1.0000      -0.277155        -7.5418
  89   1.0000      -0.274359        -7.4657
  90   1.0000      -0.271344        -7.3836
  91   1.0000      -0.270721        -7.3667
  92   1.0000      -0.267737        -7.2855
  93   1.0000      -0.266348        -7.2477
  94   1.0000      -0.265109        -7.2140
  95   1.0000      -0.264461        -7.1963
  96   1.0000      -0.262324        -7.1382
  97   1.0000      -0.262236        -7.1358
  98   1.0000      -0.257141        -6.9972
  99   1.0000      -0.256243        -6.9727
 100   1.0000      -0.255954        -6.9649
 101   1.0000      -0.254785        -6.9331
 102   1.0000      -0.249651        -6.7934
 103   1.0000      -0.248733        -6.7684
 104   1.0000      -0.245779        -6.6880
 105   1.0000      -0.245488        -6.6801
 106   1.0000      -0.235159        -6.3990
 107   1.0000      -0.221879        -6.0376
 108   1.0000      -0.217832        -5.9275
 109   0.0000      -0.200042        -5.4434
 110   0.0000      -0.145432        -3.9574
 111   0.0000      -0.142488        -3.8773
 112   0.0000      -0.126937        -3.4541
 113   0.0000      -0.108222        -2.9449

                 SPIN DOWN ORBITALS
  NO   OCC          E(Eh)            E(eV)
   0   1.0000    -235.039947     -6395.7621
   1   1.0000     -27.134054      -738.3551
   2   1.0000     -23.201818      -631.3536
   3   1.0000     -23.201308      -631.3397
   4   1.0000     -23.200556      -631.3192
   5   1.0000      -4.124187      -112.2248
   6   1.0000      -4.122217      -112.1712
   7   1.0000      -4.117036      -112.0303
   8   1.0000      -4.116295      -112.0101
   9   1.0000      -4.115818      -111.9971
  10   1.0000      -4.114914      -111.9725
  11   1.0000      -4.114803      -111.9695
  12   1.0000      -4.113931      -111.9458
  13   1.0000      -4.110551      -111.8538
  14   1.0000      -4.096554      -111.4729
  15   1.0000      -3.033682       -82.5507
  16   1.0000      -2.314419       -62.9786
  17   1.0000      -2.312596       -62.9289
  18   1.0000      -2.310323       -62.8671
  19   1.0000      -2.309931       -62.8564
  20   1.0000      -2.309402       -62.8420
  21   1.0000      -2.309094       -62.8336
  22   1.0000      -2.308523       -62.8181
  23   1.0000      -2.308108       -62.8068
  24   1.0000      -2.304198       -62.7004
  25   1.0000      -2.303968       -62.6941
  26   1.0000      -2.303061       -62.6695
  27   1.0000      -2.302602       -62.6570
  28   1.0000      -2.302072       -62.6426
  29   1.0000      -2.302033       -62.6415
  30   1.0000      -2.301644       -62.6309
  31   1.0000      -2.300911       -62.6110
  32   1.0000      -2.300567       -62.6016
  33   1.0000      -2.300007       -62.5864
  34   1.0000      -2.299428       -62.5706
  35   1.0000      -2.297540       -62.5192
  36   1.0000      -2.296396       -62.4881
  37   1.0000      -2.293898       -62.4201
  38   1.0000      -2.293287       -62.4035
  39   1.0000      -2.293081       -62.3979
  40   1.0000      -2.292984       -62.3953
  41   1.0000      -2.292383       -62.3789
  42   1.0000      -2.292027       -62.3692
  43   1.0000      -2.288590       -62.2757
  44   1.0000      -2.282668       -62.1145
  45   1.0000      -2.274823       -61.9011
  46   1.0000      -1.892808       -51.5059
  47   1.0000      -1.890981       -51.4562
  48   1.0000      -1.890225       -51.4356
  49   1.0000      -0.417970       -11.3735
  50   1.0000      -0.388362       -10.5679
  51   1.0000      -0.385295       -10.4844
  52   1.0000      -0.373884       -10.1739
  53   1.0000      -0.370440       -10.0802
  54   1.0000      -0.365575        -9.9478
  55   1.0000      -0.361474        -9.8362
  56   1.0000      -0.354672        -9.6511
  57   1.0000      -0.351793        -9.5728
  58   1.0000      -0.345432        -9.3997
  59   1.0000      -0.344740        -9.3808
  60   1.0000      -0.342074        -9.3083
  61   1.0000      -0.339500        -9.2383
  62   1.0000      -0.332011        -9.0345
  63   1.0000      -0.331821        -9.0293
  64   1.0000      -0.327913        -8.9230
  65   1.0000      -0.325338        -8.8529
  66   1.0000      -0.323640        -8.8067
  67   1.0000      -0.316326        -8.6077
  68   1.0000      -0.316150        -8.6029
  69   1.0000      -0.315669        -8.5898
  70   1.0000      -0.314647        -8.5620
  71   1.0000      -0.306157        -8.3310
  72   1.0000      -0.305393        -8.3102
  73   1.0000      -0.299715        -8.1556
  74   1.0000      -0.297912        -8.1066
  75   1.0000      -0.296699        -8.0736
  76   1.0000      -0.295374        -8.0375
  77   1.0000      -0.291717        -7.9380
  78   1.0000      -0.289268        -7.8714
  79   1.0000      -0.287061        -7.8113
  80   1.0000      -0.285649        -7.7729
  81   1.0000      -0.285147        -7.7592
  82   1.0000      -0.284031        -7.7289
  83   1.0000      -0.283132        -7.7044
  84   1.0000      -0.282687        -7.6923
  85   1.0000      -0.280528        -7.6336
  86   1.0000      -0.279689        -7.6107
  87   1.0000      -0.278985        -7.5916
  88   1.0000      -0.277714        -7.5570
  89   1.0000      -0.271612        -7.3909
  90   1.0000      -0.270331        -7.3561
  91   1.0000      -0.269816        -7.3421
  92   1.0000      -0.265514        -7.2250
  93   1.0000      -0.263748        -7.1770
  94   1.0000      -0.260612        -7.0916
  95   1.0000      -0.260202        -7.0804
  96   1.0000      -0.258904        -7.0451
  97   1.0000      -0.255729        -6.9587
  98   1.0000      -0.255087        -6.9413
  99   1.0000      -0.253037        -6.8855
 100   1.0000      -0.250362        -6.8127
 101   1.0000      -0.243058        -6.6139
 102   1.0000      -0.231336        -6.2950
 103   1.0000      -0.230078        -6.2608
 104   1.0000      -0.217279        -5.9125
 105   1.0000      -0.160073        -4.3558
 106   0.0000      -0.158020        -4.2999
 107   0.0000      -0.147241        -4.0066
 108   0.0000      -0.121701        -3.3116
 109   0.0000      -0.113141        -3.0787
 110   0.0000      -0.110840        -3.0161

MULLIKEN ATOMIC CHARGES AND SPIN POPULATIONS
--------------------------------------------
   0 Au:   -0.518506   -0.101244
   1 Au:   -0.001072   -0.077933
   2 Au:    0.107995    0.052650
   3 Au:    0.136917   -0.045919
   4 Au:    0.350094   -0.475050
   5 Au:    0.143136   -0.024493
   6 Au:    0.334823   -0.266091
   7 Au:    0.090872    0.023573
   8 Au:    0.298233   -0.406657
   9 Au:    0.141726    0.038363
  10 Mn:   -1.084219    4.282802
Sum of atomic charges         :   -0.0000000

LOEWDIN ATOMIC CHARGES AND SPIN POPULATIONS
-------------------------------------------
   0 Au:   -0.129445   -0.136322
   1 Au:   -0.036675   -0.087853
   2 Au:    0.070315   -0.021014
   3 Au:   -0.005185   -0.078158
   4 Au:    0.069597   -0.347141
   5 Au:   -0.002328   -0.073388
   6 Au:    0.076404   -0.212843
   7 Au:    0.062598   -0.036614
   8 Au:    0.042426   -0.240819
   9 Au:    0.070891   -0.050568
  10 Mn:   -0.218598    4.284723

  Mayer bond orders larger than 0.100000
B(  0-Au,  1-Au) :   0.3348 B(  0-Au,  3-Au) :   0.1698 B(  0-Au,  4-Au) :   0.2934
B(  0-Au,  5-Au) :   0.1990 B(  0-Au,  6-Au) :   0.5401 B(  0-Au, 10-Mn) :   0.4832
B(  1-Au,  6-Au) :   0.4291 B(  1-Au,  9-Au) :   0.4980 B(  1-Au, 10-Mn) :   0.4509
B(  2-Au,  3-Au) :   0.5413 B(  2-Au,  8-Au) :   0.2085 B(  2-Au, 10-Mn) :   0.5472
B(  3-Au,  4-Au) :   0.2996 B(  3-Au,  5-Au) :   0.1470 B(  3-Au, 10-Mn) :   0.4360
B(  4-Au,  5-Au) :   0.2695 B(  5-Au,  7-Au) :   0.5299 B(  5-Au, 10-Mn) :   0.4470
B(  7-Au,  8-Au) :   0.2058 B(  7-Au, 10-Mn) :   0.5409 B(  8-Au,  9-Au) :   0.2181
B(  8-Au, 10-Mn) :   0.3450 B(  9-Au, 10-Mn) :   0.5707

FINAL SINGLE POINT ENERGY     -2509.406587916222

DIPOLE MOMENT
-------------
                                X             Y             Z
Electronic contribution:      2.64024     -15.05616     -23.29005
Nuclear contribution   :     -2.77823      15.21648      23.95259
                        -----------------------------------------
Total Dipole Moment    :     -0.13799       0.16031       0.66254
                        -----------------------------------------
Magnitude (a.u.)       :      0.69548
Magnitude (Debye)      :      1.76778

Rotational constants in cm-1:     0.001937     0.001414     0.001023
Rotational constants in MHz :    58.079822    42.397457    30.678600

                             ****ORCA TERMINATED NORMALLY****
TOTAL RUN TIME: 0 days 0 hours 5 minutes 33 seconds 568 msec
