                         Program Version 5.0.3 -  RELEASE  -
|  1> %pal nprocs 1 end
|  2>
|  3> !PBE def2-TZVP OPT UNO
|  4> !SLOWCONV KDIIS
|  5>
|  6> %geom maxiter 300 end
|  7>
|  8> *xyzfile 0 5 6.xyz                           ****END OF INPUT****
 Total Charge           Charge          ....    0
 Multiplicity           Mult            ....    5
 Number of Electrons    NEL             ....  254
FINAL SINGLE POINT ENERGY     -2893.384438821228
FINAL SINGLE POINT ENERGY     -2893.385137438882
FINAL SINGLE POINT ENERGY     -2893.386396767846
FINAL SINGLE POINT ENERGY     -2893.386645065770
FINAL SINGLE POINT ENERGY     -2893.387070040602
FINAL SINGLE POINT ENERGY     -2893.387241650954
FINAL SINGLE POINT ENERGY     -2893.387472798757
FINAL SINGLE POINT ENERGY     -2893.388089314095
FINAL SINGLE POINT ENERGY     -2893.388467500984
FINAL SINGLE POINT ENERGY     -2893.389038588607
FINAL SINGLE POINT ENERGY     -2893.400488690179
FINAL SINGLE POINT ENERGY     -2893.400500093128
FINAL SINGLE POINT ENERGY     -2893.400511179892
FINAL SINGLE POINT ENERGY     -2893.400517058416
FINAL SINGLE POINT ENERGY     -2893.400522078744
FINAL SINGLE POINT ENERGY     -2893.400524840973
FINAL SINGLE POINT ENERGY     -2893.400525677169
FINAL SINGLE POINT ENERGY     -2893.400521493436
FINAL SINGLE POINT ENERGY     -2893.400526169150
                    ***********************HURRAY********************

CARTESIAN COORDINATES (ANGSTROEM)
---------------------------------
  Au     8.484383    7.969882    4.268316
  Au     6.260568    6.524621    3.486997
  Au     9.317777    9.298647    6.544397
  Au     8.562535   11.261141    8.304912
  Au     5.859876    9.164277    4.299762
  Au     4.556216    6.812287    5.747189
  Au     6.787105   10.668429    6.271632
  Au     6.931974    5.299464    5.970509
  Au     9.347462    6.571265    6.494942
  Au     5.011569    7.598023    8.278428
  Au     7.522912    6.275240    8.518269
  Au     7.305735    8.968487    8.946966
  Fe     6.892063    7.973330    6.435582

 Multiplicity           Mult            ....    5
 Number of Electrons    NEL             ....  254
 Basis Dimension        Dim             ....  525

ORBITAL ENERGIES
----------------
                 SPIN UP ORBITALS
  NO   OCC          E(Eh)            E(eV)
   0   1.0000    -254.767972     -6932.5890
   1   1.0000     -29.609075      -805.7039
   2   1.0000     -25.549874      -695.2474
   3   1.0000     -25.543514      -695.0744
   4   1.0000     -25.538273      -694.9317
   5   1.0000      -4.029583      -109.6505
   6   1.0000      -4.028528      -109.6218
   7   1.0000      -4.027912      -109.6051
   8   1.0000      -4.026432      -109.5648
   9   1.0000      -4.026126      -109.5564
  10   1.0000      -4.024049      -109.5000
  11   1.0000      -4.023227      -109.4776
  12   1.0000      -4.022478      -109.4572
  13   1.0000      -4.021622      -109.4339
  14   1.0000      -4.020694      -109.4087
  15   1.0000      -4.018973      -109.3618
  16   1.0000      -4.015107      -109.2566
  17   1.0000      -3.388606       -92.2087
  18   1.0000      -2.248694       -61.1901
  19   1.0000      -2.245910       -61.1143
  20   1.0000      -2.244327       -61.0713
  21   1.0000      -2.244202       -61.0678
  22   1.0000      -2.242888       -61.0321
  23   1.0000      -2.242415       -61.0192
  24   1.0000      -2.241893       -61.0050
  25   1.0000      -2.241390       -60.9913
  26   1.0000      -2.240678       -60.9719
  27   1.0000      -2.240166       -60.9580
  28   1.0000      -2.240125       -60.9569
  29   1.0000      -2.239564       -60.9416
  30   1.0000      -2.238506       -60.9128
  31   1.0000      -2.238121       -60.9024
  32   1.0000      -2.237907       -60.8965
  33   1.0000      -2.237733       -60.8918
  34   1.0000      -2.237624       -60.8888
  35   1.0000      -2.237197       -60.8772
  36   1.0000      -2.236702       -60.8638
  37   1.0000      -2.236576       -60.8603
  38   1.0000      -2.236160       -60.8490
  39   1.0000      -2.235720       -60.8370
  40   1.0000      -2.235081       -60.8196
  41   1.0000      -2.234772       -60.8112
  42   1.0000      -2.233855       -60.7863
  43   1.0000      -2.233555       -60.7781
  44   1.0000      -2.233085       -60.7653
  45   1.0000      -2.232912       -60.7606
  46   1.0000      -2.231490       -60.7219
  47   1.0000      -2.230596       -60.6976
  48   1.0000      -2.229096       -60.6568
  49   1.0000      -2.228468       -60.6397
  50   1.0000      -2.228244       -60.6336
  51   1.0000      -2.227818       -60.6220
  52   1.0000      -2.227511       -60.6137
  53   1.0000      -2.226647       -60.5902
  54   1.0000      -2.214026       -60.2467
  55   1.0000      -2.201004       -59.8924
  56   1.0000      -2.190382       -59.6033
  57   1.0000      -0.427106       -11.6221
  58   1.0000      -0.385706       -10.4956
  59   1.0000      -0.382381       -10.4051
  60   1.0000      -0.377569       -10.2742
  61   1.0000      -0.375123       -10.2076
  62   1.0000      -0.371078       -10.0976
  63   1.0000      -0.365505        -9.9459
  64   1.0000      -0.360342        -9.8054
  65   1.0000      -0.354038        -9.6339
  66   1.0000      -0.352004        -9.5785
  67   1.0000      -0.348562        -9.4849
  68   1.0000      -0.346448        -9.4273
  69   1.0000      -0.342053        -9.3077
  70   1.0000      -0.340840        -9.2747
  71   1.0000      -0.337195        -9.1755
  72   1.0000      -0.333731        -9.0813
  73   1.0000      -0.333596        -9.0776
  74   1.0000      -0.331689        -9.0257
  75   1.0000      -0.329092        -8.9550
  76   1.0000      -0.327846        -8.9211
  77   1.0000      -0.325737        -8.8638
  78   1.0000      -0.323041        -8.7904
  79   1.0000      -0.321292        -8.7428
  80   1.0000      -0.318225        -8.6593
  81   1.0000      -0.316253        -8.6057
  82   1.0000      -0.314108        -8.5473
  83   1.0000      -0.309874        -8.4321
  84   1.0000      -0.307711        -8.3732
  85   1.0000      -0.304106        -8.2751
  86   1.0000      -0.299745        -8.1565
  87   1.0000      -0.297263        -8.0889
  88   1.0000      -0.296852        -8.0778
  89   1.0000      -0.294603        -8.0166
  90   1.0000      -0.291405        -7.9295
  91   1.0000      -0.290612        -7.9080
  92   1.0000      -0.287046        -7.8109
  93   1.0000      -0.283998        -7.7280
  94   1.0000      -0.282189        -7.6788
  95   1.0000      -0.281748        -7.6667
  96   1.0000      -0.278812        -7.5869
  97   1.0000      -0.275938        -7.5087
  98   1.0000      -0.273234        -7.4351
  99   1.0000      -0.272447        -7.4137
 100   1.0000      -0.270550        -7.3620
 101   1.0000      -0.269779        -7.3411
 102   1.0000      -0.268334        -7.3017
 103   1.0000      -0.265994        -7.2381
 104   1.0000      -0.263906        -7.1812
 105   1.0000      -0.262817        -7.1516
 106   1.0000      -0.261914        -7.1270
 107   1.0000      -0.261051        -7.1036
 108   1.0000      -0.259128        -7.0512
 109   1.0000      -0.256320        -6.9748
 110   1.0000      -0.255074        -6.9409
 111   1.0000      -0.254802        -6.9335
 112   1.0000      -0.254713        -6.9311
 113   1.0000      -0.252748        -6.8776
 114   1.0000      -0.252308        -6.8656
 115   1.0000      -0.250589        -6.8189
 116   1.0000      -0.248921        -6.7735
 117   1.0000      -0.247862        -6.7447
 118   1.0000      -0.247752        -6.7417
 119   1.0000      -0.245676        -6.6852
 120   1.0000      -0.245276        -6.6743
 121   1.0000      -0.242930        -6.6105
 122   1.0000      -0.241904        -6.5825
 123   1.0000      -0.238721        -6.4959
 124   1.0000      -0.236100        -6.4246
 125   1.0000      -0.226992        -6.1768
 126   1.0000      -0.214771        -5.8442
 127   1.0000      -0.193736        -5.2718
 128   1.0000      -0.190339        -5.1794
 129   0.0000      -0.165497        -4.5034
 130   0.0000      -0.149625        -4.0715
 131   0.0000      -0.144929        -3.9437
 132   0.0000      -0.126019        -3.4291
 133   0.0000      -0.109949        -2.9919

                 SPIN DOWN ORBITALS
  NO   OCC          E(Eh)            E(eV)
   0   1.0000    -254.767241     -6932.5691
   1   1.0000     -29.547562      -804.0300
   2   1.0000     -25.500521      -693.9045
   3   1.0000     -25.497305      -693.8169
   4   1.0000     -25.494465      -693.7397
   5   1.0000      -4.028942      -109.6331
   6   1.0000      -4.028179      -109.6123
   7   1.0000      -4.027303      -109.5885
   8   1.0000      -4.025668      -109.5440
   9   1.0000      -4.025179      -109.5307
  10   1.0000      -4.023347      -109.4808
  11   1.0000      -4.023300      -109.4796
  12   1.0000      -4.021690      -109.4358
  13   1.0000      -4.020435      -109.4016
  14   1.0000      -4.019735      -109.3825
  15   1.0000      -4.018265      -109.3425
  16   1.0000      -4.015442      -109.2657
  17   1.0000      -3.249874       -88.4336
  18   1.0000      -2.247971       -61.1704
  19   1.0000      -2.244685       -61.0810
  20   1.0000      -2.243711       -61.0545
  21   1.0000      -2.243436       -61.0470
  22   1.0000      -2.242171       -61.0126
  23   1.0000      -2.241488       -60.9940
  24   1.0000      -2.240810       -60.9755
  25   1.0000      -2.240532       -60.9680
  26   1.0000      -2.240064       -60.9552
  27   1.0000      -2.239587       -60.9423
  28   1.0000      -2.239490       -60.9396
  29   1.0000      -2.238788       -60.9205
  30   1.0000      -2.237739       -60.8920
  31   1.0000      -2.237549       -60.8868
  32   1.0000      -2.236888       -60.8688
  33   1.0000      -2.236778       -60.8658
  34   1.0000      -2.236503       -60.8583
  35   1.0000      -2.236378       -60.8549
  36   1.0000      -2.235886       -60.8416
  37   1.0000      -2.235842       -60.8403
  38   1.0000      -2.235082       -60.8197
  39   1.0000      -2.234839       -60.8131
  40   1.0000      -2.234549       -60.8052
  41   1.0000      -2.234237       -60.7967
  42   1.0000      -2.233196       -60.7683
  43   1.0000      -2.232802       -60.7576
  44   1.0000      -2.232675       -60.7542
  45   1.0000      -2.232221       -60.7418
  46   1.0000      -2.230802       -60.7032
  47   1.0000      -2.230096       -60.6840
  48   1.0000      -2.228724       -60.6467
  49   1.0000      -2.228299       -60.6351
  50   1.0000      -2.228038       -60.6280
  51   1.0000      -2.227321       -60.6085
  52   1.0000      -2.227250       -60.6066
  53   1.0000      -2.226879       -60.5965
  54   1.0000      -2.069186       -56.3054
  55   1.0000      -2.066253       -56.2256
  56   1.0000      -2.062863       -56.1334
  57   1.0000      -0.421900       -11.4805
  58   1.0000      -0.382329       -10.4037
  59   1.0000      -0.380061       -10.3420
  60   1.0000      -0.373242       -10.1564
  61   1.0000      -0.367802       -10.0084
  62   1.0000      -0.364266        -9.9122
  63   1.0000      -0.355313        -9.6686
  64   1.0000      -0.352689        -9.5972
  65   1.0000      -0.348970        -9.4960
  66   1.0000      -0.347340        -9.4516
  67   1.0000      -0.343865        -9.3570
  68   1.0000      -0.342622        -9.3232
  69   1.0000      -0.338261        -9.2045
  70   1.0000      -0.336406        -9.1541
  71   1.0000      -0.335510        -9.1297
  72   1.0000      -0.332330        -9.0431
  73   1.0000      -0.329479        -8.9656
  74   1.0000      -0.327121        -8.9014
  75   1.0000      -0.325278        -8.8513
  76   1.0000      -0.325041        -8.8448
  77   1.0000      -0.322214        -8.7679
  78   1.0000      -0.318146        -8.6572
  79   1.0000      -0.315280        -8.5792
  80   1.0000      -0.313765        -8.5380
  81   1.0000      -0.313209        -8.5229
  82   1.0000      -0.307627        -8.3710
  83   1.0000      -0.306871        -8.3504
  84   1.0000      -0.303319        -8.2537
  85   1.0000      -0.299044        -8.1374
  86   1.0000      -0.297140        -8.0856
  87   1.0000      -0.292325        -7.9546
  88   1.0000      -0.291499        -7.9321
  89   1.0000      -0.289731        -7.8840
  90   1.0000      -0.287902        -7.8342
  91   1.0000      -0.284810        -7.7501
  92   1.0000      -0.282610        -7.6902
  93   1.0000      -0.281122        -7.6497
  94   1.0000      -0.278250        -7.5716
  95   1.0000      -0.277197        -7.5429
  96   1.0000      -0.275465        -7.4958
  97   1.0000      -0.272126        -7.4049
  98   1.0000      -0.271454        -7.3866
  99   1.0000      -0.270827        -7.3696
 100   1.0000      -0.267108        -7.2684
 101   1.0000      -0.266466        -7.2509
 102   1.0000      -0.264143        -7.1877
 103   1.0000      -0.261838        -7.1250
 104   1.0000      -0.261426        -7.1138
 105   1.0000      -0.258633        -7.0378
 106   1.0000      -0.256301        -6.9743
 107   1.0000      -0.255353        -6.9485
 108   1.0000      -0.254078        -6.9138
 109   1.0000      -0.253330        -6.8935
 110   1.0000      -0.251841        -6.8529
 111   1.0000      -0.251297        -6.8381
 112   1.0000      -0.249273        -6.7831
 113   1.0000      -0.247545        -6.7360
 114   1.0000      -0.247075        -6.7233
 115   1.0000      -0.245250        -6.6736
 116   1.0000      -0.244466        -6.6522
 117   1.0000      -0.242038        -6.5862
 118   1.0000      -0.239960        -6.5296
 119   1.0000      -0.237856        -6.4724
 120   1.0000      -0.226983        -6.1765
 121   1.0000      -0.218686        -5.9508
 122   1.0000      -0.208723        -5.6796
 123   1.0000      -0.202915        -5.5216
 124   1.0000      -0.189895        -5.1673
 125   0.0000      -0.174273        -4.7422
 126   0.0000      -0.164156        -4.4669
 127   0.0000      -0.156794        -4.2666
 128   0.0000      -0.155181        -4.2227
 129   0.0000      -0.152421        -4.1476

MULLIKEN ATOMIC CHARGES AND SPIN POPULATIONS
--------------------------------------------
   0 Au:    0.136036    0.041068
   1 Au:    0.246919    0.036509
   2 Au:    0.047108    0.088714
   3 Au:    0.368097    0.041518
   4 Au:    0.204758    0.054999
   5 Au:    0.174487    0.092023
   6 Au:    0.051560    0.130937
   7 Au:    0.085310    0.083381
   8 Au:    0.274343    0.006520
   9 Au:    0.249552    0.073991
  10 Au:    0.240505    0.064010
  11 Au:    0.057727    0.134459
  12 Fe:   -2.136401    3.151871
Sum of atomic charges         :   -0.0000000

LOEWDIN ATOMIC CHARGES AND SPIN POPULATIONS
-------------------------------------------
   0 Au:    0.043632    0.050066
   1 Au:    0.036908    0.009831
   2 Au:   -0.000697    0.058228
   3 Au:    0.111188    0.041997
   4 Au:    0.053601    0.055071
   5 Au:    0.041952    0.060878
   6 Au:    0.034710    0.101387
   7 Au:    0.028537    0.066973
   8 Au:    0.080764    0.019287
   9 Au:    0.100934    0.078524
  10 Au:    0.059038    0.056577
  11 Au:   -0.013486    0.084091
  12 Fe:   -0.577081    3.317089

  Mayer bond orders larger than 0.100000
B(  0-Au,  1-Au) :   0.3262 B(  0-Au,  2-Au) :   0.2656 B(  0-Au,  4-Au) :   0.1483
B(  0-Au,  8-Au) :   0.2253 B(  0-Au, 12-Fe) :   0.5713 B(  1-Au,  4-Au) :   0.2756
B(  1-Au,  5-Au) :   0.2084 B(  1-Au,  7-Au) :   0.2470 B(  1-Au, 12-Fe) :   0.2112
B(  2-Au,  3-Au) :   0.3421 B(  2-Au,  6-Au) :   0.1741 B(  2-Au,  8-Au) :   0.3097
B(  2-Au, 11-Au) :   0.1040 B(  2-Au, 12-Fe) :   0.4683 B(  3-Au,  6-Au) :   0.3273
B(  3-Au, 11-Au) :   0.3913 B(  4-Au,  6-Au) :   0.4343 B(  4-Au, 12-Fe) :   0.5700
B(  5-Au,  7-Au) :   0.2252 B(  5-Au,  9-Au) :   0.3464 B(  5-Au, 12-Fe) :   0.5445
B(  6-Au, 12-Fe) :   0.5861 B(  7-Au,  8-Au) :   0.2671 B(  7-Au, 10-Au) :   0.2346
B(  7-Au, 12-Fe) :   0.5426 B(  8-Au, 10-Au) :   0.2888 B(  8-Au, 12-Fe) :   0.3545
B(  9-Au, 10-Au) :   0.1486 B(  9-Au, 11-Au) :   0.2308 B(  9-Au, 12-Fe) :   0.5884
B( 10-Au, 11-Au) :   0.2886 B( 10-Au, 12-Fe) :   0.5033 B( 11-Au, 12-Fe) :   0.4635

FINAL SINGLE POINT ENERGY     -2893.400526237830

DIPOLE MOMENT
-------------
                                X             Y             Z
Electronic contribution:     10.52160       2.44232      -0.18622
Nuclear contribution   :    -10.28491      -2.32061       0.30017
                        -----------------------------------------
Total Dipole Moment    :      0.23669       0.12171       0.11395
                        -----------------------------------------
Magnitude (a.u.)       :      0.28952
Magnitude (Debye)      :      0.73589

Rotational constants in cm-1:     0.001610     0.001188     0.001102
Rotational constants in MHz :    48.270806    35.628494    33.033240

                             ****ORCA TERMINATED NORMALLY****
TOTAL RUN TIME: 0 days 6 hours 28 minutes 13 seconds 203 msec
