                         Program Version 5.0.3 -  RELEASE  -
|  1> %pal nprocs 1 end
|  2>
|  3> !PBE def2-TZVP OPT UNO
|  4> !SLOWCONV KDIIS
|  5>
|  6> %geom maxiter 300 end
|  7>
|  8> *xyzfile 0 3 8.xyz                           ****END OF INPUT****
 Total Charge           Charge          ....    0
 Multiplicity           Mult            ....    3
 Number of Electrons    NEL             ....  214
FINAL SINGLE POINT ENERGY     -2402.471644859852
FINAL SINGLE POINT ENERGY     -2402.472682113047
FINAL SINGLE POINT ENERGY     -2402.473530977173
FINAL SINGLE POINT ENERGY     -2402.474149670187
FINAL SINGLE POINT ENERGY     -2402.475061668692
FINAL SINGLE POINT ENERGY     -2402.475967433407
FINAL SINGLE POINT ENERGY     -2402.477206310055
FINAL SINGLE POINT ENERGY     -2402.478307607286
FINAL SINGLE POINT ENERGY     -2402.478664267474
FINAL SINGLE POINT ENERGY     -2402.478797812411
FINAL SINGLE POINT ENERGY     -2402.479042246457
FINAL SINGLE POINT ENERGY     -2402.479050013143
FINAL SINGLE POINT ENERGY     -2402.479057401228
FINAL SINGLE POINT ENERGY     -2402.479062558549
FINAL SINGLE POINT ENERGY     -2402.479066801889
FINAL SINGLE POINT ENERGY     -2402.479069498991
FINAL SINGLE POINT ENERGY     -2402.479072273296
FINAL SINGLE POINT ENERGY     -2402.479074275406
FINAL SINGLE POINT ENERGY     -2402.479075805483
                    ***********************HURRAY********************

CARTESIAN COORDINATES (ANGSTROEM)
---------------------------------
  Au     8.970902    3.898943    8.222175
  Au     6.440057    4.108190    8.988244
  Au     7.266607    4.894231    5.863405
  Au     6.158874    8.449492    8.018800
  Au     5.133843    5.975877    7.352894
  Au    11.570064    4.643398    7.911187
  Au     9.786739    5.885897    6.207059
  Au     8.118830    8.067657    9.974095
  Au    10.177546    6.717058    8.998318
  Au     8.666997    8.304203    6.734443
  Cr     7.692375    6.262212    8.070702

 Multiplicity           Mult            ....    3
 Number of Electrons    NEL             ....  214
 Basis Dimension        Dim             ....  445

ORBITAL ENERGIES
----------------
                 SPIN UP ORBITALS
  NO   OCC          E(Eh)            E(eV)
   0   1.0000    -214.505668     -5836.9960
   1   1.0000     -24.309345      -661.4909
   2   1.0000     -20.675926      -562.6206
   3   1.0000     -20.671599      -562.5028
   4   1.0000     -20.671512      -562.5004
   5   1.0000      -4.027101      -109.5830
   6   1.0000      -4.026421      -109.5645
   7   1.0000      -4.025928      -109.5511
   8   1.0000      -4.021883      -109.4410
   9   1.0000      -4.015457      -109.2661
  10   1.0000      -4.014746      -109.2468
  11   1.0000      -4.013327      -109.2082
  12   1.0000      -4.012892      -109.1963
  13   1.0000      -4.011921      -109.1699
  14   1.0000      -4.011875      -109.1687
  15   1.0000      -2.804679       -76.3192
  16   1.0000      -2.245843       -61.1125
  17   1.0000      -2.245243       -61.0962
  18   1.0000      -2.242414       -61.0192
  19   1.0000      -2.241854       -61.0039
  20   1.0000      -2.240866       -60.9771
  21   1.0000      -2.238554       -60.9141
  22   1.0000      -2.237240       -60.8784
  23   1.0000      -2.237133       -60.8755
  24   1.0000      -2.233968       -60.7894
  25   1.0000      -2.233382       -60.7734
  26   1.0000      -2.233049       -60.7644
  27   1.0000      -2.232818       -60.7581
  28   1.0000      -2.232581       -60.7516
  29   1.0000      -2.231866       -60.7322
  30   1.0000      -2.231057       -60.7102
  31   1.0000      -2.230765       -60.7022
  32   1.0000      -2.230105       -60.6842
  33   1.0000      -2.230009       -60.6816
  34   1.0000      -2.228443       -60.6390
  35   1.0000      -2.227064       -60.6015
  36   1.0000      -2.226576       -60.5882
  37   1.0000      -2.225953       -60.5713
  38   1.0000      -2.225358       -60.5551
  39   1.0000      -2.224371       -60.5282
  40   1.0000      -2.224063       -60.5198
  41   1.0000      -2.223516       -60.5050
  42   1.0000      -2.219886       -60.4062
  43   1.0000      -2.219470       -60.3948
  44   1.0000      -2.218969       -60.3812
  45   1.0000      -2.218666       -60.3730
  46   1.0000      -1.798298       -48.9342
  47   1.0000      -1.791784       -48.7569
  48   1.0000      -1.791216       -48.7415
  49   1.0000      -0.407756       -11.0956
  50   1.0000      -0.377040       -10.2598
  51   1.0000      -0.366587        -9.9753
  52   1.0000      -0.362204        -9.8561
  53   1.0000      -0.351524        -9.5655
  54   1.0000      -0.349070        -9.4987
  55   1.0000      -0.348052        -9.4710
  56   1.0000      -0.343857        -9.3568
  57   1.0000      -0.339036        -9.2257
  58   1.0000      -0.336130        -9.1466
  59   1.0000      -0.331104        -9.0098
  60   1.0000      -0.329332        -8.9616
  61   1.0000      -0.327210        -8.9038
  62   1.0000      -0.324743        -8.8367
  63   1.0000      -0.320228        -8.7139
  64   1.0000      -0.318225        -8.6593
  65   1.0000      -0.317187        -8.6311
  66   1.0000      -0.313932        -8.5425
  67   1.0000      -0.312609        -8.5065
  68   1.0000      -0.303514        -8.2590
  69   1.0000      -0.302466        -8.2305
  70   1.0000      -0.299527        -8.1505
  71   1.0000      -0.296520        -8.0687
  72   1.0000      -0.293306        -7.9813
  73   1.0000      -0.292686        -7.9644
  74   1.0000      -0.286974        -7.8089
  75   1.0000      -0.284961        -7.7542
  76   1.0000      -0.284133        -7.7317
  77   1.0000      -0.283617        -7.7176
  78   1.0000      -0.277793        -7.5591
  79   1.0000      -0.275253        -7.4900
  80   1.0000      -0.274582        -7.4717
  81   1.0000      -0.270994        -7.3741
  82   1.0000      -0.267839        -7.2883
  83   1.0000      -0.266964        -7.2644
  84   1.0000      -0.266790        -7.2597
  85   1.0000      -0.264847        -7.2069
  86   1.0000      -0.263383        -7.1670
  87   1.0000      -0.262645        -7.1469
  88   1.0000      -0.261908        -7.1269
  89   1.0000      -0.258798        -7.0423
  90   1.0000      -0.255032        -6.9398
  91   1.0000      -0.254360        -6.9215
  92   1.0000      -0.253369        -6.8945
  93   1.0000      -0.251582        -6.8459
  94   1.0000      -0.250272        -6.8102
  95   1.0000      -0.246469        -6.7068
  96   1.0000      -0.244240        -6.6461
  97   1.0000      -0.244178        -6.6444
  98   1.0000      -0.240242        -6.5373
  99   1.0000      -0.237851        -6.4723
 100   1.0000      -0.237202        -6.4546
 101   1.0000      -0.236066        -6.4237
 102   1.0000      -0.220715        -6.0060
 103   1.0000      -0.215001        -5.8505
 104   1.0000      -0.210700        -5.7334
 105   1.0000      -0.206952        -5.6314
 106   1.0000      -0.205901        -5.6029
 107   1.0000      -0.200030        -5.4431
 108   0.0000      -0.182391        -4.9631
 109   0.0000      -0.163520        -4.4496
 110   0.0000      -0.152686        -4.1548
 111   0.0000      -0.139196        -3.7877
 112   0.0000      -0.130240        -3.5440

                 SPIN DOWN ORBITALS
  NO   OCC          E(Eh)            E(eV)
   0   1.0000    -214.505250     -5836.9846
   1   1.0000     -24.267363      -660.3485
   2   1.0000     -20.645463      -561.7916
   3   1.0000     -20.640104      -561.6458
   4   1.0000     -20.637201      -561.5668
   5   1.0000      -4.027422      -109.5917
   6   1.0000      -4.026691      -109.5718
   7   1.0000      -4.025770      -109.5468
   8   1.0000      -4.022739      -109.4643
   9   1.0000      -4.015430      -109.2654
  10   1.0000      -4.014709      -109.2458
  11   1.0000      -4.013314      -109.2078
  12   1.0000      -4.012895      -109.1964
  13   1.0000      -4.011697      -109.1638
  14   1.0000      -4.011609      -109.1614
  15   1.0000      -2.691866       -73.2494
  16   1.0000      -2.246461       -61.1293
  17   1.0000      -2.245759       -61.1102
  18   1.0000      -2.242613       -61.0246
  19   1.0000      -2.241752       -61.0012
  20   1.0000      -2.241053       -60.9821
  21   1.0000      -2.238430       -60.9108
  22   1.0000      -2.237669       -60.8901
  23   1.0000      -2.237336       -60.8810
  24   1.0000      -2.234574       -60.8059
  25   1.0000      -2.233428       -60.7747
  26   1.0000      -2.233425       -60.7746
  27   1.0000      -2.232928       -60.7611
  28   1.0000      -2.232289       -60.7437
  29   1.0000      -2.232078       -60.7379
  30   1.0000      -2.230833       -60.7040
  31   1.0000      -2.230545       -60.6962
  32   1.0000      -2.229455       -60.6665
  33   1.0000      -2.229316       -60.6628
  34   1.0000      -2.228726       -60.6467
  35   1.0000      -2.227373       -60.6099
  36   1.0000      -2.226846       -60.5956
  37   1.0000      -2.226017       -60.5730
  38   1.0000      -2.225495       -60.5588
  39   1.0000      -2.224623       -60.5351
  40   1.0000      -2.224171       -60.5228
  41   1.0000      -2.223646       -60.5085
  42   1.0000      -2.219716       -60.4015
  43   1.0000      -2.219331       -60.3911
  44   1.0000      -2.218872       -60.3786
  45   1.0000      -2.218499       -60.3684
  46   1.0000      -1.692496       -46.0552
  47   1.0000      -1.682217       -45.7754
  48   1.0000      -1.673369       -45.5347
  49   1.0000      -0.403341       -10.9755
  50   1.0000      -0.374592       -10.1932
  51   1.0000      -0.367029        -9.9874
  52   1.0000      -0.359460        -9.7814
  53   1.0000      -0.350573        -9.5396
  54   1.0000      -0.346161        -9.4195
  55   1.0000      -0.344145        -9.3647
  56   1.0000      -0.343352        -9.3431
  57   1.0000      -0.335743        -9.1360
  58   1.0000      -0.334445        -9.1007
  59   1.0000      -0.330841        -9.0026
  60   1.0000      -0.329128        -8.9560
  61   1.0000      -0.325432        -8.8554
  62   1.0000      -0.324700        -8.8355
  63   1.0000      -0.317803        -8.6478
  64   1.0000      -0.317432        -8.6378
  65   1.0000      -0.316668        -8.6170
  66   1.0000      -0.313783        -8.5385
  67   1.0000      -0.313263        -8.5243
  68   1.0000      -0.302542        -8.2326
  69   1.0000      -0.300717        -8.1829
  70   1.0000      -0.298521        -8.1232
  71   1.0000      -0.295192        -8.0326
  72   1.0000      -0.293597        -7.9892
  73   1.0000      -0.291170        -7.9231
  74   1.0000      -0.287518        -7.8238
  75   1.0000      -0.285648        -7.7729
  76   1.0000      -0.284638        -7.7454
  77   1.0000      -0.284121        -7.7313
  78   1.0000      -0.278981        -7.5915
  79   1.0000      -0.276254        -7.5173
  80   1.0000      -0.275073        -7.4851
  81   1.0000      -0.271011        -7.3746
  82   1.0000      -0.268056        -7.2942
  83   1.0000      -0.267892        -7.2897
  84   1.0000      -0.266983        -7.2650
  85   1.0000      -0.266120        -7.2415
  86   1.0000      -0.264618        -7.2006
  87   1.0000      -0.263773        -7.1776
  88   1.0000      -0.262420        -7.1408
  89   1.0000      -0.259800        -7.0695
  90   1.0000      -0.255800        -6.9607
  91   1.0000      -0.255042        -6.9400
  92   1.0000      -0.253728        -6.9043
  93   1.0000      -0.252361        -6.8671
  94   1.0000      -0.251272        -6.8375
  95   1.0000      -0.246643        -6.7115
  96   1.0000      -0.245280        -6.6744
  97   1.0000      -0.244985        -6.6664
  98   1.0000      -0.241374        -6.5681
  99   1.0000      -0.238917        -6.5013
 100   1.0000      -0.238604        -6.4927
 101   1.0000      -0.237978        -6.4757
 102   1.0000      -0.219871        -5.9830
 103   1.0000      -0.205282        -5.5860
 104   1.0000      -0.191111        -5.2004
 105   1.0000      -0.184425        -5.0184
 106   0.0000      -0.151207        -4.1145
 107   0.0000      -0.146723        -3.9925
 108   0.0000      -0.119363        -3.2480
 109   0.0000      -0.117986        -3.2106
 110   0.0000      -0.112301        -3.0559

MULLIKEN ATOMIC CHARGES AND SPIN POPULATIONS
--------------------------------------------
   0 Au:    0.221825   -0.106833
   1 Au:    0.258365   -0.063480
   2 Au:    0.411272   -0.090240
   3 Au:    0.340055   -0.120770
   4 Au:    0.333774   -0.120779
   5 Au:    0.336122   -0.147089
   6 Au:    0.256580   -0.020381
   7 Au:    0.263968   -0.061018
   8 Au:    0.207114   -0.106048
   9 Au:    0.413163   -0.084096
  10 Cr:   -3.042238    2.920733
Sum of atomic charges         :   -0.0000000

LOEWDIN ATOMIC CHARGES AND SPIN POPULATIONS
-------------------------------------------
   0 Au:    0.039402   -0.094957
   1 Au:    0.149650   -0.079627
   2 Au:    0.129561   -0.077963
   3 Au:    0.101673   -0.104274
   4 Au:    0.100617   -0.103480
   5 Au:    0.147392   -0.137936
   6 Au:    0.016012   -0.054679
   7 Au:    0.146275   -0.079323
   8 Au:    0.043419   -0.092426
   9 Au:    0.130744   -0.073843
  10 Cr:   -1.004746    2.898509

  Mayer bond orders larger than 0.100000
B(  0-Au,  1-Au) :   0.4766 B(  0-Au,  5-Au) :   0.3621 B(  0-Au,  6-Au) :   0.1365
B(  0-Au,  8-Au) :   0.1284 B(  0-Au, 10-Cr) :   0.7092 B(  1-Au,  4-Au) :   0.2011
B(  1-Au, 10-Cr) :   0.7557 B(  2-Au,  4-Au) :   0.2090 B(  2-Au,  6-Au) :   0.3503
B(  2-Au, 10-Cr) :   0.8469 B(  3-Au,  4-Au) :   0.3062 B(  3-Au,  7-Au) :   0.2027
B(  3-Au,  9-Au) :   0.2068 B(  3-Au, 10-Cr) :   0.6812 B(  4-Au, 10-Cr) :   0.6841
B(  5-Au,  6-Au) :   0.2858 B(  5-Au,  8-Au) :   0.3642 B(  5-Au, 10-Cr) :   0.2837
B(  6-Au,  8-Au) :   0.1359 B(  6-Au,  9-Au) :   0.3610 B(  6-Au, 10-Cr) :   0.3837
B(  7-Au,  8-Au) :   0.4839 B(  7-Au, 10-Cr) :   0.7493 B(  8-Au, 10-Cr) :   0.7161
B(  9-Au, 10-Cr) :   0.8535

FINAL SINGLE POINT ENERGY     -2402.479076315262

DIPOLE MOMENT
-------------
                                X             Y             Z
Electronic contribution:     18.99681      -5.94972      -8.57246
Nuclear contribution   :    -18.75753       5.86199       8.51562
                        -----------------------------------------
Total Dipole Moment    :      0.23929      -0.08774      -0.05684
                        -----------------------------------------
Magnitude (a.u.)       :      0.26113
Magnitude (Debye)      :      0.66373

Rotational constants in cm-1:     0.002110     0.001614     0.001340
Rotational constants in MHz :    63.263237    48.388752    40.158556

                             ****ORCA TERMINATED NORMALLY****
TOTAL RUN TIME: 0 days 2 hours 22 minutes 31 seconds 456 msec
