                         Program Version 5.0.3 -  RELEASE  -
|  1> %pal nprocs 1 end
|  2>
|  3> !PBE def2-TZVP OPT UNO
|  4> !SLOWCONV KDIIS
|  5>
|  6> %geom maxiter 300 end
|  7>
|  8> *xyzfile 0 3 7.xyz                           ****END OF INPUT****
 Total Charge           Charge          ....    0
 Multiplicity           Mult            ....    3
 Number of Electrons    NEL             ....  216
FINAL SINGLE POINT ENERGY     -2621.713877796352
FINAL SINGLE POINT ENERGY     -2621.715028316401
FINAL SINGLE POINT ENERGY     -2621.715179742684
FINAL SINGLE POINT ENERGY     -2621.715632927381
FINAL SINGLE POINT ENERGY     -2621.715966002394
FINAL SINGLE POINT ENERGY     -2621.716679967112
FINAL SINGLE POINT ENERGY     -2621.717361167534
FINAL SINGLE POINT ENERGY     -2621.717852519651
FINAL SINGLE POINT ENERGY     -2621.718028164220
FINAL SINGLE POINT ENERGY     -2621.718113684164
FINAL SINGLE POINT ENERGY     -2621.719509411021
FINAL SINGLE POINT ENERGY     -2621.719654416519
FINAL SINGLE POINT ENERGY     -2621.719714254081
FINAL SINGLE POINT ENERGY     -2621.719758446080
FINAL SINGLE POINT ENERGY     -2621.719775999905
FINAL SINGLE POINT ENERGY     -2621.719786657079
FINAL SINGLE POINT ENERGY     -2621.719792420951
FINAL SINGLE POINT ENERGY     -2621.719796795982
FINAL SINGLE POINT ENERGY     -2621.719799675055
                    ***********************HURRAY********************

CARTESIAN COORDINATES (ANGSTROEM)
---------------------------------
  Au     6.044512    8.591653    6.234705
  Au     7.435489   10.671233    7.751588
  Au    10.008416   10.980906    7.116656
  Au     4.919076    9.892000    8.495530
  Au     6.903214    9.934216   10.527115
  Au     6.854553    7.171720   11.012690
  Au     4.563824    7.229714    9.392857
  Au     8.554973    6.179143    8.929457
  Au     6.137604    6.042183    7.396647
  Au     9.423592    8.537374    7.994075
  Fe     6.926397    8.184383    8.627569

 Multiplicity           Mult            ....    3
 Number of Electrons    NEL             ....  216
 Basis Dimension        Dim             ....  445

ORBITAL ENERGIES
----------------
                 SPIN UP ORBITALS
  NO   OCC          E(Eh)            E(eV)
   0   1.0000    -254.750019     -6932.1004
   1   1.0000     -29.591166      -805.2166
   2   1.0000     -25.532184      -694.7660
   3   1.0000     -25.527856      -694.6483
   4   1.0000     -25.520118      -694.4377
   5   1.0000      -4.026552      -109.5680
   6   1.0000      -4.023372      -109.4815
   7   1.0000      -4.020326      -109.3986
   8   1.0000      -4.016624      -109.2979
   9   1.0000      -4.011994      -109.1719
  10   1.0000      -4.011983      -109.1716
  11   1.0000      -4.011821      -109.1672
  12   1.0000      -4.011800      -109.1666
  13   1.0000      -4.010671      -109.1359
  14   1.0000      -4.004055      -108.9559
  15   1.0000      -3.365158       -91.5706
  16   1.0000      -2.244984       -61.0891
  17   1.0000      -2.240692       -60.9723
  18   1.0000      -2.240084       -60.9558
  19   1.0000      -2.239624       -60.9433
  20   1.0000      -2.235898       -60.8419
  21   1.0000      -2.234711       -60.8096
  22   1.0000      -2.234524       -60.8045
  23   1.0000      -2.233728       -60.7828
  24   1.0000      -2.233463       -60.7756
  25   1.0000      -2.230515       -60.6954
  26   1.0000      -2.230435       -60.6932
  27   1.0000      -2.229557       -60.6693
  28   1.0000      -2.229123       -60.6575
  29   1.0000      -2.228488       -60.6402
  30   1.0000      -2.226999       -60.5997
  31   1.0000      -2.226211       -60.5783
  32   1.0000      -2.225332       -60.5544
  33   1.0000      -2.224558       -60.5333
  34   1.0000      -2.224436       -60.5300
  35   1.0000      -2.223278       -60.4985
  36   1.0000      -2.223244       -60.4975
  37   1.0000      -2.222734       -60.4837
  38   1.0000      -2.222578       -60.4794
  39   1.0000      -2.222147       -60.4677
  40   1.0000      -2.221497       -60.4500
  41   1.0000      -2.221320       -60.4452
  42   1.0000      -2.221279       -60.4441
  43   1.0000      -2.220243       -60.4159
  44   1.0000      -2.218039       -60.3559
  45   1.0000      -2.209334       -60.1190
  46   1.0000      -2.189717       -59.5852
  47   1.0000      -2.180197       -59.3262
  48   1.0000      -2.165866       -58.9362
  49   1.0000      -0.413074       -11.2403
  50   1.0000      -0.373315       -10.1584
  51   1.0000      -0.368242       -10.0204
  52   1.0000      -0.359814        -9.7910
  53   1.0000      -0.355985        -9.6869
  54   1.0000      -0.350117        -9.5272
  55   1.0000      -0.349727        -9.5166
  56   1.0000      -0.344251        -9.3675
  57   1.0000      -0.340882        -9.2759
  58   1.0000      -0.334455        -9.1010
  59   1.0000      -0.328210        -8.9310
  60   1.0000      -0.326151        -8.8750
  61   1.0000      -0.323123        -8.7926
  62   1.0000      -0.320098        -8.7103
  63   1.0000      -0.316395        -8.6096
  64   1.0000      -0.313997        -8.5443
  65   1.0000      -0.313942        -8.5428
  66   1.0000      -0.311407        -8.4738
  67   1.0000      -0.307367        -8.3639
  68   1.0000      -0.306233        -8.3330
  69   1.0000      -0.300448        -8.1756
  70   1.0000      -0.299667        -8.1543
  71   1.0000      -0.297889        -8.1060
  72   1.0000      -0.297685        -8.1004
  73   1.0000      -0.293874        -7.9967
  74   1.0000      -0.289932        -7.8895
  75   1.0000      -0.287065        -7.8114
  76   1.0000      -0.282540        -7.6883
  77   1.0000      -0.280310        -7.6276
  78   1.0000      -0.278653        -7.5825
  79   1.0000      -0.277635        -7.5548
  80   1.0000      -0.273170        -7.4333
  81   1.0000      -0.271134        -7.3779
  82   1.0000      -0.268870        -7.3163
  83   1.0000      -0.268598        -7.3089
  84   1.0000      -0.266763        -7.2590
  85   1.0000      -0.266689        -7.2570
  86   1.0000      -0.261136        -7.1059
  87   1.0000      -0.260984        -7.1017
  88   1.0000      -0.259656        -7.0656
  89   1.0000      -0.257534        -7.0079
  90   1.0000      -0.257184        -6.9983
  91   1.0000      -0.255693        -6.9578
  92   1.0000      -0.249311        -6.7841
  93   1.0000      -0.248579        -6.7642
  94   1.0000      -0.247268        -6.7285
  95   1.0000      -0.245799        -6.6885
  96   1.0000      -0.245258        -6.6738
  97   1.0000      -0.244105        -6.6424
  98   1.0000      -0.241201        -6.5634
  99   1.0000      -0.239007        -6.5037
 100   1.0000      -0.236762        -6.4426
 101   1.0000      -0.235574        -6.4103
 102   1.0000      -0.234065        -6.3692
 103   1.0000      -0.231765        -6.3066
 104   1.0000      -0.229333        -6.2405
 105   1.0000      -0.227621        -6.1939
 106   1.0000      -0.227473        -6.1899
 107   1.0000      -0.222767        -6.0618
 108   1.0000      -0.198357        -5.3976
 109   0.0000      -0.165647        -4.5075
 110   0.0000      -0.158633        -4.3166
 111   0.0000      -0.153327        -4.1723
 112   0.0000      -0.133847        -3.6422
 113   0.0000      -0.104236        -2.8364

                 SPIN DOWN ORBITALS
  NO   OCC          E(Eh)            E(eV)
   0   1.0000    -254.749335     -6932.0818
   1   1.0000     -29.536034      -803.7163
   2   1.0000     -25.487749      -693.5569
   3   1.0000     -25.486240      -693.5158
   4   1.0000     -25.481215      -693.3791
   5   1.0000      -4.026315      -109.5616
   6   1.0000      -4.023617      -109.4882
   7   1.0000      -4.019173      -109.3672
   8   1.0000      -4.017096      -109.3107
   9   1.0000      -4.012139      -109.1759
  10   1.0000      -4.012105      -109.1749
  11   1.0000      -4.011910      -109.1696
  12   1.0000      -4.011901      -109.1694
  13   1.0000      -4.011008      -109.1451
  14   1.0000      -4.004392      -108.9650
  15   1.0000      -3.241100       -88.1948
  16   1.0000      -2.244699       -61.0814
  17   1.0000      -2.239537       -60.9409
  18   1.0000      -2.239405       -60.9373
  19   1.0000      -2.238969       -60.9255
  20   1.0000      -2.236070       -60.8466
  21   1.0000      -2.234932       -60.8156
  22   1.0000      -2.234291       -60.7981
  23   1.0000      -2.233519       -60.7771
  24   1.0000      -2.232828       -60.7583
  25   1.0000      -2.229980       -60.6808
  26   1.0000      -2.229843       -60.6771
  27   1.0000      -2.229378       -60.6645
  28   1.0000      -2.228661       -60.6450
  29   1.0000      -2.228622       -60.6439
  30   1.0000      -2.226953       -60.5985
  31   1.0000      -2.226425       -60.5841
  32   1.0000      -2.225052       -60.5467
  33   1.0000      -2.224988       -60.5450
  34   1.0000      -2.224508       -60.5319
  35   1.0000      -2.223857       -60.5142
  36   1.0000      -2.223724       -60.5106
  37   1.0000      -2.223284       -60.4986
  38   1.0000      -2.223163       -60.4953
  39   1.0000      -2.222898       -60.4881
  40   1.0000      -2.222082       -60.4659
  41   1.0000      -2.221245       -60.4432
  42   1.0000      -2.221194       -60.4418
  43   1.0000      -2.220959       -60.4354
  44   1.0000      -2.218615       -60.3716
  45   1.0000      -2.209404       -60.1209
  46   1.0000      -2.059831       -56.0508
  47   1.0000      -2.058843       -56.0240
  48   1.0000      -2.053311       -55.8734
  49   1.0000      -0.408745       -11.1225
  50   1.0000      -0.371232       -10.1017
  51   1.0000      -0.367766       -10.0074
  52   1.0000      -0.353120        -9.6089
  53   1.0000      -0.347130        -9.4459
  54   1.0000      -0.343568        -9.3490
  55   1.0000      -0.339834        -9.2474
  56   1.0000      -0.337856        -9.1935
  57   1.0000      -0.330670        -8.9980
  58   1.0000      -0.328561        -8.9406
  59   1.0000      -0.325388        -8.8542
  60   1.0000      -0.322276        -8.7696
  61   1.0000      -0.320121        -8.7109
  62   1.0000      -0.319135        -8.6841
  63   1.0000      -0.317772        -8.6470
  64   1.0000      -0.315674        -8.5899
  65   1.0000      -0.314928        -8.5696
  66   1.0000      -0.312740        -8.5101
  67   1.0000      -0.308675        -8.3995
  68   1.0000      -0.304910        -8.2970
  69   1.0000      -0.300547        -8.1783
  70   1.0000      -0.300112        -8.1665
  71   1.0000      -0.295543        -8.0421
  72   1.0000      -0.292906        -7.9704
  73   1.0000      -0.290554        -7.9064
  74   1.0000      -0.288828        -7.8594
  75   1.0000      -0.285265        -7.7625
  76   1.0000      -0.280882        -7.6432
  77   1.0000      -0.280051        -7.6206
  78   1.0000      -0.276809        -7.5324
  79   1.0000      -0.276016        -7.5108
  80   1.0000      -0.274555        -7.4710
  81   1.0000      -0.272057        -7.4030
  82   1.0000      -0.269181        -7.3248
  83   1.0000      -0.267727        -7.2852
  84   1.0000      -0.267343        -7.2748
  85   1.0000      -0.266721        -7.2578
  86   1.0000      -0.261268        -7.1095
  87   1.0000      -0.260659        -7.0929
  88   1.0000      -0.256928        -6.9914
  89   1.0000      -0.256900        -6.9906
  90   1.0000      -0.253567        -6.8999
  91   1.0000      -0.250543        -6.8176
  92   1.0000      -0.248414        -6.7597
  93   1.0000      -0.247221        -6.7272
  94   1.0000      -0.246578        -6.7097
  95   1.0000      -0.246033        -6.6949
  96   1.0000      -0.244154        -6.6438
  97   1.0000      -0.243566        -6.6278
  98   1.0000      -0.237753        -6.4696
  99   1.0000      -0.236182        -6.4268
 100   1.0000      -0.235823        -6.4171
 101   1.0000      -0.231786        -6.3072
 102   1.0000      -0.226622        -6.1667
 103   1.0000      -0.206581        -5.6214
 104   1.0000      -0.193438        -5.2637
 105   1.0000      -0.184062        -5.0086
 106   1.0000      -0.178811        -4.8657
 107   0.0000      -0.158753        -4.3199
 108   0.0000      -0.156531        -4.2594
 109   0.0000      -0.148132        -4.0309
 110   0.0000      -0.140053        -3.8110
 111   0.0000      -0.138333        -3.7642

MULLIKEN ATOMIC CHARGES AND SPIN POPULATIONS
--------------------------------------------
   0 Au:    0.216144   -0.140675
   1 Au:   -0.067107   -0.065302
   2 Au:    0.296812    0.052255
   3 Au:    0.348852   -0.093712
   4 Au:    0.216141   -0.140548
   5 Au:    0.264790   -0.157005
   6 Au:    0.191406   -0.030926
   7 Au:    0.330345   -0.068723
   8 Au:    0.264739   -0.158276
   9 Au:   -0.111504   -0.013353
  10 Fe:   -1.950617    2.816265
Sum of atomic charges         :   -0.0000000

LOEWDIN ATOMIC CHARGES AND SPIN POPULATIONS
-------------------------------------------
   0 Au:    0.119089   -0.121294
   1 Au:   -0.074519   -0.058616
   2 Au:    0.089510    0.024404
   3 Au:    0.072842   -0.100215
   4 Au:    0.119483   -0.121165
   5 Au:    0.071896   -0.140617
   6 Au:    0.057889   -0.070844
   7 Au:    0.100756   -0.115827
   8 Au:    0.072074   -0.141199
   9 Au:    0.015409    0.015638
  10 Fe:   -0.644430    2.829738

  Mayer bond orders larger than 0.100000
B(  0-Au,  1-Au) :   0.1505 B(  0-Au,  3-Au) :   0.1737 B(  0-Au,  8-Au) :   0.2187
B(  0-Au, 10-Fe) :   0.7110 B(  1-Au,  2-Au) :   0.5450 B(  1-Au,  3-Au) :   0.3268
B(  1-Au,  4-Au) :   0.1543 B(  1-Au,  9-Au) :   0.2505 B(  1-Au, 10-Fe) :   0.5341
B(  2-Au,  9-Au) :   0.5275 B(  2-Au, 10-Fe) :   0.1105 B(  3-Au,  4-Au) :   0.1717
B(  3-Au,  6-Au) :   0.1987 B(  3-Au, 10-Fe) :   0.5379 B(  4-Au,  5-Au) :   0.2167
B(  4-Au, 10-Fe) :   0.7110 B(  5-Au,  6-Au) :   0.2524 B(  5-Au,  7-Au) :   0.1439
B(  5-Au, 10-Fe) :   0.6345 B(  6-Au,  8-Au) :   0.2519 B(  6-Au, 10-Fe) :   0.5816
B(  7-Au,  8-Au) :   0.1435 B(  7-Au,  9-Au) :   0.3913 B(  7-Au, 10-Fe) :   0.5980
B(  8-Au, 10-Fe) :   0.6336 B(  9-Au, 10-Fe) :   0.6961

FINAL SINGLE POINT ENERGY     -2621.719800320766

DIPOLE MOMENT
-------------
                                X             Y             Z
Electronic contribution:      5.90020      12.83289      -5.38133
Nuclear contribution   :     -5.98958     -12.82669       5.39523
                        -----------------------------------------
Total Dipole Moment    :     -0.08939       0.00620       0.01390
                        -----------------------------------------
Magnitude (a.u.)       :      0.09067
Magnitude (Debye)      :      0.23047

Rotational constants in cm-1:     0.002123     0.001496     0.001387
Rotational constants in MHz :    63.635694    44.852367    41.587551

                             ****ORCA TERMINATED NORMALLY****
TOTAL RUN TIME: 0 days 2 hours 9 minutes 29 seconds 740 msec
