                         Program Version 5.0.3 -  RELEASE  -
|  1> !SC-NEVPT2 def2-TZVP def2-TZVP/C
|  2> !MOREAD RIJCOSX def2/J
|  3> %maxcore 4000
|  4> %moinp "casscf.gbw"
|  5> %pal nprocs 6 end
|  6>
|  7> %casscf
|  8>  mult 6,4
|  9>  bweight 1,1
| 10>  nroots 1,24
| 11>  nel 5
| 12>  norb 5
| 13>  ptsettings
| 14>   d4tpre 1e-14 # default = 1e-10
| 15>   d3tpre 1e-14
| 16>  end
| 17>  rel
| 18>    dosoc true
| 19>    gtensor true
| 20>  end
| 21> end
| 22>
| 23>
| 24> *xyzfile 0 6 pbe.xyz
| 25>
| 26>
| 27>                          ****END OF INPUT****

CARTESIAN COORDINATES (ANGSTROEM)
---------------------------------
  Au     6.772700    6.564091    5.489250
  Au     5.550359    4.098449    6.499087
  Au     4.181592    5.651520    4.781527
  Au     4.357408    7.049726    7.054535
  Au     7.313707    3.361920    8.318957
  Au     7.860090    8.043671    9.581876
  Au    10.454133    7.453994    9.297370
  Au     9.112388    5.131655    9.086565
  Au     5.237337    8.087999    9.313997
  Au     8.845377    7.153584    6.981333
  Mn     6.676404    6.021499    8.130989

 Total Charge           Charge          ....    0
 Multiplicity           Mult            ....    6
 Number of Electrons    NEL             ....  215
 Basis Dimension        Dim             ....  445

ORBITAL ENERGIES
----------------

  NO   OCC          E(Eh)            E(eV)
   0   2.0000    -240.553049     -6545.7813
   1   2.0000     -29.129362      -792.6502
   2   2.0000     -24.834490      -675.7808
   3   2.0000     -24.834057      -675.7691
   4   2.0000     -24.833597      -675.7565
   5   2.0000      -4.716932      -128.3542
   6   2.0000      -4.716572      -128.3444
   7   2.0000      -4.716179      -128.3337
   8   2.0000      -4.713297      -128.2553
   9   2.0000      -4.712902      -128.2446
  10   2.0000      -4.708031      -128.1120
  11   2.0000      -4.707527      -128.0983
  12   2.0000      -4.701301      -127.9289
  13   2.0000      -4.700197      -127.8989
  14   2.0000      -4.699627      -127.8834
  15   2.0000      -3.833921      -104.3263
  16   2.0000      -2.760249       -75.1102
  17   2.0000      -2.759053       -75.0776
  18   2.0000      -2.755740       -74.9875
  19   2.0000      -2.755464       -74.9800
  20   2.0000      -2.752948       -74.9115
  21   2.0000      -2.752418       -74.8971
  22   2.0000      -2.752177       -74.8905
  23   2.0000      -2.751168       -74.8631
  24   2.0000      -2.749442       -74.8161
  25   2.0000      -2.749257       -74.8111
  26   2.0000      -2.748966       -74.8032
  27   2.0000      -2.748312       -74.7854
  28   2.0000      -2.746617       -74.7392
  29   2.0000      -2.745607       -74.7118
  30   2.0000      -2.744784       -74.6894
  31   2.0000      -2.744450       -74.6803
  32   2.0000      -2.744039       -74.6691
  33   2.0000      -2.743748       -74.6612
  34   2.0000      -2.742634       -74.6309
  35   2.0000      -2.741589       -74.6024
  36   2.0000      -2.739700       -74.5510
  37   2.0000      -2.739223       -74.5381
  38   2.0000      -2.738851       -74.5279
  39   2.0000      -2.735302       -74.4314
  40   2.0000      -2.734847       -74.4190
  41   2.0000      -2.734278       -74.4035
  42   2.0000      -2.732446       -74.3536
  43   2.0000      -2.731166       -74.3188
  44   2.0000      -2.730429       -74.2987
  45   2.0000      -2.729941       -74.2855
  46   2.0000      -2.502263       -68.0900
  47   2.0000      -2.501347       -68.0651
  48   2.0000      -2.500394       -68.0392
  49   2.0000      -0.561817       -15.2878
  50   2.0000      -0.550263       -14.9734
  51   2.0000      -0.548877       -14.9357
  52   2.0000      -0.548074       -14.9138
  53   2.0000      -0.544931       -14.8283
  54   2.0000      -0.541144       -14.7253
  55   2.0000      -0.535130       -14.5616
  56   2.0000      -0.533365       -14.5136
  57   2.0000      -0.523766       -14.2524
  58   2.0000      -0.523041       -14.2327
  59   2.0000      -0.521232       -14.1835
  60   2.0000      -0.518502       -14.1092
  61   2.0000      -0.512213       -13.9380
  62   2.0000      -0.507324       -13.8050
  63   2.0000      -0.502628       -13.6772
  64   2.0000      -0.501818       -13.6552
  65   2.0000      -0.499616       -13.5952
  66   2.0000      -0.494573       -13.4580
  67   2.0000      -0.492991       -13.4150
  68   2.0000      -0.489943       -13.3320
  69   2.0000      -0.485331       -13.2065
  70   2.0000      -0.484614       -13.1870
  71   2.0000      -0.478960       -13.0332
  72   2.0000      -0.475979       -12.9520
  73   2.0000      -0.473396       -12.8818
  74   2.0000      -0.472327       -12.8527
  75   2.0000      -0.471333       -12.8256
  76   2.0000      -0.467348       -12.7172
  77   2.0000      -0.459561       -12.5053
  78   2.0000      -0.457975       -12.4621
  79   2.0000      -0.455585       -12.3971
  80   2.0000      -0.455463       -12.3938
  81   2.0000      -0.448634       -12.2079
  82   2.0000      -0.446216       -12.1422
  83   2.0000      -0.445221       -12.1151
  84   2.0000      -0.443463       -12.0672
  85   2.0000      -0.440978       -11.9996
  86   2.0000      -0.439086       -11.9482
  87   2.0000      -0.438438       -11.9305
  88   2.0000      -0.438130       -11.9221
  89   2.0000      -0.435277       -11.8445
  90   2.0000      -0.433624       -11.7995
  91   2.0000      -0.433319       -11.7912
  92   2.0000      -0.429842       -11.6966
  93   2.0000      -0.426820       -11.6144
  94   2.0000      -0.425098       -11.5675
  95   2.0000      -0.421188       -11.4611
  96   2.0000      -0.414861       -11.2890
  97   2.0000      -0.399668       -10.8755
  98   2.0000      -0.392396       -10.6776
  99   2.0000      -0.386448       -10.5158
 100   2.0000      -0.369919       -10.0660
 101   2.0000      -0.327245        -8.9048
 102   2.0000      -0.291269        -7.9258
 103   2.0000      -0.254822        -6.9341
 104   2.0000      -0.202705        -5.5159
 105   1.0000      -0.154463        -4.2031
 106   1.0000      -0.154262        -4.1977
 107   1.0000      -0.144087        -3.9208
 108   1.0000      -0.150840        -4.1046
 109   1.0000      -0.155264        -4.2249
 110   0.0000      -0.052041        -1.4161
 111   0.0000      -0.008659        -0.2356
 112   0.0000      -0.006435        -0.1751
 113   0.0000      -0.002584        -0.0703
 114   0.0000       0.032143         0.8747

MULLIKEN ATOMIC CHARGES AND SPIN DENSITIES
------------------------------------------
   0 Au:   -0.048015    0.009299
   1 Au:   -0.210698    0.012390
   2 Au:    0.512539    0.002712
   3 Au:   -0.159826    0.010641
   4 Au:    0.260254    0.008255
   5 Au:   -0.158788    0.010592
   6 Au:    0.514086    0.002708
   7 Au:   -0.208352    0.012301
   8 Au:    0.215614    0.008035
   9 Au:   -0.051002    0.009221
  10 Mn:   -0.665811    3.913846
Sum of atomic charges       :    0.0000000

LOEWDIN ATOMIC CHARGES AND SPIN DENSITIES
-----------------------------------------
   0 Au:   -0.062482    0.013243
   1 Au:   -0.107889    0.015139
   2 Au:    0.162805    0.004889
   3 Au:   -0.083907    0.014551
   4 Au:    0.044355    0.012972
   5 Au:   -0.084645    0.014528
   6 Au:    0.165662    0.004862
   7 Au:   -0.108189    0.015082
   8 Au:    0.106032    0.011612
   9 Au:   -0.061648    0.013133
  10 Mn:    0.029905    3.879990

  Mayer bond orders larger than 0.100000
B(  0-Au,  1-Au) :   0.1795 B(  0-Au,  2-Au) :   0.1755 B(  0-Au,  3-Au) :   0.2206
B(  0-Au,  9-Au) :   0.6928 B(  0-Au, 10-Mn) :   0.4011 B(  1-Au,  2-Au) :   0.2697
B(  1-Au,  3-Au) :   0.1971 B(  1-Au,  4-Au) :   0.3791 B(  1-Au, 10-Mn) :   0.4494
B(  2-Au,  3-Au) :   0.3780 B(  3-Au,  8-Au) :   0.3562 B(  3-Au, 10-Mn) :   0.3875
B(  4-Au,  7-Au) :   0.3878 B(  4-Au, 10-Mn) :   0.4834 B(  5-Au,  6-Au) :   0.3764
B(  5-Au,  7-Au) :   0.2003 B(  5-Au,  8-Au) :   0.3642 B(  5-Au,  9-Au) :   0.2196
B(  5-Au, 10-Mn) :   0.3884 B(  6-Au,  7-Au) :   0.2705 B(  6-Au,  9-Au) :   0.1753
B(  7-Au,  9-Au) :   0.1799 B(  7-Au, 10-Mn) :   0.4498 B(  8-Au, 10-Mn) :   0.4816
B(  9-Au, 10-Mn) :   0.4001

FINAL SINGLE POINT ENERGY     -2502.902839733455

DIPOLE MOMENT
-------------
                                X             Y             Z
Electronic contribution:     10.58099       9.11576     -17.93381
Nuclear contribution   :    -10.57947      -8.62573      17.76632
                        -----------------------------------------
Total Dipole Moment    :      0.00152       0.49002      -0.16749
                        -----------------------------------------
Magnitude (a.u.)       :      0.51786
Magnitude (Debye)      :      1.31629

Rotational constants in cm-1:     0.002321     0.001265     0.001081
Rotational constants in MHz :    69.593545    37.921419    32.413894

                             ****ORCA TERMINATED NORMALLY****
TOTAL RUN TIME: 0 days 0 hours 30 minutes 55 seconds 256 msec
