                         Program Version 5.0.3 -  RELEASE  -
|  1> !RI-B2PLYP def2-TZVP def2-TZVP/C
|  2> !RIJCOSX VERYSLOWCONV
|  3>
|  4> %scf
|  5>   AutoTRAHIter 200
|  6>   maxiter 400
|  7> end
|  8>
|  9>
| 10> %pal nprocs 6 end
| 11>
| 12> *xyzfile 0 5 pbe.xyz
| 13>
| 14> $new_job
| 15>
| 16> !RI-B2PLYP def2-TZVP def2-TZVP/C
| 17> !RIJCOSX VERYSLOWCONV
| 18>
| 19> %scf
| 20>   AutoTRAHIter 200
| 21>   maxiter 400
| 22> end
| 23>
| 24>
| 25> %pal nprocs 6 end
| 26>
| 27> *xyzfile 0 3 pbe.xyz
| 28>
| 29>
| 30>
| 31>
| 32>
| 33>                          ****END OF INPUT****
 Total Charge           Charge          ....    0
 Multiplicity           Mult            ....    5
 Number of Electrons    NEL             ....  254
MP2 TOTAL ENERGY:    -2890.538466095 Eh
FINAL SINGLE POINT ENERGY     -2890.538466095109

CARTESIAN COORDINATES (ANGSTROEM)
---------------------------------
  Au     8.713503    9.992069    6.931706
  Au     6.155233   10.181318    8.009281
  Au     6.897293   10.167631    2.779323
  Au     9.588735    7.432790    6.517985
  Au     8.615466    8.702514    4.318980
  Au     6.500157   10.765300    5.407513
  Au     7.655942    6.149818    8.028557
  Au     5.321601    7.513937    8.507750
  Au     4.228377    8.740077    6.337644
  Au     4.233611   10.044729    3.952247
  Au     5.843349    7.769074    4.030058
  Au     7.400719    5.904785    5.195022
  Fe     6.890394    8.135125    6.431519

 Multiplicity           Mult            ....    3
 Number of Electrons    NEL             ....  254
 Basis Dimension        Dim             ....  525

ORBITAL ENERGIES
----------------
                 SPIN UP ORBITALS
  NO   OCC          E(Eh)            E(eV)
   0   1.0000    -258.332759     -7029.5918
   1   1.0000     -30.893239      -840.6478
   2   1.0000     -26.610455      -724.1073
   3   1.0000     -26.585539      -723.4293
   4   1.0000     -26.578297      -723.2322
   5   1.0000      -4.408455      -119.9602
   6   1.0000      -4.407511      -119.9345
   7   1.0000      -4.400055      -119.7316
   8   1.0000      -4.399899      -119.7273
   9   1.0000      -4.398803      -119.6975
  10   1.0000      -4.397848      -119.6715
  11   1.0000      -4.396349      -119.6307
  12   1.0000      -4.392574      -119.5280
  13   1.0000      -4.391925      -119.5104
  14   1.0000      -4.385205      -119.3275
  15   1.0000      -4.385005      -119.3220
  16   1.0000      -4.384403      -119.3057
  17   1.0000      -3.904733      -106.2532
  18   1.0000      -2.653001       -72.1918
  19   1.0000      -2.601105       -70.7797
  20   1.0000      -2.585669       -70.3596
  21   1.0000      -2.532243       -68.9058
  22   1.0000      -2.527967       -68.7895
  23   1.0000      -2.525411       -68.7199
  24   1.0000      -2.524694       -68.7004
  25   1.0000      -2.524159       -68.6859
  26   1.0000      -2.522201       -68.6326
  27   1.0000      -2.521322       -68.6087
  28   1.0000      -2.521107       -68.6028
  29   1.0000      -2.519669       -68.5637
  30   1.0000      -2.519444       -68.5576
  31   1.0000      -2.518693       -68.5371
  32   1.0000      -2.517784       -68.5124
  33   1.0000      -2.517634       -68.5083
  34   1.0000      -2.515381       -68.4470
  35   1.0000      -2.515258       -68.4437
  36   1.0000      -2.514768       -68.4303
  37   1.0000      -2.513498       -68.3958
  38   1.0000      -2.513296       -68.3903
  39   1.0000      -2.513061       -68.3839
  40   1.0000      -2.512759       -68.3757
  41   1.0000      -2.512158       -68.3593
  42   1.0000      -2.511309       -68.3362
  43   1.0000      -2.510474       -68.3135
  44   1.0000      -2.509442       -68.2854
  45   1.0000      -2.508123       -68.2495
  46   1.0000      -2.506302       -68.1999
  47   1.0000      -2.505735       -68.1845
  48   1.0000      -2.504110       -68.1403
  49   1.0000      -2.503845       -68.1331
  50   1.0000      -2.503039       -68.1111
  51   1.0000      -2.502666       -68.1010
  52   1.0000      -2.500593       -68.0446
  53   1.0000      -2.500492       -68.0418
  54   1.0000      -2.500008       -68.0287
  55   1.0000      -2.499595       -68.0174
  56   1.0000      -2.497624       -67.9638
  57   1.0000      -0.556232       -15.1358
  58   1.0000      -0.552990       -15.0476
  59   1.0000      -0.547439       -14.8966
  60   1.0000      -0.527697       -14.3594
  61   1.0000      -0.508010       -13.8237
  62   1.0000      -0.498811       -13.5733
  63   1.0000      -0.475016       -12.9258
  64   1.0000      -0.466115       -12.6836
  65   1.0000      -0.464008       -12.6263
  66   1.0000      -0.459795       -12.5117
  67   1.0000      -0.455650       -12.3989
  68   1.0000      -0.454506       -12.3677
  69   1.0000      -0.451101       -12.2751
  70   1.0000      -0.450015       -12.2455
  71   1.0000      -0.445671       -12.1273
  72   1.0000      -0.443305       -12.0630
  73   1.0000      -0.441010       -12.0005
  74   1.0000      -0.437779       -11.9126
  75   1.0000      -0.435052       -11.8384
  76   1.0000      -0.432576       -11.7710
  77   1.0000      -0.430559       -11.7161
  78   1.0000      -0.429618       -11.6905
  79   1.0000      -0.427058       -11.6208
  80   1.0000      -0.424255       -11.5446
  81   1.0000      -0.423211       -11.5162
  82   1.0000      -0.419438       -11.4135
  83   1.0000      -0.416888       -11.3441
  84   1.0000      -0.414102       -11.2683
  85   1.0000      -0.406419       -11.0592
  86   1.0000      -0.403693       -10.9850
  87   1.0000      -0.400211       -10.8903
  88   1.0000      -0.396355       -10.7854
  89   1.0000      -0.391946       -10.6654
  90   1.0000      -0.389666       -10.6033
  91   1.0000      -0.388320       -10.5667
  92   1.0000      -0.386013       -10.5039
  93   1.0000      -0.385090       -10.4788
  94   1.0000      -0.378862       -10.3094
  95   1.0000      -0.377662       -10.2767
  96   1.0000      -0.375229       -10.2105
  97   1.0000      -0.373770       -10.1708
  98   1.0000      -0.373323       -10.1586
  99   1.0000      -0.372775       -10.1437
 100   1.0000      -0.372002       -10.1227
 101   1.0000      -0.370646       -10.0858
 102   1.0000      -0.366328        -9.9683
 103   1.0000      -0.365685        -9.9508
 104   1.0000      -0.363735        -9.8977
 105   1.0000      -0.362578        -9.8662
 106   1.0000      -0.360956        -9.8221
 107   1.0000      -0.360544        -9.8109
 108   1.0000      -0.359628        -9.7860
 109   1.0000      -0.357857        -9.7378
 110   1.0000      -0.355679        -9.6785
 111   1.0000      -0.355117        -9.6632
 112   1.0000      -0.352638        -9.5958
 113   1.0000      -0.350576        -9.5396
 114   1.0000      -0.348645        -9.4871
 115   1.0000      -0.347716        -9.4618
 116   1.0000      -0.343023        -9.3341
 117   1.0000      -0.339520        -9.2388
 118   1.0000      -0.336860        -9.1664
 119   1.0000      -0.331794        -9.0286
 120   1.0000      -0.330435        -8.9916
 121   1.0000      -0.324497        -8.8300
 122   1.0000      -0.318884        -8.6773
 123   1.0000      -0.317182        -8.6310
 124   1.0000      -0.298875        -8.1328
 125   1.0000      -0.278061        -7.5664
 126   1.0000      -0.222638        -6.0583
 127   1.0000      -0.218749        -5.9525
 128   0.0000      -0.123718        -3.3665
 129   0.0000      -0.094847        -2.5809
 130   0.0000      -0.088869        -2.4182
 131   0.0000      -0.066836        -1.8187
 132   0.0000      -0.056346        -1.5333

                 SPIN DOWN ORBITALS
  NO   OCC          E(Eh)            E(eV)
   0   1.0000    -258.330729     -7029.5365
   1   1.0000     -30.801132      -838.1414
   2   1.0000     -26.512541      -721.4429
   3   1.0000     -26.505505      -721.2515
   4   1.0000     -26.503871      -721.2070
   5   1.0000      -4.408487      -119.9610
   6   1.0000      -4.408134      -119.9514
   7   1.0000      -4.400940      -119.7557
   8   1.0000      -4.399763      -119.7236
   9   1.0000      -4.399702      -119.7220
  10   1.0000      -4.398186      -119.6807
  11   1.0000      -4.396734      -119.6412
  12   1.0000      -4.392594      -119.5286
  13   1.0000      -4.392237      -119.5189
  14   1.0000      -4.385987      -119.3488
  15   1.0000      -4.384781      -119.3160
  16   1.0000      -4.384630      -119.3118
  17   1.0000      -3.662310       -99.6565
  18   1.0000      -2.532053       -68.9007
  19   1.0000      -2.527279       -68.7708
  20   1.0000      -2.525316       -68.7173
  21   1.0000      -2.524838       -68.7043
  22   1.0000      -2.523659       -68.6722
  23   1.0000      -2.522337       -68.6363
  24   1.0000      -2.521612       -68.6165
  25   1.0000      -2.519834       -68.5682
  26   1.0000      -2.519481       -68.5586
  27   1.0000      -2.519088       -68.5479
  28   1.0000      -2.518391       -68.5289
  29   1.0000      -2.517613       -68.5077
  30   1.0000      -2.516913       -68.4887
  31   1.0000      -2.515442       -68.4487
  32   1.0000      -2.514715       -68.4289
  33   1.0000      -2.514701       -68.4285
  34   1.0000      -2.513892       -68.4065
  35   1.0000      -2.513350       -68.3917
  36   1.0000      -2.513030       -68.3830
  37   1.0000      -2.512182       -68.3599
  38   1.0000      -2.511677       -68.3462
  39   1.0000      -2.511055       -68.3293
  40   1.0000      -2.510356       -68.3103
  41   1.0000      -2.509506       -68.2871
  42   1.0000      -2.508028       -68.2469
  43   1.0000      -2.506221       -68.1977
  44   1.0000      -2.506076       -68.1938
  45   1.0000      -2.504358       -68.1470
  46   1.0000      -2.503584       -68.1260
  47   1.0000      -2.503008       -68.1103
  48   1.0000      -2.502736       -68.1029
  49   1.0000      -2.501799       -68.0774
  50   1.0000      -2.500776       -68.0496
  51   1.0000      -2.500686       -68.0471
  52   1.0000      -2.499807       -68.0232
  53   1.0000      -2.498163       -67.9785
  54   1.0000      -2.342088       -63.7314
  55   1.0000      -2.338262       -63.6273
  56   1.0000      -2.329133       -63.3789
  57   1.0000      -0.508342       -13.8327
  58   1.0000      -0.481976       -13.1152
  59   1.0000      -0.474550       -12.9131
  60   1.0000      -0.471178       -12.8214
  61   1.0000      -0.465726       -12.6731
  62   1.0000      -0.462608       -12.5882
  63   1.0000      -0.461100       -12.5472
  64   1.0000      -0.457321       -12.4443
  65   1.0000      -0.455317       -12.3898
  66   1.0000      -0.453538       -12.3414
  67   1.0000      -0.449898       -12.2424
  68   1.0000      -0.448388       -12.2013
  69   1.0000      -0.444687       -12.1005
  70   1.0000      -0.443411       -12.0658
  71   1.0000      -0.440136       -11.9767
  72   1.0000      -0.436013       -11.8645
  73   1.0000      -0.432605       -11.7718
  74   1.0000      -0.430564       -11.7162
  75   1.0000      -0.429736       -11.6937
  76   1.0000      -0.427835       -11.6420
  77   1.0000      -0.427271       -11.6266
  78   1.0000      -0.423538       -11.5251
  79   1.0000      -0.419645       -11.4191
  80   1.0000      -0.417350       -11.3567
  81   1.0000      -0.410614       -11.1734
  82   1.0000      -0.406792       -11.0694
  83   1.0000      -0.405807       -11.0426
  84   1.0000      -0.400491       -10.8979
  85   1.0000      -0.398089       -10.8326
  86   1.0000      -0.393541       -10.7088
  87   1.0000      -0.391117       -10.6428
  88   1.0000      -0.389752       -10.6057
  89   1.0000      -0.384483       -10.4623
  90   1.0000      -0.382312       -10.4033
  91   1.0000      -0.378753       -10.3064
  92   1.0000      -0.376751       -10.2519
  93   1.0000      -0.376471       -10.2443
  94   1.0000      -0.375649       -10.2219
  95   1.0000      -0.375367       -10.2143
  96   1.0000      -0.373014       -10.1502
  97   1.0000      -0.370801       -10.0900
  98   1.0000      -0.369875       -10.0648
  99   1.0000      -0.368547       -10.0287
 100   1.0000      -0.366244        -9.9660
 101   1.0000      -0.364182        -9.9099
 102   1.0000      -0.362762        -9.8713
 103   1.0000      -0.361829        -9.8459
 104   1.0000      -0.359759        -9.7895
 105   1.0000      -0.358566        -9.7571
 106   1.0000      -0.357175        -9.7192
 107   1.0000      -0.355109        -9.6630
 108   1.0000      -0.352966        -9.6047
 109   1.0000      -0.349885        -9.5209
 110   1.0000      -0.349562        -9.5121
 111   1.0000      -0.347246        -9.4490
 112   1.0000      -0.342284        -9.3140
 113   1.0000      -0.339876        -9.2485
 114   1.0000      -0.334532        -9.1031
 115   1.0000      -0.332943        -9.0598
 116   1.0000      -0.330562        -8.9951
 117   1.0000      -0.326230        -8.8772
 118   1.0000      -0.322687        -8.7807
 119   1.0000      -0.319417        -8.6918
 120   1.0000      -0.314056        -8.5459
 121   1.0000      -0.296768        -8.0755
 122   1.0000      -0.233521        -6.3544
 123   1.0000      -0.227712        -6.1964
 124   1.0000      -0.225352        -6.1322
 125   1.0000      -0.190130        -5.1737
 126   0.0000      -0.093598        -2.5469
 127   0.0000      -0.074646        -2.0312
 128   0.0000      -0.064470        -1.7543
 129   0.0000      -0.057788        -1.5725
 130   0.0000      -0.042585        -1.1588

MULLIKEN ATOMIC CHARGES AND SPIN POPULATIONS
--------------------------------------------
   0 Au:    0.208021   -0.273047
   1 Au:    0.363745   -0.125215
   2 Au:    0.301767    0.108017
   3 Au:    0.268563   -0.152791
   4 Au:   -0.106899   -0.213621
   5 Au:   -0.227165   -0.175325
   6 Au:    0.179756   -0.095708
   7 Au:    0.187590   -0.067251
   8 Au:    0.018020   -0.174091
   9 Au:    0.326485    0.050876
  10 Au:   -0.105069   -0.183445
  11 Au:    0.310547   -0.204251
  12 Fe:   -1.725361    3.505851
Sum of atomic charges         :   -0.0000000

LOEWDIN ATOMIC CHARGES AND SPIN POPULATIONS
-------------------------------------------
   0 Au:    0.083555   -0.216233
   1 Au:    0.104749   -0.159726
   2 Au:    0.068838    0.042937
   3 Au:    0.025811   -0.202977
   4 Au:   -0.033519   -0.147804
   5 Au:   -0.090760   -0.104370
   6 Au:    0.022166   -0.102565
   7 Au:    0.066836   -0.104335
   8 Au:   -0.004517   -0.147520
   9 Au:    0.050838   -0.023421
  10 Au:   -0.053598   -0.107653
  11 Au:    0.083472   -0.177484
  12 Fe:   -0.323871    3.451151

  Mayer bond orders larger than 0.100000
B(  0-Au,  1-Au) :   0.1320 B(  0-Au,  3-Au) :   0.1840 B(  0-Au,  5-Au) :   0.1808
B(  0-Au, 12-Fe) :   0.4767 B(  1-Au,  5-Au) :   0.3694 B(  1-Au,  7-Au) :   0.1377
B(  1-Au,  8-Au) :   0.1248 B(  1-Au, 12-Fe) :   0.4315 B(  2-Au,  4-Au) :   0.4143
B(  2-Au,  5-Au) :   0.3797 B(  2-Au,  9-Au) :   0.1096 B(  2-Au, 10-Au) :   0.1517
B(  3-Au,  4-Au) :   0.2976 B(  3-Au,  6-Au) :   0.2362 B(  3-Au, 12-Fe) :   0.3834
B(  4-Au,  5-Au) :   0.1806 B(  4-Au, 10-Au) :   0.1449 B(  4-Au, 12-Fe) :   0.4360
B(  5-Au,  8-Au) :   0.1142 B(  5-Au,  9-Au) :   0.2724 B(  5-Au, 10-Au) :   0.1236
B(  5-Au, 12-Fe) :   0.3505 B(  6-Au,  7-Au) :   0.2479 B(  6-Au, 11-Au) :   0.1205
B(  6-Au, 12-Fe) :   0.4749 B(  7-Au,  8-Au) :   0.2619 B(  7-Au, 12-Fe) :   0.4525
B(  8-Au,  9-Au) :   0.3829 B(  8-Au, 10-Au) :   0.1577 B(  8-Au, 12-Fe) :   0.4558
B(  9-Au, 10-Au) :   0.2647 B( 10-Au, 11-Au) :   0.3291 B( 10-Au, 12-Fe) :   0.5098
B( 11-Au, 12-Fe) :   0.4982

MP2 TOTAL ENERGY:    -2890.522960947 Eh
FINAL SINGLE POINT ENERGY     -2890.522960946931

DIPOLE MOMENT
-------------
                                X             Y             Z
Electronic contribution:     -4.83572      18.44715     -22.54530
Nuclear contribution   :      4.85410     -18.21001      22.71174
                        -----------------------------------------
Total Dipole Moment    :      0.01838       0.23714       0.16644
                        -----------------------------------------
Magnitude (a.u.)       :      0.29030
Magnitude (Debye)      :      0.73788

Rotational constants in cm-1:     0.001597     0.001248     0.001082
Rotational constants in MHz :    47.876720    37.425027    32.435478

                             ****ORCA TERMINATED NORMALLY****
TOTAL RUN TIME: 0 days 1 hours 4 minutes 15 seconds 110 msec
