                         Program Version 5.0.3 -  RELEASE  -
|  1> !PBE def2-TZVP VERYSLOWCONV
|  2>
|  3> %scf
|  4>   AutoTRAHIter 200
|  5>   maxiter 400
|  6> end
|  7>
|  8>
|  9> %pal nprocs 6 end
| 10>
| 11> *xyzfile 0 5 pbe.xyz
| 12>
| 13> $new_job
| 14>
| 15> !PBE def2-TZVP VERYSLOWCONV
| 16>
| 17> %scf
| 18>   AutoTRAHIter 200
| 19>   maxiter 400
| 20> end
| 21>
| 22>
| 23> %pal nprocs 6 end
| 24>
| 25> *xyzfile 0 3 pbe.xyz
| 26>
| 27>
| 28>
| 29>
| 30>
| 31>                          ****END OF INPUT****
 Total Charge           Charge          ....    0
 Multiplicity           Mult            ....    5
 Number of Electrons    NEL             ....  254
FINAL SINGLE POINT ENERGY     -2893.396469839428

CARTESIAN COORDINATES (ANGSTROEM)
---------------------------------
  Au     8.713503    9.992069    6.931706
  Au     6.155233   10.181318    8.009281
  Au     6.897293   10.167631    2.779323
  Au     9.588735    7.432790    6.517985
  Au     8.615466    8.702514    4.318980
  Au     6.500157   10.765300    5.407513
  Au     7.655942    6.149818    8.028557
  Au     5.321601    7.513937    8.507750
  Au     4.228377    8.740077    6.337644
  Au     4.233611   10.044729    3.952247
  Au     5.843349    7.769074    4.030058
  Au     7.400719    5.904785    5.195022
  Fe     6.890394    8.135125    6.431519

 Multiplicity           Mult            ....    3
 Number of Electrons    NEL             ....  254
 Basis Dimension        Dim             ....  525

ORBITAL ENERGIES
----------------
                 SPIN UP ORBITALS
  NO   OCC          E(Eh)            E(eV)
   0   1.0000    -254.746366     -6932.0010
   1   1.0000     -29.582630      -804.9843
   2   1.0000     -25.523687      -694.5348
   3   1.0000     -25.517939      -694.3784
   4   1.0000     -25.513692      -694.2628
   5   1.0000      -4.032980      -109.7430
   6   1.0000      -4.028986      -109.6343
   7   1.0000      -4.028305      -109.6157
   8   1.0000      -4.027076      -109.5823
   9   1.0000      -4.026139      -109.5568
  10   1.0000      -4.025742      -109.5460
  11   1.0000      -4.025053      -109.5273
  12   1.0000      -4.018995      -109.3624
  13   1.0000      -4.018324      -109.3442
  14   1.0000      -4.017761      -109.3288
  15   1.0000      -4.015327      -109.2626
  16   1.0000      -4.012294      -109.1801
  17   1.0000      -3.358007       -91.3760
  18   1.0000      -2.251375       -61.2630
  19   1.0000      -2.246520       -61.1309
  20   1.0000      -2.244820       -61.0847
  21   1.0000      -2.244759       -61.0830
  22   1.0000      -2.244196       -61.0677
  23   1.0000      -2.243684       -61.0537
  24   1.0000      -2.243396       -61.0459
  25   1.0000      -2.241717       -61.0002
  26   1.0000      -2.241600       -60.9970
  27   1.0000      -2.241404       -60.9917
  28   1.0000      -2.240768       -60.9744
  29   1.0000      -2.240664       -60.9716
  30   1.0000      -2.239559       -60.9415
  31   1.0000      -2.238645       -60.9166
  32   1.0000      -2.238418       -60.9104
  33   1.0000      -2.238183       -60.9040
  34   1.0000      -2.237975       -60.8984
  35   1.0000      -2.236425       -60.8562
  36   1.0000      -2.235574       -60.8331
  37   1.0000      -2.235135       -60.8211
  38   1.0000      -2.234900       -60.8147
  39   1.0000      -2.234468       -60.8030
  40   1.0000      -2.233673       -60.7813
  41   1.0000      -2.233252       -60.7699
  42   1.0000      -2.232219       -60.7418
  43   1.0000      -2.231089       -60.7110
  44   1.0000      -2.230961       -60.7075
  45   1.0000      -2.229939       -60.6797
  46   1.0000      -2.229522       -60.6684
  47   1.0000      -2.228012       -60.6273
  48   1.0000      -2.227870       -60.6234
  49   1.0000      -2.227489       -60.6131
  50   1.0000      -2.226335       -60.5816
  51   1.0000      -2.225751       -60.5658
  52   1.0000      -2.225741       -60.5655
  53   1.0000      -2.220590       -60.4253
  54   1.0000      -2.182787       -59.3967
  55   1.0000      -2.171233       -59.0823
  56   1.0000      -2.161607       -58.8203
  57   1.0000      -0.425800       -11.5866
  58   1.0000      -0.387159       -10.5351
  59   1.0000      -0.381094       -10.3701
  60   1.0000      -0.378132       -10.2895
  61   1.0000      -0.368935       -10.0392
  62   1.0000      -0.363483        -9.8909
  63   1.0000      -0.360906        -9.8207
  64   1.0000      -0.360107        -9.7990
  65   1.0000      -0.351687        -9.5699
  66   1.0000      -0.351072        -9.5531
  67   1.0000      -0.346904        -9.4397
  68   1.0000      -0.343044        -9.3347
  69   1.0000      -0.341624        -9.2961
  70   1.0000      -0.340100        -9.2546
  71   1.0000      -0.336469        -9.1558
  72   1.0000      -0.335613        -9.1325
  73   1.0000      -0.331980        -9.0336
  74   1.0000      -0.329032        -8.9534
  75   1.0000      -0.325578        -8.8594
  76   1.0000      -0.324137        -8.8202
  77   1.0000      -0.323530        -8.8037
  78   1.0000      -0.320957        -8.7337
  79   1.0000      -0.319908        -8.7051
  80   1.0000      -0.316374        -8.6090
  81   1.0000      -0.314713        -8.5638
  82   1.0000      -0.312017        -8.4904
  83   1.0000      -0.307689        -8.3726
  84   1.0000      -0.304503        -8.2860
  85   1.0000      -0.302489        -8.2312
  86   1.0000      -0.297253        -8.0887
  87   1.0000      -0.294239        -8.0067
  88   1.0000      -0.290705        -7.9105
  89   1.0000      -0.288221        -7.8429
  90   1.0000      -0.286077        -7.7845
  91   1.0000      -0.283830        -7.7234
  92   1.0000      -0.280890        -7.6434
  93   1.0000      -0.279306        -7.6003
  94   1.0000      -0.278576        -7.5804
  95   1.0000      -0.277245        -7.5442
  96   1.0000      -0.275053        -7.4846
  97   1.0000      -0.274159        -7.4602
  98   1.0000      -0.273760        -7.4494
  99   1.0000      -0.272378        -7.4118
 100   1.0000      -0.270351        -7.3566
 101   1.0000      -0.267872        -7.2892
 102   1.0000      -0.266792        -7.2598
 103   1.0000      -0.265224        -7.2171
 104   1.0000      -0.262634        -7.1466
 105   1.0000      -0.261821        -7.1245
 106   1.0000      -0.261581        -7.1180
 107   1.0000      -0.258540        -7.0352
 108   1.0000      -0.256526        -6.9804
 109   1.0000      -0.256426        -6.9777
 110   1.0000      -0.254188        -6.9168
 111   1.0000      -0.252672        -6.8756
 112   1.0000      -0.252102        -6.8600
 113   1.0000      -0.250005        -6.8030
 114   1.0000      -0.246841        -6.7169
 115   1.0000      -0.246343        -6.7033
 116   1.0000      -0.245018        -6.6673
 117   1.0000      -0.243448        -6.6246
 118   1.0000      -0.242686        -6.6038
 119   1.0000      -0.240157        -6.5350
 120   1.0000      -0.239306        -6.5119
 121   1.0000      -0.238537        -6.4909
 122   1.0000      -0.236368        -6.4319
 123   1.0000      -0.233774        -6.3613
 124   1.0000      -0.230893        -6.2829
 125   1.0000      -0.229149        -6.2355
 126   1.0000      -0.200607        -5.4588
 127   1.0000      -0.199494        -5.4285
 128   0.0000      -0.184259        -5.0139
 129   0.0000      -0.161626        -4.3981
 130   0.0000      -0.151342        -4.1182
 131   0.0000      -0.131315        -3.5733
 132   0.0000      -0.123939        -3.3725

                 SPIN DOWN ORBITALS
  NO   OCC          E(Eh)            E(eV)
   0   1.0000    -254.745719     -6931.9834
   1   1.0000     -29.528226      -803.5039
   2   1.0000     -25.480275      -693.3535
   3   1.0000     -25.476367      -693.2472
   4   1.0000     -25.475414      -693.2213
   5   1.0000      -4.033262      -109.7506
   6   1.0000      -4.028589      -109.6235
   7   1.0000      -4.028543      -109.6222
   8   1.0000      -4.027474      -109.5931
   9   1.0000      -4.026288      -109.5609
  10   1.0000      -4.025539      -109.5405
  11   1.0000      -4.025224      -109.5319
  12   1.0000      -4.018962      -109.3615
  13   1.0000      -4.018902      -109.3599
  14   1.0000      -4.017710      -109.3274
  15   1.0000      -4.015622      -109.2706
  16   1.0000      -4.012106      -109.1749
  17   1.0000      -3.234982       -88.0283
  18   1.0000      -2.251896       -61.2772
  19   1.0000      -2.245838       -61.1124
  20   1.0000      -2.245402       -61.1005
  21   1.0000      -2.245204       -61.0951
  22   1.0000      -2.244435       -61.0742
  23   1.0000      -2.243493       -61.0486
  24   1.0000      -2.243306       -61.0435
  25   1.0000      -2.241945       -61.0064
  26   1.0000      -2.241486       -60.9939
  27   1.0000      -2.241115       -60.9838
  28   1.0000      -2.240990       -60.9804
  29   1.0000      -2.240336       -60.9626
  30   1.0000      -2.238932       -60.9244
  31   1.0000      -2.238729       -60.9189
  32   1.0000      -2.238488       -60.9123
  33   1.0000      -2.238298       -60.9072
  34   1.0000      -2.237872       -60.8956
  35   1.0000      -2.236892       -60.8689
  36   1.0000      -2.235846       -60.8405
  37   1.0000      -2.235239       -60.8240
  38   1.0000      -2.234384       -60.8007
  39   1.0000      -2.234221       -60.7962
  40   1.0000      -2.233947       -60.7888
  41   1.0000      -2.233012       -60.7633
  42   1.0000      -2.232787       -60.7572
  43   1.0000      -2.231308       -60.7170
  44   1.0000      -2.231150       -60.7127
  45   1.0000      -2.230399       -60.6923
  46   1.0000      -2.230249       -60.6882
  47   1.0000      -2.228287       -60.6348
  48   1.0000      -2.227844       -60.6227
  49   1.0000      -2.227186       -60.6048
  50   1.0000      -2.226388       -60.5831
  51   1.0000      -2.226161       -60.5769
  52   1.0000      -2.225598       -60.5616
  53   1.0000      -2.220897       -60.4337
  54   1.0000      -2.056336       -55.9557
  55   1.0000      -2.049305       -55.7644
  56   1.0000      -2.048660       -55.7469
  57   1.0000      -0.423136       -11.5141
  58   1.0000      -0.385968       -10.5027
  59   1.0000      -0.380173       -10.3450
  60   1.0000      -0.378001       -10.2859
  61   1.0000      -0.366244        -9.9660
  62   1.0000      -0.360609        -9.8127
  63   1.0000      -0.358490        -9.7550
  64   1.0000      -0.356118        -9.6905
  65   1.0000      -0.350283        -9.5317
  66   1.0000      -0.349407        -9.5078
  67   1.0000      -0.346035        -9.4161
  68   1.0000      -0.341692        -9.2979
  69   1.0000      -0.340444        -9.2640
  70   1.0000      -0.338878        -9.2213
  71   1.0000      -0.336438        -9.1550
  72   1.0000      -0.333692        -9.0802
  73   1.0000      -0.329613        -8.9692
  74   1.0000      -0.327714        -8.9175
  75   1.0000      -0.325917        -8.8686
  76   1.0000      -0.324846        -8.8395
  77   1.0000      -0.323927        -8.8145
  78   1.0000      -0.319890        -8.7046
  79   1.0000      -0.317782        -8.6473
  80   1.0000      -0.314350        -8.5539
  81   1.0000      -0.309372        -8.4184
  82   1.0000      -0.308411        -8.3923
  83   1.0000      -0.305847        -8.3225
  84   1.0000      -0.301663        -8.2087
  85   1.0000      -0.298173        -8.1137
  86   1.0000      -0.295868        -8.0510
  87   1.0000      -0.294214        -8.0060
  88   1.0000      -0.289724        -7.8838
  89   1.0000      -0.287135        -7.8133
  90   1.0000      -0.284778        -7.7492
  91   1.0000      -0.281101        -7.6492
  92   1.0000      -0.279379        -7.6023
  93   1.0000      -0.277585        -7.5535
  94   1.0000      -0.277250        -7.5443
  95   1.0000      -0.277142        -7.5414
  96   1.0000      -0.275656        -7.5010
  97   1.0000      -0.274058        -7.4575
  98   1.0000      -0.272849        -7.4246
  99   1.0000      -0.271561        -7.3895
 100   1.0000      -0.269338        -7.3291
 101   1.0000      -0.268214        -7.2985
 102   1.0000      -0.266833        -7.2609
 103   1.0000      -0.265869        -7.2347
 104   1.0000      -0.263158        -7.1609
 105   1.0000      -0.262223        -7.1354
 106   1.0000      -0.262020        -7.1299
 107   1.0000      -0.258557        -7.0357
 108   1.0000      -0.257423        -7.0048
 109   1.0000      -0.255817        -6.9611
 110   1.0000      -0.254799        -6.9334
 111   1.0000      -0.252531        -6.8717
 112   1.0000      -0.252281        -6.8649
 113   1.0000      -0.249983        -6.8024
 114   1.0000      -0.246384        -6.7045
 115   1.0000      -0.244684        -6.6582
 116   1.0000      -0.242858        -6.6085
 117   1.0000      -0.241566        -6.5734
 118   1.0000      -0.240090        -6.5332
 119   1.0000      -0.238867        -6.4999
 120   1.0000      -0.233602        -6.3566
 121   1.0000      -0.208289        -5.6678
 122   1.0000      -0.206682        -5.6241
 123   1.0000      -0.203859        -5.5473
 124   1.0000      -0.183734        -4.9997
 125   1.0000      -0.175128        -4.7655
 126   0.0000      -0.157543        -4.2870
 127   0.0000      -0.153630        -4.1805
 128   0.0000      -0.147582        -4.0159
 129   0.0000      -0.145695        -3.9646
 130   0.0000      -0.140973        -3.8361

MULLIKEN ATOMIC CHARGES AND SPIN POPULATIONS
--------------------------------------------
   0 Au:    0.309357   -0.109604
   1 Au:    0.332515   -0.137845
   2 Au:    0.321089    0.034937
   3 Au:    0.303759   -0.090179
   4 Au:   -0.089607   -0.122011
   5 Au:   -0.229180   -0.106038
   6 Au:    0.225503   -0.004324
   7 Au:    0.276751   -0.044734
   8 Au:    0.025194   -0.093765
   9 Au:    0.353329    0.043675
  10 Au:   -0.027973   -0.049636
  11 Au:    0.322224   -0.133018
  12 Fe:   -2.122961    2.812544
Sum of atomic charges         :   -0.0000000

LOEWDIN ATOMIC CHARGES AND SPIN POPULATIONS
-------------------------------------------
   0 Au:    0.113210   -0.122486
   1 Au:    0.112304   -0.138256
   2 Au:    0.058625    0.010097
   3 Au:    0.056431   -0.109398
   4 Au:   -0.000552   -0.093751
   5 Au:   -0.059893   -0.060927
   6 Au:    0.048242   -0.038972
   7 Au:    0.086823   -0.076245
   8 Au:    0.030707   -0.078170
   9 Au:    0.052440   -0.002470
  10 Au:   -0.004062   -0.037853
  11 Au:    0.112493   -0.110694
  12 Fe:   -0.606767    2.859126

  Mayer bond orders larger than 0.100000
B(  0-Au,  1-Au) :   0.1749 B(  0-Au,  3-Au) :   0.2415 B(  0-Au,  4-Au) :   0.1292
B(  0-Au,  5-Au) :   0.2396 B(  0-Au, 12-Fe) :   0.5022 B(  1-Au,  5-Au) :   0.3382
B(  1-Au,  7-Au) :   0.1746 B(  1-Au,  8-Au) :   0.1180 B(  1-Au, 12-Fe) :   0.5594
B(  2-Au,  4-Au) :   0.4242 B(  2-Au,  5-Au) :   0.3809 B(  2-Au,  9-Au) :   0.1633
B(  2-Au, 10-Au) :   0.2023 B(  3-Au,  4-Au) :   0.3109 B(  3-Au,  6-Au) :   0.2609
B(  3-Au, 12-Fe) :   0.4555 B(  4-Au,  5-Au) :   0.1831 B(  4-Au, 10-Au) :   0.1912
B(  4-Au, 11-Au) :   0.1052 B(  4-Au, 12-Fe) :   0.5373 B(  5-Au,  8-Au) :   0.1241
B(  5-Au,  9-Au) :   0.3023 B(  5-Au, 10-Au) :   0.1178 B(  5-Au, 12-Fe) :   0.4642
B(  6-Au,  7-Au) :   0.2694 B(  6-Au, 11-Au) :   0.1616 B(  6-Au, 12-Fe) :   0.5438
B(  7-Au,  8-Au) :   0.2871 B(  7-Au, 12-Fe) :   0.4900 B(  8-Au,  9-Au) :   0.3914
B(  8-Au, 10-Au) :   0.1748 B(  8-Au, 12-Fe) :   0.5551 B(  9-Au, 10-Au) :   0.2941
B( 10-Au, 11-Au) :   0.3673 B( 10-Au, 12-Fe) :   0.5383 B( 11-Au, 12-Fe) :   0.5646

FINAL SINGLE POINT ENERGY     -2893.386214773063

DIPOLE MOMENT
-------------
                                X             Y             Z
Electronic contribution:     -4.81317      18.41843     -22.72765
Nuclear contribution   :      4.85410     -18.21001      22.71174
                        -----------------------------------------
Total Dipole Moment    :      0.04093       0.20842      -0.01591
                        -----------------------------------------
Magnitude (a.u.)       :      0.21299
Magnitude (Debye)      :      0.54138

Rotational constants in cm-1:     0.001597     0.001248     0.001082
Rotational constants in MHz :    47.876720    37.425027    32.435478

                             ****ORCA TERMINATED NORMALLY****
TOTAL RUN TIME: 0 days 0 hours 23 minutes 55 seconds 688 msec
