                         Program Version 5.0.3 -  RELEASE  -
|  1> !R2SCAN def2-TZVP VERYSLOWCONV
|  2> !KDIIS
|  3> %scf
|  4>   AutoTRAHIter 200
|  5>   maxiter 400
|  6> end
|  7>
|  8> %pal nprocs 6 end
|  9>
| 10> *xyzfile 0 5 pbe.xyz
| 11>
| 12> $new_job
| 13>
| 14> !R2SCAN def2-TZVP VERYSLOWCONV
| 15> !KDIIS
| 16> %scf
| 17>   AutoTRAHIter 200
| 18>   maxiter 400
| 19> end
| 20>
| 21>
| 22> %pal nprocs 6 end
| 23>
| 24> *xyzfile 0 3 pbe.xyz
| 25>
| 26>
| 27>
| 28>
| 29>
| 30>                          ****END OF INPUT****
 Total Charge           Charge          ....    0
 Multiplicity           Mult            ....    5
 Number of Electrons    NEL             ....  254
FINAL SINGLE POINT ENERGY     -2893.843813335345

CARTESIAN COORDINATES (ANGSTROEM)
---------------------------------
  Au     8.713503    9.992069    6.931706
  Au     6.155233   10.181318    8.009281
  Au     6.897293   10.167631    2.779323
  Au     9.588735    7.432790    6.517985
  Au     8.615466    8.702514    4.318980
  Au     6.500157   10.765300    5.407513
  Au     7.655942    6.149818    8.028557
  Au     5.321601    7.513937    8.507750
  Au     4.228377    8.740077    6.337644
  Au     4.233611   10.044729    3.952247
  Au     5.843349    7.769074    4.030058
  Au     7.400719    5.904785    5.195022
  Fe     6.890394    8.135125    6.431519

 Multiplicity           Mult            ....    3
 Number of Electrons    NEL             ....  254
 Basis Dimension        Dim             ....  525

ORBITAL ENERGIES
----------------
                 SPIN UP ORBITALS
  NO   OCC          E(Eh)            E(eV)
   0   1.0000    -255.627308     -6955.9727
   1   1.0000     -29.924430      -814.2851
   2   1.0000     -25.761417      -701.0038
   3   1.0000     -25.754045      -700.8032
   4   1.0000     -25.749819      -700.6882
   5   1.0000      -4.124106      -112.2226
   6   1.0000      -4.120732      -112.1308
   7   1.0000      -4.119741      -112.1038
   8   1.0000      -4.118037      -112.0575
   9   1.0000      -4.117351      -112.0388
  10   1.0000      -4.116915      -112.0270
  11   1.0000      -4.116009      -112.0023
  12   1.0000      -4.110072      -111.8408
  13   1.0000      -4.108647      -111.8020
  14   1.0000      -4.108427      -111.7960
  15   1.0000      -4.105640      -111.7201
  16   1.0000      -4.102621      -111.6380
  17   1.0000      -3.502183       -95.2992
  18   1.0000      -2.315516       -63.0084
  19   1.0000      -2.310117       -62.8615
  20   1.0000      -2.309784       -62.8524
  21   1.0000      -2.308512       -62.8178
  22   1.0000      -2.308223       -62.8099
  23   1.0000      -2.308007       -62.8041
  24   1.0000      -2.307704       -62.7958
  25   1.0000      -2.306434       -62.7612
  26   1.0000      -2.305885       -62.7463
  27   1.0000      -2.305409       -62.7334
  28   1.0000      -2.305317       -62.7309
  29   1.0000      -2.304025       -62.6957
  30   1.0000      -2.303626       -62.6848
  31   1.0000      -2.303367       -62.6778
  32   1.0000      -2.302396       -62.6514
  33   1.0000      -2.302012       -62.6409
  34   1.0000      -2.301571       -62.6289
  35   1.0000      -2.300774       -62.6072
  36   1.0000      -2.299377       -62.5692
  37   1.0000      -2.298903       -62.5563
  38   1.0000      -2.298589       -62.5478
  39   1.0000      -2.298261       -62.5389
  40   1.0000      -2.297888       -62.5287
  41   1.0000      -2.296847       -62.5004
  42   1.0000      -2.295243       -62.4567
  43   1.0000      -2.294338       -62.4321
  44   1.0000      -2.293959       -62.4218
  45   1.0000      -2.292966       -62.3948
  46   1.0000      -2.292463       -62.3811
  47   1.0000      -2.291564       -62.3566
  48   1.0000      -2.291003       -62.3414
  49   1.0000      -2.290840       -62.3369
  50   1.0000      -2.290058       -62.3156
  51   1.0000      -2.288731       -62.2795
  52   1.0000      -2.288686       -62.2783
  53   1.0000      -2.283804       -62.1455
  54   1.0000      -2.280427       -62.0536
  55   1.0000      -2.265404       -61.6448
  56   1.0000      -2.255750       -61.3821
  57   1.0000      -0.431517       -11.7422
  58   1.0000      -0.395309       -10.7569
  59   1.0000      -0.389003       -10.5853
  60   1.0000      -0.385893       -10.5007
  61   1.0000      -0.379208       -10.3188
  62   1.0000      -0.375656       -10.2221
  63   1.0000      -0.370290       -10.0761
  64   1.0000      -0.370060       -10.0699
  65   1.0000      -0.362110        -9.8535
  66   1.0000      -0.361035        -9.8243
  67   1.0000      -0.356570        -9.7028
  68   1.0000      -0.353191        -9.6108
  69   1.0000      -0.351637        -9.5685
  70   1.0000      -0.350632        -9.5412
  71   1.0000      -0.346250        -9.4219
  72   1.0000      -0.345078        -9.3901
  73   1.0000      -0.341425        -9.2906
  74   1.0000      -0.339474        -9.2376
  75   1.0000      -0.335289        -9.1237
  76   1.0000      -0.334033        -9.0895
  77   1.0000      -0.332327        -9.0431
  78   1.0000      -0.331816        -9.0292
  79   1.0000      -0.329848        -8.9756
  80   1.0000      -0.326953        -8.8968
  81   1.0000      -0.324436        -8.8284
  82   1.0000      -0.321394        -8.7456
  83   1.0000      -0.317315        -8.6346
  84   1.0000      -0.313491        -8.5305
  85   1.0000      -0.312930        -8.5153
  86   1.0000      -0.306197        -8.3321
  87   1.0000      -0.303164        -8.2495
  88   1.0000      -0.299849        -8.1593
  89   1.0000      -0.297926        -8.1070
  90   1.0000      -0.294840        -8.0230
  91   1.0000      -0.294023        -8.0008
  92   1.0000      -0.290333        -7.9004
  93   1.0000      -0.288223        -7.8430
  94   1.0000      -0.287770        -7.8306
  95   1.0000      -0.286080        -7.7846
  96   1.0000      -0.283527        -7.7152
  97   1.0000      -0.283173        -7.7055
  98   1.0000      -0.282239        -7.6801
  99   1.0000      -0.280944        -7.6449
 100   1.0000      -0.279223        -7.5980
 101   1.0000      -0.277156        -7.5418
 102   1.0000      -0.275402        -7.4941
 103   1.0000      -0.273599        -7.4450
 104   1.0000      -0.270864        -7.3706
 105   1.0000      -0.270091        -7.3495
 106   1.0000      -0.269545        -7.3347
 107   1.0000      -0.267090        -7.2679
 108   1.0000      -0.265605        -7.2275
 109   1.0000      -0.264796        -7.2055
 110   1.0000      -0.262721        -7.1490
 111   1.0000      -0.261873        -7.1259
 112   1.0000      -0.260634        -7.0922
 113   1.0000      -0.259755        -7.0683
 114   1.0000      -0.259114        -7.0509
 115   1.0000      -0.257310        -7.0018
 116   1.0000      -0.254660        -6.9296
 117   1.0000      -0.253353        -6.8941
 118   1.0000      -0.250277        -6.8104
 119   1.0000      -0.249618        -6.7925
 120   1.0000      -0.246823        -6.7164
 121   1.0000      -0.245960        -6.6929
 122   1.0000      -0.245319        -6.6755
 123   1.0000      -0.243681        -6.6309
 124   1.0000      -0.237877        -6.4730
 125   1.0000      -0.237786        -6.4705
 126   1.0000      -0.202216        -5.5026
 127   1.0000      -0.201230        -5.4757
 128   0.0000      -0.183381        -4.9901
 129   0.0000      -0.158615        -4.3161
 130   0.0000      -0.148032        -4.0282
 131   0.0000      -0.125787        -3.4228
 132   0.0000      -0.119754        -3.2587

                 SPIN DOWN ORBITALS
  NO   OCC          E(Eh)            E(eV)
   0   1.0000    -255.626336     -6955.9462
   1   1.0000     -29.849136      -812.2363
   2   1.0000     -25.700477      -699.3455
   3   1.0000     -25.696623      -699.2407
   4   1.0000     -25.695876      -699.2203
   5   1.0000      -4.124668      -112.2379
   6   1.0000      -4.121168      -112.1427
   7   1.0000      -4.119517      -112.0978
   8   1.0000      -4.118430      -112.0682
   9   1.0000      -4.118016      -112.0569
  10   1.0000      -4.116819      -112.0243
  11   1.0000      -4.116351      -112.0116
  12   1.0000      -4.110182      -111.8437
  13   1.0000      -4.109293      -111.8195
  14   1.0000      -4.108600      -111.8007
  15   1.0000      -4.105891      -111.7270
  16   1.0000      -4.102642      -111.6386
  17   1.0000      -3.336617       -90.7940
  18   1.0000      -2.316196       -63.0269
  19   1.0000      -2.310060       -62.8599
  20   1.0000      -2.309413       -62.8423
  21   1.0000      -2.309187       -62.8362
  22   1.0000      -2.308693       -62.8227
  23   1.0000      -2.307905       -62.8013
  24   1.0000      -2.307745       -62.7969
  25   1.0000      -2.306363       -62.7593
  26   1.0000      -2.305949       -62.7481
  27   1.0000      -2.305922       -62.7473
  28   1.0000      -2.304818       -62.7173
  29   1.0000      -2.303863       -62.6913
  30   1.0000      -2.303774       -62.6889
  31   1.0000      -2.302706       -62.6598
  32   1.0000      -2.302468       -62.6534
  33   1.0000      -2.302370       -62.6507
  34   1.0000      -2.301629       -62.6305
  35   1.0000      -2.301006       -62.6136
  36   1.0000      -2.300177       -62.5910
  37   1.0000      -2.299121       -62.5623
  38   1.0000      -2.298333       -62.5408
  39   1.0000      -2.297915       -62.5294
  40   1.0000      -2.297833       -62.5272
  41   1.0000      -2.296661       -62.4953
  42   1.0000      -2.296007       -62.4775
  43   1.0000      -2.294493       -62.4363
  44   1.0000      -2.294369       -62.4330
  45   1.0000      -2.293555       -62.4108
  46   1.0000      -2.293290       -62.4036
  47   1.0000      -2.291949       -62.3671
  48   1.0000      -2.291143       -62.3452
  49   1.0000      -2.290708       -62.3333
  50   1.0000      -2.289838       -62.3097
  51   1.0000      -2.289152       -62.2910
  52   1.0000      -2.288736       -62.2797
  53   1.0000      -2.284246       -62.1575
  54   1.0000      -2.110034       -57.4169
  55   1.0000      -2.102174       -57.2031
  56   1.0000      -2.100657       -57.1618
  57   1.0000      -0.429713       -11.6931
  58   1.0000      -0.393580       -10.7098
  59   1.0000      -0.387497       -10.5443
  60   1.0000      -0.385868       -10.5000
  61   1.0000      -0.375116       -10.2074
  62   1.0000      -0.369731       -10.0609
  63   1.0000      -0.367568       -10.0020
  64   1.0000      -0.364601        -9.9213
  65   1.0000      -0.359900        -9.7934
  66   1.0000      -0.358994        -9.7687
  67   1.0000      -0.355486        -9.6733
  68   1.0000      -0.351175        -9.5560
  69   1.0000      -0.350322        -9.5327
  70   1.0000      -0.348514        -9.4835
  71   1.0000      -0.346136        -9.4188
  72   1.0000      -0.343162        -9.3379
  73   1.0000      -0.339019        -9.2252
  74   1.0000      -0.337192        -9.1755
  75   1.0000      -0.335950        -9.1417
  76   1.0000      -0.334397        -9.0994
  77   1.0000      -0.333648        -9.0790
  78   1.0000      -0.329459        -8.9650
  79   1.0000      -0.327151        -8.9022
  80   1.0000      -0.323617        -8.8061
  81   1.0000      -0.318274        -8.6607
  82   1.0000      -0.316683        -8.6174
  83   1.0000      -0.314797        -8.5661
  84   1.0000      -0.310333        -8.4446
  85   1.0000      -0.307037        -8.3549
  86   1.0000      -0.304568        -8.2877
  87   1.0000      -0.302817        -8.2401
  88   1.0000      -0.298788        -8.1304
  89   1.0000      -0.296108        -8.0575
  90   1.0000      -0.292755        -7.9663
  91   1.0000      -0.290107        -7.8942
  92   1.0000      -0.288054        -7.8384
  93   1.0000      -0.286658        -7.8004
  94   1.0000      -0.285946        -7.7810
  95   1.0000      -0.285379        -7.7655
  96   1.0000      -0.284593        -7.7442
  97   1.0000      -0.282660        -7.6916
  98   1.0000      -0.281560        -7.6616
  99   1.0000      -0.280116        -7.6223
 100   1.0000      -0.277406        -7.5486
 101   1.0000      -0.277180        -7.5425
 102   1.0000      -0.275407        -7.4942
 103   1.0000      -0.274431        -7.4677
 104   1.0000      -0.271556        -7.3894
 105   1.0000      -0.270452        -7.3594
 106   1.0000      -0.270129        -7.3506
 107   1.0000      -0.266722        -7.2579
 108   1.0000      -0.266099        -7.2409
 109   1.0000      -0.263870        -7.1803
 110   1.0000      -0.263036        -7.1576
 111   1.0000      -0.260501        -7.0886
 112   1.0000      -0.259938        -7.0733
 113   1.0000      -0.258084        -7.0228
 114   1.0000      -0.253796        -6.9061
 115   1.0000      -0.251841        -6.8529
 116   1.0000      -0.250079        -6.8050
 117   1.0000      -0.248832        -6.7711
 118   1.0000      -0.246806        -6.7159
 119   1.0000      -0.245595        -6.6830
 120   1.0000      -0.240715        -6.5502
 121   1.0000      -0.210234        -5.7207
 122   1.0000      -0.208392        -5.6706
 123   1.0000      -0.205181        -5.5833
 124   1.0000      -0.183480        -4.9928
 125   1.0000      -0.177535        -4.8310
 126   0.0000      -0.152495        -4.1496
 127   0.0000      -0.146038        -3.9739
 128   0.0000      -0.137460        -3.7405
 129   0.0000      -0.137122        -3.7313
 130   0.0000      -0.128719        -3.5026

MULLIKEN ATOMIC CHARGES AND SPIN POPULATIONS
--------------------------------------------
   0 Au:    0.280434   -0.135424
   1 Au:    0.321440   -0.144217
   2 Au:    0.276580    0.037922
   3 Au:    0.278557   -0.105967
   4 Au:   -0.085037   -0.153188
   5 Au:   -0.194663   -0.118649
   6 Au:    0.188778   -0.033606
   7 Au:    0.239434   -0.060918
   8 Au:    0.019208   -0.123808
   9 Au:    0.311260    0.048738
  10 Au:   -0.014158   -0.062879
  11 Au:    0.301585   -0.164078
  12 Fe:   -1.923416    3.016075
Sum of atomic charges         :   -0.0000000

LOEWDIN ATOMIC CHARGES AND SPIN POPULATIONS
-------------------------------------------
   0 Au:    0.109339   -0.140290
   1 Au:    0.111866   -0.145268
   2 Au:    0.053298    0.010899
   3 Au:    0.050116   -0.129977
   4 Au:   -0.007079   -0.114182
   5 Au:   -0.061916   -0.073319
   6 Au:    0.037570   -0.060583
   7 Au:    0.078688   -0.089939
   8 Au:    0.024235   -0.098037
   9 Au:    0.047176   -0.004700
  10 Au:   -0.008576   -0.050339
  11 Au:    0.104862   -0.131150
  12 Fe:   -0.539579    3.026886

  Mayer bond orders larger than 0.100000
B(  0-Au,  1-Au) :   0.1647 B(  0-Au,  3-Au) :   0.2295 B(  0-Au,  4-Au) :   0.1139
B(  0-Au,  5-Au) :   0.2307 B(  0-Au, 12-Fe) :   0.5087 B(  1-Au,  5-Au) :   0.3452
B(  1-Au,  7-Au) :   0.1602 B(  1-Au,  8-Au) :   0.1077 B(  1-Au, 12-Fe) :   0.5367
B(  2-Au,  4-Au) :   0.4326 B(  2-Au,  5-Au) :   0.3836 B(  2-Au,  9-Au) :   0.1407
B(  2-Au, 10-Au) :   0.1782 B(  3-Au,  4-Au) :   0.3007 B(  3-Au,  6-Au) :   0.2562
B(  3-Au, 12-Fe) :   0.4304 B(  4-Au,  5-Au) :   0.1602 B(  4-Au, 10-Au) :   0.1701
B(  4-Au, 12-Fe) :   0.4960 B(  5-Au,  8-Au) :   0.1040 B(  5-Au,  9-Au) :   0.2963
B(  5-Au, 12-Fe) :   0.4224 B(  6-Au,  7-Au) :   0.2642 B(  6-Au, 11-Au) :   0.1388
B(  6-Au, 12-Fe) :   0.5218 B(  7-Au,  8-Au) :   0.2777 B(  7-Au, 12-Fe) :   0.4755
B(  8-Au,  9-Au) :   0.4003 B(  8-Au, 10-Au) :   0.1617 B(  8-Au, 12-Fe) :   0.5277
B(  9-Au, 10-Au) :   0.2771 B( 10-Au, 11-Au) :   0.3707 B( 10-Au, 12-Fe) :   0.5409
B( 11-Au, 12-Fe) :   0.5523

FINAL SINGLE POINT ENERGY     -2893.829773952559

DIPOLE MOMENT
-------------
                                X             Y             Z
Electronic contribution:     -4.80739      18.44390     -22.68866
Nuclear contribution   :      4.85410     -18.21001      22.71174
                        -----------------------------------------
Total Dipole Moment    :      0.04670       0.23388       0.02308
                        -----------------------------------------
Magnitude (a.u.)       :      0.23962
Magnitude (Debye)      :      0.60905

Rotational constants in cm-1:     0.001597     0.001248     0.001082
Rotational constants in MHz :    47.876720    37.425027    32.435478

                             ****ORCA TERMINATED NORMALLY****
TOTAL RUN TIME: 0 days 0 hours 15 minutes 13 seconds 173 msec
