                         Program Version 5.0.3 -  RELEASE  -
|  1> !SC-NEVPT2 def2-TZVP def2-TZVP/C
|  2> !MOREAD RIJCOSX def2/J
|  3> %maxcore 4000
|  4> %moinp "casscf.gbw"
|  5> %pal nprocs 8 end
|  6>
|  7> %casscf
|  8>  mult 5,3
|  9>  bweight 1,1
| 10>  nroots 5,45
| 11>  nel 6
| 12>  norb 5
| 13>  ptsettings
| 14>   d4tpre 1e-14 # default = 1e-10
| 15>   d3tpre 1e-14
| 16>  end
| 17>  rel
| 18>    dosoc true
| 19>    gtensor true
| 20>  end
| 21> end
| 22>
| 23>
| 24> *xyzfile 0 5 pbe.xyz
| 25>
| 26>
| 27>                          ****END OF INPUT****

CARTESIAN COORDINATES (ANGSTROEM)
---------------------------------
  Au    11.452307    8.892787   10.690354
  Au     8.607598    8.987557   10.785391
  Au    10.023703   10.518630    8.842586
  Au     7.358518    9.932714    8.530301
  Au     6.798492    9.578869    5.836858
  Au     9.605747    9.604374    6.280759
  Au     8.414501    7.874159    4.380944
  Au     5.428822    8.081922    7.787489
  Au     8.804963    5.012180    8.138241
  Au    10.408386    6.762879    5.905895
  Au     8.082681    5.260395    5.437866
  Au     7.146219    6.917323    9.718091
  Au     6.160052    5.425187    7.522585
  Au    11.382527    8.258412    7.999006
  Au     9.929750    6.682322   10.015420
  Au    11.530469    5.463638    8.074955
  Cr     8.039148    7.486176    7.147554

 Total Charge           Charge          ....    0
 Multiplicity           Mult            ....    5
 Number of Electrons    NEL             ....  328
 Basis Dimension        Dim             ....  685

ORBITAL ENERGIES
----------------

  NO   OCC          E(Eh)            E(eV)
   0   2.0000    -220.494230     -5999.9530
   1   2.0000     -26.329008      -716.4487
   2   2.0000     -22.262977      -605.8064
   3   2.0000     -22.262550      -605.7948
   4   2.0000     -22.249101      -605.4288
   5   2.0000      -4.723716      -128.5388
   6   2.0000      -4.723391      -128.5300
   7   2.0000      -4.714155      -128.2787
   8   2.0000      -4.713619      -128.2641
   9   2.0000      -4.713286      -128.2550
  10   2.0000      -4.712393      -128.2307
  11   2.0000      -4.712137      -128.2238
  12   2.0000      -4.710757      -128.1862
  13   2.0000      -4.710624      -128.1826
  14   2.0000      -4.710016      -128.1660
  15   2.0000      -4.709988      -128.1653
  16   2.0000      -4.706403      -128.0677
  17   2.0000      -4.704542      -128.0171
  18   2.0000      -4.704369      -128.0124
  19   2.0000      -4.703219      -127.9811
  20   2.0000      -4.696237      -127.7911
  21   2.0000      -3.385735       -92.1305
  22   2.0000      -2.763458       -75.1975
  23   2.0000      -2.763077       -75.1871
  24   2.0000      -2.760283       -75.1111
  25   2.0000      -2.759822       -75.0986
  26   2.0000      -2.758740       -75.0691
  27   2.0000      -2.757609       -75.0383
  28   2.0000      -2.753595       -74.9291
  29   2.0000      -2.753168       -74.9175
  30   2.0000      -2.752951       -74.9116
  31   2.0000      -2.752163       -74.8902
  32   2.0000      -2.751719       -74.8781
  33   2.0000      -2.750632       -74.8485
  34   2.0000      -2.750106       -74.8342
  35   2.0000      -2.749666       -74.8222
  36   2.0000      -2.749548       -74.8190
  37   2.0000      -2.749194       -74.8094
  38   2.0000      -2.749105       -74.8070
  39   2.0000      -2.748603       -74.7933
  40   2.0000      -2.748267       -74.7842
  41   2.0000      -2.748123       -74.7802
  42   2.0000      -2.747661       -74.7676
  43   2.0000      -2.747453       -74.7620
  44   2.0000      -2.746467       -74.7352
  45   2.0000      -2.746233       -74.7288
  46   2.0000      -2.745918       -74.7202
  47   2.0000      -2.745690       -74.7140
  48   2.0000      -2.745450       -74.7075
  49   2.0000      -2.745250       -74.7020
  50   2.0000      -2.744624       -74.6850
  51   2.0000      -2.744453       -74.6804
  52   2.0000      -2.743887       -74.6650
  53   2.0000      -2.743128       -74.6443
  54   2.0000      -2.743002       -74.6409
  55   2.0000      -2.742695       -74.6325
  56   2.0000      -2.742329       -74.6226
  57   2.0000      -2.741440       -74.5984
  58   2.0000      -2.741425       -74.5980
  59   2.0000      -2.741098       -74.5891
  60   2.0000      -2.739929       -74.5573
  61   2.0000      -2.739403       -74.5429
  62   2.0000      -2.739148       -74.5360
  63   2.0000      -2.738301       -74.5130
  64   2.0000      -2.737879       -74.5015
  65   2.0000      -2.736159       -74.4547
  66   2.0000      -2.735765       -74.4439
  67   2.0000      -2.732642       -74.3590
  68   2.0000      -2.730835       -74.3098
  69   2.0000      -2.730608       -74.3036
  70   2.0000      -2.152611       -58.5755
  71   2.0000      -2.152226       -58.5651
  72   2.0000      -2.138449       -58.1902
  73   2.0000      -0.560787       -15.2598
  74   2.0000      -0.559694       -15.2301
  75   2.0000      -0.557912       -15.1816
  76   2.0000      -0.553591       -15.0640
  77   2.0000      -0.550242       -14.9729
  78   2.0000      -0.548776       -14.9330
  79   2.0000      -0.548165       -14.9163
  80   2.0000      -0.546646       -14.8750
  81   2.0000      -0.545686       -14.8489
  82   2.0000      -0.542806       -14.7705
  83   2.0000      -0.540471       -14.7070
  84   2.0000      -0.540087       -14.6965
  85   2.0000      -0.537907       -14.6372
  86   2.0000      -0.536093       -14.5878
  87   2.0000      -0.534913       -14.5557
  88   2.0000      -0.530366       -14.4320
  89   2.0000      -0.529953       -14.4208
  90   2.0000      -0.528753       -14.3881
  91   2.0000      -0.527592       -14.3565
  92   2.0000      -0.525080       -14.2882
  93   2.0000      -0.523839       -14.2544
  94   2.0000      -0.522706       -14.2235
  95   2.0000      -0.518621       -14.1124
  96   2.0000      -0.517917       -14.0932
  97   2.0000      -0.514077       -13.9887
  98   2.0000      -0.513576       -13.9751
  99   2.0000      -0.512115       -13.9354
 100   2.0000      -0.510561       -13.8931
 101   2.0000      -0.507847       -13.8192
 102   2.0000      -0.506443       -13.7810
 103   2.0000      -0.502253       -13.6670
 104   2.0000      -0.502210       -13.6658
 105   2.0000      -0.498549       -13.5662
 106   2.0000      -0.493609       -13.4318
 107   2.0000      -0.491354       -13.3704
 108   2.0000      -0.490603       -13.3500
 109   2.0000      -0.480426       -13.0731
 110   2.0000      -0.478666       -13.0252
 111   2.0000      -0.477664       -12.9979
 112   2.0000      -0.476147       -12.9566
 113   2.0000      -0.469337       -12.7713
 114   2.0000      -0.468636       -12.7522
 115   2.0000      -0.465956       -12.6793
 116   2.0000      -0.464869       -12.6497
 117   2.0000      -0.464540       -12.6408
 118   2.0000      -0.463606       -12.6154
 119   2.0000      -0.463026       -12.5996
 120   2.0000      -0.459791       -12.5115
 121   2.0000      -0.458898       -12.4873
 122   2.0000      -0.452905       -12.3242
 123   2.0000      -0.452302       -12.3078
 124   2.0000      -0.451754       -12.2929
 125   2.0000      -0.450884       -12.2692
 126   2.0000      -0.448152       -12.1948
 127   2.0000      -0.447326       -12.1723
 128   2.0000      -0.444962       -12.1080
 129   2.0000      -0.444788       -12.1033
 130   2.0000      -0.442971       -12.0539
 131   2.0000      -0.441550       -12.0152
 132   2.0000      -0.441215       -12.0061
 133   2.0000      -0.439694       -11.9647
 134   2.0000      -0.438364       -11.9285
 135   2.0000      -0.436716       -11.8837
 136   2.0000      -0.434674       -11.8281
 137   2.0000      -0.432922       -11.7804
 138   2.0000      -0.430024       -11.7016
 139   2.0000      -0.428624       -11.6635
 140   2.0000      -0.426915       -11.6169
 141   2.0000      -0.424988       -11.5645
 142   2.0000      -0.422285       -11.4910
 143   2.0000      -0.421860       -11.4794
 144   2.0000      -0.420790       -11.4503
 145   2.0000      -0.417633       -11.3644
 146   2.0000      -0.415016       -11.2932
 147   2.0000      -0.410656       -11.1745
 148   2.0000      -0.408530       -11.1167
 149   2.0000      -0.406362       -11.0577
 150   2.0000      -0.401912       -10.9366
 151   2.0000      -0.399825       -10.8798
 152   2.0000      -0.390021       -10.6130
 153   2.0000      -0.379230       -10.3194
 154   2.0000      -0.376757       -10.2521
 155   2.0000      -0.362293        -9.8585
 156   2.0000      -0.355063        -9.6618
 157   2.0000      -0.272612        -7.4181
 158   2.0000      -0.248640        -6.7658
 159   2.0000      -0.235473        -6.4076
 160   2.0000      -0.229325        -6.2402
 161   1.2000      -0.080135        -2.1806
 162   1.2000      -0.109165        -2.9705
 163   1.2000      -0.078659        -2.1404
 164   1.2000      -0.084249        -2.2925
 165   1.2000      -0.158235        -4.3058
 166   0.0000      -0.028678        -0.7804
 167   0.0000      -0.014092        -0.3835
 168   0.0000      -0.002970        -0.0808
 169   0.0000      -0.001871        -0.0509
 170   0.0000       0.007457         0.2029

MULLIKEN ATOMIC CHARGES AND SPIN DENSITIES
------------------------------------------
   0 Au:    0.426806    0.004524
   1 Au:    0.281507    0.015205
   2 Au:    0.281980    0.014142
   3 Au:    0.012276    0.016061
   4 Au:    0.530452    0.022971
   5 Au:    0.229193    0.026728
   6 Au:    0.589966    0.019134
   7 Au:    0.530025    0.023102
   8 Au:    0.237971    0.038871
   9 Au:    0.245699    0.040362
  10 Au:    0.529556    0.012839
  11 Au:    0.227718    0.024825
  12 Au:    0.592079    0.018293
  13 Au:   -0.303418    0.018638
  14 Au:   -0.301841    0.020973
  15 Au:    0.508599    0.015262
  16 Cr:   -4.618568    2.668070
Sum of atomic charges       :    0.0000000

LOEWDIN ATOMIC CHARGES AND SPIN DENSITIES
-----------------------------------------
   0 Au:    0.113418    0.006708
   1 Au:    0.040239    0.021310
   2 Au:    0.041795    0.020219
   3 Au:    0.002889    0.045449
   4 Au:    0.144144    0.052883
   5 Au:    0.047848    0.051207
   6 Au:    0.162368    0.044588
   7 Au:    0.141969    0.052441
   8 Au:    0.024965    0.053304
   9 Au:    0.025576    0.053267
  10 Au:    0.142712    0.036029
  11 Au:    0.049230    0.051472
  12 Au:    0.162140    0.043055
  13 Au:   -0.065919    0.024422
  14 Au:   -0.065071    0.026033
  15 Au:    0.202893    0.032008
  16 Cr:   -1.171196    2.385604

  Mayer bond orders larger than 0.100000
B(  0-Au,  1-Au) :   0.1669 B(  0-Au,  2-Au) :   0.1685 B(  0-Au, 13-Au) :   0.2980
B(  0-Au, 14-Au) :   0.2972 B(  1-Au,  2-Au) :   0.1670 B(  1-Au,  3-Au) :   0.1782
B(  1-Au, 11-Au) :   0.1621 B(  1-Au, 14-Au) :   0.2920 B(  1-Au, 16-Cr) :   0.2798
B(  2-Au,  3-Au) :   0.1899 B(  2-Au,  5-Au) :   0.1626 B(  2-Au, 13-Au) :   0.2851
B(  2-Au, 16-Cr) :   0.2790 B(  3-Au,  4-Au) :   0.1426 B(  3-Au,  5-Au) :   0.1224
B(  3-Au,  7-Au) :   0.1410 B(  3-Au, 10-Au) :   0.1154 B(  3-Au, 11-Au) :   0.1124
B(  3-Au, 16-Cr) :   0.3758 B(  4-Au,  6-Au) :   0.1635 B(  4-Au,  7-Au) :   0.1838
B(  4-Au,  8-Au) :   0.1489 B(  4-Au, 16-Cr) :   0.2945 B(  5-Au,  6-Au) :   0.1324
B(  5-Au,  9-Au) :   0.1183 B(  5-Au, 12-Au) :   0.1427 B(  5-Au, 13-Au) :   0.2308
B(  5-Au, 16-Cr) :   0.3396 B(  6-Au,  9-Au) :   0.1641 B(  6-Au, 10-Au) :   0.1536
B(  6-Au, 11-Au) :   0.1407 B(  6-Au, 16-Cr) :   0.2633 B(  7-Au,  9-Au) :   0.1514
B(  7-Au, 12-Au) :   0.1621 B(  7-Au, 16-Cr) :   0.2976 B(  8-Au,  9-Au) :   0.1550
B(  8-Au, 10-Au) :   0.1359 B(  8-Au, 11-Au) :   0.1121 B(  8-Au, 12-Au) :   0.1636
B(  8-Au, 14-Au) :   0.1777 B(  8-Au, 15-Au) :   0.1860 B(  8-Au, 16-Cr) :   0.3303
B(  9-Au, 10-Au) :   0.1350 B(  9-Au, 13-Au) :   0.1799 B(  9-Au, 15-Au) :   0.1791
B(  9-Au, 16-Cr) :   0.3293 B( 10-Au, 12-Au) :   0.1525 B( 10-Au, 16-Cr) :   0.3088
B( 11-Au, 12-Au) :   0.1314 B( 11-Au, 14-Au) :   0.2353 B( 11-Au, 16-Cr) :   0.3454
B( 12-Au, 16-Cr) :   0.2640 B( 13-Au, 14-Au) :   0.3521 B( 13-Au, 15-Au) :   0.1581
B( 13-Au, 16-Cr) :   0.3657 B( 14-Au, 15-Au) :   0.1627 B( 14-Au, 16-Cr) :   0.3577
B( 15-Au, 16-Cr) :   0.2883

FINAL SINGLE POINT ENERGY     -3208.178308549720

DIPOLE MOMENT
-------------
                                X             Y             Z
Electronic contribution:     27.45067       7.18994      25.07240
Nuclear contribution   :    -27.59037      -7.66396     -25.55561
                        -----------------------------------------
Total Dipole Moment    :     -0.13971      -0.47402      -0.48321
                        -----------------------------------------
Magnitude (a.u.)       :      0.69116
Magnitude (Debye)      :      1.75679

Rotational constants in cm-1:     0.000942     0.000782     0.000720
Rotational constants in MHz :    28.235713    23.457344    21.580422

                             ****ORCA TERMINATED NORMALLY****
TOTAL RUN TIME: 0 days 2 hours 3 minutes 10 seconds 414 msec
