                         Program Version 5.0.3 -  RELEASE  -
|  1> !RI-B2PLYP def2-TZVP def2-TZVP/C
|  2> !RIJCOSX VERYSLOWCONV
|  3>
|  4> %scf
|  5>   AutoTRAHIter 200
|  6>   maxiter 400
|  7> end
|  8>
|  9>
| 10> %pal nprocs 6 end
| 11>
| 12> *xyzfile 0 6 pbe.xyz
| 13>
| 14> $new_job
| 15>
| 16> !RI-B2PLYP def2-TZVP def2-TZVP/C
| 17> !RIJCOSX VERYSLOWCONV
| 18>
| 19> %scf
| 20>   AutoTRAHIter 200
| 21>   maxiter 400
| 22> end
| 23>
| 24>
| 25> %pal nprocs 6 end
| 26>
| 27> *xyzfile 0 4 pbe.xyz
| 28>
| 29>
| 30>
| 31>
| 32>
| 33>                          ****END OF INPUT****
 Total Charge           Charge          ....    0
 Multiplicity           Mult            ....    6
 Number of Electrons    NEL             ....  291
MP2 TOTAL ENERGY:    -3049.078164981 Eh
FINAL SINGLE POINT ENERGY     -3049.078164980570

CARTESIAN COORDINATES (ANGSTROEM)
---------------------------------
  Au     6.660335    8.755551    5.997116
  Au     6.483308    4.922548    7.873563
  Au     4.806663    7.130805    7.111022
  Au     5.837835    9.291813    8.569310
  Au     8.924034    5.135554    6.392931
  Au     6.498302    5.919715    5.295060
  Au     8.764176    7.443804    4.738932
  Au     9.184835    9.846622    6.076790
  Au    10.578068    5.805516    8.427982
  Au     8.187450    5.945035    9.781622
  Au    10.034161    8.017811   10.019368
  Au     5.599389    6.724497    9.830822
  Au     7.408497    8.602180   10.737484
  Au     8.583563   10.085586    8.707140
  Mn     8.629877    7.588111    7.581091

 Multiplicity           Mult            ....    4
 Number of Electrons    NEL             ....  291
 Basis Dimension        Dim             ....  605

ORBITAL ENERGIES
----------------
                 SPIN UP ORBITALS
  NO   OCC          E(Eh)            E(eV)
   0   1.0000    -237.644961     -6466.6481
   1   1.0000     -28.145621      -765.8813
   2   1.0000     -24.064185      -654.8198
   3   1.0000     -24.063284      -654.7952
   4   1.0000     -24.062759      -654.7810
   5   1.0000      -4.409313      -119.9835
   6   1.0000      -4.409151      -119.9791
   7   1.0000      -4.407447      -119.9327
   8   1.0000      -4.406462      -119.9059
   9   1.0000      -4.403405      -119.8227
  10   1.0000      -4.402864      -119.8080
  11   1.0000      -4.401048      -119.7586
  12   1.0000      -4.400044      -119.7313
  13   1.0000      -4.395104      -119.5969
  14   1.0000      -4.394860      -119.5902
  15   1.0000      -4.390218      -119.4639
  16   1.0000      -4.388953      -119.4295
  17   1.0000      -4.387414      -119.3876
  18   1.0000      -4.387313      -119.3849
  19   1.0000      -3.624140       -98.6179
  20   1.0000      -2.529074       -68.8196
  21   1.0000      -2.528834       -68.8131
  22   1.0000      -2.527598       -68.7794
  23   1.0000      -2.527317       -68.7718
  24   1.0000      -2.527192       -68.7684
  25   1.0000      -2.526971       -68.7624
  26   1.0000      -2.526508       -68.7498
  27   1.0000      -2.525967       -68.7351
  28   1.0000      -2.525398       -68.7196
  29   1.0000      -2.525226       -68.7149
  30   1.0000      -2.522761       -68.6478
  31   1.0000      -2.522508       -68.6409
  32   1.0000      -2.522174       -68.6318
  33   1.0000      -2.522002       -68.6272
  34   1.0000      -2.520489       -68.5860
  35   1.0000      -2.520403       -68.5836
  36   1.0000      -2.519468       -68.5582
  37   1.0000      -2.518599       -68.5346
  38   1.0000      -2.518056       -68.5198
  39   1.0000      -2.517569       -68.5065
  40   1.0000      -2.516565       -68.4792
  41   1.0000      -2.515593       -68.4528
  42   1.0000      -2.514285       -68.4172
  43   1.0000      -2.513907       -68.4069
  44   1.0000      -2.513502       -68.3959
  45   1.0000      -2.513256       -68.3892
  46   1.0000      -2.512632       -68.3722
  47   1.0000      -2.512524       -68.3692
  48   1.0000      -2.510819       -68.3229
  49   1.0000      -2.510574       -68.3162
  50   1.0000      -2.509026       -68.2741
  51   1.0000      -2.508046       -68.2474
  52   1.0000      -2.507139       -68.2227
  53   1.0000      -2.506408       -68.2028
  54   1.0000      -2.506103       -68.1945
  55   1.0000      -2.505204       -68.1701
  56   1.0000      -2.504999       -68.1645
  57   1.0000      -2.504231       -68.1436
  58   1.0000      -2.504094       -68.1399
  59   1.0000      -2.503108       -68.1130
  60   1.0000      -2.502617       -68.0997
  61   1.0000      -2.501585       -68.0716
  62   1.0000      -2.426834       -66.0375
  63   1.0000      -2.425560       -66.0028
  64   1.0000      -2.424924       -65.9855
  65   1.0000      -0.530357       -14.4317
  66   1.0000      -0.525884       -14.3100
  67   1.0000      -0.522036       -14.2053
  68   1.0000      -0.520763       -14.1707
  69   1.0000      -0.516273       -14.0485
  70   1.0000      -0.486571       -13.2403
  71   1.0000      -0.472956       -12.8698
  72   1.0000      -0.466949       -12.7063
  73   1.0000      -0.464819       -12.6484
  74   1.0000      -0.462506       -12.5854
  75   1.0000      -0.460986       -12.5441
  76   1.0000      -0.460302       -12.5254
  77   1.0000      -0.457577       -12.4513
  78   1.0000      -0.455691       -12.4000
  79   1.0000      -0.455068       -12.3830
  80   1.0000      -0.454149       -12.3580
  81   1.0000      -0.452515       -12.3135
  82   1.0000      -0.452428       -12.3112
  83   1.0000      -0.448165       -12.1952
  84   1.0000      -0.447470       -12.1763
  85   1.0000      -0.445008       -12.1093
  86   1.0000      -0.443683       -12.0732
  87   1.0000      -0.442891       -12.0517
  88   1.0000      -0.439485       -11.9590
  89   1.0000      -0.437028       -11.8921
  90   1.0000      -0.435882       -11.8610
  91   1.0000      -0.433635       -11.7998
  92   1.0000      -0.431829       -11.7507
  93   1.0000      -0.427402       -11.6302
  94   1.0000      -0.426323       -11.6009
  95   1.0000      -0.425062       -11.5665
  96   1.0000      -0.423136       -11.5141
  97   1.0000      -0.422266       -11.4905
  98   1.0000      -0.415555       -11.3078
  99   1.0000      -0.411668       -11.2020
 100   1.0000      -0.411460       -11.1964
 101   1.0000      -0.410731       -11.1766
 102   1.0000      -0.402353       -10.9486
 103   1.0000      -0.395530       -10.7629
 104   1.0000      -0.392971       -10.6933
 105   1.0000      -0.391492       -10.6530
 106   1.0000      -0.391243       -10.6463
 107   1.0000      -0.389889       -10.6094
 108   1.0000      -0.387472       -10.5437
 109   1.0000      -0.385513       -10.4904
 110   1.0000      -0.381064       -10.3693
 111   1.0000      -0.379829       -10.3357
 112   1.0000      -0.379167       -10.3177
 113   1.0000      -0.376422       -10.2429
 114   1.0000      -0.376111       -10.2345
 115   1.0000      -0.373674       -10.1682
 116   1.0000      -0.371478       -10.1084
 117   1.0000      -0.370095       -10.0708
 118   1.0000      -0.367333        -9.9956
 119   1.0000      -0.365491        -9.9455
 120   1.0000      -0.363746        -9.8980
 121   1.0000      -0.361784        -9.8447
 122   1.0000      -0.361154        -9.8275
 123   1.0000      -0.359246        -9.7756
 124   1.0000      -0.356907        -9.7119
 125   1.0000      -0.354482        -9.6460
 126   1.0000      -0.353816        -9.6278
 127   1.0000      -0.352568        -9.5939
 128   1.0000      -0.351909        -9.5759
 129   1.0000      -0.346655        -9.4330
 130   1.0000      -0.346502        -9.4288
 131   1.0000      -0.344683        -9.3793
 132   1.0000      -0.341664        -9.2971
 133   1.0000      -0.341502        -9.2927
 134   1.0000      -0.339133        -9.2283
 135   1.0000      -0.338116        -9.2006
 136   1.0000      -0.337816        -9.1924
 137   1.0000      -0.329577        -8.9683
 138   1.0000      -0.326899        -8.8954
 139   1.0000      -0.322785        -8.7834
 140   1.0000      -0.318248        -8.6600
 141   1.0000      -0.311515        -8.4768
 142   1.0000      -0.307589        -8.3699
 143   1.0000      -0.306425        -8.3382
 144   1.0000      -0.235505        -6.4084
 145   1.0000      -0.234984        -6.3942
 146   1.0000      -0.216314        -5.8862
 147   0.0000      -0.143915        -3.9161
 148   0.0000      -0.104175        -2.8348
 149   0.0000      -0.086078        -2.3423
 150   0.0000      -0.062295        -1.6951
 151   0.0000      -0.059014        -1.6059

                 SPIN DOWN ORBITALS
  NO   OCC          E(Eh)            E(eV)
   0   1.0000    -237.642940     -6466.5931
   1   1.0000     -28.043575      -763.1045
   2   1.0000     -23.969900      -652.2541
   3   1.0000     -23.969759      -652.2503
   4   1.0000     -23.969579      -652.2454
   5   1.0000      -4.409889      -119.9992
   6   1.0000      -4.409669      -119.9932
   7   1.0000      -4.407441      -119.9326
   8   1.0000      -4.406450      -119.9056
   9   1.0000      -4.403939      -119.8373
  10   1.0000      -4.403410      -119.8229
  11   1.0000      -4.401686      -119.7760
  12   1.0000      -4.400576      -119.7458
  13   1.0000      -4.396036      -119.6222
  14   1.0000      -4.395773      -119.6151
  15   1.0000      -4.390725      -119.4777
  16   1.0000      -4.389414      -119.4420
  17   1.0000      -4.388600      -119.4199
  18   1.0000      -4.388481      -119.4166
  19   1.0000      -3.337085       -90.8067
  20   1.0000      -2.529483       -68.8307
  21   1.0000      -2.529181       -68.8225
  22   1.0000      -2.526904       -68.7606
  23   1.0000      -2.526692       -68.7548
  24   1.0000      -2.526652       -68.7537
  25   1.0000      -2.526068       -68.7378
  26   1.0000      -2.525786       -68.7301
  27   1.0000      -2.525458       -68.7212
  28   1.0000      -2.525266       -68.7160
  29   1.0000      -2.524943       -68.7072
  30   1.0000      -2.522427       -68.6387
  31   1.0000      -2.522261       -68.6342
  32   1.0000      -2.522062       -68.6288
  33   1.0000      -2.521487       -68.6131
  34   1.0000      -2.520757       -68.5933
  35   1.0000      -2.520574       -68.5883
  36   1.0000      -2.519619       -68.5623
  37   1.0000      -2.518703       -68.5374
  38   1.0000      -2.518593       -68.5344
  39   1.0000      -2.518296       -68.5263
  40   1.0000      -2.517063       -68.4928
  41   1.0000      -2.516038       -68.4649
  42   1.0000      -2.514935       -68.4349
  43   1.0000      -2.514708       -68.4287
  44   1.0000      -2.514506       -68.4232
  45   1.0000      -2.513813       -68.4043
  46   1.0000      -2.513667       -68.4004
  47   1.0000      -2.513457       -68.3946
  48   1.0000      -2.511980       -68.3544
  49   1.0000      -2.511677       -68.3462
  50   1.0000      -2.509728       -68.2932
  51   1.0000      -2.508748       -68.2665
  52   1.0000      -2.508003       -68.2462
  53   1.0000      -2.507244       -68.2256
  54   1.0000      -2.506563       -68.2070
  55   1.0000      -2.506381       -68.2021
  56   1.0000      -2.505863       -68.1880
  57   1.0000      -2.505232       -68.1708
  58   1.0000      -2.504943       -68.1630
  59   1.0000      -2.503933       -68.1355
  60   1.0000      -2.503231       -68.1164
  61   1.0000      -2.502199       -68.0883
  62   1.0000      -2.097500       -57.0759
  63   1.0000      -2.097049       -57.0636
  64   1.0000      -2.096945       -57.0608
  65   1.0000      -0.498716       -13.5708
  66   1.0000      -0.478618       -13.0239
  67   1.0000      -0.473861       -12.8944
  68   1.0000      -0.469337       -12.7713
  69   1.0000      -0.468371       -12.7450
  70   1.0000      -0.464773       -12.6471
  71   1.0000      -0.463358       -12.6086
  72   1.0000      -0.462796       -12.5933
  73   1.0000      -0.460170       -12.5219
  74   1.0000      -0.459605       -12.5065
  75   1.0000      -0.457776       -12.4567
  76   1.0000      -0.457754       -12.4561
  77   1.0000      -0.456276       -12.4159
  78   1.0000      -0.455840       -12.4040
  79   1.0000      -0.453720       -12.3464
  80   1.0000      -0.451068       -12.2742
  81   1.0000      -0.448059       -12.1923
  82   1.0000      -0.446597       -12.1525
  83   1.0000      -0.442960       -12.0536
  84   1.0000      -0.441473       -12.0131
  85   1.0000      -0.439195       -11.9511
  86   1.0000      -0.438791       -11.9401
  87   1.0000      -0.436397       -11.8750
  88   1.0000      -0.432870       -11.7790
  89   1.0000      -0.429167       -11.6782
  90   1.0000      -0.428970       -11.6729
  91   1.0000      -0.426974       -11.6185
  92   1.0000      -0.424862       -11.5611
  93   1.0000      -0.419223       -11.4076
  94   1.0000      -0.414946       -11.2913
  95   1.0000      -0.414202       -11.2710
  96   1.0000      -0.413712       -11.2577
  97   1.0000      -0.409069       -11.1313
  98   1.0000      -0.405885       -11.0447
  99   1.0000      -0.400100       -10.8873
 100   1.0000      -0.394527       -10.7356
 101   1.0000      -0.394281       -10.7289
 102   1.0000      -0.392307       -10.6752
 103   1.0000      -0.390938       -10.6380
 104   1.0000      -0.388693       -10.5769
 105   1.0000      -0.388171       -10.5627
 106   1.0000      -0.383133       -10.4256
 107   1.0000      -0.381954       -10.3935
 108   1.0000      -0.380868       -10.3639
 109   1.0000      -0.378879       -10.3098
 110   1.0000      -0.375065       -10.2060
 111   1.0000      -0.373705       -10.1690
 112   1.0000      -0.373138       -10.1536
 113   1.0000      -0.370277       -10.0757
 114   1.0000      -0.368086       -10.0161
 115   1.0000      -0.367509       -10.0004
 116   1.0000      -0.365861        -9.9556
 117   1.0000      -0.363058        -9.8793
 118   1.0000      -0.360882        -9.8201
 119   1.0000      -0.358806        -9.7636
 120   1.0000      -0.357522        -9.7287
 121   1.0000      -0.356062        -9.6890
 122   1.0000      -0.354158        -9.6371
 123   1.0000      -0.353184        -9.6106
 124   1.0000      -0.349911        -9.5216
 125   1.0000      -0.349438        -9.5087
 126   1.0000      -0.346851        -9.4383
 127   1.0000      -0.345361        -9.3977
 128   1.0000      -0.344000        -9.3607
 129   1.0000      -0.342043        -9.3075
 130   1.0000      -0.340747        -9.2722
 131   1.0000      -0.339099        -9.2274
 132   1.0000      -0.331489        -9.0203
 133   1.0000      -0.329314        -8.9611
 134   1.0000      -0.326195        -8.8762
 135   1.0000      -0.324210        -8.8222
 136   1.0000      -0.320537        -8.7222
 137   1.0000      -0.315374        -8.5817
 138   1.0000      -0.313884        -8.5412
 139   1.0000      -0.245259        -6.6738
 140   1.0000      -0.243547        -6.6272
 141   1.0000      -0.238404        -6.4873
 142   1.0000      -0.226460        -6.1623
 143   1.0000      -0.190558        -5.1854
 144   0.0000      -0.084428        -2.2974
 145   0.0000      -0.068273        -1.8578
 146   0.0000      -0.066716        -1.8154
 147   0.0000      -0.062278        -1.6947
 148   0.0000      -0.060915        -1.6576

MULLIKEN ATOMIC CHARGES AND SPIN POPULATIONS
--------------------------------------------
   0 Au:   -0.178894   -0.177434
   1 Au:    0.023455   -0.023384
   2 Au:    0.100744   -0.171940
   3 Au:    0.035630   -0.056718
   4 Au:    0.151057   -0.209479
   5 Au:    0.103339    0.022077
   6 Au:    0.209140   -0.163886
   7 Au:    0.256387   -0.080414
   8 Au:    0.254773   -0.088649
   9 Au:   -0.178902   -0.181152
  10 Au:    0.220294   -0.180707
  11 Au:    0.094470   -0.172828
  12 Au:    0.099039    0.025465
  13 Au:    0.142152   -0.180640
  14 Mn:   -1.332685    4.639688
Sum of atomic charges         :    0.0000000

LOEWDIN ATOMIC CHARGES AND SPIN POPULATIONS
-------------------------------------------
   0 Au:   -0.055250   -0.108921
   1 Au:   -0.021569   -0.073315
   2 Au:   -0.026610   -0.132710
   3 Au:   -0.018473   -0.085354
   4 Au:   -0.004992   -0.137334
   5 Au:    0.003720   -0.044479
   6 Au:    0.039451   -0.138983
   7 Au:    0.089656   -0.146866
   8 Au:    0.093768   -0.159218
   9 Au:   -0.055217   -0.109924
  10 Au:    0.040253   -0.143584
  11 Au:   -0.028277   -0.133279
  12 Au:    0.004981   -0.047518
  13 Au:   -0.006527   -0.127397
  14 Mn:   -0.054916    4.588882

  Mayer bond orders larger than 0.100000
B(  0-Au,  2-Au) :   0.3177 B(  0-Au,  3-Au) :   0.3279 B(  0-Au,  5-Au) :   0.1702
B(  0-Au,  6-Au) :   0.1602 B(  0-Au,  7-Au) :   0.2267 B(  0-Au, 14-Mn) :   0.4479
B(  1-Au,  2-Au) :   0.1960 B(  1-Au,  4-Au) :   0.1549 B(  1-Au,  5-Au) :   0.2894
B(  1-Au,  9-Au) :   0.3215 B(  1-Au, 11-Au) :   0.2513 B(  1-Au, 14-Mn) :   0.1736
B(  2-Au,  3-Au) :   0.2548 B(  2-Au,  5-Au) :   0.2814 B(  2-Au, 11-Au) :   0.2743
B(  3-Au, 11-Au) :   0.1976 B(  3-Au, 12-Au) :   0.2880 B(  3-Au, 13-Au) :   0.1527
B(  3-Au, 14-Mn) :   0.1728 B(  4-Au,  5-Au) :   0.2644 B(  4-Au,  6-Au) :   0.2291
B(  4-Au,  8-Au) :   0.2550 B(  4-Au, 14-Mn) :   0.4274 B(  5-Au,  6-Au) :   0.2282
B(  5-Au, 14-Mn) :   0.1438 B(  6-Au,  7-Au) :   0.2085 B(  6-Au, 14-Mn) :   0.3559
B(  7-Au, 13-Au) :   0.2583 B(  7-Au, 14-Mn) :   0.4230 B(  8-Au,  9-Au) :   0.2294
B(  8-Au, 10-Au) :   0.2112 B(  8-Au, 14-Mn) :   0.4194 B(  9-Au, 10-Au) :   0.1560
B(  9-Au, 11-Au) :   0.3175 B(  9-Au, 12-Au) :   0.1712 B(  9-Au, 14-Mn) :   0.4519
B( 10-Au, 12-Au) :   0.2265 B( 10-Au, 13-Au) :   0.2285 B( 10-Au, 14-Mn) :   0.3532
B( 11-Au, 12-Au) :   0.2885 B( 12-Au, 13-Au) :   0.2580 B( 12-Au, 14-Mn) :   0.1450
B( 13-Au, 14-Mn) :   0.4367

MP2 TOTAL ENERGY:    -3049.047756337 Eh
FINAL SINGLE POINT ENERGY     -3049.047756336588

DIPOLE MOMENT
-------------
                                X             Y             Z
Electronic contribution:    -33.90442      -6.67206       8.75956
Nuclear contribution   :     34.59160       6.79575      -8.92674
                        -----------------------------------------
Total Dipole Moment    :      0.68718       0.12369      -0.16717
                        -----------------------------------------
Magnitude (a.u.)       :      0.71796
Magnitude (Debye)      :      1.82491

Rotational constants in cm-1:     0.001103     0.000984     0.000957
Rotational constants in MHz :    33.053456    29.495510    28.697447

                             ****ORCA TERMINATED NORMALLY****
TOTAL RUN TIME: 0 days 0 hours 57 minutes 18 seconds 484 msec
