                         Program Version 5.0.3 -  RELEASE  -
|  1> !PBE def2-TZVP VERYSLOWCONV
|  2> !KDIIS
|  3>
|  4> %scf
|  5>   AutoTRAHIter 200
|  6>   maxiter 400
|  7> end
|  8>
|  9>
| 10> %pal nprocs 6 end
| 11>
| 12> *xyzfile 0 6 pbe.xyz
| 13>
| 14> $new_job
| 15>
| 16> !PBE def2-TZVP VERYSLOWCONV
| 17> !KDIIS
| 18>
| 19> %scf
| 20>   AutoTRAHIter 200
| 21>   maxiter 400
| 22> end
| 23>
| 24>
| 25> %pal nprocs 6 end
| 26>
| 27> *xyzfile 0 4 pbe.xyz
| 28>
| 29>
| 30>
| 31>
| 32>
| 33>                          ****END OF INPUT****
 Total Charge           Charge          ....    0
 Multiplicity           Mult            ....    6
 Number of Electrons    NEL             ....  291
FINAL SINGLE POINT ENERGY     -3052.369899851324

CARTESIAN COORDINATES (ANGSTROEM)
---------------------------------
  Au     6.660335    8.755551    5.997116
  Au     6.483308    4.922548    7.873563
  Au     4.806663    7.130805    7.111022
  Au     5.837835    9.291813    8.569310
  Au     8.924034    5.135554    6.392931
  Au     6.498302    5.919715    5.295060
  Au     8.764176    7.443804    4.738932
  Au     9.184835    9.846622    6.076790
  Au    10.578068    5.805516    8.427982
  Au     8.187450    5.945035    9.781622
  Au    10.034161    8.017811   10.019368
  Au     5.599389    6.724497    9.830822
  Au     7.408497    8.602180   10.737484
  Au     8.583563   10.085586    8.707140
  Mn     8.629877    7.588111    7.581091

 Multiplicity           Mult            ....    4
 Number of Electrons    NEL             ....  291
 Basis Dimension        Dim             ....  605

ORBITAL ENERGIES
----------------
                 SPIN UP ORBITALS
  NO   OCC          E(Eh)            E(eV)
   0   1.0000    -234.219716     -6373.4425
   1   1.0000     -26.912972      -732.3392
   2   1.0000     -23.062367      -627.5589
   3   1.0000     -23.061620      -627.5386
   4   1.0000     -23.060035      -627.4954
   5   1.0000      -4.039014      -109.9072
   6   1.0000      -4.038905      -109.9042
   7   1.0000      -4.035788      -109.8194
   8   1.0000      -4.035522      -109.8121
   9   1.0000      -4.031414      -109.7004
  10   1.0000      -4.031309      -109.6975
  11   1.0000      -4.028830      -109.6300
  12   1.0000      -4.028479      -109.6205
  13   1.0000      -4.026017      -109.5535
  14   1.0000      -4.025761      -109.5465
  15   1.0000      -4.021519      -109.4311
  16   1.0000      -4.021063      -109.4187
  17   1.0000      -4.020906      -109.4144
  18   1.0000      -4.020738      -109.4098
  19   1.0000      -3.123659       -84.9991
  20   1.0000      -2.254763       -61.3552
  21   1.0000      -2.254641       -61.3519
  22   1.0000      -2.251671       -61.2711
  23   1.0000      -2.251575       -61.2685
  24   1.0000      -2.251139       -61.2566
  25   1.0000      -2.250813       -61.2477
  26   1.0000      -2.250479       -61.2387
  27   1.0000      -2.250222       -61.2316
  28   1.0000      -2.249958       -61.2245
  29   1.0000      -2.249867       -61.2220
  30   1.0000      -2.246299       -61.1249
  31   1.0000      -2.246099       -61.1195
  32   1.0000      -2.245730       -61.1094
  33   1.0000      -2.245691       -61.1084
  34   1.0000      -2.244702       -61.0814
  35   1.0000      -2.244626       -61.0794
  36   1.0000      -2.243548       -61.0500
  37   1.0000      -2.243241       -61.0417
  38   1.0000      -2.242048       -61.0092
  39   1.0000      -2.241894       -61.0050
  40   1.0000      -2.241675       -60.9991
  41   1.0000      -2.241370       -60.9908
  42   1.0000      -2.240537       -60.9681
  43   1.0000      -2.240258       -60.9605
  44   1.0000      -2.240207       -60.9591
  45   1.0000      -2.240027       -60.9542
  46   1.0000      -2.237548       -60.8868
  47   1.0000      -2.237236       -60.8783
  48   1.0000      -2.237120       -60.8751
  49   1.0000      -2.236989       -60.8716
  50   1.0000      -2.236383       -60.8551
  51   1.0000      -2.236230       -60.8509
  52   1.0000      -2.235568       -60.8329
  53   1.0000      -2.235040       -60.8185
  54   1.0000      -2.234415       -60.8015
  55   1.0000      -2.234300       -60.7984
  56   1.0000      -2.233968       -60.7894
  57   1.0000      -2.233150       -60.7671
  58   1.0000      -2.231928       -60.7338
  59   1.0000      -2.231230       -60.7148
  60   1.0000      -2.229962       -60.6804
  61   1.0000      -2.229293       -60.6622
  62   1.0000      -2.028642       -55.2022
  63   1.0000      -2.026242       -55.1368
  64   1.0000      -2.023326       -55.0575
  65   1.0000      -0.426734       -11.6120
  66   1.0000      -0.392901       -10.6914
  67   1.0000      -0.384053       -10.4506
  68   1.0000      -0.383496       -10.4355
  69   1.0000      -0.377225       -10.2648
  70   1.0000      -0.372777       -10.1438
  71   1.0000      -0.364979        -9.9316
  72   1.0000      -0.363587        -9.8937
  73   1.0000      -0.361462        -9.8359
  74   1.0000      -0.360059        -9.7977
  75   1.0000      -0.359233        -9.7752
  76   1.0000      -0.354894        -9.6572
  77   1.0000      -0.354626        -9.6499
  78   1.0000      -0.353510        -9.6195
  79   1.0000      -0.353223        -9.6117
  80   1.0000      -0.349678        -9.5152
  81   1.0000      -0.349208        -9.5024
  82   1.0000      -0.345517        -9.4020
  83   1.0000      -0.343619        -9.3504
  84   1.0000      -0.341866        -9.3027
  85   1.0000      -0.341454        -9.2914
  86   1.0000      -0.339484        -9.2378
  87   1.0000      -0.337740        -9.1904
  88   1.0000      -0.335441        -9.1278
  89   1.0000      -0.329991        -8.9795
  90   1.0000      -0.328931        -8.9507
  91   1.0000      -0.325912        -8.8685
  92   1.0000      -0.325557        -8.8589
  93   1.0000      -0.323637        -8.8066
  94   1.0000      -0.320533        -8.7221
  95   1.0000      -0.319043        -8.6816
  96   1.0000      -0.316856        -8.6221
  97   1.0000      -0.313171        -8.5218
  98   1.0000      -0.312609        -8.5065
  99   1.0000      -0.308499        -8.3947
 100   1.0000      -0.300569        -8.1789
 101   1.0000      -0.297610        -8.0984
 102   1.0000      -0.296120        -8.0578
 103   1.0000      -0.296011        -8.0549
 104   1.0000      -0.294205        -8.0057
 105   1.0000      -0.290938        -7.9168
 106   1.0000      -0.290373        -7.9015
 107   1.0000      -0.286267        -7.7897
 108   1.0000      -0.284030        -7.7289
 109   1.0000      -0.283503        -7.7145
 110   1.0000      -0.282855        -7.6969
 111   1.0000      -0.281015        -7.6468
 112   1.0000      -0.279003        -7.5921
 113   1.0000      -0.278870        -7.5884
 114   1.0000      -0.274848        -7.4790
 115   1.0000      -0.274290        -7.4638
 116   1.0000      -0.273591        -7.4448
 117   1.0000      -0.270766        -7.3679
 118   1.0000      -0.269950        -7.3457
 119   1.0000      -0.267678        -7.2839
 120   1.0000      -0.266283        -7.2459
 121   1.0000      -0.265330        -7.2200
 122   1.0000      -0.264157        -7.1881
 123   1.0000      -0.262112        -7.1324
 124   1.0000      -0.260455        -7.0873
 125   1.0000      -0.259501        -7.0614
 126   1.0000      -0.258860        -7.0439
 127   1.0000      -0.258523        -7.0348
 128   1.0000      -0.255291        -6.9468
 129   1.0000      -0.254723        -6.9314
 130   1.0000      -0.253883        -6.9085
 131   1.0000      -0.253048        -6.8858
 132   1.0000      -0.252956        -6.8833
 133   1.0000      -0.251667        -6.8482
 134   1.0000      -0.250925        -6.8280
 135   1.0000      -0.250389        -6.8134
 136   1.0000      -0.248348        -6.7579
 137   1.0000      -0.244239        -6.6461
 138   1.0000      -0.243590        -6.6284
 139   1.0000      -0.242129        -6.5887
 140   1.0000      -0.241023        -6.5586
 141   1.0000      -0.240627        -6.5478
 142   1.0000      -0.240345        -6.5401
 143   1.0000      -0.230065        -6.2604
 144   1.0000      -0.213340        -5.8053
 145   1.0000      -0.212452        -5.7811
 146   1.0000      -0.202153        -5.5009
 147   0.0000      -0.201850        -5.4926
 148   0.0000      -0.170125        -4.6293
 149   0.0000      -0.146321        -3.9816
 150   0.0000      -0.130058        -3.5391
 151   0.0000      -0.128515        -3.4971

                 SPIN DOWN ORBITALS
  NO   OCC          E(Eh)            E(eV)
   0   1.0000    -234.219010     -6373.4233
   1   1.0000     -26.845460      -730.5021
   2   1.0000     -23.010747      -626.1542
   3   1.0000     -23.009949      -626.1326
   4   1.0000     -23.009568      -626.1222
   5   1.0000      -4.038979      -109.9062
   6   1.0000      -4.038859      -109.9029
   7   1.0000      -4.035493      -109.8114
   8   1.0000      -4.035243      -109.8045
   9   1.0000      -4.031513      -109.7030
  10   1.0000      -4.031431      -109.7008
  11   1.0000      -4.029101      -109.6374
  12   1.0000      -4.028716      -109.6269
  13   1.0000      -4.026818      -109.5753
  14   1.0000      -4.026544      -109.5678
  15   1.0000      -4.022028      -109.4449
  16   1.0000      -4.021793      -109.4386
  17   1.0000      -4.021481      -109.4301
  18   1.0000      -4.021411      -109.4282
  19   1.0000      -2.957511       -80.4780
  20   1.0000      -2.254930       -61.3598
  21   1.0000      -2.254796       -61.3561
  22   1.0000      -2.251394       -61.2635
  23   1.0000      -2.251300       -61.2610
  24   1.0000      -2.250841       -61.2485
  25   1.0000      -2.250517       -61.2397
  26   1.0000      -2.249965       -61.2247
  27   1.0000      -2.249889       -61.2226
  28   1.0000      -2.249805       -61.2203
  29   1.0000      -2.249614       -61.2151
  30   1.0000      -2.246263       -61.1239
  31   1.0000      -2.246093       -61.1193
  32   1.0000      -2.245655       -61.1074
  33   1.0000      -2.245555       -61.1047
  34   1.0000      -2.244825       -61.0848
  35   1.0000      -2.244740       -61.0825
  36   1.0000      -2.243616       -61.0519
  37   1.0000      -2.243270       -61.0425
  38   1.0000      -2.242503       -61.0216
  39   1.0000      -2.242354       -61.0175
  40   1.0000      -2.242092       -61.0104
  41   1.0000      -2.241775       -61.0018
  42   1.0000      -2.241292       -60.9887
  43   1.0000      -2.241081       -60.9829
  44   1.0000      -2.241009       -60.9810
  45   1.0000      -2.240734       -60.9735
  46   1.0000      -2.237910       -60.8966
  47   1.0000      -2.237779       -60.8931
  48   1.0000      -2.237671       -60.8901
  49   1.0000      -2.237435       -60.8837
  50   1.0000      -2.237200       -60.8773
  51   1.0000      -2.237019       -60.8724
  52   1.0000      -2.236447       -60.8568
  53   1.0000      -2.235896       -60.8418
  54   1.0000      -2.235266       -60.8247
  55   1.0000      -2.234885       -60.8143
  56   1.0000      -2.234787       -60.8117
  57   1.0000      -2.233948       -60.7888
  58   1.0000      -2.232275       -60.7433
  59   1.0000      -2.231574       -60.7242
  60   1.0000      -2.230507       -60.6952
  61   1.0000      -2.229883       -60.6782
  62   1.0000      -1.864262       -50.7292
  63   1.0000      -1.863576       -50.7105
  64   1.0000      -1.860787       -50.6346
  65   1.0000      -0.422134       -11.4869
  66   1.0000      -0.393989       -10.7210
  67   1.0000      -0.383756       -10.4425
  68   1.0000      -0.379532       -10.3276
  69   1.0000      -0.375154       -10.2085
  70   1.0000      -0.366095        -9.9620
  71   1.0000      -0.363742        -9.8979
  72   1.0000      -0.363337        -9.8869
  73   1.0000      -0.362032        -9.8514
  74   1.0000      -0.360254        -9.8030
  75   1.0000      -0.359674        -9.7872
  76   1.0000      -0.355533        -9.6746
  77   1.0000      -0.354634        -9.6501
  78   1.0000      -0.352825        -9.6008
  79   1.0000      -0.352040        -9.5795
  80   1.0000      -0.350189        -9.5291
  81   1.0000      -0.349532        -9.5113
  82   1.0000      -0.346140        -9.4189
  83   1.0000      -0.343338        -9.3427
  84   1.0000      -0.339758        -9.2453
  85   1.0000      -0.339024        -9.2253
  86   1.0000      -0.337264        -9.1774
  87   1.0000      -0.337056        -9.1717
  88   1.0000      -0.333190        -9.0666
  89   1.0000      -0.327888        -8.9223
  90   1.0000      -0.326609        -8.8875
  91   1.0000      -0.326051        -8.8723
  92   1.0000      -0.324686        -8.8352
  93   1.0000      -0.319635        -8.6977
  94   1.0000      -0.318065        -8.6550
  95   1.0000      -0.317140        -8.6298
  96   1.0000      -0.314027        -8.5451
  97   1.0000      -0.310336        -8.4447
  98   1.0000      -0.308353        -8.3907
  99   1.0000      -0.304670        -8.2905
 100   1.0000      -0.297697        -8.1008
 101   1.0000      -0.297057        -8.0833
 102   1.0000      -0.296937        -8.0801
 103   1.0000      -0.294540        -8.0148
 104   1.0000      -0.293803        -7.9948
 105   1.0000      -0.290714        -7.9107
 106   1.0000      -0.287957        -7.8357
 107   1.0000      -0.284756        -7.7486
 108   1.0000      -0.284390        -7.7386
 109   1.0000      -0.284302        -7.7363
 110   1.0000      -0.280673        -7.6375
 111   1.0000      -0.278712        -7.5841
 112   1.0000      -0.275623        -7.5001
 113   1.0000      -0.275479        -7.4962
 114   1.0000      -0.273359        -7.4385
 115   1.0000      -0.272208        -7.4072
 116   1.0000      -0.271103        -7.3771
 117   1.0000      -0.270701        -7.3661
 118   1.0000      -0.267601        -7.2818
 119   1.0000      -0.266733        -7.2582
 120   1.0000      -0.264768        -7.2047
 121   1.0000      -0.262694        -7.1483
 122   1.0000      -0.261384        -7.1126
 123   1.0000      -0.260861        -7.0984
 124   1.0000      -0.258587        -7.0365
 125   1.0000      -0.257424        -7.0049
 126   1.0000      -0.256244        -6.9727
 127   1.0000      -0.254831        -6.9343
 128   1.0000      -0.253783        -6.9058
 129   1.0000      -0.252900        -6.8818
 130   1.0000      -0.252236        -6.8637
 131   1.0000      -0.250191        -6.8080
 132   1.0000      -0.249918        -6.8006
 133   1.0000      -0.246250        -6.7008
 134   1.0000      -0.243254        -6.6193
 135   1.0000      -0.242767        -6.6060
 136   1.0000      -0.242338        -6.5944
 137   1.0000      -0.242144        -6.5891
 138   1.0000      -0.231433        -6.2976
 139   1.0000      -0.221640        -6.0311
 140   1.0000      -0.218713        -5.9515
 141   1.0000      -0.216334        -5.8868
 142   1.0000      -0.207870        -5.6564
 143   1.0000      -0.177714        -4.8358
 144   0.0000      -0.147467        -4.0128
 145   0.0000      -0.145680        -3.9642
 146   0.0000      -0.144278        -3.9260
 147   0.0000      -0.142299        -3.8721
 148   0.0000      -0.142083        -3.8663

MULLIKEN ATOMIC CHARGES AND SPIN POPULATIONS
--------------------------------------------
   0 Au:   -0.159188   -0.139626
   1 Au:    0.033247   -0.030134
   2 Au:    0.117094   -0.140658
   3 Au:    0.034359   -0.042599
   4 Au:    0.179310   -0.146357
   5 Au:    0.126480   -0.000105
   6 Au:    0.245504   -0.117212
   7 Au:    0.308421   -0.038028
   8 Au:    0.308159   -0.041118
   9 Au:   -0.159688   -0.142093
  10 Au:    0.248656   -0.121995
  11 Au:    0.113179   -0.143293
  12 Au:    0.126245   -0.000393
  13 Au:    0.180058   -0.135418
  14 Mn:   -1.701838    4.239030
Sum of atomic charges         :    0.0000000

LOEWDIN ATOMIC CHARGES AND SPIN POPULATIONS
-------------------------------------------
   0 Au:   -0.033105   -0.073770
   1 Au:   -0.007834   -0.067818
   2 Au:   -0.014138   -0.114670
   3 Au:   -0.007163   -0.072223
   4 Au:    0.017166   -0.091414
   5 Au:    0.005101   -0.046836
   6 Au:    0.054038   -0.105189
   7 Au:    0.104584   -0.104644
   8 Au:    0.106048   -0.109641
   9 Au:   -0.032854   -0.074567
  10 Au:    0.053918   -0.105944
  11 Au:   -0.014503   -0.116611
  12 Au:    0.006097   -0.049008
  13 Au:    0.017579   -0.087796
  14 Mn:   -0.254933    4.220132

  Mayer bond orders larger than 0.100000
B(  0-Au,  2-Au) :   0.3437 B(  0-Au,  3-Au) :   0.3324 B(  0-Au,  5-Au) :   0.2086
B(  0-Au,  6-Au) :   0.2012 B(  0-Au,  7-Au) :   0.2523 B(  0-Au, 14-Mn) :   0.5021
B(  1-Au,  2-Au) :   0.2162 B(  1-Au,  4-Au) :   0.1906 B(  1-Au,  5-Au) :   0.3082
B(  1-Au,  9-Au) :   0.3309 B(  1-Au, 11-Au) :   0.2824 B(  1-Au, 14-Mn) :   0.2046
B(  2-Au,  3-Au) :   0.2842 B(  2-Au,  5-Au) :   0.3217 B(  2-Au, 11-Au) :   0.3027
B(  2-Au, 14-Mn) :   0.1057 B(  3-Au, 11-Au) :   0.2190 B(  3-Au, 12-Au) :   0.3082
B(  3-Au, 13-Au) :   0.1891 B(  3-Au, 14-Mn) :   0.2078 B(  4-Au,  5-Au) :   0.2801
B(  4-Au,  6-Au) :   0.2414 B(  4-Au,  8-Au) :   0.2900 B(  4-Au, 14-Mn) :   0.4716
B(  5-Au,  6-Au) :   0.2664 B(  5-Au, 14-Mn) :   0.1403 B(  6-Au,  7-Au) :   0.2389
B(  6-Au, 14-Mn) :   0.3807 B(  7-Au, 13-Au) :   0.2906 B(  7-Au, 14-Mn) :   0.4332
B(  8-Au,  9-Au) :   0.2532 B(  8-Au, 10-Au) :   0.2414 B(  8-Au, 14-Mn) :   0.4293
B(  9-Au, 10-Au) :   0.1978 B(  9-Au, 11-Au) :   0.3439 B(  9-Au, 12-Au) :   0.2073
B(  9-Au, 14-Mn) :   0.5052 B( 10-Au, 12-Au) :   0.2670 B( 10-Au, 13-Au) :   0.2400
B( 10-Au, 14-Mn) :   0.3815 B( 11-Au, 12-Au) :   0.3246 B( 11-Au, 14-Mn) :   0.1073
B( 12-Au, 13-Au) :   0.2766 B( 12-Au, 14-Mn) :   0.1417 B( 13-Au, 14-Mn) :   0.4740

FINAL SINGLE POINT ENERGY     -3052.346285370666

DIPOLE MOMENT
-------------
                                X             Y             Z
Electronic contribution:    -34.06966      -6.69781       8.79724
Nuclear contribution   :     34.59160       6.79575      -8.92674
                        -----------------------------------------
Total Dipole Moment    :      0.52195       0.09794      -0.12950
                        -----------------------------------------
Magnitude (a.u.)       :      0.54662
Magnitude (Debye)      :      1.38939

Rotational constants in cm-1:     0.001103     0.000984     0.000957
Rotational constants in MHz :    33.053456    29.495510    28.697447

                             ****ORCA TERMINATED NORMALLY****
TOTAL RUN TIME: 0 days 0 hours 6 minutes 6 seconds 195 msec
