                         Program Version 5.0.3 -  RELEASE  -
|  1> !R2SCAN def2-TZVP VERYSLOWCONV
|  2> !KDIIS
|  3> %scf
|  4>   AutoTRAHIter 200
|  5>   maxiter 400
|  6> end
|  7>
|  8> %pal nprocs 6 end
|  9>
| 10> *xyzfile 0 6 pbe.xyz
| 11>
| 12> $new_job
| 13>
| 14> !R2SCAN def2-TZVP VERYSLOWCONV
| 15> !KDIIS
| 16> %scf
| 17>   AutoTRAHIter 200
| 18>   maxiter 400
| 19> end
| 20>
| 21>
| 22> %pal nprocs 6 end
| 23>
| 24> *xyzfile 0 4 pbe.xyz
| 25>
| 26>
| 27>
| 28>
| 29>
| 30>                          ****END OF INPUT****
 Total Charge           Charge          ....    0
 Multiplicity           Mult            ....    6
 Number of Electrons    NEL             ....  291
FINAL SINGLE POINT ENERGY     -3052.873225297828

CARTESIAN COORDINATES (ANGSTROEM)
---------------------------------
  Au     6.660335    8.755551    5.997116
  Au     6.483308    4.922548    7.873563
  Au     4.806663    7.130805    7.111022
  Au     5.837835    9.291813    8.569310
  Au     8.924034    5.135554    6.392931
  Au     6.498302    5.919715    5.295060
  Au     8.764176    7.443804    4.738932
  Au     9.184835    9.846622    6.076790
  Au    10.578068    5.805516    8.427982
  Au     8.187450    5.945035    9.781622
  Au    10.034161    8.017811   10.019368
  Au     5.599389    6.724497    9.830822
  Au     7.408497    8.602180   10.737484
  Au     8.583563   10.085586    8.707140
  Mn     8.629877    7.588111    7.581091

 Multiplicity           Mult            ....    4
 Number of Electrons    NEL             ....  291
 Basis Dimension        Dim             ....  605

ORBITAL ENERGIES
----------------
                 SPIN UP ORBITALS
  NO   OCC          E(Eh)            E(eV)
   0   1.0000    -235.063417     -6396.4008
   1   1.0000     -27.241013      -741.2657
   2   1.0000     -23.288757      -633.7193
   3   1.0000     -23.287419      -633.6829
   4   1.0000     -23.286369      -633.6543
   5   1.0000      -4.130012      -112.3833
   6   1.0000      -4.129872      -112.3795
   7   1.0000      -4.127120      -112.3046
   8   1.0000      -4.126769      -112.2951
   9   1.0000      -4.122736      -112.1854
  10   1.0000      -4.122605      -112.1818
  11   1.0000      -4.120641      -112.1284
  12   1.0000      -4.120154      -112.1151
  13   1.0000      -4.116602      -112.0184
  14   1.0000      -4.116321      -112.0108
  15   1.0000      -4.111716      -111.8855
  16   1.0000      -4.111071      -111.8679
  17   1.0000      -4.110849      -111.8619
  18   1.0000      -4.110592      -111.8549
  19   1.0000      -3.264600       -88.8343
  20   1.0000      -2.318340       -63.0852
  21   1.0000      -2.318178       -63.0808
  22   1.0000      -2.315761       -63.0151
  23   1.0000      -2.315640       -63.0118
  24   1.0000      -2.315331       -63.0033
  25   1.0000      -2.314900       -62.9916
  26   1.0000      -2.314778       -62.9883
  27   1.0000      -2.314414       -62.9784
  28   1.0000      -2.313877       -62.9638
  29   1.0000      -2.313757       -62.9605
  30   1.0000      -2.310525       -62.8726
  31   1.0000      -2.310257       -62.8653
  32   1.0000      -2.309949       -62.8569
  33   1.0000      -2.309888       -62.8553
  34   1.0000      -2.308821       -62.8262
  35   1.0000      -2.308736       -62.8239
  36   1.0000      -2.307940       -62.8022
  37   1.0000      -2.307521       -62.7908
  38   1.0000      -2.306152       -62.7536
  39   1.0000      -2.305945       -62.7479
  40   1.0000      -2.305846       -62.7453
  41   1.0000      -2.305458       -62.7347
  42   1.0000      -2.303860       -62.6912
  43   1.0000      -2.303514       -62.6818
  44   1.0000      -2.303438       -62.6797
  45   1.0000      -2.303247       -62.6745
  46   1.0000      -2.302054       -62.6421
  47   1.0000      -2.301596       -62.6296
  48   1.0000      -2.300138       -62.5899
  49   1.0000      -2.299935       -62.5844
  50   1.0000      -2.299620       -62.5758
  51   1.0000      -2.299161       -62.5634
  52   1.0000      -2.298440       -62.5437
  53   1.0000      -2.297726       -62.5243
  54   1.0000      -2.297029       -62.5053
  55   1.0000      -2.296776       -62.4984
  56   1.0000      -2.296717       -62.4968
  57   1.0000      -2.295828       -62.4727
  58   1.0000      -2.295115       -62.4533
  59   1.0000      -2.294349       -62.4324
  60   1.0000      -2.292930       -62.3938
  61   1.0000      -2.292213       -62.3743
  62   1.0000      -2.123812       -57.7919
  63   1.0000      -2.120469       -57.7009
  64   1.0000      -2.118549       -57.6487
  65   1.0000      -0.432471       -11.7681
  66   1.0000      -0.398589       -10.8462
  67   1.0000      -0.392941       -10.6925
  68   1.0000      -0.389674       -10.6036
  69   1.0000      -0.386638       -10.5210
  70   1.0000      -0.385234       -10.4827
  71   1.0000      -0.373880       -10.1738
  72   1.0000      -0.373212       -10.1556
  73   1.0000      -0.370337       -10.0774
  74   1.0000      -0.369153       -10.0452
  75   1.0000      -0.368233       -10.0201
  76   1.0000      -0.365338        -9.9414
  77   1.0000      -0.364770        -9.9259
  78   1.0000      -0.363579        -9.8935
  79   1.0000      -0.362743        -9.8707
  80   1.0000      -0.359420        -9.7803
  81   1.0000      -0.358886        -9.7658
  82   1.0000      -0.355161        -9.6644
  83   1.0000      -0.353711        -9.6250
  84   1.0000      -0.352465        -9.5911
  85   1.0000      -0.351197        -9.5565
  86   1.0000      -0.350321        -9.5327
  87   1.0000      -0.347394        -9.4531
  88   1.0000      -0.346354        -9.4248
  89   1.0000      -0.341896        -9.3035
  90   1.0000      -0.339358        -9.2344
  91   1.0000      -0.335225        -9.1219
  92   1.0000      -0.334858        -9.1119
  93   1.0000      -0.332888        -9.0583
  94   1.0000      -0.331623        -9.0239
  95   1.0000      -0.328306        -8.9337
  96   1.0000      -0.326542        -8.8857
  97   1.0000      -0.323310        -8.7977
  98   1.0000      -0.322365        -8.7720
  99   1.0000      -0.319618        -8.6972
 100   1.0000      -0.311570        -8.4783
 101   1.0000      -0.308091        -8.3836
 102   1.0000      -0.306059        -8.3283
 103   1.0000      -0.304940        -8.2978
 104   1.0000      -0.303151        -8.2492
 105   1.0000      -0.302285        -8.2256
 106   1.0000      -0.301905        -8.2152
 107   1.0000      -0.297469        -8.0945
 108   1.0000      -0.296995        -8.0817
 109   1.0000      -0.294587        -8.0161
 110   1.0000      -0.292158        -7.9500
 111   1.0000      -0.291579        -7.9343
 112   1.0000      -0.290349        -7.9008
 113   1.0000      -0.288005        -7.8370
 114   1.0000      -0.284909        -7.7528
 115   1.0000      -0.283471        -7.7136
 116   1.0000      -0.283330        -7.7098
 117   1.0000      -0.279799        -7.6137
 118   1.0000      -0.279385        -7.6025
 119   1.0000      -0.277307        -7.5459
 120   1.0000      -0.275471        -7.4960
 121   1.0000      -0.273593        -7.4448
 122   1.0000      -0.272842        -7.4244
 123   1.0000      -0.272683        -7.4201
 124   1.0000      -0.268546        -7.3075
 125   1.0000      -0.268452        -7.3050
 126   1.0000      -0.267382        -7.2758
 127   1.0000      -0.267212        -7.2712
 128   1.0000      -0.266524        -7.2525
 129   1.0000      -0.262572        -7.1450
 130   1.0000      -0.262525        -7.1437
 131   1.0000      -0.261765        -7.1230
 132   1.0000      -0.261419        -7.1136
 133   1.0000      -0.259370        -7.0578
 134   1.0000      -0.258807        -7.0425
 135   1.0000      -0.257419        -7.0047
 136   1.0000      -0.255843        -6.9619
 137   1.0000      -0.251829        -6.8526
 138   1.0000      -0.250572        -6.8184
 139   1.0000      -0.248905        -6.7730
 140   1.0000      -0.247565        -6.7366
 141   1.0000      -0.247196        -6.7265
 142   1.0000      -0.246498        -6.7076
 143   1.0000      -0.236214        -6.4277
 144   1.0000      -0.215870        -5.8741
 145   1.0000      -0.214704        -5.8424
 146   1.0000      -0.203155        -5.5281
 147   0.0000      -0.201614        -5.4862
 148   0.0000      -0.166490        -4.5304
 149   0.0000      -0.142376        -3.8742
 150   0.0000      -0.125691        -3.4202
 151   0.0000      -0.124167        -3.3788

                 SPIN DOWN ORBITALS
  NO   OCC          E(Eh)            E(eV)
   0   1.0000    -235.062442     -6396.3742
   1   1.0000     -27.151024      -738.8169
   2   1.0000     -23.218818      -631.8162
   3   1.0000     -23.218403      -631.8049
   4   1.0000     -23.218376      -631.8041
   5   1.0000      -4.130254      -112.3899
   6   1.0000      -4.130091      -112.3855
   7   1.0000      -4.126968      -112.3005
   8   1.0000      -4.126626      -112.2912
   9   1.0000      -4.123053      -112.1940
  10   1.0000      -4.122948      -112.1911
  11   1.0000      -4.121117      -112.1413
  12   1.0000      -4.120575      -112.1265
  13   1.0000      -4.117518      -112.0434
  14   1.0000      -4.117215      -112.0351
  15   1.0000      -4.112329      -111.9022
  16   1.0000      -4.111891      -111.8902
  17   1.0000      -4.111638      -111.8834
  18   1.0000      -4.111540      -111.8807
  19   1.0000      -3.049357       -82.9772
  20   1.0000      -2.318863       -63.0995
  21   1.0000      -2.318675       -63.0943
  22   1.0000      -2.315441       -63.0064
  23   1.0000      -2.315310       -63.0028
  24   1.0000      -2.315023       -62.9950
  25   1.0000      -2.314613       -62.9838
  26   1.0000      -2.314192       -62.9724
  27   1.0000      -2.313962       -62.9661
  28   1.0000      -2.313838       -62.9627
  29   1.0000      -2.313737       -62.9600
  30   1.0000      -2.310582       -62.8741
  31   1.0000      -2.310313       -62.8668
  32   1.0000      -2.309942       -62.8567
  33   1.0000      -2.309814       -62.8532
  34   1.0000      -2.309015       -62.8315
  35   1.0000      -2.308872       -62.8276
  36   1.0000      -2.308122       -62.8072
  37   1.0000      -2.307654       -62.7945
  38   1.0000      -2.306609       -62.7660
  39   1.0000      -2.306483       -62.7626
  40   1.0000      -2.306368       -62.7595
  41   1.0000      -2.305890       -62.7465
  42   1.0000      -2.304873       -62.7188
  43   1.0000      -2.304582       -62.7109
  44   1.0000      -2.304387       -62.7055
  45   1.0000      -2.304136       -62.6987
  46   1.0000      -2.302431       -62.6523
  47   1.0000      -2.301956       -62.6394
  48   1.0000      -2.301111       -62.6164
  49   1.0000      -2.300804       -62.6081
  50   1.0000      -2.300501       -62.5998
  51   1.0000      -2.299994       -62.5860
  52   1.0000      -2.299597       -62.5752
  53   1.0000      -2.298714       -62.5512
  54   1.0000      -2.298167       -62.5363
  55   1.0000      -2.297708       -62.5238
  56   1.0000      -2.297568       -62.5200
  57   1.0000      -2.296687       -62.4960
  58   1.0000      -2.295572       -62.4657
  59   1.0000      -2.294809       -62.4449
  60   1.0000      -2.293619       -62.4125
  61   1.0000      -2.292907       -62.3932
  62   1.0000      -1.907601       -51.9085
  63   1.0000      -1.907263       -51.8993
  64   1.0000      -1.905700       -51.8567
  65   1.0000      -0.428357       -11.6562
  66   1.0000      -0.400915       -10.9095
  67   1.0000      -0.390259       -10.6195
  68   1.0000      -0.386584       -10.5195
  69   1.0000      -0.383872       -10.4457
  70   1.0000      -0.375359       -10.2140
  71   1.0000      -0.373127       -10.1533
  72   1.0000      -0.372252       -10.1295
  73   1.0000      -0.371036       -10.0964
  74   1.0000      -0.369317       -10.0496
  75   1.0000      -0.368586       -10.0297
  76   1.0000      -0.364838        -9.9277
  77   1.0000      -0.364099        -9.9076
  78   1.0000      -0.362173        -9.8552
  79   1.0000      -0.361469        -9.8361
  80   1.0000      -0.360012        -9.7964
  81   1.0000      -0.358072        -9.7436
  82   1.0000      -0.355717        -9.6795
  83   1.0000      -0.352519        -9.5925
  84   1.0000      -0.349157        -9.5011
  85   1.0000      -0.348536        -9.4841
  86   1.0000      -0.347132        -9.4459
  87   1.0000      -0.346591        -9.4312
  88   1.0000      -0.343122        -9.3368
  89   1.0000      -0.337426        -9.1818
  90   1.0000      -0.336264        -9.1502
  91   1.0000      -0.335657        -9.1337
  92   1.0000      -0.334279        -9.0962
  93   1.0000      -0.329207        -8.9582
  94   1.0000      -0.326820        -8.8932
  95   1.0000      -0.326308        -8.8793
  96   1.0000      -0.323175        -8.7940
  97   1.0000      -0.319610        -8.6970
  98   1.0000      -0.317777        -8.6471
  99   1.0000      -0.313368        -8.5272
 100   1.0000      -0.306444        -8.3388
 101   1.0000      -0.305814        -8.3216
 102   1.0000      -0.305425        -8.3110
 103   1.0000      -0.303503        -8.2587
 104   1.0000      -0.302924        -8.2430
 105   1.0000      -0.299346        -8.1456
 106   1.0000      -0.296806        -8.0765
 107   1.0000      -0.293706        -7.9921
 108   1.0000      -0.293482        -7.9861
 109   1.0000      -0.293360        -7.9827
 110   1.0000      -0.289258        -7.8711
 111   1.0000      -0.287345        -7.8191
 112   1.0000      -0.284610        -7.7446
 113   1.0000      -0.284342        -7.7373
 114   1.0000      -0.281551        -7.6614
 115   1.0000      -0.280804        -7.6411
 116   1.0000      -0.279696        -7.6109
 117   1.0000      -0.278919        -7.5898
 118   1.0000      -0.275914        -7.5080
 119   1.0000      -0.274843        -7.4789
 120   1.0000      -0.272880        -7.4254
 121   1.0000      -0.270880        -7.3710
 122   1.0000      -0.269545        -7.3347
 123   1.0000      -0.268914        -7.3175
 124   1.0000      -0.266663        -7.2563
 125   1.0000      -0.265436        -7.2229
 126   1.0000      -0.263794        -7.1782
 127   1.0000      -0.262720        -7.1490
 128   1.0000      -0.261600        -7.1185
 129   1.0000      -0.260322        -7.0837
 130   1.0000      -0.259791        -7.0693
 131   1.0000      -0.257671        -7.0116
 132   1.0000      -0.257026        -6.9940
 133   1.0000      -0.253281        -6.8921
 134   1.0000      -0.250285        -6.8106
 135   1.0000      -0.249529        -6.7900
 136   1.0000      -0.249010        -6.7759
 137   1.0000      -0.248931        -6.7738
 138   1.0000      -0.237976        -6.4756
 139   1.0000      -0.223827        -6.0906
 140   1.0000      -0.221442        -6.0257
 141   1.0000      -0.218378        -5.9424
 142   1.0000      -0.209623        -5.7041
 143   1.0000      -0.177905        -4.8410
 144   0.0000      -0.141479        -3.8498
 145   0.0000      -0.134105        -3.6492
 146   0.0000      -0.132537        -3.6065
 147   0.0000      -0.128492        -3.4964
 148   0.0000      -0.128215        -3.4889

MULLIKEN ATOMIC CHARGES AND SPIN POPULATIONS
--------------------------------------------
   0 Au:   -0.156475   -0.153827
   1 Au:    0.028454   -0.029370
   2 Au:    0.105952   -0.158734
   3 Au:    0.032226   -0.046318
   4 Au:    0.169191   -0.164413
   5 Au:    0.111241    0.004698
   6 Au:    0.222732   -0.138377
   7 Au:    0.277140   -0.051278
   8 Au:    0.276796   -0.055899
   9 Au:   -0.156867   -0.157012
  10 Au:    0.227563   -0.146027
  11 Au:    0.101915   -0.161232
  12 Au:    0.110038    0.005170
  13 Au:    0.167441   -0.149534
  14 Mn:   -1.517347    4.402153
Sum of atomic charges         :   -0.0000000

LOEWDIN ATOMIC CHARGES AND SPIN POPULATIONS
-------------------------------------------
   0 Au:   -0.037385   -0.086337
   1 Au:   -0.012292   -0.072211
   2 Au:   -0.018484   -0.127241
   3 Au:   -0.011000   -0.078317
   4 Au:    0.011835   -0.103886
   5 Au:    0.002220   -0.048848
   6 Au:    0.047973   -0.118993
   7 Au:    0.096416   -0.118482
   8 Au:    0.098453   -0.125433
   9 Au:   -0.037182   -0.087381
  10 Au:    0.048090   -0.120686
  11 Au:   -0.019046   -0.129117
  12 Au:    0.003206   -0.051253
  13 Au:    0.011711   -0.098794
  14 Mn:   -0.184516    4.366979

  Mayer bond orders larger than 0.100000
B(  0-Au,  2-Au) :   0.3304 B(  0-Au,  3-Au) :   0.3329 B(  0-Au,  5-Au) :   0.1858
B(  0-Au,  6-Au) :   0.1780 B(  0-Au,  7-Au) :   0.2368 B(  0-Au, 14-Mn) :   0.4816
B(  1-Au,  2-Au) :   0.1965 B(  1-Au,  4-Au) :   0.1697 B(  1-Au,  5-Au) :   0.2993
B(  1-Au,  9-Au) :   0.3301 B(  1-Au, 11-Au) :   0.2678 B(  1-Au, 14-Mn) :   0.1908
B(  2-Au,  3-Au) :   0.2705 B(  2-Au,  5-Au) :   0.3070 B(  2-Au, 11-Au) :   0.2881
B(  3-Au, 11-Au) :   0.1995 B(  3-Au, 12-Au) :   0.2992 B(  3-Au, 13-Au) :   0.1678
B(  3-Au, 14-Mn) :   0.1931 B(  4-Au,  5-Au) :   0.2706 B(  4-Au,  6-Au) :   0.2365
B(  4-Au,  8-Au) :   0.2837 B(  4-Au, 14-Mn) :   0.4585 B(  5-Au,  6-Au) :   0.2474
B(  5-Au, 14-Mn) :   0.1325 B(  6-Au,  7-Au) :   0.2266 B(  6-Au, 14-Mn) :   0.3702
B(  7-Au, 13-Au) :   0.2852 B(  7-Au, 14-Mn) :   0.4343 B(  8-Au,  9-Au) :   0.2381
B(  8-Au, 10-Au) :   0.2295 B(  8-Au, 14-Mn) :   0.4299 B(  9-Au, 10-Au) :   0.1743
B(  9-Au, 11-Au) :   0.3303 B(  9-Au, 12-Au) :   0.1849 B(  9-Au, 14-Mn) :   0.4846
B( 10-Au, 12-Au) :   0.2480 B( 10-Au, 13-Au) :   0.2354 B( 10-Au, 14-Mn) :   0.3703
B( 11-Au, 12-Au) :   0.3108 B( 12-Au, 13-Au) :   0.2657 B( 12-Au, 14-Mn) :   0.1339
B( 13-Au, 14-Mn) :   0.4622

FINAL SINGLE POINT ENERGY     -3052.847589875327

DIPOLE MOMENT
-------------
                                X             Y             Z
Electronic contribution:    -34.01255      -6.68824       8.78326
Nuclear contribution   :     34.59160       6.79575      -8.92674
                        -----------------------------------------
Total Dipole Moment    :      0.57905       0.10751      -0.14347
                        -----------------------------------------
Magnitude (a.u.)       :      0.60617
Magnitude (Debye)      :      1.54077

Rotational constants in cm-1:     0.001103     0.000984     0.000957
Rotational constants in MHz :    33.053456    29.495510    28.697447

                             ****ORCA TERMINATED NORMALLY****
TOTAL RUN TIME: 0 days 0 hours 9 minutes 55 seconds 711 msec
