                         Program Version 5.0.3 -  RELEASE  -
|  1> !RI-B2PLYP def2-TZVP def2-TZVP/C
|  2> !RIJCOSX
|  3> %pal nprocs 16 end
|  4>
|  5> *xyzfile 0 5 pbe.xyz
|  6>
|  7> $new_job
|  8>
|  9> !RI-B2PLYP def2-TZVP def2-TZVP/C
| 10> !RIJCOSX
| 11> %pal nprocs 16 end
| 12>
| 13> *xyzfile 0 3 pbe.xyz
| 14>
| 15>
| 16>
| 17>
| 18>
| 19>                          ****END OF INPUT****
 Total Charge           Charge          ....    0
 Multiplicity           Mult            ....    5
 Number of Electrons    NEL             ....  292
MP2 TOTAL ENERGY:    -3161.740952264 Eh
FINAL SINGLE POINT ENERGY     -3161.740952263846

CARTESIAN COORDINATES (ANGSTROEM)
---------------------------------
  Au     5.351958    7.517900    6.880027
  Au     8.837850   10.372008    5.739613
  Au     6.073943   10.276160    6.559835
  Au     7.158828    8.205903    4.903312
  Au     9.789491    7.674940    5.551541
  Au     7.698052    5.943720    6.458251
  Au     6.002180    9.341175    9.275365
  Au     9.690030    6.511274    8.461579
  Au     8.666124    8.714644   10.054581
  Au     8.115421   10.927882    8.434487
  Au     7.119025    6.409889    9.235051
  Au     4.501695    7.047858    9.447988
  Au    10.438875    9.498533    7.964135
  Au    11.945648    7.330675    7.214945
  Fe     7.919797    8.417364    7.482168

 Multiplicity           Mult            ....    3
 Number of Electrons    NEL             ....  292
 Basis Dimension        Dim             ....  605

ORBITAL ENERGIES
----------------
                 SPIN UP ORBITALS
  NO   OCC          E(Eh)            E(eV)
   0   1.0000    -258.335324     -7029.6615
   1   1.0000     -30.893901      -840.6658
   2   1.0000     -26.603651      -723.9221
   3   1.0000     -26.599617      -723.8124
   4   1.0000     -26.573517      -723.1022
   5   1.0000      -4.405894      -119.8905
   6   1.0000      -4.405332      -119.8752
   7   1.0000      -4.400168      -119.7347
   8   1.0000      -4.399974      -119.7294
   9   1.0000      -4.399690      -119.7217
  10   1.0000      -4.399339      -119.7121
  11   1.0000      -4.399213      -119.7087
  12   1.0000      -4.399146      -119.7068
  13   1.0000      -4.399009      -119.7031
  14   1.0000      -4.399001      -119.7029
  15   1.0000      -4.389537      -119.4454
  16   1.0000      -4.389244      -119.4374
  17   1.0000      -4.388456      -119.4159
  18   1.0000      -4.388330      -119.4125
  19   1.0000      -3.905970      -106.2868
  20   1.0000      -2.638549       -71.7986
  21   1.0000      -2.630574       -71.5816
  22   1.0000      -2.575501       -70.0830
  23   1.0000      -2.526727       -68.7557
  24   1.0000      -2.526212       -68.7417
  25   1.0000      -2.524371       -68.6916
  26   1.0000      -2.524037       -68.6825
  27   1.0000      -2.523939       -68.6799
  28   1.0000      -2.522337       -68.6363
  29   1.0000      -2.522098       -68.6298
  30   1.0000      -2.520542       -68.5874
  31   1.0000      -2.520105       -68.5755
  32   1.0000      -2.519232       -68.5518
  33   1.0000      -2.518887       -68.5424
  34   1.0000      -2.518826       -68.5407
  35   1.0000      -2.518611       -68.5349
  36   1.0000      -2.517821       -68.5134
  37   1.0000      -2.517789       -68.5125
  38   1.0000      -2.517437       -68.5029
  39   1.0000      -2.516762       -68.4846
  40   1.0000      -2.516578       -68.4796
  41   1.0000      -2.516357       -68.4735
  42   1.0000      -2.516077       -68.4659
  43   1.0000      -2.515995       -68.4637
  44   1.0000      -2.515715       -68.4561
  45   1.0000      -2.515196       -68.4420
  46   1.0000      -2.515078       -68.4387
  47   1.0000      -2.514201       -68.4149
  48   1.0000      -2.514099       -68.4121
  49   1.0000      -2.513553       -68.3972
  50   1.0000      -2.513385       -68.3927
  51   1.0000      -2.512311       -68.3635
  52   1.0000      -2.511999       -68.3550
  53   1.0000      -2.507921       -68.2440
  54   1.0000      -2.507619       -68.2358
  55   1.0000      -2.507241       -68.2255
  56   1.0000      -2.507121       -68.2222
  57   1.0000      -2.505009       -68.1648
  58   1.0000      -2.504746       -68.1576
  59   1.0000      -2.504428       -68.1490
  60   1.0000      -2.504095       -68.1399
  61   1.0000      -2.503877       -68.1340
  62   1.0000      -2.503852       -68.1333
  63   1.0000      -2.503705       -68.1293
  64   1.0000      -2.502123       -68.0862
  65   1.0000      -0.562877       -15.3167
  66   1.0000      -0.558237       -15.1904
  67   1.0000      -0.539784       -14.6883
  68   1.0000      -0.538494       -14.6532
  69   1.0000      -0.524976       -14.2853
  70   1.0000      -0.502294       -13.6681
  71   1.0000      -0.474888       -12.9224
  72   1.0000      -0.471435       -12.8284
  73   1.0000      -0.467805       -12.7296
  74   1.0000      -0.466514       -12.6945
  75   1.0000      -0.458214       -12.4686
  76   1.0000      -0.457917       -12.4605
  77   1.0000      -0.457359       -12.4454
  78   1.0000      -0.456048       -12.4097
  79   1.0000      -0.455667       -12.3993
  80   1.0000      -0.454287       -12.3618
  81   1.0000      -0.450475       -12.2581
  82   1.0000      -0.448550       -12.2057
  83   1.0000      -0.445908       -12.1338
  84   1.0000      -0.444882       -12.1059
  85   1.0000      -0.440770       -11.9940
  86   1.0000      -0.439067       -11.9476
  87   1.0000      -0.437429       -11.9030
  88   1.0000      -0.437021       -11.8919
  89   1.0000      -0.436468       -11.8769
  90   1.0000      -0.433564       -11.7979
  91   1.0000      -0.431593       -11.7442
  92   1.0000      -0.430982       -11.7276
  93   1.0000      -0.425319       -11.5735
  94   1.0000      -0.423790       -11.5319
  95   1.0000      -0.416735       -11.3399
  96   1.0000      -0.415428       -11.3044
  97   1.0000      -0.414989       -11.2924
  98   1.0000      -0.413544       -11.2531
  99   1.0000      -0.410256       -11.1636
 100   1.0000      -0.409367       -11.1394
 101   1.0000      -0.404402       -11.0043
 102   1.0000      -0.399911       -10.8821
 103   1.0000      -0.398257       -10.8371
 104   1.0000      -0.395834       -10.7712
 105   1.0000      -0.387314       -10.5393
 106   1.0000      -0.385130       -10.4799
 107   1.0000      -0.378082       -10.2881
 108   1.0000      -0.374478       -10.1901
 109   1.0000      -0.373590       -10.1659
 110   1.0000      -0.373419       -10.1612
 111   1.0000      -0.372229       -10.1289
 112   1.0000      -0.372146       -10.1266
 113   1.0000      -0.369342       -10.0503
 114   1.0000      -0.368693       -10.0326
 115   1.0000      -0.367519       -10.0007
 116   1.0000      -0.367237        -9.9930
 117   1.0000      -0.364580        -9.9207
 118   1.0000      -0.364330        -9.9139
 119   1.0000      -0.362584        -9.8664
 120   1.0000      -0.362270        -9.8579
 121   1.0000      -0.362231        -9.8568
 122   1.0000      -0.361645        -9.8409
 123   1.0000      -0.361430        -9.8350
 124   1.0000      -0.357075        -9.7165
 125   1.0000      -0.356835        -9.7100
 126   1.0000      -0.355935        -9.6855
 127   1.0000      -0.355692        -9.6789
 128   1.0000      -0.351867        -9.5748
 129   1.0000      -0.350961        -9.5501
 130   1.0000      -0.350394        -9.5347
 131   1.0000      -0.344996        -9.3878
 132   1.0000      -0.343080        -9.3357
 133   1.0000      -0.341943        -9.3048
 134   1.0000      -0.341762        -9.2998
 135   1.0000      -0.341377        -9.2893
 136   1.0000      -0.339914        -9.2495
 137   1.0000      -0.337713        -9.1896
 138   1.0000      -0.327689        -8.9169
 139   1.0000      -0.321583        -8.7507
 140   1.0000      -0.318478        -8.6662
 141   1.0000      -0.315794        -8.5932
 142   1.0000      -0.308689        -8.3998
 143   1.0000      -0.299058        -8.1378
 144   1.0000      -0.253216        -6.8903
 145   1.0000      -0.220155        -5.9907
 146   1.0000      -0.204046        -5.5524
 147   0.0000      -0.124334        -3.3833
 148   0.0000      -0.114712        -3.1215
 149   0.0000      -0.083560        -2.2738
 150   0.0000      -0.072276        -1.9667
 151   0.0000      -0.048076        -1.3082

                 SPIN DOWN ORBITALS
  NO   OCC          E(Eh)            E(eV)
   0   1.0000    -258.333364     -7029.6082
   1   1.0000     -30.802061      -838.1667
   2   1.0000     -26.511093      -721.4035
   3   1.0000     -26.510532      -721.3883
   4   1.0000     -26.503562      -721.1986
   5   1.0000      -4.406433      -119.9051
   6   1.0000      -4.405802      -119.8880
   7   1.0000      -4.400947      -119.7558
   8   1.0000      -4.400230      -119.7364
   9   1.0000      -4.400170      -119.7347
  10   1.0000      -4.400013      -119.7304
  11   1.0000      -4.399981      -119.7296
  12   1.0000      -4.399971      -119.7293
  13   1.0000      -4.399742      -119.7231
  14   1.0000      -4.399452      -119.7152
  15   1.0000      -4.390416      -119.4693
  16   1.0000      -4.390108      -119.4609
  17   1.0000      -4.388682      -119.4221
  18   1.0000      -4.388557      -119.4187
  19   1.0000      -3.664336       -99.7116
  20   1.0000      -2.526529       -68.7503
  21   1.0000      -2.526114       -68.7391
  22   1.0000      -2.524861       -68.7050
  23   1.0000      -2.524455       -68.6939
  24   1.0000      -2.523353       -68.6639
  25   1.0000      -2.521947       -68.6257
  26   1.0000      -2.521576       -68.6156
  27   1.0000      -2.520187       -68.5778
  28   1.0000      -2.519836       -68.5682
  29   1.0000      -2.519556       -68.5606
  30   1.0000      -2.519109       -68.5484
  31   1.0000      -2.519070       -68.5474
  32   1.0000      -2.518911       -68.5431
  33   1.0000      -2.518017       -68.5187
  34   1.0000      -2.517781       -68.5123
  35   1.0000      -2.517497       -68.5046
  36   1.0000      -2.517257       -68.4980
  37   1.0000      -2.516831       -68.4864
  38   1.0000      -2.516706       -68.4830
  39   1.0000      -2.516388       -68.4744
  40   1.0000      -2.516159       -68.4682
  41   1.0000      -2.515777       -68.4578
  42   1.0000      -2.515615       -68.4534
  43   1.0000      -2.515009       -68.4369
  44   1.0000      -2.514527       -68.4237
  45   1.0000      -2.514377       -68.4197
  46   1.0000      -2.514327       -68.4183
  47   1.0000      -2.514082       -68.4117
  48   1.0000      -2.513082       -68.3844
  49   1.0000      -2.512640       -68.3724
  50   1.0000      -2.508846       -68.2692
  51   1.0000      -2.508380       -68.2565
  52   1.0000      -2.507379       -68.2292
  53   1.0000      -2.506658       -68.2096
  54   1.0000      -2.505807       -68.1865
  55   1.0000      -2.505475       -68.1774
  56   1.0000      -2.505369       -68.1746
  57   1.0000      -2.505135       -68.1682
  58   1.0000      -2.505063       -68.1662
  59   1.0000      -2.505030       -68.1653
  60   1.0000      -2.504743       -68.1575
  61   1.0000      -2.502430       -68.0946
  62   1.0000      -2.346539       -63.8526
  63   1.0000      -2.337094       -63.5956
  64   1.0000      -2.333556       -63.4993
  65   1.0000      -0.523579       -14.2473
  66   1.0000      -0.478070       -13.0089
  67   1.0000      -0.476884       -12.9767
  68   1.0000      -0.475528       -12.9398
  69   1.0000      -0.471924       -12.8417
  70   1.0000      -0.471005       -12.8167
  71   1.0000      -0.469735       -12.7821
  72   1.0000      -0.464918       -12.6511
  73   1.0000      -0.464382       -12.6365
  74   1.0000      -0.463158       -12.6032
  75   1.0000      -0.459531       -12.5045
  76   1.0000      -0.455995       -12.4082
  77   1.0000      -0.451848       -12.2954
  78   1.0000      -0.451628       -12.2894
  79   1.0000      -0.450796       -12.2668
  80   1.0000      -0.450290       -12.2530
  81   1.0000      -0.450088       -12.2475
  82   1.0000      -0.446490       -12.1496
  83   1.0000      -0.445740       -12.1292
  84   1.0000      -0.444358       -12.0916
  85   1.0000      -0.442196       -12.0328
  86   1.0000      -0.438294       -11.9266
  87   1.0000      -0.436203       -11.8697
  88   1.0000      -0.434978       -11.8364
  89   1.0000      -0.425036       -11.5658
  90   1.0000      -0.423610       -11.5270
  91   1.0000      -0.422528       -11.4976
  92   1.0000      -0.417252       -11.3540
  93   1.0000      -0.415994       -11.3198
  94   1.0000      -0.413459       -11.2508
  95   1.0000      -0.412785       -11.2325
  96   1.0000      -0.407758       -11.0957
  97   1.0000      -0.406565       -11.0632
  98   1.0000      -0.399811       -10.8794
  99   1.0000      -0.398730       -10.8500
 100   1.0000      -0.395057       -10.7500
 101   1.0000      -0.395021       -10.7491
 102   1.0000      -0.390994       -10.6395
 103   1.0000      -0.381759       -10.3882
 104   1.0000      -0.379370       -10.3232
 105   1.0000      -0.377803       -10.2805
 106   1.0000      -0.375147       -10.2083
 107   1.0000      -0.374539       -10.1917
 108   1.0000      -0.374294       -10.1850
 109   1.0000      -0.371476       -10.1084
 110   1.0000      -0.370202       -10.0737
 111   1.0000      -0.369618       -10.0578
 112   1.0000      -0.368658       -10.0317
 113   1.0000      -0.368370       -10.0239
 114   1.0000      -0.365848        -9.9552
 115   1.0000      -0.365700        -9.9512
 116   1.0000      -0.365469        -9.9449
 117   1.0000      -0.363295        -9.8857
 118   1.0000      -0.361005        -9.8235
 119   1.0000      -0.360616        -9.8129
 120   1.0000      -0.359175        -9.7737
 121   1.0000      -0.358970        -9.7681
 122   1.0000      -0.358275        -9.7491
 123   1.0000      -0.355275        -9.6675
 124   1.0000      -0.353827        -9.6281
 125   1.0000      -0.352728        -9.5982
 126   1.0000      -0.348795        -9.4912
 127   1.0000      -0.345832        -9.4106
 128   1.0000      -0.344559        -9.3759
 129   1.0000      -0.343868        -9.3571
 130   1.0000      -0.342035        -9.3072
 131   1.0000      -0.341731        -9.2990
 132   1.0000      -0.340696        -9.2708
 133   1.0000      -0.331335        -9.0161
 134   1.0000      -0.326882        -8.8949
 135   1.0000      -0.326034        -8.8718
 136   1.0000      -0.321872        -8.7586
 137   1.0000      -0.317910        -8.6508
 138   1.0000      -0.315831        -8.5942
 139   1.0000      -0.315667        -8.5897
 140   1.0000      -0.251463        -6.8427
 141   1.0000      -0.231935        -6.3113
 142   1.0000      -0.220100        -5.9892
 143   1.0000      -0.218489        -5.9454
 144   1.0000      -0.215158        -5.8547
 145   0.0000      -0.083508        -2.2724
 146   0.0000      -0.077767        -2.1161
 147   0.0000      -0.055151        -1.5007
 148   0.0000      -0.049441        -1.3454
 149   0.0000      -0.046829        -1.2743

MULLIKEN ATOMIC CHARGES AND SPIN POPULATIONS
--------------------------------------------
   0 Au:    0.043246   -0.203658
   1 Au:    0.141335    0.050803
   2 Au:    0.141327    0.050985
   3 Au:    0.353056   -0.160199
   4 Au:    0.042732   -0.205157
   5 Au:    0.300411   -0.212083
   6 Au:    0.048541   -0.206503
   7 Au:   -0.011318    0.031150
   8 Au:    0.284129   -0.189450
   9 Au:    0.362648   -0.172734
  10 Au:   -0.012955    0.030594
  11 Au:    0.382982    0.004870
  12 Au:    0.047662   -0.207111
  13 Au:    0.385555    0.003990
  14 Fe:   -2.509351    3.384503
Sum of atomic charges         :   -0.0000000

LOEWDIN ATOMIC CHARGES AND SPIN POPULATIONS
-------------------------------------------
   0 Au:   -0.022386   -0.133923
   1 Au:    0.041358   -0.053919
   2 Au:    0.041239   -0.053737
   3 Au:    0.050107   -0.151191
   4 Au:   -0.022681   -0.134338
   5 Au:    0.088183   -0.163023
   6 Au:   -0.022241   -0.133726
   7 Au:   -0.042663   -0.050548
   8 Au:    0.088948   -0.160783
   9 Au:    0.048350   -0.150470
  10 Au:   -0.043086   -0.051103
  11 Au:    0.141689   -0.034440
  12 Au:   -0.022660   -0.133937
  13 Au:    0.143192   -0.035146
  14 Fe:   -0.467349    3.440283

  Mayer bond orders larger than 0.100000
B(  0-Au,  2-Au) :   0.1425 B(  0-Au,  3-Au) :   0.2365 B(  0-Au,  5-Au) :   0.1292
B(  0-Au,  6-Au) :   0.1788 B(  0-Au, 10-Au) :   0.1646 B(  0-Au, 11-Au) :   0.3051
B(  0-Au, 14-Fe) :   0.3421 B(  1-Au,  2-Au) :   0.1711 B(  1-Au,  3-Au) :   0.1187
B(  1-Au,  4-Au) :   0.1421 B(  1-Au,  9-Au) :   0.1330 B(  1-Au, 12-Au) :   0.1358
B(  1-Au, 14-Fe) :   0.4928 B(  2-Au,  3-Au) :   0.1186 B(  2-Au,  6-Au) :   0.1398
B(  2-Au,  9-Au) :   0.1319 B(  2-Au, 14-Fe) :   0.4932 B(  3-Au,  4-Au) :   0.2377
B(  3-Au,  5-Au) :   0.1782 B(  3-Au, 14-Fe) :   0.4359 B(  4-Au,  5-Au) :   0.1289
B(  4-Au,  7-Au) :   0.1644 B(  4-Au, 12-Au) :   0.1783 B(  4-Au, 13-Au) :   0.3044
B(  4-Au, 14-Fe) :   0.3420 B(  5-Au, 14-Fe) :   0.5431 B(  6-Au,  8-Au) :   0.1402
B(  6-Au,  9-Au) :   0.2258 B(  6-Au, 10-Au) :   0.1628 B(  6-Au, 11-Au) :   0.3040
B(  6-Au, 14-Fe) :   0.3417 B(  7-Au, 10-Au) :   0.4573 B(  7-Au, 12-Au) :   0.1627
B(  7-Au, 13-Au) :   0.3830 B(  7-Au, 14-Fe) :   0.4192 B(  8-Au,  9-Au) :   0.1769
B(  8-Au, 12-Au) :   0.1415 B(  8-Au, 14-Fe) :   0.5478 B(  9-Au, 12-Au) :   0.2284
B(  9-Au, 14-Fe) :   0.4314 B( 10-Au, 11-Au) :   0.3832 B( 10-Au, 14-Fe) :   0.4172
B( 12-Au, 13-Au) :   0.3048 B( 12-Au, 14-Fe) :   0.3427

MP2 TOTAL ENERGY:    -3161.739632183 Eh
FINAL SINGLE POINT ENERGY     -3161.739632182625

DIPOLE MOMENT
-------------
                                X             Y             Z
Electronic contribution:      1.43496      -5.77865       3.98530
Nuclear contribution   :     -1.39614       5.64648      -3.90065
                        -----------------------------------------
Total Dipole Moment    :      0.03882      -0.13216       0.08465
                        -----------------------------------------
Magnitude (a.u.)       :      0.16168
Magnitude (Debye)      :      0.41095

Rotational constants in cm-1:     0.001299     0.000949     0.000904
Rotational constants in MHz :    38.950089    28.457992    27.110945

                             ****ORCA TERMINATED NORMALLY****
TOTAL RUN TIME: 0 days 0 hours 34 minutes 17 seconds 506 msec
