                         Program Version 5.0.3 -  RELEASE  -
|  1> !PBE def2-TZVP VERYSLOWCONV
|  2>
|  3> %pal nprocs 16 end
|  4>
|  5> *xyzfile 0 5 pbe.xyz
|  6>
|  7> $new_job
|  8>
|  9> !PBE def2-TZVP VERYSLOWCONV
| 10>
| 11>
| 12> %pal nprocs 16 end
| 13>
| 14> *xyzfile 0 3 pbe.xyz
| 15>
| 16>
| 17>
| 18>
| 19>
| 20>                          ****END OF INPUT****
 Total Charge           Charge          ....    0
 Multiplicity           Mult            ....    5
 Number of Electrons    NEL             ....  292
FINAL SINGLE POINT ENERGY     -3165.079279624696

CARTESIAN COORDINATES (ANGSTROEM)
---------------------------------
  Au     5.351958    7.517900    6.880027
  Au     8.837850   10.372008    5.739613
  Au     6.073943   10.276160    6.559835
  Au     7.158828    8.205903    4.903312
  Au     9.789491    7.674940    5.551541
  Au     7.698052    5.943720    6.458251
  Au     6.002180    9.341175    9.275365
  Au     9.690030    6.511274    8.461579
  Au     8.666124    8.714644   10.054581
  Au     8.115421   10.927882    8.434487
  Au     7.119025    6.409889    9.235051
  Au     4.501695    7.047858    9.447988
  Au    10.438875    9.498533    7.964135
  Au    11.945648    7.330675    7.214945
  Fe     7.919797    8.417364    7.482168

 Multiplicity           Mult            ....    3
 Number of Electrons    NEL             ....  292
 Basis Dimension        Dim             ....  605

ORBITAL ENERGIES
----------------
                 SPIN UP ORBITALS
  NO   OCC          E(Eh)            E(eV)
   0   1.0000    -254.748463     -6932.0581
   1   1.0000     -29.583870      -805.0180
   2   1.0000     -25.525481      -694.5837
   3   1.0000     -25.522169      -694.4935
   4   1.0000     -25.511327      -694.1985
   5   1.0000      -4.034462      -109.7833
   6   1.0000      -4.033840      -109.7664
   7   1.0000      -4.030542      -109.6766
   8   1.0000      -4.030318      -109.6705
   9   1.0000      -4.028185      -109.6125
  10   1.0000      -4.027373      -109.5904
  11   1.0000      -4.026259      -109.5601
  12   1.0000      -4.026252      -109.5599
  13   1.0000      -4.026156      -109.5573
  14   1.0000      -4.026104      -109.5559
  15   1.0000      -4.019523      -109.3768
  16   1.0000      -4.019382      -109.3729
  17   1.0000      -4.019374      -109.3727
  18   1.0000      -4.019307      -109.3709
  19   1.0000      -3.360631       -91.4474
  20   1.0000      -2.250710       -61.2449
  21   1.0000      -2.249654       -61.2162
  22   1.0000      -2.249172       -61.2031
  23   1.0000      -2.248364       -61.1811
  24   1.0000      -2.247946       -61.1697
  25   1.0000      -2.245913       -61.1144
  26   1.0000      -2.245854       -61.1128
  27   1.0000      -2.245219       -61.0955
  28   1.0000      -2.244226       -61.0685
  29   1.0000      -2.243628       -61.0522
  30   1.0000      -2.242597       -61.0242
  31   1.0000      -2.242239       -61.0144
  32   1.0000      -2.242122       -61.0113
  33   1.0000      -2.241924       -61.0058
  34   1.0000      -2.241629       -60.9978
  35   1.0000      -2.241509       -60.9946
  36   1.0000      -2.240707       -60.9727
  37   1.0000      -2.240469       -60.9663
  38   1.0000      -2.239687       -60.9450
  39   1.0000      -2.239044       -60.9275
  40   1.0000      -2.238725       -60.9188
  41   1.0000      -2.238681       -60.9176
  42   1.0000      -2.238650       -60.9168
  43   1.0000      -2.238099       -60.9018
  44   1.0000      -2.237729       -60.8917
  45   1.0000      -2.237717       -60.8914
  46   1.0000      -2.237352       -60.8814
  47   1.0000      -2.236908       -60.8694
  48   1.0000      -2.236853       -60.8679
  49   1.0000      -2.236554       -60.8597
  50   1.0000      -2.234468       -60.8030
  51   1.0000      -2.234280       -60.7978
  52   1.0000      -2.233884       -60.7871
  53   1.0000      -2.233289       -60.7709
  54   1.0000      -2.231928       -60.7339
  55   1.0000      -2.231870       -60.7323
  56   1.0000      -2.231188       -60.7137
  57   1.0000      -2.230694       -60.7003
  58   1.0000      -2.230622       -60.6983
  59   1.0000      -2.230308       -60.6898
  60   1.0000      -2.230110       -60.6844
  61   1.0000      -2.229548       -60.6691
  62   1.0000      -2.186891       -59.5083
  63   1.0000      -2.179883       -59.3176
  64   1.0000      -2.157081       -58.6972
  65   1.0000      -0.440652       -11.9908
  66   1.0000      -0.391858       -10.6630
  67   1.0000      -0.389592       -10.6013
  68   1.0000      -0.386508       -10.5174
  69   1.0000      -0.378378       -10.2962
  70   1.0000      -0.376794       -10.2531
  71   1.0000      -0.376631       -10.2487
  72   1.0000      -0.371254       -10.1023
  73   1.0000      -0.369364       -10.0509
  74   1.0000      -0.361070        -9.8252
  75   1.0000      -0.353939        -9.6312
  76   1.0000      -0.351719        -9.5708
  77   1.0000      -0.350795        -9.5456
  78   1.0000      -0.349364        -9.5067
  79   1.0000      -0.348288        -9.4774
  80   1.0000      -0.345467        -9.4006
  81   1.0000      -0.344180        -9.3656
  82   1.0000      -0.341342        -9.2884
  83   1.0000      -0.340433        -9.2637
  84   1.0000      -0.339866        -9.2482
  85   1.0000      -0.337016        -9.1707
  86   1.0000      -0.333702        -9.0805
  87   1.0000      -0.333420        -9.0728
  88   1.0000      -0.331792        -9.0285
  89   1.0000      -0.325551        -8.8587
  90   1.0000      -0.322763        -8.7828
  91   1.0000      -0.320776        -8.7288
  92   1.0000      -0.318850        -8.6763
  93   1.0000      -0.317645        -8.6436
  94   1.0000      -0.314832        -8.5670
  95   1.0000      -0.309820        -8.4306
  96   1.0000      -0.306209        -8.3324
  97   1.0000      -0.305652        -8.3172
  98   1.0000      -0.303090        -8.2475
  99   1.0000      -0.300510        -8.1773
 100   1.0000      -0.298626        -8.1260
 101   1.0000      -0.296633        -8.0718
 102   1.0000      -0.295756        -8.0479
 103   1.0000      -0.294086        -8.0025
 104   1.0000      -0.293190        -7.9781
 105   1.0000      -0.287206        -7.8153
 106   1.0000      -0.283199        -7.7062
 107   1.0000      -0.282689        -7.6924
 108   1.0000      -0.280017        -7.6197
 109   1.0000      -0.276732        -7.5302
 110   1.0000      -0.275640        -7.5005
 111   1.0000      -0.273594        -7.4449
 112   1.0000      -0.273057        -7.4303
 113   1.0000      -0.271731        -7.3942
 114   1.0000      -0.269713        -7.3393
 115   1.0000      -0.269125        -7.3233
 116   1.0000      -0.268665        -7.3108
 117   1.0000      -0.266696        -7.2572
 118   1.0000      -0.266236        -7.2447
 119   1.0000      -0.265809        -7.2330
 120   1.0000      -0.265574        -7.2266
 121   1.0000      -0.263412        -7.1678
 122   1.0000      -0.262204        -7.1349
 123   1.0000      -0.261444        -7.1142
 124   1.0000      -0.259267        -7.0550
 125   1.0000      -0.258009        -7.0208
 126   1.0000      -0.257771        -7.0143
 127   1.0000      -0.254227        -6.9179
 128   1.0000      -0.253148        -6.8885
 129   1.0000      -0.252358        -6.8670
 130   1.0000      -0.251341        -6.8393
 131   1.0000      -0.250877        -6.8267
 132   1.0000      -0.249506        -6.7894
 133   1.0000      -0.248215        -6.7543
 134   1.0000      -0.246140        -6.6978
 135   1.0000      -0.245882        -6.6908
 136   1.0000      -0.245417        -6.6781
 137   1.0000      -0.244957        -6.6656
 138   1.0000      -0.244035        -6.6405
 139   1.0000      -0.243654        -6.6302
 140   1.0000      -0.240649        -6.5484
 141   1.0000      -0.234728        -6.3873
 142   1.0000      -0.233147        -6.3443
 143   1.0000      -0.232066        -6.3149
 144   1.0000      -0.214625        -5.8402
 145   1.0000      -0.201073        -5.4715
 146   1.0000      -0.188416        -5.1271
 147   0.0000      -0.185799        -5.0558
 148   0.0000      -0.180039        -4.8991
 149   0.0000      -0.143368        -3.9013
 150   0.0000      -0.136292        -3.7087
 151   0.0000      -0.119527        -3.2525

                 SPIN DOWN ORBITALS
  NO   OCC          E(Eh)            E(eV)
   0   1.0000    -254.747836     -6932.0410
   1   1.0000     -29.528746      -803.5180
   2   1.0000     -25.480560      -693.3613
   3   1.0000     -25.480190      -693.3512
   4   1.0000     -25.473377      -693.1658
   5   1.0000      -4.034669      -109.7889
   6   1.0000      -4.034024      -109.7714
   7   1.0000      -4.030316      -109.6705
   8   1.0000      -4.030091      -109.6644
   9   1.0000      -4.028274      -109.6149
  10   1.0000      -4.027462      -109.5928
  11   1.0000      -4.026787      -109.5744
  12   1.0000      -4.026779      -109.5742
  13   1.0000      -4.026692      -109.5719
  14   1.0000      -4.026639      -109.5704
  15   1.0000      -4.020424      -109.4013
  16   1.0000      -4.020269      -109.3971
  17   1.0000      -4.019575      -109.3782
  18   1.0000      -4.019501      -109.3762
  19   1.0000      -3.235847       -88.0519
  20   1.0000      -2.250228       -61.2318
  21   1.0000      -2.249687       -61.2171
  22   1.0000      -2.249236       -61.2048
  23   1.0000      -2.248906       -61.1959
  24   1.0000      -2.248440       -61.1832
  25   1.0000      -2.245860       -61.1130
  26   1.0000      -2.245470       -61.1023
  27   1.0000      -2.245108       -61.0925
  28   1.0000      -2.244035       -61.0633
  29   1.0000      -2.243518       -61.0492
  30   1.0000      -2.243130       -61.0387
  31   1.0000      -2.242840       -61.0308
  32   1.0000      -2.242698       -61.0269
  33   1.0000      -2.242474       -61.0208
  34   1.0000      -2.241239       -60.9872
  35   1.0000      -2.241199       -60.9861
  36   1.0000      -2.240949       -60.9793
  37   1.0000      -2.240846       -60.9765
  38   1.0000      -2.239858       -60.9496
  39   1.0000      -2.239225       -60.9324
  40   1.0000      -2.239140       -60.9301
  41   1.0000      -2.238998       -60.9262
  42   1.0000      -2.238942       -60.9247
  43   1.0000      -2.238433       -60.9109
  44   1.0000      -2.238087       -60.9015
  45   1.0000      -2.238068       -60.9009
  46   1.0000      -2.237940       -60.8974
  47   1.0000      -2.237458       -60.8843
  48   1.0000      -2.237403       -60.8828
  49   1.0000      -2.237100       -60.8746
  50   1.0000      -2.235499       -60.8310
  51   1.0000      -2.235303       -60.8257
  52   1.0000      -2.233537       -60.7776
  53   1.0000      -2.233035       -60.7640
  54   1.0000      -2.232625       -60.7528
  55   1.0000      -2.232570       -60.7513
  56   1.0000      -2.231593       -60.7247
  57   1.0000      -2.231455       -60.7210
  58   1.0000      -2.231384       -60.7191
  59   1.0000      -2.231233       -60.7149
  60   1.0000      -2.231154       -60.7128
  61   1.0000      -2.229748       -60.6745
  62   1.0000      -2.057281       -55.9815
  63   1.0000      -2.055437       -55.9313
  64   1.0000      -2.044683       -55.6386
  65   1.0000      -0.437360       -11.9012
  66   1.0000      -0.390678       -10.6309
  67   1.0000      -0.390284       -10.6202
  68   1.0000      -0.387681       -10.5493
  69   1.0000      -0.376227       -10.2377
  70   1.0000      -0.372215       -10.1285
  71   1.0000      -0.371660       -10.1134
  72   1.0000      -0.365077        -9.9342
  73   1.0000      -0.363654        -9.8955
  74   1.0000      -0.359794        -9.7905
  75   1.0000      -0.355662        -9.6780
  76   1.0000      -0.350629        -9.5411
  77   1.0000      -0.350121        -9.5273
  78   1.0000      -0.349605        -9.5132
  79   1.0000      -0.346733        -9.4351
  80   1.0000      -0.346114        -9.4182
  81   1.0000      -0.345238        -9.3944
  82   1.0000      -0.341111        -9.2821
  83   1.0000      -0.340860        -9.2753
  84   1.0000      -0.338975        -9.2240
  85   1.0000      -0.338438        -9.2094
  86   1.0000      -0.334748        -9.1090
  87   1.0000      -0.334272        -9.0960
  88   1.0000      -0.332229        -9.0404
  89   1.0000      -0.325665        -8.8618
  90   1.0000      -0.321948        -8.7606
  91   1.0000      -0.320788        -8.7291
  92   1.0000      -0.318911        -8.6780
  93   1.0000      -0.318525        -8.6675
  94   1.0000      -0.314202        -8.5499
  95   1.0000      -0.310902        -8.4601
  96   1.0000      -0.304683        -8.2909
  97   1.0000      -0.304374        -8.2824
  98   1.0000      -0.300699        -8.1824
  99   1.0000      -0.300562        -8.1787
 100   1.0000      -0.298299        -8.1171
 101   1.0000      -0.292084        -7.9480
 102   1.0000      -0.290739        -7.9114
 103   1.0000      -0.288267        -7.8441
 104   1.0000      -0.287195        -7.8150
 105   1.0000      -0.284848        -7.7511
 106   1.0000      -0.282627        -7.6907
 107   1.0000      -0.279211        -7.5977
 108   1.0000      -0.277511        -7.5515
 109   1.0000      -0.277242        -7.5442
 110   1.0000      -0.274631        -7.4731
 111   1.0000      -0.273206        -7.4343
 112   1.0000      -0.272688        -7.4202
 113   1.0000      -0.271381        -7.3846
 114   1.0000      -0.270425        -7.3586
 115   1.0000      -0.269557        -7.3350
 116   1.0000      -0.269343        -7.3292
 117   1.0000      -0.267389        -7.2760
 118   1.0000      -0.267024        -7.2661
 119   1.0000      -0.266187        -7.2433
 120   1.0000      -0.265984        -7.2378
 121   1.0000      -0.264373        -7.1939
 122   1.0000      -0.263035        -7.1575
 123   1.0000      -0.260991        -7.1019
 124   1.0000      -0.259768        -7.0686
 125   1.0000      -0.259582        -7.0636
 126   1.0000      -0.259034        -7.0487
 127   1.0000      -0.255364        -6.9488
 128   1.0000      -0.252210        -6.8630
 129   1.0000      -0.251937        -6.8556
 130   1.0000      -0.251842        -6.8530
 131   1.0000      -0.249189        -6.7808
 132   1.0000      -0.248912        -6.7732
 133   1.0000      -0.247364        -6.7311
 134   1.0000      -0.245310        -6.6752
 135   1.0000      -0.245085        -6.6691
 136   1.0000      -0.242660        -6.6031
 137   1.0000      -0.235258        -6.4017
 138   1.0000      -0.233607        -6.3568
 139   1.0000      -0.228575        -6.2198
 140   1.0000      -0.208695        -5.6789
 141   1.0000      -0.203425        -5.5355
 142   1.0000      -0.201135        -5.4732
 143   1.0000      -0.198754        -5.4084
 144   1.0000      -0.171571        -4.6687
 145   0.0000      -0.153748        -4.1837
 146   0.0000      -0.152702        -4.1552
 147   0.0000      -0.150457        -4.0941
 148   0.0000      -0.142300        -3.8722
 149   0.0000      -0.139537        -3.7970

MULLIKEN ATOMIC CHARGES AND SPIN POPULATIONS
--------------------------------------------
   0 Au:    0.064271   -0.131158
   1 Au:    0.202947    0.056074
   2 Au:    0.202622    0.056274
   3 Au:    0.380563   -0.090234
   4 Au:    0.063881   -0.131892
   5 Au:    0.335128   -0.113553
   6 Au:    0.068003   -0.133712
   7 Au:    0.026697    0.064648
   8 Au:    0.320950   -0.093330
   9 Au:    0.389373   -0.103172
  10 Au:    0.024928    0.064587
  11 Au:    0.414618   -0.056429
  12 Au:    0.068257   -0.134086
  13 Au:    0.416212   -0.058138
  14 Fe:   -2.978449    2.804121
Sum of atomic charges         :   -0.0000000

LOEWDIN ATOMIC CHARGES AND SPIN POPULATIONS
-------------------------------------------
   0 Au:   -0.003308   -0.096263
   1 Au:    0.069600   -0.019555
   2 Au:    0.069386   -0.019406
   3 Au:    0.079829   -0.083303
   4 Au:   -0.003797   -0.096536
   5 Au:    0.115940   -0.088626
   6 Au:   -0.003255   -0.096247
   7 Au:   -0.006097   -0.005868
   8 Au:    0.115662   -0.084682
   9 Au:    0.078831   -0.084864
  10 Au:   -0.006455   -0.006198
  11 Au:    0.119638   -0.068354
  12 Au:   -0.003551   -0.096457
  13 Au:    0.120595   -0.069688
  14 Fe:   -0.743018    2.916047

  Mayer bond orders larger than 0.100000
B(  0-Au,  2-Au) :   0.1697 B(  0-Au,  3-Au) :   0.2659 B(  0-Au,  5-Au) :   0.1598
B(  0-Au,  6-Au) :   0.1906 B(  0-Au, 10-Au) :   0.1655 B(  0-Au, 11-Au) :   0.3331
B(  0-Au, 14-Fe) :   0.3968 B(  1-Au,  2-Au) :   0.1865 B(  1-Au,  3-Au) :   0.1407
B(  1-Au,  4-Au) :   0.1697 B(  1-Au,  9-Au) :   0.1559 B(  1-Au, 12-Au) :   0.1631
B(  1-Au, 14-Fe) :   0.5224 B(  2-Au,  3-Au) :   0.1408 B(  2-Au,  6-Au) :   0.1668
B(  2-Au,  9-Au) :   0.1546 B(  2-Au, 14-Fe) :   0.5226 B(  3-Au,  4-Au) :   0.2679
B(  3-Au,  5-Au) :   0.2008 B(  3-Au, 14-Fe) :   0.4452 B(  4-Au,  5-Au) :   0.1591
B(  4-Au,  7-Au) :   0.1652 B(  4-Au, 12-Au) :   0.1895 B(  4-Au, 13-Au) :   0.3331
B(  4-Au, 14-Fe) :   0.3966 B(  5-Au,  7-Au) :   0.1045 B(  5-Au, 10-Au) :   0.1063
B(  5-Au, 14-Fe) :   0.5662 B(  6-Au,  8-Au) :   0.1718 B(  6-Au,  9-Au) :   0.2549
B(  6-Au, 10-Au) :   0.1642 B(  6-Au, 11-Au) :   0.3318 B(  6-Au, 14-Fe) :   0.3974
B(  7-Au, 10-Au) :   0.4785 B(  7-Au, 12-Au) :   0.1644 B(  7-Au, 13-Au) :   0.4046
B(  7-Au, 14-Fe) :   0.4473 B(  8-Au,  9-Au) :   0.1985 B(  8-Au, 12-Au) :   0.1722
B(  8-Au, 14-Fe) :   0.5671 B(  9-Au, 12-Au) :   0.2579 B(  9-Au, 14-Fe) :   0.4429
B( 10-Au, 11-Au) :   0.4055 B( 10-Au, 14-Fe) :   0.4454 B( 12-Au, 13-Au) :   0.3330
B( 12-Au, 14-Fe) :   0.3981

FINAL SINGLE POINT ENERGY     -3165.064929405976

DIPOLE MOMENT
-------------
                                X             Y             Z
Electronic contribution:      1.41694      -5.72456       3.95009
Nuclear contribution   :     -1.39614       5.64648      -3.90065
                        -----------------------------------------
Total Dipole Moment    :      0.02080      -0.07808       0.04944
                        -----------------------------------------
Magnitude (a.u.)       :      0.09473
Magnitude (Debye)      :      0.24077

Rotational constants in cm-1:     0.001299     0.000949     0.000904
Rotational constants in MHz :    38.950089    28.457992    27.110945

                             ****ORCA TERMINATED NORMALLY****
TOTAL RUN TIME: 0 days 0 hours 5 minutes 12 seconds 412 msec
