                         Program Version 5.0.3 -  RELEASE  -
|  1> !R2SCAN def2-TZVP VERYSLOWCONV
|  2>
|  3> %pal nprocs 16 end
|  4>
|  5> %scf
|  6>   AutoTRAHIter 100
|  7>   maxiter 400
|  8> end
|  9>
| 10> *xyzfile 0 5 pbe.xyz
| 11>
| 12> $new_job
| 13>
| 14> !R2SCAN def2-TZVP VERYSLOWCONV
| 15>
| 16>
| 17> %pal nprocs 16 end
| 18>
| 19> %scf
| 20>   AutoTRAHIter 100
| 21>   maxiter 400
| 22> end
| 23>
| 24> *xyzfile 0 3 pbe.xyz
| 25>
| 26>
| 27>
| 28>
| 29>
| 30>                          ****END OF INPUT****
 Total Charge           Charge          ....    0
 Multiplicity           Mult            ....    5
 Number of Electrons    NEL             ....  292
FINAL SINGLE POINT ENERGY     -3165.571915184229

CARTESIAN COORDINATES (ANGSTROEM)
---------------------------------
  Au     5.351958    7.517900    6.880027
  Au     8.837850   10.372008    5.739613
  Au     6.073943   10.276160    6.559835
  Au     7.158828    8.205903    4.903312
  Au     9.789491    7.674940    5.551541
  Au     7.698052    5.943720    6.458251
  Au     6.002180    9.341175    9.275365
  Au     9.690030    6.511274    8.461579
  Au     8.666124    8.714644   10.054581
  Au     8.115421   10.927882    8.434487
  Au     7.119025    6.409889    9.235051
  Au     4.501695    7.047858    9.447988
  Au    10.438875    9.498533    7.964135
  Au    11.945648    7.330675    7.214945
  Fe     7.919797    8.417364    7.482168

 Multiplicity           Mult            ....    3
 Number of Electrons    NEL             ....  292
 Basis Dimension        Dim             ....  605

ORBITAL ENERGIES
----------------
                 SPIN UP ORBITALS
  NO   OCC          E(Eh)            E(eV)
   0   1.0000    -255.631189     -6956.0783
   1   1.0000     -29.927574      -814.3707
   2   1.0000     -25.764317      -701.0827
   3   1.0000     -25.762150      -701.0237
   4   1.0000     -25.748062      -700.6404
   5   1.0000      -4.125964      -112.2732
   6   1.0000      -4.125381      -112.2573
   7   1.0000      -4.121289      -112.1460
   8   1.0000      -4.121036      -112.1391
   9   1.0000      -4.119479      -112.0967
  10   1.0000      -4.118674      -112.0748
  11   1.0000      -4.116881      -112.0260
  12   1.0000      -4.116874      -112.0258
  13   1.0000      -4.116790      -112.0236
  14   1.0000      -4.116723      -112.0217
  15   1.0000      -4.110490      -111.8521
  16   1.0000      -4.110327      -111.8477
  17   1.0000      -4.109814      -111.8337
  18   1.0000      -4.109730      -111.8314
  19   1.0000      -3.506784       -95.4244
  20   1.0000      -2.314297       -62.9752
  21   1.0000      -2.314085       -62.9695
  22   1.0000      -2.313804       -62.9618
  23   1.0000      -2.312553       -62.9278
  24   1.0000      -2.312143       -62.9166
  25   1.0000      -2.310169       -62.8629
  26   1.0000      -2.309652       -62.8488
  27   1.0000      -2.308958       -62.8299
  28   1.0000      -2.308570       -62.8194
  29   1.0000      -2.307971       -62.8031
  30   1.0000      -2.306129       -62.7530
  31   1.0000      -2.305769       -62.7432
  32   1.0000      -2.305590       -62.7383
  33   1.0000      -2.305543       -62.7370
  34   1.0000      -2.305296       -62.7303
  35   1.0000      -2.305202       -62.7277
  36   1.0000      -2.304499       -62.7086
  37   1.0000      -2.304258       -62.7021
  38   1.0000      -2.303578       -62.6835
  39   1.0000      -2.302981       -62.6673
  40   1.0000      -2.302440       -62.6526
  41   1.0000      -2.302382       -62.6510
  42   1.0000      -2.302183       -62.6456
  43   1.0000      -2.301815       -62.6356
  44   1.0000      -2.301377       -62.6237
  45   1.0000      -2.301349       -62.6229
  46   1.0000      -2.300873       -62.6099
  47   1.0000      -2.300456       -62.5986
  48   1.0000      -2.300368       -62.5962
  49   1.0000      -2.300081       -62.5884
  50   1.0000      -2.297937       -62.5300
  51   1.0000      -2.297723       -62.5242
  52   1.0000      -2.297302       -62.5128
  53   1.0000      -2.296583       -62.4932
  54   1.0000      -2.294890       -62.4471
  55   1.0000      -2.294821       -62.4452
  56   1.0000      -2.294350       -62.4324
  57   1.0000      -2.294302       -62.4311
  58   1.0000      -2.294255       -62.4299
  59   1.0000      -2.293807       -62.4177
  60   1.0000      -2.293601       -62.4121
  61   1.0000      -2.292545       -62.3833
  62   1.0000      -2.284858       -62.1742
  63   1.0000      -2.280320       -62.0507
  64   1.0000      -2.250540       -61.2403
  65   1.0000      -0.446646       -12.1539
  66   1.0000      -0.400216       -10.8904
  67   1.0000      -0.396241       -10.7823
  68   1.0000      -0.391947       -10.6654
  69   1.0000      -0.389161       -10.5896
  70   1.0000      -0.388591       -10.5741
  71   1.0000      -0.384898       -10.4736
  72   1.0000      -0.383435       -10.4338
  73   1.0000      -0.380804       -10.3622
  74   1.0000      -0.370062       -10.0699
  75   1.0000      -0.362984        -9.8773
  76   1.0000      -0.361514        -9.8373
  77   1.0000      -0.360611        -9.8127
  78   1.0000      -0.358978        -9.7683
  79   1.0000      -0.358091        -9.7441
  80   1.0000      -0.354653        -9.6506
  81   1.0000      -0.354017        -9.6333
  82   1.0000      -0.350716        -9.5435
  83   1.0000      -0.350163        -9.5284
  84   1.0000      -0.349926        -9.5220
  85   1.0000      -0.345847        -9.4110
  86   1.0000      -0.342704        -9.3254
  87   1.0000      -0.342472        -9.3191
  88   1.0000      -0.340846        -9.2749
  89   1.0000      -0.334403        -9.0996
  90   1.0000      -0.332603        -9.0506
  91   1.0000      -0.329571        -8.9681
  92   1.0000      -0.328055        -8.9268
  93   1.0000      -0.326243        -8.8775
  94   1.0000      -0.324560        -8.8317
  95   1.0000      -0.318771        -8.6742
  96   1.0000      -0.316978        -8.6254
  97   1.0000      -0.316706        -8.6180
  98   1.0000      -0.312104        -8.4928
  99   1.0000      -0.310777        -8.4567
 100   1.0000      -0.309454        -8.4207
 101   1.0000      -0.309392        -8.4190
 102   1.0000      -0.306565        -8.3421
 103   1.0000      -0.303805        -8.2669
 104   1.0000      -0.303202        -8.2506
 105   1.0000      -0.296479        -8.0676
 106   1.0000      -0.293210        -7.9787
 107   1.0000      -0.290601        -7.9076
 108   1.0000      -0.288798        -7.8586
 109   1.0000      -0.285132        -7.7588
 110   1.0000      -0.284433        -7.7398
 111   1.0000      -0.282383        -7.6840
 112   1.0000      -0.281782        -7.6677
 113   1.0000      -0.280357        -7.6289
 114   1.0000      -0.278152        -7.5689
 115   1.0000      -0.277544        -7.5524
 116   1.0000      -0.276806        -7.5323
 117   1.0000      -0.274885        -7.4800
 118   1.0000      -0.274756        -7.4765
 119   1.0000      -0.274288        -7.4637
 120   1.0000      -0.273667        -7.4469
 121   1.0000      -0.271293        -7.3822
 122   1.0000      -0.270651        -7.3648
 123   1.0000      -0.270140        -7.3509
 124   1.0000      -0.268003        -7.2927
 125   1.0000      -0.266237        -7.2447
 126   1.0000      -0.265207        -7.2167
 127   1.0000      -0.265045        -7.2122
 128   1.0000      -0.264981        -7.2105
 129   1.0000      -0.262274        -7.1368
 130   1.0000      -0.261568        -7.1176
 131   1.0000      -0.260654        -7.0928
 132   1.0000      -0.259117        -7.0509
 133   1.0000      -0.258570        -7.0360
 134   1.0000      -0.256442        -6.9781
 135   1.0000      -0.254906        -6.9363
 136   1.0000      -0.254310        -6.9201
 137   1.0000      -0.252356        -6.8670
 138   1.0000      -0.252270        -6.8646
 139   1.0000      -0.249208        -6.7813
 140   1.0000      -0.247566        -6.7366
 141   1.0000      -0.245511        -6.6807
 142   1.0000      -0.239858        -6.5269
 143   1.0000      -0.238944        -6.5020
 144   1.0000      -0.221268        -6.0210
 145   1.0000      -0.202739        -5.5168
 146   1.0000      -0.190013        -5.1705
 147   0.0000      -0.184440        -5.0189
 148   0.0000      -0.177657        -4.8343
 149   0.0000      -0.138990        -3.7821
 150   0.0000      -0.131762        -3.5854
 151   0.0000      -0.113929        -3.1002

                 SPIN DOWN ORBITALS
  NO   OCC          E(Eh)            E(eV)
   0   1.0000    -255.630243     -6956.0525
   1   1.0000     -29.851514      -812.3010
   2   1.0000     -25.702393      -699.3977
   3   1.0000     -25.702166      -699.3915
   4   1.0000     -25.695934      -699.2219
   5   1.0000      -4.126319      -112.2828
   6   1.0000      -4.125710      -112.2663
   7   1.0000      -4.121102      -112.1409
   8   1.0000      -4.120847      -112.1339
   9   1.0000      -4.119770      -112.1046
  10   1.0000      -4.118953      -112.0824
  11   1.0000      -4.117707      -112.0485
  12   1.0000      -4.117696      -112.0482
  13   1.0000      -4.117614      -112.0460
  14   1.0000      -4.117548      -112.0442
  15   1.0000      -4.111544      -111.8808
  16   1.0000      -4.111371      -111.8761
  17   1.0000      -4.110075      -111.8408
  18   1.0000      -4.109991      -111.8385
  19   1.0000      -3.338445       -90.8437
  20   1.0000      -2.314271       -62.9745
  21   1.0000      -2.313858       -62.9633
  22   1.0000      -2.313679       -62.9584
  23   1.0000      -2.313136       -62.9436
  24   1.0000      -2.312692       -62.9315
  25   1.0000      -2.310225       -62.8644
  26   1.0000      -2.309501       -62.8447
  27   1.0000      -2.308634       -62.8211
  28   1.0000      -2.308303       -62.8121
  29   1.0000      -2.307720       -62.7963
  30   1.0000      -2.306885       -62.7735
  31   1.0000      -2.306516       -62.7635
  32   1.0000      -2.306353       -62.7590
  33   1.0000      -2.306185       -62.7545
  34   1.0000      -2.305147       -62.7262
  35   1.0000      -2.305107       -62.7252
  36   1.0000      -2.304715       -62.7145
  37   1.0000      -2.304686       -62.7137
  38   1.0000      -2.303675       -62.6862
  39   1.0000      -2.303264       -62.6750
  40   1.0000      -2.302870       -62.6643
  41   1.0000      -2.302790       -62.6621
  42   1.0000      -2.302730       -62.6605
  43   1.0000      -2.302236       -62.6470
  44   1.0000      -2.301910       -62.6382
  45   1.0000      -2.301871       -62.6371
  46   1.0000      -2.301655       -62.6312
  47   1.0000      -2.301185       -62.6184
  48   1.0000      -2.301169       -62.6180
  49   1.0000      -2.300849       -62.6093
  50   1.0000      -2.299181       -62.5639
  51   1.0000      -2.298955       -62.5578
  52   1.0000      -2.296826       -62.4998
  53   1.0000      -2.296291       -62.4853
  54   1.0000      -2.295777       -62.4713
  55   1.0000      -2.295714       -62.4695
  56   1.0000      -2.295341       -62.4594
  57   1.0000      -2.295124       -62.4535
  58   1.0000      -2.295037       -62.4511
  59   1.0000      -2.294931       -62.4482
  60   1.0000      -2.294739       -62.4430
  61   1.0000      -2.292912       -62.3933
  62   1.0000      -2.111975       -57.4698
  63   1.0000      -2.109830       -57.4114
  64   1.0000      -2.097706       -57.0815
  65   1.0000      -0.444452       -12.0942
  66   1.0000      -0.398027       -10.8309
  67   1.0000      -0.397733       -10.8229
  68   1.0000      -0.393692       -10.7129
  69   1.0000      -0.385108       -10.4793
  70   1.0000      -0.380712       -10.3597
  71   1.0000      -0.380262       -10.3474
  72   1.0000      -0.373869       -10.1735
  73   1.0000      -0.371852       -10.1186
  74   1.0000      -0.368744       -10.0340
  75   1.0000      -0.365346        -9.9416
  76   1.0000      -0.360389        -9.8067
  77   1.0000      -0.359519        -9.7830
  78   1.0000      -0.358816        -9.7639
  79   1.0000      -0.356040        -9.6883
  80   1.0000      -0.355902        -9.6846
  81   1.0000      -0.355025        -9.6607
  82   1.0000      -0.351329        -9.5602
  83   1.0000      -0.350268        -9.5313
  84   1.0000      -0.348538        -9.4842
  85   1.0000      -0.347695        -9.4613
  86   1.0000      -0.344177        -9.3655
  87   1.0000      -0.343593        -9.3496
  88   1.0000      -0.341454        -9.2914
  89   1.0000      -0.334541        -9.1033
  90   1.0000      -0.331418        -9.0183
  91   1.0000      -0.330149        -8.9838
  92   1.0000      -0.328182        -8.9303
  93   1.0000      -0.327559        -8.9133
  94   1.0000      -0.323346        -8.7987
  95   1.0000      -0.320162        -8.7120
  96   1.0000      -0.313887        -8.5413
  97   1.0000      -0.313587        -8.5331
  98   1.0000      -0.309579        -8.4241
  99   1.0000      -0.309277        -8.4158
 100   1.0000      -0.307309        -8.3623
 101   1.0000      -0.301207        -8.1963
 102   1.0000      -0.299637        -8.1535
 103   1.0000      -0.295984        -8.0541
 104   1.0000      -0.295536        -8.0419
 105   1.0000      -0.293362        -7.9828
 106   1.0000      -0.290593        -7.9075
 107   1.0000      -0.287387        -7.8202
 108   1.0000      -0.285858        -7.7786
 109   1.0000      -0.285546        -7.7701
 110   1.0000      -0.282803        -7.6955
 111   1.0000      -0.282035        -7.6746
 112   1.0000      -0.281490        -7.6597
 113   1.0000      -0.279536        -7.6066
 114   1.0000      -0.279236        -7.5984
 115   1.0000      -0.277996        -7.5647
 116   1.0000      -0.277665        -7.5556
 117   1.0000      -0.275913        -7.5080
 118   1.0000      -0.275583        -7.4990
 119   1.0000      -0.274451        -7.4682
 120   1.0000      -0.274174        -7.4607
 121   1.0000      -0.272584        -7.4174
 122   1.0000      -0.271585        -7.3902
 123   1.0000      -0.269059        -7.3215
 124   1.0000      -0.268507        -7.3065
 125   1.0000      -0.267718        -7.2850
 126   1.0000      -0.266289        -7.2461
 127   1.0000      -0.263479        -7.1696
 128   1.0000      -0.260351        -7.0845
 129   1.0000      -0.259848        -7.0708
 130   1.0000      -0.259654        -7.0655
 131   1.0000      -0.257360        -7.0031
 132   1.0000      -0.256487        -6.9794
 133   1.0000      -0.254073        -6.9137
 134   1.0000      -0.252846        -6.8803
 135   1.0000      -0.251474        -6.8430
 136   1.0000      -0.250088        -6.8053
 137   1.0000      -0.242543        -6.5999
 138   1.0000      -0.240343        -6.5401
 139   1.0000      -0.232484        -6.3262
 140   1.0000      -0.210246        -5.7211
 141   1.0000      -0.204035        -5.5521
 142   1.0000      -0.201617        -5.4863
 143   1.0000      -0.199315        -5.4236
 144   1.0000      -0.177043        -4.8176
 145   0.0000      -0.146135        -3.9765
 146   0.0000      -0.144874        -3.9422
 147   0.0000      -0.140810        -3.8316
 148   0.0000      -0.135610        -3.6901
 149   0.0000      -0.123950        -3.3729

MULLIKEN ATOMIC CHARGES AND SPIN POPULATIONS
--------------------------------------------
   0 Au:    0.058240   -0.159011
   1 Au:    0.164986    0.059604
   2 Au:    0.164787    0.059925
   3 Au:    0.361935   -0.107157
   4 Au:    0.058114   -0.160750
   5 Au:    0.315034   -0.139398
   6 Au:    0.062531   -0.162755
   7 Au:    0.013452    0.064170
   8 Au:    0.299491   -0.117334
   9 Au:    0.371837   -0.120921
  10 Au:    0.012264    0.064139
  11 Au:    0.375290   -0.055328
  12 Au:    0.062326   -0.162394
  13 Au:    0.377333   -0.056877
  14 Fe:   -2.697620    2.994086
Sum of atomic charges         :   -0.0000000

LOEWDIN ATOMIC CHARGES AND SPIN POPULATIONS
-------------------------------------------
   0 Au:   -0.007857   -0.112066
   1 Au:    0.059681   -0.027002
   2 Au:    0.059445   -0.026768
   3 Au:    0.075787   -0.098827
   4 Au:   -0.008305   -0.112904
   5 Au:    0.111626   -0.106996
   6 Au:   -0.007695   -0.112654
   7 Au:   -0.014296   -0.015657
   8 Au:    0.111195   -0.103252
   9 Au:    0.074859   -0.099935
  10 Au:   -0.014655   -0.015980
  11 Au:    0.117003   -0.067407
  12 Au:   -0.007992   -0.112340
  13 Au:    0.118125   -0.068658
  14 Fe:   -0.666922    3.080446

  Mayer bond orders larger than 0.100000
B(  0-Au,  2-Au) :   0.1590 B(  0-Au,  3-Au) :   0.2628 B(  0-Au,  5-Au) :   0.1531
B(  0-Au,  6-Au) :   0.1715 B(  0-Au, 10-Au) :   0.1386 B(  0-Au, 11-Au) :   0.3272
B(  0-Au, 14-Fe) :   0.3734 B(  1-Au,  2-Au) :   0.1777 B(  1-Au,  3-Au) :   0.1240
B(  1-Au,  4-Au) :   0.1593 B(  1-Au,  9-Au) :   0.1405 B(  1-Au, 12-Au) :   0.1522
B(  1-Au, 14-Fe) :   0.5080 B(  2-Au,  3-Au) :   0.1239 B(  2-Au,  6-Au) :   0.1561
B(  2-Au,  9-Au) :   0.1392 B(  2-Au, 14-Fe) :   0.5081 B(  3-Au,  4-Au) :   0.2648
B(  3-Au,  5-Au) :   0.1957 B(  3-Au, 14-Fe) :   0.4514 B(  4-Au,  5-Au) :   0.1522
B(  4-Au,  7-Au) :   0.1383 B(  4-Au, 12-Au) :   0.1704 B(  4-Au, 13-Au) :   0.3273
B(  4-Au, 14-Fe) :   0.3725 B(  5-Au, 14-Fe) :   0.5695 B(  6-Au,  8-Au) :   0.1655
B(  6-Au,  9-Au) :   0.2512 B(  6-Au, 10-Au) :   0.1374 B(  6-Au, 11-Au) :   0.3263
B(  6-Au, 14-Fe) :   0.3735 B(  7-Au, 10-Au) :   0.4853 B(  7-Au, 12-Au) :   0.1376
B(  7-Au, 13-Au) :   0.4019 B(  7-Au, 14-Fe) :   0.4353 B(  8-Au,  9-Au) :   0.1932
B(  8-Au, 12-Au) :   0.1661 B(  8-Au, 14-Fe) :   0.5701 B(  9-Au, 12-Au) :   0.2542
B(  9-Au, 14-Fe) :   0.4492 B( 10-Au, 11-Au) :   0.4029 B( 10-Au, 14-Fe) :   0.4330
B( 12-Au, 13-Au) :   0.3274 B( 12-Au, 14-Fe) :   0.3746

FINAL SINGLE POINT ENERGY     -3165.558202950258

DIPOLE MOMENT
-------------
                                X             Y             Z
Electronic contribution:      1.42153      -5.73661       3.95801
Nuclear contribution   :     -1.39614       5.64648      -3.90065
                        -----------------------------------------
Total Dipole Moment    :      0.02539      -0.09013       0.05735
                        -----------------------------------------
Magnitude (a.u.)       :      0.10981
Magnitude (Debye)      :      0.27910

Rotational constants in cm-1:     0.001299     0.000949     0.000904
Rotational constants in MHz :    38.950089    28.457992    27.110945

                             ****ORCA TERMINATED NORMALLY****
TOTAL RUN TIME: 0 days 0 hours 11 minutes 39 seconds 511 msec
