                         Program Version 5.0.3 -  RELEASE  -
|  1> %pal nprocs 1 end
|  2>
|  3> !PBE def2-TZVP OPT UNO
|  4> !SLOWCONV KDIIS
|  5>
|  6> %geom maxiter 300 end
|  7>
|  8> *xyzfile 0 5 8.xyz                           ****END OF INPUT****
 Total Charge           Charge          ....    0
 Multiplicity           Mult            ....    5
 Number of Electrons    NEL             ....  216
FINAL SINGLE POINT ENERGY     -2621.724434224183
FINAL SINGLE POINT ENERGY     -2621.726228845610
FINAL SINGLE POINT ENERGY     -2621.727932215581
FINAL SINGLE POINT ENERGY     -2621.728719876357
FINAL SINGLE POINT ENERGY     -2621.729300591056
FINAL SINGLE POINT ENERGY     -2621.730157879663
FINAL SINGLE POINT ENERGY     -2621.731059573712
FINAL SINGLE POINT ENERGY     -2621.731686568110
FINAL SINGLE POINT ENERGY     -2621.732171083874
FINAL SINGLE POINT ENERGY     -2621.732847542810
FINAL SINGLE POINT ENERGY     -2621.734595763757
FINAL SINGLE POINT ENERGY     -2621.734675334617
FINAL SINGLE POINT ENERGY     -2621.734702031836
FINAL SINGLE POINT ENERGY     -2621.734770238026
FINAL SINGLE POINT ENERGY     -2621.734786589845
FINAL SINGLE POINT ENERGY     -2621.734794989729
FINAL SINGLE POINT ENERGY     -2621.734798856251
FINAL SINGLE POINT ENERGY     -2621.734801354039
FINAL SINGLE POINT ENERGY     -2621.734802484186
                    ***********************HURRAY********************

CARTESIAN COORDINATES (ANGSTROEM)
---------------------------------
  Au    10.788500    4.506201    5.448827
  Au     7.192219    7.399365    6.254779
  Au     8.139969    5.119141    5.066326
  Au     8.753750    3.962804    7.525500
  Au     9.047262    8.799559    7.693733
  Au     7.775593    6.306510    8.752401
  Au    10.179692    5.198206    9.504697
  Au    12.781900    5.980777   10.054816
  Au    11.174281    7.831432    8.871463
  Au    12.245121    5.254140    7.489687
  Fe     9.750651    6.371215    6.988769

 Multiplicity           Mult            ....    5
 Number of Electrons    NEL             ....  216
 Basis Dimension        Dim             ....  445

ORBITAL ENERGIES
----------------
                 SPIN UP ORBITALS
  NO   OCC          E(Eh)            E(eV)
   0   1.0000    -254.764963     -6932.5071
   1   1.0000     -29.604318      -805.5745
   2   1.0000     -25.548938      -695.2220
   3   1.0000     -25.538993      -694.9513
   4   1.0000     -25.529967      -694.7057
   5   1.0000      -4.032475      -109.7292
   6   1.0000      -4.026771      -109.5740
   7   1.0000      -4.025887      -109.5499
   8   1.0000      -4.022568      -109.4596
   9   1.0000      -4.022101      -109.4469
  10   1.0000      -4.021798      -109.4387
  11   1.0000      -4.021642      -109.4345
  12   1.0000      -4.020350      -109.3993
  13   1.0000      -4.017916      -109.3330
  14   1.0000      -4.015193      -109.2590
  15   1.0000      -3.384608       -92.0999
  16   1.0000      -2.250755       -61.2462
  17   1.0000      -2.245376       -61.0998
  18   1.0000      -2.243611       -61.0518
  19   1.0000      -2.243019       -61.0357
  20   1.0000      -2.242913       -61.0328
  21   1.0000      -2.242364       -61.0178
  22   1.0000      -2.241457       -60.9931
  23   1.0000      -2.240766       -60.9743
  24   1.0000      -2.239661       -60.9443
  25   1.0000      -2.238691       -60.9179
  26   1.0000      -2.237557       -60.8870
  27   1.0000      -2.236324       -60.8535
  28   1.0000      -2.236080       -60.8468
  29   1.0000      -2.235886       -60.8415
  30   1.0000      -2.235645       -60.8350
  31   1.0000      -2.234953       -60.8162
  32   1.0000      -2.234800       -60.8120
  33   1.0000      -2.234576       -60.8059
  34   1.0000      -2.232808       -60.7578
  35   1.0000      -2.232557       -60.7510
  36   1.0000      -2.231868       -60.7322
  37   1.0000      -2.231273       -60.7160
  38   1.0000      -2.229646       -60.6717
  39   1.0000      -2.229633       -60.6714
  40   1.0000      -2.228966       -60.6533
  41   1.0000      -2.228043       -60.6281
  42   1.0000      -2.227743       -60.6200
  43   1.0000      -2.227629       -60.6169
  44   1.0000      -2.226969       -60.5989
  45   1.0000      -2.225048       -60.5466
  46   1.0000      -2.217044       -60.3288
  47   1.0000      -2.197641       -59.8009
  48   1.0000      -2.179250       -59.3004
  49   1.0000      -0.419150       -11.4056
  50   1.0000      -0.386167       -10.5081
  51   1.0000      -0.381410       -10.3787
  52   1.0000      -0.369047       -10.0423
  53   1.0000      -0.367832       -10.0092
  54   1.0000      -0.364590        -9.9210
  55   1.0000      -0.360499        -9.8097
  56   1.0000      -0.354859        -9.6562
  57   1.0000      -0.353055        -9.6071
  58   1.0000      -0.342213        -9.3121
  59   1.0000      -0.339764        -9.2455
  60   1.0000      -0.338441        -9.2094
  61   1.0000      -0.330257        -8.9868
  62   1.0000      -0.326498        -8.8845
  63   1.0000      -0.326156        -8.8752
  64   1.0000      -0.323374        -8.7995
  65   1.0000      -0.322772        -8.7831
  66   1.0000      -0.321973        -8.7613
  67   1.0000      -0.318130        -8.6567
  68   1.0000      -0.315464        -8.5842
  69   1.0000      -0.313321        -8.5259
  70   1.0000      -0.312021        -8.4905
  71   1.0000      -0.306966        -8.3530
  72   1.0000      -0.305160        -8.3038
  73   1.0000      -0.301438        -8.2025
  74   1.0000      -0.298353        -8.1186
  75   1.0000      -0.294178        -8.0050
  76   1.0000      -0.291694        -7.9374
  77   1.0000      -0.286600        -7.7988
  78   1.0000      -0.286493        -7.7959
  79   1.0000      -0.283472        -7.7137
  80   1.0000      -0.282363        -7.6835
  81   1.0000      -0.279504        -7.6057
  82   1.0000      -0.277585        -7.5535
  83   1.0000      -0.275235        -7.4895
  84   1.0000      -0.273438        -7.4406
  85   1.0000      -0.269096        -7.3225
  86   1.0000      -0.268898        -7.3171
  87   1.0000      -0.268305        -7.3009
  88   1.0000      -0.267810        -7.2875
  89   1.0000      -0.266330        -7.2472
  90   1.0000      -0.264484        -7.1970
  91   1.0000      -0.263758        -7.1772
  92   1.0000      -0.259179        -7.0526
  93   1.0000      -0.258063        -7.0223
  94   1.0000      -0.257624        -7.0103
  95   1.0000      -0.254697        -6.9307
  96   1.0000      -0.253010        -6.8847
  97   1.0000      -0.251463        -6.8427
  98   1.0000      -0.250208        -6.8085
  99   1.0000      -0.249387        -6.7862
 100   1.0000      -0.244884        -6.6636
 101   1.0000      -0.244506        -6.6533
 102   1.0000      -0.241047        -6.5592
 103   1.0000      -0.240545        -6.5456
 104   1.0000      -0.239936        -6.5290
 105   1.0000      -0.237566        -6.4645
 106   1.0000      -0.229735        -6.2514
 107   1.0000      -0.224809        -6.1174
 108   1.0000      -0.208706        -5.6792
 109   1.0000      -0.187388        -5.0991
 110   0.0000      -0.150942        -4.1073
 111   0.0000      -0.146499        -3.9864
 112   0.0000      -0.145032        -3.9465
 113   0.0000      -0.116451        -3.1688
 114   0.0000      -0.106601        -2.9008

                 SPIN DOWN ORBITALS
  NO   OCC          E(Eh)            E(eV)
   0   1.0000    -254.764216     -6932.4868
   1   1.0000     -29.543694      -803.9248
   2   1.0000     -25.498567      -693.8513
   3   1.0000     -25.493470      -693.7126
   4   1.0000     -25.488502      -693.5774
   5   1.0000      -4.031728      -109.7089
   6   1.0000      -4.026169      -109.5576
   7   1.0000      -4.025336      -109.5350
   8   1.0000      -4.021476      -109.4299
   9   1.0000      -4.021295      -109.4250
  10   1.0000      -4.021165      -109.4215
  11   1.0000      -4.020478      -109.4028
  12   1.0000      -4.019702      -109.3817
  13   1.0000      -4.017038      -109.3092
  14   1.0000      -4.014633      -109.2437
  15   1.0000      -3.246848       -88.3512
  16   1.0000      -2.249877       -61.2223
  17   1.0000      -2.244100       -61.0651
  18   1.0000      -2.242767       -61.0288
  19   1.0000      -2.242311       -61.0164
  20   1.0000      -2.241792       -61.0023
  21   1.0000      -2.241118       -60.9839
  22   1.0000      -2.240521       -60.9677
  23   1.0000      -2.240107       -60.9564
  24   1.0000      -2.239090       -60.9287
  25   1.0000      -2.238054       -60.9006
  26   1.0000      -2.236469       -60.8574
  27   1.0000      -2.235833       -60.8401
  28   1.0000      -2.235148       -60.8215
  29   1.0000      -2.234711       -60.8096
  30   1.0000      -2.234405       -60.8013
  31   1.0000      -2.234016       -60.7907
  32   1.0000      -2.233781       -60.7843
  33   1.0000      -2.233079       -60.7652
  34   1.0000      -2.232155       -60.7400
  35   1.0000      -2.231586       -60.7245
  36   1.0000      -2.231359       -60.7184
  37   1.0000      -2.230539       -60.6961
  38   1.0000      -2.229212       -60.6599
  39   1.0000      -2.228916       -60.6519
  40   1.0000      -2.228008       -60.6272
  41   1.0000      -2.227230       -60.6060
  42   1.0000      -2.227108       -60.6027
  43   1.0000      -2.226864       -60.5960
  44   1.0000      -2.226250       -60.5793
  45   1.0000      -2.224558       -60.5333
  46   1.0000      -2.068785       -56.2945
  47   1.0000      -2.063668       -56.1553
  48   1.0000      -2.056988       -55.9735
  49   1.0000      -0.414364       -11.2754
  50   1.0000      -0.382953       -10.4207
  51   1.0000      -0.373762       -10.1706
  52   1.0000      -0.366521        -9.9736
  53   1.0000      -0.359724        -9.7886
  54   1.0000      -0.358568        -9.7571
  55   1.0000      -0.353960        -9.6317
  56   1.0000      -0.348679        -9.4880
  57   1.0000      -0.345248        -9.3947
  58   1.0000      -0.337418        -9.1816
  59   1.0000      -0.335776        -9.1369
  60   1.0000      -0.329707        -8.9718
  61   1.0000      -0.327588        -8.9141
  62   1.0000      -0.324747        -8.8368
  63   1.0000      -0.323478        -8.8023
  64   1.0000      -0.321808        -8.7568
  65   1.0000      -0.317578        -8.6417
  66   1.0000      -0.316029        -8.5996
  67   1.0000      -0.313130        -8.5207
  68   1.0000      -0.311562        -8.4780
  69   1.0000      -0.307044        -8.3551
  70   1.0000      -0.305720        -8.3191
  71   1.0000      -0.299119        -8.1394
  72   1.0000      -0.297201        -8.0872
  73   1.0000      -0.293931        -7.9983
  74   1.0000      -0.292175        -7.9505
  75   1.0000      -0.287468        -7.8224
  76   1.0000      -0.286549        -7.7974
  77   1.0000      -0.284979        -7.7547
  78   1.0000      -0.283895        -7.7252
  79   1.0000      -0.279191        -7.5972
  80   1.0000      -0.277437        -7.5494
  81   1.0000      -0.276485        -7.5235
  82   1.0000      -0.273419        -7.4401
  83   1.0000      -0.271846        -7.3973
  84   1.0000      -0.268980        -7.3193
  85   1.0000      -0.267032        -7.2663
  86   1.0000      -0.266778        -7.2594
  87   1.0000      -0.265752        -7.2315
  88   1.0000      -0.261472        -7.1150
  89   1.0000      -0.259658        -7.0656
  90   1.0000      -0.257699        -7.0123
  91   1.0000      -0.257328        -7.0022
  92   1.0000      -0.256400        -6.9770
  93   1.0000      -0.252085        -6.8596
  94   1.0000      -0.249946        -6.8014
  95   1.0000      -0.249490        -6.7890
  96   1.0000      -0.246392        -6.7047
  97   1.0000      -0.244074        -6.6416
  98   1.0000      -0.241589        -6.5740
  99   1.0000      -0.239176        -6.5083
 100   1.0000      -0.236081        -6.4241
 101   1.0000      -0.230298        -6.2667
 102   1.0000      -0.228258        -6.2112
 103   1.0000      -0.213411        -5.8072
 104   1.0000      -0.202232        -5.5030
 105   1.0000      -0.187333        -5.0976
 106   0.0000      -0.174798        -4.7565
 107   0.0000      -0.169107        -4.6016
 108   0.0000      -0.156850        -4.2681
 109   0.0000      -0.151846        -4.1320
 110   0.0000      -0.143747        -3.9115

MULLIKEN ATOMIC CHARGES AND SPIN POPULATIONS
--------------------------------------------
   0 Au:    0.219137    0.016194
   1 Au:    0.149522    0.096014
   2 Au:    0.142074    0.127270
   3 Au:    0.170108    0.019267
   4 Au:    0.215546    0.006379
   5 Au:    0.163295    0.017930
   6 Au:   -0.027434    0.022323
   7 Au:    0.397452    0.087591
   8 Au:   -0.054963    0.159403
   9 Au:   -0.045342    0.151067
  10 Fe:   -1.329395    3.296563
Sum of atomic charges         :   -0.0000000

LOEWDIN ATOMIC CHARGES AND SPIN POPULATIONS
-------------------------------------------
   0 Au:    0.076754    0.044129
   1 Au:    0.022197    0.069333
   2 Au:    0.025672    0.093989
   3 Au:    0.053347    0.031013
   4 Au:    0.072986    0.033910
   5 Au:    0.053613    0.028504
   6 Au:   -0.026617    0.039437
   7 Au:    0.104547    0.087041
   8 Au:   -0.020983    0.121109
   9 Au:   -0.022629    0.114039
  10 Fe:   -0.338887    3.337496

  Mayer bond orders larger than 0.100000
B(  0-Au,  2-Au) :   0.2419 B(  0-Au,  3-Au) :   0.1370 B(  0-Au,  9-Au) :   0.5151
B(  0-Au, 10-Fe) :   0.6135 B(  1-Au,  2-Au) :   0.2832 B(  1-Au,  4-Au) :   0.2545
B(  1-Au,  5-Au) :   0.2873 B(  1-Au, 10-Fe) :   0.4575 B(  2-Au,  3-Au) :   0.2828
B(  2-Au, 10-Fe) :   0.4881 B(  3-Au,  5-Au) :   0.2361 B(  3-Au,  6-Au) :   0.3758
B(  3-Au, 10-Fe) :   0.4948 B(  4-Au,  5-Au) :   0.1207 B(  4-Au,  8-Au) :   0.5140
B(  4-Au, 10-Fe) :   0.6193 B(  5-Au,  6-Au) :   0.3614 B(  5-Au, 10-Fe) :   0.5146
B(  6-Au,  7-Au) :   0.3395 B(  6-Au,  8-Au) :   0.2325 B(  6-Au,  9-Au) :   0.2309
B(  6-Au, 10-Fe) :   0.3186 B(  7-Au,  8-Au) :   0.3524 B(  7-Au,  9-Au) :   0.3546
B(  8-Au,  9-Au) :   0.1070 B(  8-Au, 10-Fe) :   0.5629 B(  9-Au, 10-Fe) :   0.5522

FINAL SINGLE POINT ENERGY     -2621.734803050577

DIPOLE MOMENT
-------------
                                X             Y             Z
Electronic contribution:      2.11884     -12.91677      25.97198
Nuclear contribution   :     -2.16580      12.70435     -25.66062
                        -----------------------------------------
Total Dipole Moment    :     -0.04696      -0.21243       0.31136
                        -----------------------------------------
Magnitude (a.u.)       :      0.37984
Magnitude (Debye)      :      0.96547

Rotational constants in cm-1:     0.002273     0.001569     0.001248
Rotational constants in MHz :    68.143328    47.038427    37.424704

                             ****ORCA TERMINATED NORMALLY****
TOTAL RUN TIME: 0 days 2 hours 24 minutes 33 seconds 237 msec
