                         Program Version 5.0.3 -  RELEASE  -
|  1> !SC-NEVPT2 def2-TZVP def2-TZVP/C
|  2> !MOREAD RIJCOSX def2/J
|  3> %maxcore 4000
|  4> %moinp "casscf.gbw"
|  5> %pal nprocs 8 end
|  6>
|  7> %casscf
|  8>  mult 5,3
|  9>  bweight 1,1
| 10>  nroots 5,45
| 11>  nel 6
| 12>  norb 5
| 13>  ptsettings
| 14>   d4tpre 1e-14 # default = 1e-10
| 15>   d3tpre 1e-14
| 16>  end
| 17>  rel
| 18>    dosoc true
| 19>    gtensor true
| 20>  end
| 21> end
| 22>
| 23>
| 24> *xyzfile 0 5 pbe.xyz
| 25>
| 26>
| 27>                          ****END OF INPUT****

CARTESIAN COORDINATES (ANGSTROEM)
---------------------------------
  Au     6.242057    7.616814    9.596161
  Au     8.992418    7.808188    9.469127
  Au     8.828230   10.483443    5.652705
  Au    11.434070    9.532791    5.989987
  Au     9.897492   10.272155    8.309779
  Au    11.534761    7.900982    8.312534
  Au     6.069878   10.425135    5.585283
  Au     7.215914    9.531898    7.903313
  Au     8.850198    5.794376    5.213794
  Au    11.503021    6.690118    5.728705
  Au     9.733958    8.278339    4.063815
  Au     7.072670    7.941412    5.077442
  Au     7.171636    6.328865    7.378391
  Au     9.896627    5.598202    7.886611
  Cr     9.274990    8.019550    6.755307

 Total Charge           Charge          ....    0
 Multiplicity           Mult            ....    5
 Number of Electrons    NEL             ....  290
 Basis Dimension        Dim             ....  605

ORBITAL ENERGIES
----------------

  NO   OCC          E(Eh)            E(eV)
   0   2.0000    -220.601279     -6002.8660
   1   2.0000     -26.454630      -719.8671
   2   2.0000     -22.383858      -609.0957
   3   2.0000     -22.382884      -609.0692
   4   2.0000     -22.382399      -609.0561
   5   2.0000      -4.722467      -128.5049
   6   2.0000      -4.715249      -128.3085
   7   2.0000      -4.714751      -128.2949
   8   2.0000      -4.713514      -128.2612
   9   2.0000      -4.711176      -128.1976
  10   2.0000      -4.710889      -128.1898
  11   2.0000      -4.710826      -128.1881
  12   2.0000      -4.710605      -128.1821
  13   2.0000      -4.709462      -128.1510
  14   2.0000      -4.706689      -128.0755
  15   2.0000      -4.706347      -128.0662
  16   2.0000      -4.705820      -128.0519
  17   2.0000      -4.703942      -128.0008
  18   2.0000      -4.703650      -127.9928
  19   2.0000      -3.496508       -95.1448
  20   2.0000      -2.760861       -75.1269
  21   2.0000      -2.760525       -75.1177
  22   2.0000      -2.757114       -75.0249
  23   2.0000      -2.754383       -74.9506
  24   2.0000      -2.754237       -74.9466
  25   2.0000      -2.753898       -74.9374
  26   2.0000      -2.751381       -74.8689
  27   2.0000      -2.751026       -74.8592
  28   2.0000      -2.750735       -74.8513
  29   2.0000      -2.750633       -74.8485
  30   2.0000      -2.750239       -74.8378
  31   2.0000      -2.749799       -74.8258
  32   2.0000      -2.749526       -74.8184
  33   2.0000      -2.748311       -74.7853
  34   2.0000      -2.748275       -74.7844
  35   2.0000      -2.748121       -74.7802
  36   2.0000      -2.747115       -74.7528
  37   2.0000      -2.747000       -74.7497
  38   2.0000      -2.746658       -74.7404
  39   2.0000      -2.746378       -74.7327
  40   2.0000      -2.746294       -74.7305
  41   2.0000      -2.746078       -74.7246
  42   2.0000      -2.745780       -74.7165
  43   2.0000      -2.744349       -74.6775
  44   2.0000      -2.744157       -74.6723
  45   2.0000      -2.743594       -74.6570
  46   2.0000      -2.743395       -74.6516
  47   2.0000      -2.743138       -74.6446
  48   2.0000      -2.743004       -74.6409
  49   2.0000      -2.742215       -74.6195
  50   2.0000      -2.741569       -74.6019
  51   2.0000      -2.740839       -74.5820
  52   2.0000      -2.740322       -74.5679
  53   2.0000      -2.740095       -74.5618
  54   2.0000      -2.739918       -74.5570
  55   2.0000      -2.739453       -74.5443
  56   2.0000      -2.739159       -74.5363
  57   2.0000      -2.738663       -74.5228
  58   2.0000      -2.737881       -74.5015
  59   2.0000      -2.737651       -74.4953
  60   2.0000      -2.737541       -74.4923
  61   2.0000      -2.737409       -74.4887
  62   2.0000      -2.252400       -61.2909
  63   2.0000      -2.251580       -61.2686
  64   2.0000      -2.251170       -61.2575
  65   2.0000      -0.578453       -15.7405
  66   2.0000      -0.556407       -15.1406
  67   2.0000      -0.551503       -15.0072
  68   2.0000      -0.549525       -14.9533
  69   2.0000      -0.548208       -14.9175
  70   2.0000      -0.545504       -14.8439
  71   2.0000      -0.542619       -14.7654
  72   2.0000      -0.541491       -14.7347
  73   2.0000      -0.541075       -14.7234
  74   2.0000      -0.539265       -14.6741
  75   2.0000      -0.538107       -14.6426
  76   2.0000      -0.536263       -14.5925
  77   2.0000      -0.536168       -14.5899
  78   2.0000      -0.533249       -14.5104
  79   2.0000      -0.532510       -14.4903
  80   2.0000      -0.529375       -14.4050
  81   2.0000      -0.529115       -14.3979
  82   2.0000      -0.527088       -14.3428
  83   2.0000      -0.524995       -14.2858
  84   2.0000      -0.524917       -14.2837
  85   2.0000      -0.523338       -14.2408
  86   2.0000      -0.519338       -14.1319
  87   2.0000      -0.512122       -13.9355
  88   2.0000      -0.511706       -13.9242
  89   2.0000      -0.510476       -13.8908
  90   2.0000      -0.501104       -13.6357
  91   2.0000      -0.496683       -13.5154
  92   2.0000      -0.496060       -13.4985
  93   2.0000      -0.495244       -13.4763
  94   2.0000      -0.490849       -13.3567
  95   2.0000      -0.486847       -13.2478
  96   2.0000      -0.486697       -13.2437
  97   2.0000      -0.483393       -13.1538
  98   2.0000      -0.483168       -13.1477
  99   2.0000      -0.477315       -12.9884
 100   2.0000      -0.474522       -12.9124
 101   2.0000      -0.470469       -12.8021
 102   2.0000      -0.463853       -12.6221
 103   2.0000      -0.461283       -12.5521
 104   2.0000      -0.461201       -12.5499
 105   2.0000      -0.460529       -12.5316
 106   2.0000      -0.457633       -12.4528
 107   2.0000      -0.456754       -12.4289
 108   2.0000      -0.454926       -12.3792
 109   2.0000      -0.452294       -12.3075
 110   2.0000      -0.450270       -12.2525
 111   2.0000      -0.448008       -12.1909
 112   2.0000      -0.445984       -12.1358
 113   2.0000      -0.443139       -12.0584
 114   2.0000      -0.442662       -12.0454
 115   2.0000      -0.440513       -11.9870
 116   2.0000      -0.439722       -11.9654
 117   2.0000      -0.438849       -11.9417
 118   2.0000      -0.438193       -11.9238
 119   2.0000      -0.437607       -11.9079
 120   2.0000      -0.436343       -11.8735
 121   2.0000      -0.436323       -11.8730
 122   2.0000      -0.433169       -11.7871
 123   2.0000      -0.429298       -11.6818
 124   2.0000      -0.426380       -11.6024
 125   2.0000      -0.426327       -11.6009
 126   2.0000      -0.421904       -11.4806
 127   2.0000      -0.421451       -11.4683
 128   2.0000      -0.421267       -11.4633
 129   2.0000      -0.418565       -11.3897
 130   2.0000      -0.418128       -11.3778
 131   2.0000      -0.412491       -11.2244
 132   2.0000      -0.408938       -11.1278
 133   2.0000      -0.404131       -10.9970
 134   2.0000      -0.396896       -10.8001
 135   2.0000      -0.389364       -10.5951
 136   2.0000      -0.361459        -9.8358
 137   2.0000      -0.354532        -9.6473
 138   2.0000      -0.345301        -9.3961
 139   2.0000      -0.262969        -7.1557
 140   2.0000      -0.242142        -6.5890
 141   2.0000      -0.223171        -6.0728
 142   1.2000      -0.166799        -4.5388
 143   1.2000      -0.171690        -4.6719
 144   1.2000      -0.172659        -4.6983
 145   1.2000      -0.161561        -4.3963
 146   1.2000      -0.143676        -3.9096
 147   0.0000      -0.020730        -0.5641
 148   0.0000       0.000469         0.0128
 149   0.0000       0.018941         0.5154
 150   0.0000       0.021325         0.5803
 151   0.0000       0.025838         0.7031

MULLIKEN ATOMIC CHARGES AND SPIN DENSITIES
------------------------------------------
   0 Au:    0.376804    0.019860
   1 Au:    0.405415    0.023324
   2 Au:    0.401821    0.023685
   3 Au:    0.617615    0.027230
   4 Au:    0.761735    0.019337
   5 Au:    0.616499    0.027961
   6 Au:    0.376498    0.020236
   7 Au:    0.104864    0.026208
   8 Au:    0.708063    0.016347
   9 Au:    0.585511    0.031995
  10 Au:    0.699304    0.019909
  11 Au:    0.396018    0.023969
  12 Au:    0.399788    0.023264
  13 Au:    0.697830    0.020751
  14 Cr:   -7.147765    2.675924
Sum of atomic charges       :    0.0000000

LOEWDIN ATOMIC CHARGES AND SPIN DENSITIES
-----------------------------------------
   0 Au:    0.205593    0.030132
   1 Au:    0.026958    0.063630
   2 Au:    0.026391    0.064028
   3 Au:    0.110026    0.068438
   4 Au:    0.152595    0.061505
   5 Au:    0.111183    0.069403
   6 Au:    0.206509    0.030891
   7 Au:   -0.041840    0.058442
   8 Au:    0.106106    0.063047
   9 Au:    0.120071    0.071242
  10 Au:    0.127784    0.065083
  11 Au:    0.045333    0.060285
  12 Au:    0.044772    0.059355
  13 Au:    0.126708    0.065630
  14 Cr:   -1.368190    2.168888

  Mayer bond orders larger than 0.100000
B(  0-Au,  1-Au) :   0.2110 B(  0-Au,  7-Au) :   0.2751 B(  0-Au, 12-Au) :   0.2066
B(  0-Au, 14-Cr) :   0.4748 B(  1-Au,  5-Au) :   0.1372 B(  1-Au,  7-Au) :   0.1540
B(  1-Au, 10-Au) :   0.1701 B(  1-Au, 12-Au) :   0.1009 B(  1-Au, 13-Au) :   0.1010
B(  1-Au, 14-Cr) :   0.3962 B(  2-Au,  3-Au) :   0.1388 B(  2-Au,  6-Au) :   0.2110
B(  2-Au,  7-Au) :   0.1528 B(  2-Au, 10-Au) :   0.1013 B(  2-Au, 11-Au) :   0.1010
B(  2-Au, 13-Au) :   0.1704 B(  2-Au, 14-Cr) :   0.4009 B(  3-Au,  5-Au) :   0.1121
B(  3-Au,  9-Au) :   0.1313 B(  3-Au, 10-Au) :   0.1103 B(  3-Au, 12-Au) :   0.1515
B(  3-Au, 14-Cr) :   0.3064 B(  4-Au,  8-Au) :   0.1751 B(  4-Au, 14-Cr) :   0.2180
B(  5-Au,  9-Au) :   0.1318 B(  5-Au, 11-Au) :   0.1512 B(  5-Au, 13-Au) :   0.1107
B(  5-Au, 14-Cr) :   0.3052 B(  6-Au,  7-Au) :   0.2740 B(  6-Au, 11-Au) :   0.2086
B(  6-Au, 14-Cr) :   0.4747 B(  7-Au,  9-Au) :   0.1066 B(  7-Au, 14-Cr) :   0.4143
B(  8-Au,  9-Au) :   0.1094 B(  8-Au, 11-Au) :   0.1134 B(  8-Au, 12-Au) :   0.1129
B(  8-Au, 14-Cr) :   0.2178 B(  9-Au, 14-Cr) :   0.3322 B( 10-Au, 14-Cr) :   0.2682
B( 11-Au, 12-Au) :   0.1016 B( 11-Au, 14-Cr) :   0.4487 B( 12-Au, 14-Cr) :   0.4491
B( 13-Au, 14-Cr) :   0.2710

FINAL SINGLE POINT ENERGY     -2937.641718327299

DIPOLE MOMENT
-------------
                                X             Y             Z
Electronic contribution:    -13.93176       5.03864       4.14768
Nuclear contribution   :     13.59860      -4.85155      -4.00732
                        -----------------------------------------
Total Dipole Moment    :     -0.33316       0.18709       0.14036
                        -----------------------------------------
Magnitude (a.u.)       :      0.40706
Magnitude (Debye)      :      1.03468

Rotational constants in cm-1:     0.001158     0.001043     0.000934
Rotational constants in MHz :    34.704580    31.265329    27.986562

                             ****ORCA TERMINATED NORMALLY****
TOTAL RUN TIME: 0 days 3 hours 18 minutes 10 seconds 520 msec
