                         Program Version 5.0.3 -  RELEASE  -
|  1> %pal nprocs 1 end
|  2>
|  3> !PBE def2-TZVP OPT UNO
|  4> !SLOWCONV KDIIS
|  5>
|  6> %geom maxiter 300 end
|  7>
|  8> *xyzfile 0 3 3.xyz                           ****END OF INPUT****
 Total Charge           Charge          ....    0
 Multiplicity           Mult            ....    3
 Number of Electrons    NEL             ....  328
FINAL SINGLE POINT ENERGY     -3217.476905459612
FINAL SINGLE POINT ENERGY     -3217.479777866701
FINAL SINGLE POINT ENERGY     -3217.480689789404
FINAL SINGLE POINT ENERGY     -3217.481405554444
FINAL SINGLE POINT ENERGY     -3217.481858279308
FINAL SINGLE POINT ENERGY     -3217.482275729493
FINAL SINGLE POINT ENERGY     -3217.482562138403
FINAL SINGLE POINT ENERGY     -3217.482790761027
FINAL SINGLE POINT ENERGY     -3217.482904628782
FINAL SINGLE POINT ENERGY     -3217.482987737617
FINAL SINGLE POINT ENERGY     -3217.483042441626
FINAL SINGLE POINT ENERGY     -3217.483081320147
FINAL SINGLE POINT ENERGY     -3217.483101737971
FINAL SINGLE POINT ENERGY     -3217.483109462104
                    ***********************HURRAY********************

CARTESIAN COORDINATES (ANGSTROEM)
---------------------------------
  Au     5.879823    5.485337    9.311747
  Au     6.423666    7.986971   10.240766
  Au     7.569675   10.500910   10.126868
  Au     5.742707    9.818213    8.168156
  Au     7.477773    9.324583    5.777173
  Au     8.088149   11.353753    7.543332
  Au     7.004002    6.709960    4.975774
  Au     4.928577    5.573144    6.653082
  Au     4.806158    8.336404    6.084204
  Au     7.701190    4.846816    7.079044
  Au    10.107974    9.671301    6.647817
  Au     9.351958    7.019334    6.463780
  Au    10.774188    7.896587    8.665704
  Au    10.245913   10.585619    9.314972
  Au     9.189922    8.391549   10.892573
  Au     8.653989    6.199183    9.308467
  Cr     6.793040    7.367896    7.619068

 Multiplicity           Mult            ....    3
 Number of Electrons    NEL             ....  328
 Basis Dimension        Dim             ....  685

ORBITAL ENERGIES
----------------
                 SPIN UP ORBITALS
  NO   OCC          E(Eh)            E(eV)
   0   1.0000    -214.501798     -5836.8907
   1   1.0000     -24.302532      -661.3055
   2   1.0000     -20.668821      -562.4272
   3   1.0000     -20.667374      -562.3878
   4   1.0000     -20.661222      -562.2204
   5   1.0000      -4.037981      -109.8790
   6   1.0000      -4.037935      -109.8778
   7   1.0000      -4.036744      -109.8454
   8   1.0000      -4.035370      -109.8080
   9   1.0000      -4.035294      -109.8059
  10   1.0000      -4.033602      -109.7599
  11   1.0000      -4.033504      -109.7572
  12   1.0000      -4.029947      -109.6604
  13   1.0000      -4.029854      -109.6579
  14   1.0000      -4.024612      -109.5153
  15   1.0000      -4.021955      -109.4430
  16   1.0000      -4.021775      -109.4381
  17   1.0000      -4.021291      -109.4249
  18   1.0000      -4.019773      -109.3836
  19   1.0000      -4.019743      -109.3828
  20   1.0000      -4.011326      -109.1537
  21   1.0000      -2.806212       -76.3609
  22   1.0000      -2.254911       -61.3592
  23   1.0000      -2.254769       -61.3554
  24   1.0000      -2.253825       -61.3297
  25   1.0000      -2.250949       -61.2514
  26   1.0000      -2.250799       -61.2474
  27   1.0000      -2.250464       -61.2382
  28   1.0000      -2.250330       -61.2346
  29   1.0000      -2.249541       -61.2131
  30   1.0000      -2.249481       -61.2115
  31   1.0000      -2.248719       -61.1908
  32   1.0000      -2.248642       -61.1887
  33   1.0000      -2.247774       -61.1651
  34   1.0000      -2.247619       -61.1608
  35   1.0000      -2.247561       -61.1592
  36   1.0000      -2.247387       -61.1545
  37   1.0000      -2.246864       -61.1403
  38   1.0000      -2.246491       -61.1301
  39   1.0000      -2.245959       -61.1156
  40   1.0000      -2.245830       -61.1121
  41   1.0000      -2.245750       -61.1100
  42   1.0000      -2.245362       -61.0994
  43   1.0000      -2.242920       -61.0329
  44   1.0000      -2.242487       -61.0212
  45   1.0000      -2.242273       -61.0154
  46   1.0000      -2.242033       -61.0088
  47   1.0000      -2.240478       -60.9665
  48   1.0000      -2.239440       -60.9383
  49   1.0000      -2.239334       -60.9354
  50   1.0000      -2.239262       -60.9334
  51   1.0000      -2.238707       -60.9183
  52   1.0000      -2.237149       -60.8759
  53   1.0000      -2.236432       -60.8564
  54   1.0000      -2.235781       -60.8387
  55   1.0000      -2.235589       -60.8335
  56   1.0000      -2.235384       -60.8279
  57   1.0000      -2.234349       -60.7997
  58   1.0000      -2.234116       -60.7934
  59   1.0000      -2.233187       -60.7681
  60   1.0000      -2.233055       -60.7645
  61   1.0000      -2.232930       -60.7611
  62   1.0000      -2.231712       -60.7280
  63   1.0000      -2.231490       -60.7219
  64   1.0000      -2.230607       -60.6979
  65   1.0000      -2.229396       -60.6649
  66   1.0000      -2.229377       -60.6644
  67   1.0000      -2.225763       -60.5661
  68   1.0000      -2.225221       -60.5513
  69   1.0000      -2.220388       -60.4198
  70   1.0000      -1.800106       -48.9834
  71   1.0000      -1.797725       -48.9186
  72   1.0000      -1.789680       -48.6997
  73   1.0000      -0.429904       -11.6983
  74   1.0000      -0.391417       -10.6510
  75   1.0000      -0.389794       -10.6068
  76   1.0000      -0.387101       -10.5336
  77   1.0000      -0.376280       -10.2391
  78   1.0000      -0.373992       -10.1768
  79   1.0000      -0.369613       -10.0577
  80   1.0000      -0.364148        -9.9090
  81   1.0000      -0.363733        -9.8977
  82   1.0000      -0.361269        -9.8306
  83   1.0000      -0.360247        -9.8028
  84   1.0000      -0.358609        -9.7583
  85   1.0000      -0.355727        -9.6798
  86   1.0000      -0.353395        -9.6164
  87   1.0000      -0.352582        -9.5942
  88   1.0000      -0.351251        -9.5580
  89   1.0000      -0.350377        -9.5343
  90   1.0000      -0.346621        -9.4320
  91   1.0000      -0.344099        -9.3634
  92   1.0000      -0.343411        -9.3447
  93   1.0000      -0.342269        -9.3136
  94   1.0000      -0.341171        -9.2837
  95   1.0000      -0.338576        -9.2131
  96   1.0000      -0.338020        -9.1980
  97   1.0000      -0.336448        -9.1552
  98   1.0000      -0.334863        -9.1121
  99   1.0000      -0.333734        -9.0814
 100   1.0000      -0.333019        -9.0619
 101   1.0000      -0.329627        -8.9696
 102   1.0000      -0.327611        -8.9147
 103   1.0000      -0.326922        -8.8960
 104   1.0000      -0.322643        -8.7796
 105   1.0000      -0.321751        -8.7553
 106   1.0000      -0.319084        -8.6827
 107   1.0000      -0.318333        -8.6623
 108   1.0000      -0.310307        -8.4439
 109   1.0000      -0.310005        -8.4357
 110   1.0000      -0.308823        -8.4035
 111   1.0000      -0.307356        -8.3636
 112   1.0000      -0.307035        -8.3548
 113   1.0000      -0.304972        -8.2987
 114   1.0000      -0.299041        -8.1373
 115   1.0000      -0.296511        -8.0685
 116   1.0000      -0.295499        -8.0409
 117   1.0000      -0.292913        -7.9706
 118   1.0000      -0.288966        -7.8632
 119   1.0000      -0.285974        -7.7817
 120   1.0000      -0.284982        -7.7548
 121   1.0000      -0.283138        -7.7046
 122   1.0000      -0.280113        -7.6222
 123   1.0000      -0.279733        -7.6119
 124   1.0000      -0.278650        -7.5824
 125   1.0000      -0.277867        -7.5611
 126   1.0000      -0.277333        -7.5466
 127   1.0000      -0.276655        -7.5282
 128   1.0000      -0.276416        -7.5217
 129   1.0000      -0.273233        -7.4351
 130   1.0000      -0.271890        -7.3985
 131   1.0000      -0.270871        -7.3708
 132   1.0000      -0.268619        -7.3095
 133   1.0000      -0.268031        -7.2935
 134   1.0000      -0.265376        -7.2212
 135   1.0000      -0.264449        -7.1960
 136   1.0000      -0.264159        -7.1881
 137   1.0000      -0.261286        -7.1100
 138   1.0000      -0.260877        -7.0988
 139   1.0000      -0.260056        -7.0765
 140   1.0000      -0.259054        -7.0492
 141   1.0000      -0.258685        -7.0392
 142   1.0000      -0.258082        -7.0228
 143   1.0000      -0.257560        -7.0086
 144   1.0000      -0.257082        -6.9955
 145   1.0000      -0.251787        -6.8515
 146   1.0000      -0.249559        -6.7908
 147   1.0000      -0.249230        -6.7819
 148   1.0000      -0.247321        -6.7299
 149   1.0000      -0.246205        -6.6996
 150   1.0000      -0.243834        -6.6351
 151   1.0000      -0.242479        -6.5982
 152   1.0000      -0.241792        -6.5795
 153   1.0000      -0.240753        -6.5512
 154   1.0000      -0.239833        -6.5262
 155   1.0000      -0.237328        -6.4580
 156   1.0000      -0.231267        -6.2931
 157   1.0000      -0.225539        -6.1372
 158   1.0000      -0.224457        -6.1078
 159   1.0000      -0.222478        -6.0539
 160   1.0000      -0.219410        -5.9704
 161   1.0000      -0.216459        -5.8901
 162   1.0000      -0.206011        -5.6058
 163   1.0000      -0.202563        -5.5120
 164   1.0000      -0.200181        -5.4472
 165   0.0000      -0.186654        -5.0791
 166   0.0000      -0.185096        -5.0367
 167   0.0000      -0.161120        -4.3843
 168   0.0000      -0.144045        -3.9197
 169   0.0000      -0.138499        -3.7688

                 SPIN DOWN ORBITALS
  NO   OCC          E(Eh)            E(eV)
   0   1.0000    -214.501385     -5836.8794
   1   1.0000     -24.256078      -660.0414
   2   1.0000     -20.635947      -561.5327
   3   1.0000     -20.632852      -561.4484
   4   1.0000     -20.622146      -561.1571
   5   1.0000      -4.037554      -109.8674
   6   1.0000      -4.037506      -109.8661
   7   1.0000      -4.036106      -109.8280
   8   1.0000      -4.035172      -109.8026
   9   1.0000      -4.035095      -109.8005
  10   1.0000      -4.033027      -109.7443
  11   1.0000      -4.032929      -109.7416
  12   1.0000      -4.029713      -109.6541
  13   1.0000      -4.029622      -109.6516
  14   1.0000      -4.024886      -109.5227
  15   1.0000      -4.022543      -109.4590
  16   1.0000      -4.022364      -109.4541
  17   1.0000      -4.020946      -109.4155
  18   1.0000      -4.020382      -109.4002
  19   1.0000      -4.020353      -109.3994
  20   1.0000      -4.012075      -109.1741
  21   1.0000      -2.680853       -72.9497
  22   1.0000      -2.254429       -61.3461
  23   1.0000      -2.254294       -61.3425
  24   1.0000      -2.253263       -61.3144
  25   1.0000      -2.250321       -61.2343
  26   1.0000      -2.250284       -61.2333
  27   1.0000      -2.249865       -61.2219
  28   1.0000      -2.249781       -61.2197
  29   1.0000      -2.248841       -61.1941
  30   1.0000      -2.248770       -61.1921
  31   1.0000      -2.248343       -61.1805
  32   1.0000      -2.248275       -61.1787
  33   1.0000      -2.247485       -61.1572
  34   1.0000      -2.247265       -61.1512
  35   1.0000      -2.246907       -61.1414
  36   1.0000      -2.246783       -61.1381
  37   1.0000      -2.246413       -61.1280
  38   1.0000      -2.246394       -61.1275
  39   1.0000      -2.245652       -61.1073
  40   1.0000      -2.245202       -61.0951
  41   1.0000      -2.245125       -61.0929
  42   1.0000      -2.244711       -61.0817
  43   1.0000      -2.242600       -61.0242
  44   1.0000      -2.242375       -61.0181
  45   1.0000      -2.242195       -61.0132
  46   1.0000      -2.241814       -61.0029
  47   1.0000      -2.240676       -60.9719
  48   1.0000      -2.239827       -60.9488
  49   1.0000      -2.239381       -60.9367
  50   1.0000      -2.239185       -60.9313
  51   1.0000      -2.239116       -60.9295
  52   1.0000      -2.237779       -60.8931
  53   1.0000      -2.237083       -60.8741
  54   1.0000      -2.236269       -60.8520
  55   1.0000      -2.236049       -60.8460
  56   1.0000      -2.235089       -60.8199
  57   1.0000      -2.235032       -60.8183
  58   1.0000      -2.233873       -60.7868
  59   1.0000      -2.233857       -60.7863
  60   1.0000      -2.233728       -60.7828
  61   1.0000      -2.233224       -60.7691
  62   1.0000      -2.232002       -60.7359
  63   1.0000      -2.231527       -60.7229
  64   1.0000      -2.231091       -60.7111
  65   1.0000      -2.229863       -60.6777
  66   1.0000      -2.229843       -60.6771
  67   1.0000      -2.226744       -60.5928
  68   1.0000      -2.226111       -60.5755
  69   1.0000      -2.220825       -60.4317
  70   1.0000      -1.685075       -45.8532
  71   1.0000      -1.677457       -45.6459
  72   1.0000      -1.654256       -45.0146
  73   1.0000      -0.424889       -11.5618
  74   1.0000      -0.391473       -10.6525
  75   1.0000      -0.389607       -10.6017
  76   1.0000      -0.385466       -10.4891
  77   1.0000      -0.375455       -10.2167
  78   1.0000      -0.371501       -10.1091
  79   1.0000      -0.366585        -9.9753
  80   1.0000      -0.363631        -9.8949
  81   1.0000      -0.363248        -9.8845
  82   1.0000      -0.360104        -9.7989
  83   1.0000      -0.360046        -9.7974
  84   1.0000      -0.358910        -9.7664
  85   1.0000      -0.354912        -9.6577
  86   1.0000      -0.353225        -9.6118
  87   1.0000      -0.352164        -9.5829
  88   1.0000      -0.350700        -9.5430
  89   1.0000      -0.350335        -9.5331
  90   1.0000      -0.346609        -9.4317
  91   1.0000      -0.344957        -9.3867
  92   1.0000      -0.343623        -9.3505
  93   1.0000      -0.343253        -9.3404
  94   1.0000      -0.342268        -9.3136
  95   1.0000      -0.339088        -9.2271
  96   1.0000      -0.338568        -9.2129
  97   1.0000      -0.337217        -9.1761
  98   1.0000      -0.334848        -9.1117
  99   1.0000      -0.334091        -9.0911
 100   1.0000      -0.332631        -9.0513
 101   1.0000      -0.328556        -8.9405
 102   1.0000      -0.326695        -8.8898
 103   1.0000      -0.326606        -8.8874
 104   1.0000      -0.323312        -8.7978
 105   1.0000      -0.321796        -8.7565
 106   1.0000      -0.317788        -8.6475
 107   1.0000      -0.316729        -8.6186
 108   1.0000      -0.310655        -8.4533
 109   1.0000      -0.310248        -8.4423
 110   1.0000      -0.308688        -8.3998
 111   1.0000      -0.308123        -8.3845
 112   1.0000      -0.306226        -8.3328
 113   1.0000      -0.301763        -8.2114
 114   1.0000      -0.299638        -8.1536
 115   1.0000      -0.296677        -8.0730
 116   1.0000      -0.296343        -8.0639
 117   1.0000      -0.292283        -7.9534
 118   1.0000      -0.288033        -7.8378
 119   1.0000      -0.285794        -7.7769
 120   1.0000      -0.285276        -7.7627
 121   1.0000      -0.283420        -7.7123
 122   1.0000      -0.280757        -7.6398
 123   1.0000      -0.280206        -7.6248
 124   1.0000      -0.279386        -7.6025
 125   1.0000      -0.277387        -7.5481
 126   1.0000      -0.277274        -7.5450
 127   1.0000      -0.276879        -7.5343
 128   1.0000      -0.276771        -7.5313
 129   1.0000      -0.274129        -7.4594
 130   1.0000      -0.272025        -7.4022
 131   1.0000      -0.271218        -7.3802
 132   1.0000      -0.269138        -7.3236
 133   1.0000      -0.269065        -7.3216
 134   1.0000      -0.265988        -7.2379
 135   1.0000      -0.265434        -7.2228
 136   1.0000      -0.265144        -7.2149
 137   1.0000      -0.261871        -7.1259
 138   1.0000      -0.261670        -7.1204
 139   1.0000      -0.261133        -7.1058
 140   1.0000      -0.259916        -7.0727
 141   1.0000      -0.259638        -7.0651
 142   1.0000      -0.259487        -7.0610
 143   1.0000      -0.258567        -7.0360
 144   1.0000      -0.258213        -7.0263
 145   1.0000      -0.251637        -6.8474
 146   1.0000      -0.250985        -6.8297
 147   1.0000      -0.249998        -6.8028
 148   1.0000      -0.248528        -6.7628
 149   1.0000      -0.248098        -6.7511
 150   1.0000      -0.244931        -6.6649
 151   1.0000      -0.243356        -6.6221
 152   1.0000      -0.243045        -6.6136
 153   1.0000      -0.241874        -6.5817
 154   1.0000      -0.240747        -6.5511
 155   1.0000      -0.238804        -6.4982
 156   1.0000      -0.231377        -6.2961
 157   1.0000      -0.224963        -6.1215
 158   1.0000      -0.224553        -6.1104
 159   1.0000      -0.218899        -5.9565
 160   1.0000      -0.210631        -5.7316
 161   1.0000      -0.200297        -5.4504
 162   1.0000      -0.175244        -4.7686
 163   0.0000      -0.156102        -4.2478
 164   0.0000      -0.149938        -4.0800
 165   0.0000      -0.147591        -4.0162
 166   0.0000      -0.134827        -3.6688
 167   0.0000      -0.130603        -3.5539

MULLIKEN ATOMIC CHARGES AND SPIN POPULATIONS
--------------------------------------------
   0 Au:    0.503706   -0.002936
   1 Au:    0.171969   -0.060667
   2 Au:    0.150066    0.000677
   3 Au:    0.171527   -0.060422
   4 Au:    0.093448   -0.113266
   5 Au:    0.161094   -0.081655
   6 Au:    0.676554    0.003752
   7 Au:    0.330317   -0.192456
   8 Au:    0.502495   -0.002547
   9 Au:    0.675708    0.004737
  10 Au:    0.177485   -0.072115
  11 Au:   -0.042462   -0.082469
  12 Au:    0.176140   -0.072047
  13 Au:    0.061144   -0.243401
  14 Au:    0.160295   -0.083425
  15 Au:    0.096417   -0.112260
  16 Cr:   -4.065902    3.170499
Sum of atomic charges         :   -0.0000000

LOEWDIN ATOMIC CHARGES AND SPIN POPULATIONS
-------------------------------------------
   0 Au:    0.159301   -0.057657
   1 Au:    0.080480   -0.070378
   2 Au:    0.014983   -0.052150
   3 Au:    0.079751   -0.070157
   4 Au:    0.043232   -0.084707
   5 Au:    0.036652   -0.099824
   6 Au:    0.135692   -0.040961
   7 Au:    0.106517   -0.126534
   8 Au:    0.159534   -0.057608
   9 Au:    0.135509   -0.040240
  10 Au:    0.025763   -0.109315
  11 Au:    0.048973   -0.050313
  12 Au:    0.025122   -0.109287
  13 Au:   -0.023184   -0.154515
  14 Au:    0.036916   -0.100641
  15 Au:    0.043655   -0.084406
  16 Cr:   -1.108894    3.308694

  Mayer bond orders larger than 0.100000
B(  0-Au,  1-Au) :   0.3267 B(  0-Au,  4-Au) :   0.1035 B(  0-Au,  7-Au) :   0.2453
B(  0-Au,  9-Au) :   0.1112 B(  0-Au, 15-Au) :   0.1376 B(  0-Au, 16-Cr) :   0.6443
B(  1-Au,  2-Au) :   0.2370 B(  1-Au,  3-Au) :   0.2787 B(  1-Au, 14-Au) :   0.1836
B(  1-Au, 16-Cr) :   0.5782 B(  2-Au,  3-Au) :   0.2384 B(  2-Au,  5-Au) :   0.2653
B(  2-Au, 13-Au) :   0.3221 B(  2-Au, 14-Au) :   0.2667 B(  2-Au, 16-Cr) :   0.2681
B(  3-Au,  5-Au) :   0.1852 B(  3-Au,  8-Au) :   0.3263 B(  3-Au, 16-Cr) :   0.5759
B(  4-Au,  5-Au) :   0.3363 B(  4-Au,  6-Au) :   0.2350 B(  4-Au,  8-Au) :   0.1376
B(  4-Au, 10-Au) :   0.2470 B(  4-Au, 11-Au) :   0.1406 B(  4-Au, 16-Cr) :   0.5982
B(  5-Au, 10-Au) :   0.2291 B(  5-Au, 13-Au) :   0.2365 B(  5-Au, 16-Cr) :   0.2793
B(  6-Au,  7-Au) :   0.1506 B(  6-Au,  8-Au) :   0.1117 B(  6-Au,  9-Au) :   0.1503
B(  6-Au, 11-Au) :   0.2099 B(  6-Au, 16-Cr) :   0.5791 B(  7-Au,  8-Au) :   0.2468
B(  7-Au,  9-Au) :   0.1520 B(  7-Au, 16-Cr) :   0.4999 B(  8-Au, 15-Au) :   0.1039
B(  8-Au, 16-Cr) :   0.6436 B(  9-Au, 11-Au) :   0.2104 B(  9-Au, 15-Au) :   0.2353
B(  9-Au, 16-Cr) :   0.5760 B( 10-Au, 11-Au) :   0.3112 B( 10-Au, 12-Au) :   0.2326
B( 10-Au, 13-Au) :   0.3003 B( 10-Au, 16-Cr) :   0.2843 B( 11-Au, 12-Au) :   0.3107
B( 11-Au, 15-Au) :   0.1418 B( 11-Au, 16-Cr) :   0.5142 B( 12-Au, 13-Au) :   0.3050
B( 12-Au, 14-Au) :   0.2284 B( 12-Au, 15-Au) :   0.2477 B( 12-Au, 16-Cr) :   0.2843
B( 13-Au, 14-Au) :   0.2336 B( 13-Au, 16-Cr) :   0.1103 B( 14-Au, 15-Au) :   0.3348
B( 14-Au, 16-Cr) :   0.2825 B( 15-Au, 16-Cr) :   0.5982

FINAL SINGLE POINT ENERGY     -3217.483111931241

DIPOLE MOMENT
-------------
                                X             Y             Z
Electronic contribution:     33.19096      25.51441      11.47079
Nuclear contribution   :    -33.65325     -26.05730     -11.79720
                        -----------------------------------------
Total Dipole Moment    :     -0.46229      -0.54289      -0.32641
                        -----------------------------------------
Magnitude (a.u.)       :      0.78421
Magnitude (Debye)      :      1.99330

Rotational constants in cm-1:     0.001036     0.000728     0.000692
Rotational constants in MHz :    31.059646    21.811119    20.739945

                             ****ORCA TERMINATED NORMALLY****
TOTAL RUN TIME: 0 days 3 hours 31 minutes 45 seconds 586 msec
