                         Program Version 5.0.3 -  RELEASE  -
|  1> !CASSCF def2-TZVP def2-TZVP/C
|  2> !MOREAD RIJCOSX
|  3> %maxcore 6000
|  4> %moinp "pbe.qro"
|  5> %pal nprocs 16 end
|  6>
|  7> %casscf
|  8>  mult 6,4
|  9>  bweight 1,1
| 10>  nroots 1,24
| 11>  nel 5
| 12>  norb 5
| 13> end
| 14>
| 15>
| 16> *xyzfile 0 6 pbe.xyz
| 17>
| 18>
| 19>                          ****END OF INPUT****

CARTESIAN COORDINATES (ANGSTROEM)
---------------------------------
  Au     8.516217    8.250930    6.251554
  Au     6.230262    7.080884    5.724317
  Au     6.055401    5.182979    8.090920
  Au     4.058692    5.491282    6.159023
  Au     4.124676    7.298985    8.183506
  Au    10.861908    9.225831    7.119786
  Au     9.268554    8.462853    9.058983
  Au     5.267881    8.643511   10.144403
  Au     7.724779    6.086430    9.907211
  Au     7.822547    8.534562   11.267427
  Mn     6.775272    7.821443    8.192493

 Total Charge           Charge          ....    0
 Multiplicity           Mult            ....    6
 Number of Electrons    NEL             ....  215
 Basis Dimension        Dim             ....  445

ORBITAL ENERGIES
----------------

  NO   OCC          E(Eh)            E(eV)
   0   2.0000    -240.545947     -6545.5880
   1   2.0000     -29.124470      -792.5171
   2   2.0000     -24.829327      -675.6403
   3   2.0000     -24.829126      -675.6349
   4   2.0000     -24.828491      -675.6176
   5   2.0000      -4.720756      -128.4583
   6   2.0000      -4.713594      -128.2634
   7   2.0000      -4.711142      -128.1967
   8   2.0000      -4.710101      -128.1684
   9   2.0000      -4.708505      -128.1249
  10   2.0000      -4.707516      -128.0980
  11   2.0000      -4.704597      -128.0186
  12   2.0000      -4.703734      -127.9951
  13   2.0000      -4.703528      -127.9895
  14   2.0000      -4.696151      -127.7888
  15   2.0000      -3.830008      -104.2198
  16   2.0000      -2.761923       -75.1557
  17   2.0000      -2.756998       -75.0217
  18   2.0000      -2.756074       -74.9966
  19   2.0000      -2.752347       -74.8952
  20   2.0000      -2.751179       -74.8634
  21   2.0000      -2.750351       -74.8408
  22   2.0000      -2.749009       -74.8043
  23   2.0000      -2.748780       -74.7981
  24   2.0000      -2.747177       -74.7545
  25   2.0000      -2.746899       -74.7469
  26   2.0000      -2.746106       -74.7254
  27   2.0000      -2.744760       -74.6887
  28   2.0000      -2.744493       -74.6815
  29   2.0000      -2.742784       -74.6349
  30   2.0000      -2.742478       -74.6266
  31   2.0000      -2.741724       -74.6061
  32   2.0000      -2.741502       -74.6001
  33   2.0000      -2.741355       -74.5961
  34   2.0000      -2.739932       -74.5573
  35   2.0000      -2.738930       -74.5301
  36   2.0000      -2.738658       -74.5227
  37   2.0000      -2.738605       -74.5212
  38   2.0000      -2.737356       -74.4872
  39   2.0000      -2.735851       -74.4463
  40   2.0000      -2.735369       -74.4332
  41   2.0000      -2.735077       -74.4252
  42   2.0000      -2.734691       -74.4147
  43   2.0000      -2.733099       -74.3714
  44   2.0000      -2.730446       -74.2992
  45   2.0000      -2.727700       -74.2245
  46   2.0000      -2.498348       -67.9835
  47   2.0000      -2.496735       -67.9396
  48   2.0000      -2.496475       -67.9326
  49   2.0000      -0.558309       -15.1924
  50   2.0000      -0.554941       -15.1007
  51   2.0000      -0.549050       -14.9404
  52   2.0000      -0.545014       -14.8306
  53   2.0000      -0.541097       -14.7240
  54   2.0000      -0.537301       -14.6207
  55   2.0000      -0.532852       -14.4997
  56   2.0000      -0.525958       -14.3120
  57   2.0000      -0.523550       -14.2465
  58   2.0000      -0.522129       -14.2079
  59   2.0000      -0.516282       -14.0487
  60   2.0000      -0.514077       -13.9887
  61   2.0000      -0.510461       -13.8904
  62   2.0000      -0.504377       -13.7248
  63   2.0000      -0.503781       -13.7086
  64   2.0000      -0.500053       -13.6071
  65   2.0000      -0.496791       -13.5184
  66   2.0000      -0.494401       -13.4533
  67   2.0000      -0.491870       -13.3845
  68   2.0000      -0.485927       -13.2228
  69   2.0000      -0.481794       -13.1103
  70   2.0000      -0.479456       -13.0467
  71   2.0000      -0.476206       -12.9582
  72   2.0000      -0.472357       -12.8535
  73   2.0000      -0.470093       -12.7919
  74   2.0000      -0.468224       -12.7410
  75   2.0000      -0.463157       -12.6031
  76   2.0000      -0.461406       -12.5555
  77   2.0000      -0.457612       -12.4523
  78   2.0000      -0.457209       -12.4413
  79   2.0000      -0.455968       -12.4075
  80   2.0000      -0.452578       -12.3153
  81   2.0000      -0.451491       -12.2857
  82   2.0000      -0.449977       -12.2445
  83   2.0000      -0.448180       -12.1956
  84   2.0000      -0.446468       -12.1490
  85   2.0000      -0.445909       -12.1338
  86   2.0000      -0.440453       -11.9853
  87   2.0000      -0.438450       -11.9308
  88   2.0000      -0.435661       -11.8549
  89   2.0000      -0.433557       -11.7977
  90   2.0000      -0.430960       -11.7270
  91   2.0000      -0.429268       -11.6810
  92   2.0000      -0.427829       -11.6418
  93   2.0000      -0.426469       -11.6048
  94   2.0000      -0.418679       -11.3928
  95   2.0000      -0.417804       -11.3690
  96   2.0000      -0.412520       -11.2253
  97   2.0000      -0.404531       -11.0078
  98   2.0000      -0.396537       -10.7903
  99   2.0000      -0.388695       -10.5769
 100   2.0000      -0.360857        -9.8194
 101   2.0000      -0.339431        -9.2364
 102   2.0000      -0.276601        -7.5267
 103   2.0000      -0.254757        -6.9323
 104   2.0000      -0.242278        -6.5927
 105   1.0000      -0.149767        -4.0754
 106   1.0000      -0.142640        -3.8814
 107   1.0000      -0.146078        -3.9750
 108   1.0000      -0.149450        -4.0667
 109   1.0000      -0.150697        -4.1007
 110   0.0000      -0.028370        -0.7720
 111   0.0000      -0.005399        -0.1469
 112   0.0000       0.002045         0.0556
 113   0.0000       0.009783         0.2662
 114   0.0000       0.022946         0.6244

MULLIKEN ATOMIC CHARGES AND SPIN DENSITIES
------------------------------------------
   0 Au:   -0.212050    0.011516
   1 Au:    0.150086    0.011755
   2 Au:   -0.072609    0.009337
   3 Au:    0.298095    0.003568
   4 Au:    0.035715    0.009652
   5 Au:    0.442796    0.002825
   6 Au:   -0.543105    0.009972
   7 Au:    0.106510    0.012937
   8 Au:    0.122528    0.011924
   9 Au:    0.328380    0.004372
  10 Mn:   -0.656346    3.912142
Sum of atomic charges       :    0.0000000

LOEWDIN ATOMIC CHARGES AND SPIN DENSITIES
-----------------------------------------
   0 Au:   -0.065286    0.016414
   1 Au:   -0.051581    0.017325
   2 Au:   -0.082359    0.013423
   3 Au:    0.127115    0.004260
   4 Au:   -0.062024    0.014682
   5 Au:    0.137026    0.003703
   6 Au:   -0.156149    0.015518
   7 Au:    0.043900    0.017286
   8 Au:   -0.011401    0.016613
   9 Au:    0.092257    0.006111
  10 Mn:    0.028502    3.874663

  Mayer bond orders larger than 0.100000
B(  0-Au,  1-Au) :   0.4703 B(  0-Au,  5-Au) :   0.3528 B(  0-Au,  6-Au) :   0.3708
B(  0-Au, 10-Mn) :   0.6291 B(  1-Au,  2-Au) :   0.1002 B(  1-Au,  3-Au) :   0.2679
B(  1-Au,  4-Au) :   0.1052 B(  1-Au, 10-Mn) :   0.4961 B(  2-Au,  3-Au) :   0.2970
B(  2-Au,  4-Au) :   0.2174 B(  2-Au,  8-Au) :   0.6085 B(  2-Au, 10-Mn) :   0.3915
B(  3-Au,  4-Au) :   0.3633 B(  4-Au,  7-Au) :   0.5038 B(  4-Au, 10-Mn) :   0.4231
B(  5-Au,  6-Au) :   0.5756 B(  6-Au,  8-Au) :   0.1497 B(  6-Au,  9-Au) :   0.5879
B(  6-Au, 10-Mn) :   0.3732 B(  7-Au, 10-Mn) :   0.5879 B(  8-Au,  9-Au) :   0.1270
B(  8-Au, 10-Mn) :   0.4471 B(  9-Au, 10-Mn) :   0.1704

FINAL SINGLE POINT ENERGY     -2497.933234310947

DIPOLE MOMENT
-------------
                                X             Y             Z
Electronic contribution:      7.89397     -14.15620       0.26170
Nuclear contribution   :     -7.88899      14.32848       0.06446
                        -----------------------------------------
Total Dipole Moment    :      0.00498       0.17228       0.32616
                        -----------------------------------------
Magnitude (a.u.)       :      0.36890
Magnitude (Debye)      :      0.93766

Rotational constants in cm-1:     0.002085     0.001335     0.000996
Rotational constants in MHz :    62.511506    40.013717    29.864702

                             ****ORCA TERMINATED NORMALLY****
TOTAL RUN TIME: 0 days 0 hours 2 minutes 22 seconds 507 msec
