                         Program Version 5.0.3 -  RELEASE  -
|  1> !RI-B2PLYP def2-TZVP def2-TZVP/C
|  2> !RIJCOSX VERYSLOWCONV
|  3>
|  4> %scf
|  5>   AutoTRAHIter 200
|  6>   maxiter 400
|  7> end
|  8>
|  9>
| 10> %pal nprocs 6 end
| 11>
| 12> *xyzfile 0 5 pbe.xyz
| 13>
| 14> $new_job
| 15>
| 16> !RI-B2PLYP def2-TZVP def2-TZVP/C
| 17> !RIJCOSX VERYSLOWCONV
| 18>
| 19> %scf
| 20>   AutoTRAHIter 200
| 21>   maxiter 400
| 22> end
| 23>
| 24>
| 25> %pal nprocs 6 end
| 26>
| 27> *xyzfile 0 3 pbe.xyz
| 28>
| 29>
| 30>
| 31>
| 32>
| 33>                          ****END OF INPUT****
 Total Charge           Charge          ....    0
 Multiplicity           Mult            ....    5
 Number of Electrons    NEL             ....  328
MP2 TOTAL ENERGY:    -3213.751639782 Eh
FINAL SINGLE POINT ENERGY     -3213.751639782395

CARTESIAN COORDINATES (ANGSTROEM)
---------------------------------
  Au     8.838456    5.771629    9.213403
  Au     8.102965   10.059260   10.859891
  Au     9.866398    7.874293   10.650702
  Au     5.896744    9.487084    9.211172
  Au     7.127936    7.421573   10.603354
  Au    11.047438    7.769148    8.138592
  Au    10.378822   10.214734    9.218069
  Au     7.915183   11.203530    8.303410
  Au     7.506641    4.979133    6.899189
  Au    10.285648    5.410416    6.856696
  Au     5.979364    6.955868    8.136614
  Au     6.318747    7.005525    5.361981
  Au     8.326327    8.728511    4.446853
  Au     6.635823    9.522442    6.530115
  Au    10.777813    7.717389    5.349004
  Au     9.672941    9.988095    6.541951
  Cr     8.509393    7.529626    7.001602

 Multiplicity           Mult            ....    3
 Number of Electrons    NEL             ....  328
 Basis Dimension        Dim             ....  685

ORBITAL ENERGIES
----------------
                 SPIN UP ORBITALS
  NO   OCC          E(Eh)            E(eV)
   0   1.0000    -217.778977     -5926.0672
   1   1.0000     -25.464248      -692.9174
   2   1.0000     -21.603726      -587.8673
   3   1.0000     -21.603607      -587.8640
   4   1.0000     -21.597864      -587.7078
   5   1.0000      -4.408526      -119.9621
   6   1.0000      -4.408414      -119.9590
   7   1.0000      -4.408370      -119.9579
   8   1.0000      -4.408219      -119.9537
   9   1.0000      -4.408186      -119.9528
  10   1.0000      -4.404268      -119.8462
  11   1.0000      -4.403190      -119.8169
  12   1.0000      -4.402355      -119.7942
  13   1.0000      -4.401204      -119.7628
  14   1.0000      -4.400498      -119.7436
  15   1.0000      -4.391874      -119.5090
  16   1.0000      -4.391778      -119.5063
  17   1.0000      -4.391690      -119.5040
  18   1.0000      -4.391606      -119.5017
  19   1.0000      -4.391341      -119.4945
  20   1.0000      -4.380047      -119.1871
  21   1.0000      -3.253339       -88.5279
  22   1.0000      -2.529293       -68.8256
  23   1.0000      -2.529001       -68.8176
  24   1.0000      -2.528847       -68.8134
  25   1.0000      -2.528568       -68.8058
  26   1.0000      -2.528291       -68.7983
  27   1.0000      -2.526684       -68.7546
  28   1.0000      -2.526461       -68.7485
  29   1.0000      -2.526221       -68.7420
  30   1.0000      -2.525910       -68.7335
  31   1.0000      -2.525676       -68.7271
  32   1.0000      -2.525190       -68.7139
  33   1.0000      -2.524760       -68.7022
  34   1.0000      -2.523831       -68.6769
  35   1.0000      -2.523531       -68.6688
  36   1.0000      -2.523225       -68.6605
  37   1.0000      -2.522407       -68.6382
  38   1.0000      -2.522096       -68.6297
  39   1.0000      -2.521696       -68.6188
  40   1.0000      -2.521130       -68.6034
  41   1.0000      -2.520552       -68.5877
  42   1.0000      -2.520330       -68.5817
  43   1.0000      -2.519488       -68.5587
  44   1.0000      -2.518936       -68.5437
  45   1.0000      -2.518308       -68.5266
  46   1.0000      -2.517384       -68.5015
  47   1.0000      -2.517301       -68.4992
  48   1.0000      -2.516674       -68.4822
  49   1.0000      -2.515730       -68.4565
  50   1.0000      -2.515260       -68.4437
  51   1.0000      -2.514806       -68.4314
  52   1.0000      -2.512502       -68.3687
  53   1.0000      -2.512160       -68.3593
  54   1.0000      -2.511060       -68.3294
  55   1.0000      -2.510964       -68.3268
  56   1.0000      -2.510325       -68.3094
  57   1.0000      -2.509213       -68.2792
  58   1.0000      -2.509109       -68.2763
  59   1.0000      -2.509073       -68.2754
  60   1.0000      -2.508859       -68.2695
  61   1.0000      -2.508239       -68.2527
  62   1.0000      -2.506877       -68.2156
  63   1.0000      -2.506531       -68.2062
  64   1.0000      -2.506503       -68.2054
  65   1.0000      -2.505636       -68.1818
  66   1.0000      -2.505585       -68.1804
  67   1.0000      -2.497066       -67.9486
  68   1.0000      -2.496974       -67.9461
  69   1.0000      -2.495716       -67.9119
  70   1.0000      -2.146299       -58.4038
  71   1.0000      -2.134322       -58.0778
  72   1.0000      -2.134068       -58.0709
  73   1.0000      -0.507004       -13.7963
  74   1.0000      -0.496491       -13.5102
  75   1.0000      -0.477722       -12.9995
  76   1.0000      -0.476498       -12.9662
  77   1.0000      -0.475781       -12.9467
  78   1.0000      -0.471383       -12.8270
  79   1.0000      -0.467605       -12.7242
  80   1.0000      -0.465333       -12.6624
  81   1.0000      -0.461711       -12.5638
  82   1.0000      -0.461583       -12.5603
  83   1.0000      -0.461022       -12.5450
  84   1.0000      -0.459904       -12.5146
  85   1.0000      -0.458108       -12.4658
  86   1.0000      -0.457631       -12.4528
  87   1.0000      -0.457218       -12.4415
  88   1.0000      -0.454249       -12.3607
  89   1.0000      -0.453839       -12.3496
  90   1.0000      -0.451798       -12.2941
  91   1.0000      -0.448477       -12.2037
  92   1.0000      -0.446583       -12.1521
  93   1.0000      -0.444425       -12.0934
  94   1.0000      -0.443807       -12.0766
  95   1.0000      -0.442331       -12.0364
  96   1.0000      -0.441827       -12.0227
  97   1.0000      -0.441002       -12.0003
  98   1.0000      -0.440445       -11.9851
  99   1.0000      -0.436042       -11.8653
 100   1.0000      -0.435583       -11.8528
 101   1.0000      -0.434353       -11.8193
 102   1.0000      -0.431309       -11.7365
 103   1.0000      -0.429315       -11.6823
 104   1.0000      -0.427269       -11.6266
 105   1.0000      -0.425654       -11.5826
 106   1.0000      -0.425192       -11.5701
 107   1.0000      -0.421017       -11.4565
 108   1.0000      -0.420620       -11.4456
 109   1.0000      -0.416559       -11.3352
 110   1.0000      -0.410045       -11.1579
 111   1.0000      -0.404235       -10.9998
 112   1.0000      -0.403019       -10.9667
 113   1.0000      -0.402814       -10.9611
 114   1.0000      -0.397146       -10.8069
 115   1.0000      -0.396794       -10.7973
 116   1.0000      -0.390225       -10.6186
 117   1.0000      -0.389343       -10.5946
 118   1.0000      -0.387778       -10.5520
 119   1.0000      -0.385958       -10.5024
 120   1.0000      -0.381271       -10.3749
 121   1.0000      -0.380485       -10.3535
 122   1.0000      -0.378794       -10.3075
 123   1.0000      -0.377677       -10.2771
 124   1.0000      -0.377387       -10.2692
 125   1.0000      -0.374418       -10.1884
 126   1.0000      -0.373554       -10.1649
 127   1.0000      -0.373327       -10.1587
 128   1.0000      -0.372642       -10.1401
 129   1.0000      -0.370397       -10.0790
 130   1.0000      -0.369496       -10.0545
 131   1.0000      -0.368004       -10.0139
 132   1.0000      -0.367561       -10.0019
 133   1.0000      -0.366682        -9.9779
 134   1.0000      -0.365850        -9.9553
 135   1.0000      -0.362135        -9.8542
 136   1.0000      -0.361857        -9.8466
 137   1.0000      -0.356684        -9.7059
 138   1.0000      -0.355680        -9.6786
 139   1.0000      -0.354969        -9.6592
 140   1.0000      -0.354467        -9.6455
 141   1.0000      -0.352997        -9.6055
 142   1.0000      -0.352637        -9.5957
 143   1.0000      -0.351814        -9.5733
 144   1.0000      -0.351161        -9.5556
 145   1.0000      -0.344753        -9.3812
 146   1.0000      -0.342268        -9.3136
 147   1.0000      -0.342036        -9.3073
 148   1.0000      -0.341530        -9.2935
 149   1.0000      -0.338691        -9.2163
 150   1.0000      -0.336095        -9.1456
 151   1.0000      -0.335826        -9.1383
 152   1.0000      -0.332483        -9.0473
 153   1.0000      -0.331797        -9.0287
 154   1.0000      -0.331760        -9.0277
 155   1.0000      -0.330729        -8.9996
 156   1.0000      -0.324696        -8.8354
 157   1.0000      -0.322616        -8.7788
 158   1.0000      -0.313288        -8.5250
 159   1.0000      -0.312947        -8.5157
 160   1.0000      -0.308410        -8.3923
 161   1.0000      -0.245719        -6.6864
 162   1.0000      -0.244707        -6.6588
 163   1.0000      -0.241399        -6.5688
 164   1.0000      -0.225228        -6.1288
 165   0.0000      -0.145387        -3.9562
 166   0.0000      -0.094032        -2.5587
 167   0.0000      -0.078108        -2.1254
 168   0.0000      -0.072586        -1.9752
 169   0.0000      -0.072099        -1.9619

                 SPIN DOWN ORBITALS
  NO   OCC          E(Eh)            E(eV)
   0   1.0000    -217.777660     -5926.0314
   1   1.0000     -25.393484      -690.9918
   2   1.0000     -21.544147      -586.2460
   3   1.0000     -21.543795      -586.2365
   4   1.0000     -21.521152      -585.6203
   5   1.0000      -4.409054      -119.9764
   6   1.0000      -4.408754      -119.9683
   7   1.0000      -4.408610      -119.9644
   8   1.0000      -4.408445      -119.9599
   9   1.0000      -4.408285      -119.9555
  10   1.0000      -4.403926      -119.8369
  11   1.0000      -4.402935      -119.8100
  12   1.0000      -4.402212      -119.7903
  13   1.0000      -4.401404      -119.7683
  14   1.0000      -4.400877      -119.7539
  15   1.0000      -4.392626      -119.5294
  16   1.0000      -4.392466      -119.5251
  17   1.0000      -4.392179      -119.5173
  18   1.0000      -4.391932      -119.5106
  19   1.0000      -4.391457      -119.4976
  20   1.0000      -4.381225      -119.2192
  21   1.0000      -3.037238       -82.6475
  22   1.0000      -2.529255       -68.8245
  23   1.0000      -2.528773       -68.8114
  24   1.0000      -2.528601       -68.8067
  25   1.0000      -2.528370       -68.8004
  26   1.0000      -2.528160       -68.7947
  27   1.0000      -2.526130       -68.7395
  28   1.0000      -2.525929       -68.7340
  29   1.0000      -2.525759       -68.7294
  30   1.0000      -2.525515       -68.7227
  31   1.0000      -2.525479       -68.7218
  32   1.0000      -2.524662       -68.6995
  33   1.0000      -2.524447       -68.6937
  34   1.0000      -2.523942       -68.6800
  35   1.0000      -2.523699       -68.6734
  36   1.0000      -2.523094       -68.6569
  37   1.0000      -2.522580       -68.6429
  38   1.0000      -2.521529       -68.6143
  39   1.0000      -2.521193       -68.6051
  40   1.0000      -2.520717       -68.5922
  41   1.0000      -2.520043       -68.5738
  42   1.0000      -2.519712       -68.5649
  43   1.0000      -2.518840       -68.5411
  44   1.0000      -2.518242       -68.5248
  45   1.0000      -2.518124       -68.5216
  46   1.0000      -2.517340       -68.5003
  47   1.0000      -2.516331       -68.4728
  48   1.0000      -2.515908       -68.4613
  49   1.0000      -2.515411       -68.4478
  50   1.0000      -2.515187       -68.4417
  51   1.0000      -2.514810       -68.4315
  52   1.0000      -2.512777       -68.3761
  53   1.0000      -2.512583       -68.3708
  54   1.0000      -2.511193       -68.3330
  55   1.0000      -2.511146       -68.3317
  56   1.0000      -2.510161       -68.3050
  57   1.0000      -2.509810       -68.2954
  58   1.0000      -2.509568       -68.2888
  59   1.0000      -2.509277       -68.2809
  60   1.0000      -2.508847       -68.2692
  61   1.0000      -2.508481       -68.2592
  62   1.0000      -2.507396       -68.2297
  63   1.0000      -2.506758       -68.2124
  64   1.0000      -2.506737       -68.2118
  65   1.0000      -2.505807       -68.1865
  66   1.0000      -2.505361       -68.1743
  67   1.0000      -2.499155       -68.0055
  68   1.0000      -2.499049       -68.0026
  69   1.0000      -2.495897       -67.9168
  70   1.0000      -1.907969       -51.9185
  71   1.0000      -1.907199       -51.8975
  72   1.0000      -1.853977       -50.4493
  73   1.0000      -0.500714       -13.6251
  74   1.0000      -0.477161       -12.9842
  75   1.0000      -0.476708       -12.9719
  76   1.0000      -0.475422       -12.9369
  77   1.0000      -0.474635       -12.9155
  78   1.0000      -0.473539       -12.8856
  79   1.0000      -0.465673       -12.6716
  80   1.0000      -0.462579       -12.5874
  81   1.0000      -0.462332       -12.5807
  82   1.0000      -0.459738       -12.5101
  83   1.0000      -0.459487       -12.5033
  84   1.0000      -0.458626       -12.4798
  85   1.0000      -0.458114       -12.4659
  86   1.0000      -0.455165       -12.3857
  87   1.0000      -0.454857       -12.3773
  88   1.0000      -0.453282       -12.3344
  89   1.0000      -0.453062       -12.3284
  90   1.0000      -0.451975       -12.2989
  91   1.0000      -0.450060       -12.2468
  92   1.0000      -0.448367       -12.2007
  93   1.0000      -0.444693       -12.1007
  94   1.0000      -0.443641       -12.0721
  95   1.0000      -0.442331       -12.0364
  96   1.0000      -0.442150       -12.0315
  97   1.0000      -0.441336       -12.0094
  98   1.0000      -0.440638       -11.9904
  99   1.0000      -0.433650       -11.8002
 100   1.0000      -0.433538       -11.7972
 101   1.0000      -0.431925       -11.7533
 102   1.0000      -0.431790       -11.7496
 103   1.0000      -0.430105       -11.7038
 104   1.0000      -0.427327       -11.6281
 105   1.0000      -0.424731       -11.5575
 106   1.0000      -0.424507       -11.5514
 107   1.0000      -0.411238       -11.1904
 108   1.0000      -0.409413       -11.1407
 109   1.0000      -0.409203       -11.1350
 110   1.0000      -0.406665       -11.0659
 111   1.0000      -0.404107       -10.9963
 112   1.0000      -0.403088       -10.9686
 113   1.0000      -0.401787       -10.9332
 114   1.0000      -0.397015       -10.8033
 115   1.0000      -0.389689       -10.6040
 116   1.0000      -0.388570       -10.5735
 117   1.0000      -0.387076       -10.5329
 118   1.0000      -0.384706       -10.4684
 119   1.0000      -0.383780       -10.4432
 120   1.0000      -0.380005       -10.3405
 121   1.0000      -0.379381       -10.3235
 122   1.0000      -0.379200       -10.3186
 123   1.0000      -0.378301       -10.2941
 124   1.0000      -0.377095       -10.2613
 125   1.0000      -0.374923       -10.2022
 126   1.0000      -0.374086       -10.1794
 127   1.0000      -0.370656       -10.0861
 128   1.0000      -0.369915       -10.0659
 129   1.0000      -0.368317       -10.0224
 130   1.0000      -0.367869       -10.0102
 131   1.0000      -0.365412        -9.9434
 132   1.0000      -0.363455        -9.8901
 133   1.0000      -0.362879        -9.8744
 134   1.0000      -0.362212        -9.8563
 135   1.0000      -0.361409        -9.8344
 136   1.0000      -0.358730        -9.7615
 137   1.0000      -0.355195        -9.6653
 138   1.0000      -0.354671        -9.6511
 139   1.0000      -0.354551        -9.6478
 140   1.0000      -0.353503        -9.6193
 141   1.0000      -0.352814        -9.6006
 142   1.0000      -0.352432        -9.5902
 143   1.0000      -0.346118        -9.4183
 144   1.0000      -0.342533        -9.3208
 145   1.0000      -0.342089        -9.3087
 146   1.0000      -0.339862        -9.2481
 147   1.0000      -0.339496        -9.2382
 148   1.0000      -0.334523        -9.1028
 149   1.0000      -0.334191        -9.0938
 150   1.0000      -0.333542        -9.0761
 151   1.0000      -0.333352        -9.0710
 152   1.0000      -0.327281        -8.9058
 153   1.0000      -0.325013        -8.8441
 154   1.0000      -0.323506        -8.8030
 155   1.0000      -0.323405        -8.8003
 156   1.0000      -0.308807        -8.4031
 157   1.0000      -0.265065        -7.2128
 158   1.0000      -0.263852        -7.1798
 159   1.0000      -0.249784        -6.7970
 160   1.0000      -0.232042        -6.3142
 161   1.0000      -0.228067        -6.2060
 162   1.0000      -0.161482        -4.3941
 163   0.0000      -0.087080        -2.3696
 164   0.0000      -0.081245        -2.2108
 165   0.0000      -0.080703        -2.1960
 166   0.0000      -0.076975        -2.0946
 167   0.0000      -0.066965        -1.8222

MULLIKEN ATOMIC CHARGES AND SPIN POPULATIONS
--------------------------------------------
   0 Au:    0.193826   -0.235314
   1 Au:    0.011563    0.053259
   2 Au:    0.193288   -0.074385
   3 Au:    0.190007   -0.107916
   4 Au:    0.188989   -0.046269
   5 Au:    0.125271   -0.111065
   6 Au:    0.170574   -0.170377
   7 Au:    0.156715   -0.190839
   8 Au:    0.503990   -0.033419
   9 Au:    0.498829   -0.054700
  10 Au:    0.179635   -0.207479
  11 Au:    0.489256   -0.070452
  12 Au:    0.456570   -0.153944
  13 Au:    0.096753   -0.053263
  14 Au:    0.465711   -0.119776
  15 Au:    0.076482    0.013915
  16 Cr:   -3.997459    3.562024
Sum of atomic charges         :   -0.0000000

LOEWDIN ATOMIC CHARGES AND SPIN POPULATIONS
-------------------------------------------
   0 Au:    0.032454   -0.145478
   1 Au:   -0.007228    0.004398
   2 Au:    0.019893   -0.114058
   3 Au:    0.022837   -0.117621
   4 Au:    0.015402   -0.113199
   5 Au:    0.030750   -0.111752
   6 Au:    0.025713   -0.120011
   7 Au:    0.026977   -0.117151
   8 Au:    0.123219   -0.113284
   9 Au:    0.122292   -0.111072
  10 Au:    0.032141   -0.135628
  11 Au:    0.122389   -0.106384
  12 Au:    0.116071   -0.115056
  13 Au:    0.030030   -0.101138
  14 Au:    0.120160   -0.107405
  15 Au:    0.031101   -0.089425
  16 Cr:   -0.864200    3.714265

  Mayer bond orders larger than 0.100000
B(  0-Au,  2-Au) :   0.2870 B(  0-Au,  4-Au) :   0.2395 B(  0-Au,  5-Au) :   0.1025
B(  0-Au,  8-Au) :   0.1615 B(  0-Au,  9-Au) :   0.1514 B(  0-Au, 12-Au) :   0.1113
B(  0-Au, 16-Cr) :   0.3988 B(  1-Au,  2-Au) :   0.2623 B(  1-Au,  3-Au) :   0.2614
B(  1-Au,  4-Au) :   0.2591 B(  1-Au,  6-Au) :   0.2604 B(  1-Au,  7-Au) :   0.2619
B(  2-Au,  4-Au) :   0.2340 B(  2-Au,  5-Au) :   0.1771 B(  2-Au,  6-Au) :   0.1637
B(  2-Au, 16-Cr) :   0.3082 B(  3-Au,  4-Au) :   0.2145 B(  3-Au,  7-Au) :   0.1382
B(  3-Au, 10-Au) :   0.3057 B(  3-Au, 13-Au) :   0.1734 B(  3-Au, 16-Cr) :   0.2901
B(  4-Au, 10-Au) :   0.2113 B(  4-Au, 16-Cr) :   0.3225 B(  5-Au,  6-Au) :   0.2988
B(  5-Au,  9-Au) :   0.1840 B(  5-Au, 11-Au) :   0.1155 B(  5-Au, 14-Au) :   0.1541
B(  5-Au, 15-Au) :   0.1260 B(  5-Au, 16-Cr) :   0.4779 B(  6-Au,  7-Au) :   0.1148
B(  6-Au, 15-Au) :   0.1866 B(  6-Au, 16-Cr) :   0.2707 B(  7-Au, 13-Au) :   0.2679
B(  7-Au, 15-Au) :   0.2087 B(  7-Au, 16-Cr) :   0.2714 B(  8-Au,  9-Au) :   0.2192
B(  8-Au, 10-Au) :   0.1688 B(  8-Au, 11-Au) :   0.2097 B(  8-Au, 15-Au) :   0.1095
B(  8-Au, 16-Cr) :   0.5003 B(  9-Au, 13-Au) :   0.1125 B(  9-Au, 14-Au) :   0.1861
B(  9-Au, 16-Cr) :   0.4718 B( 10-Au, 11-Au) :   0.1472 B( 10-Au, 13-Au) :   0.1124
B( 10-Au, 14-Au) :   0.1147 B( 10-Au, 16-Cr) :   0.4103 B( 11-Au, 12-Au) :   0.1731
B( 11-Au, 13-Au) :   0.1876 B( 11-Au, 16-Cr) :   0.4609 B( 12-Au, 13-Au) :   0.1662
B( 12-Au, 14-Au) :   0.1584 B( 12-Au, 15-Au) :   0.1826 B( 12-Au, 16-Cr) :   0.4322
B( 13-Au, 15-Au) :   0.1291 B( 13-Au, 16-Cr) :   0.5210 B( 14-Au, 15-Au) :   0.1872
B( 14-Au, 16-Cr) :   0.4435 B( 15-Au, 16-Cr) :   0.5672

MP2 TOTAL ENERGY:    -3213.687713706 Eh
FINAL SINGLE POINT ENERGY     -3213.687713705603

DIPOLE MOMENT
-------------
                                X             Y             Z
Electronic contribution:     -3.13298      20.88704      30.71737
Nuclear contribution   :      3.24916     -21.25161     -31.53207
                        -----------------------------------------
Total Dipole Moment    :      0.11617      -0.36457      -0.81469
                        -----------------------------------------
Magnitude (a.u.)       :      0.90007
Magnitude (Debye)      :      2.28781

Rotational constants in cm-1:     0.000929     0.000766     0.000763
Rotational constants in MHz :    27.840366    22.968478    22.886918

                             ****ORCA TERMINATED NORMALLY****
TOTAL RUN TIME: 0 days 1 hours 47 minutes 4 seconds 539 msec
