                         Program Version 5.0.3 -  RELEASE  -
|  1> !PBE def2-TZVP VERYSLOWCONV
|  2>
|  3> %scf
|  4>   AutoTRAHIter 200
|  5>   maxiter 400
|  6> end
|  7>
|  8>
|  9> %pal nprocs 6 end
| 10>
| 11> *xyzfile 0 5 pbe.xyz
| 12>
| 13> $new_job
| 14>
| 15> !PBE def2-TZVP VERYSLOWCONV
| 16>
| 17> %scf
| 18>   AutoTRAHIter 200
| 19>   maxiter 400
| 20> end
| 21>
| 22>
| 23> %pal nprocs 6 end
| 24>
| 25> *xyzfile 0 3 pbe.xyz
| 26>
| 27>
| 28>
| 29>
| 30>
| 31>                          ****END OF INPUT****
 Total Charge           Charge          ....    0
 Multiplicity           Mult            ....    5
 Number of Electrons    NEL             ....  328
FINAL SINGLE POINT ENERGY     -3217.517645065386

CARTESIAN COORDINATES (ANGSTROEM)
---------------------------------
  Au     8.838456    5.771629    9.213403
  Au     8.102965   10.059260   10.859891
  Au     9.866398    7.874293   10.650702
  Au     5.896744    9.487084    9.211172
  Au     7.127936    7.421573   10.603354
  Au    11.047438    7.769148    8.138592
  Au    10.378822   10.214734    9.218069
  Au     7.915183   11.203530    8.303410
  Au     7.506641    4.979133    6.899189
  Au    10.285648    5.410416    6.856696
  Au     5.979364    6.955868    8.136614
  Au     6.318747    7.005525    5.361981
  Au     8.326327    8.728511    4.446853
  Au     6.635823    9.522442    6.530115
  Au    10.777813    7.717389    5.349004
  Au     9.672941    9.988095    6.541951
  Cr     8.509393    7.529626    7.001602

 Multiplicity           Mult            ....    3
 Number of Electrons    NEL             ....  328
 Basis Dimension        Dim             ....  685

ORBITAL ENERGIES
----------------
                 SPIN UP ORBITALS
  NO   OCC          E(Eh)            E(eV)
   0   1.0000    -214.508417     -5837.0708
   1   1.0000     -24.298058      -661.1838
   2   1.0000     -20.670497      -562.4728
   3   1.0000     -20.662388      -562.2522
   4   1.0000     -20.657907      -562.1302
   5   1.0000      -4.040205      -109.9396
   6   1.0000      -4.036565      -109.8405
   7   1.0000      -4.034917      -109.7957
   8   1.0000      -4.033417      -109.7549
   9   1.0000      -4.032483      -109.7294
  10   1.0000      -4.031900      -109.7136
  11   1.0000      -4.031673      -109.7074
  12   1.0000      -4.030875      -109.6857
  13   1.0000      -4.029619      -109.6515
  14   1.0000      -4.029279      -109.6423
  15   1.0000      -4.022539      -109.4588
  16   1.0000      -4.022430      -109.4559
  17   1.0000      -4.022320      -109.4529
  18   1.0000      -4.022254      -109.4511
  19   1.0000      -4.021938      -109.4425
  20   1.0000      -4.016700      -109.3000
  21   1.0000      -2.785296       -75.7918
  22   1.0000      -2.256852       -61.4121
  23   1.0000      -2.252905       -61.3046
  24   1.0000      -2.252349       -61.2895
  25   1.0000      -2.251540       -61.2675
  26   1.0000      -2.250291       -61.2335
  27   1.0000      -2.249905       -61.2230
  28   1.0000      -2.249584       -61.2143
  29   1.0000      -2.248242       -61.1778
  30   1.0000      -2.247720       -61.1636
  31   1.0000      -2.247229       -61.1502
  32   1.0000      -2.247111       -61.1470
  33   1.0000      -2.246452       -61.1291
  34   1.0000      -2.246281       -61.1244
  35   1.0000      -2.246129       -61.1203
  36   1.0000      -2.245890       -61.1138
  37   1.0000      -2.245544       -61.1044
  38   1.0000      -2.244855       -61.0856
  39   1.0000      -2.244685       -61.0810
  40   1.0000      -2.243556       -61.0503
  41   1.0000      -2.243421       -61.0466
  42   1.0000      -2.243003       -61.0352
  43   1.0000      -2.242708       -61.0272
  44   1.0000      -2.242486       -61.0212
  45   1.0000      -2.242178       -61.0128
  46   1.0000      -2.241845       -61.0037
  47   1.0000      -2.241789       -61.0022
  48   1.0000      -2.241208       -60.9864
  49   1.0000      -2.241050       -60.9821
  50   1.0000      -2.239929       -60.9516
  51   1.0000      -2.239285       -60.9340
  52   1.0000      -2.239229       -60.9325
  53   1.0000      -2.239044       -60.9275
  54   1.0000      -2.237838       -60.8947
  55   1.0000      -2.237782       -60.8931
  56   1.0000      -2.237095       -60.8744
  57   1.0000      -2.236572       -60.8602
  58   1.0000      -2.236513       -60.8586
  59   1.0000      -2.236280       -60.8523
  60   1.0000      -2.235813       -60.8396
  61   1.0000      -2.235493       -60.8309
  62   1.0000      -2.232602       -60.7522
  63   1.0000      -2.232254       -60.7427
  64   1.0000      -2.232065       -60.7376
  65   1.0000      -2.230499       -60.6950
  66   1.0000      -2.230395       -60.6921
  67   1.0000      -2.230336       -60.6905
  68   1.0000      -2.230140       -60.6852
  69   1.0000      -2.224885       -60.5422
  70   1.0000      -1.794009       -48.8175
  71   1.0000      -1.767815       -48.1047
  72   1.0000      -1.763240       -47.9802
  73   1.0000      -0.427767       -11.6401
  74   1.0000      -0.392502       -10.6805
  75   1.0000      -0.391862       -10.6631
  76   1.0000      -0.385850       -10.4995
  77   1.0000      -0.380097       -10.3430
  78   1.0000      -0.379046       -10.3144
  79   1.0000      -0.366221        -9.9654
  80   1.0000      -0.363591        -9.8938
  81   1.0000      -0.363354        -9.8874
  82   1.0000      -0.361920        -9.8484
  83   1.0000      -0.358911        -9.7665
  84   1.0000      -0.355202        -9.6655
  85   1.0000      -0.354065        -9.6346
  86   1.0000      -0.353203        -9.6111
  87   1.0000      -0.352746        -9.5987
  88   1.0000      -0.351655        -9.5690
  89   1.0000      -0.350619        -9.5408
  90   1.0000      -0.348756        -9.4901
  91   1.0000      -0.346214        -9.4210
  92   1.0000      -0.346052        -9.4165
  93   1.0000      -0.345868        -9.4115
  94   1.0000      -0.344959        -9.3868
  95   1.0000      -0.341501        -9.2927
  96   1.0000      -0.340355        -9.2615
  97   1.0000      -0.339541        -9.2394
  98   1.0000      -0.338248        -9.2042
  99   1.0000      -0.335682        -9.1344
 100   1.0000      -0.329192        -8.9578
 101   1.0000      -0.328394        -8.9360
 102   1.0000      -0.328213        -8.9311
 103   1.0000      -0.327587        -8.9141
 104   1.0000      -0.325714        -8.8631
 105   1.0000      -0.325346        -8.8531
 106   1.0000      -0.325048        -8.8450
 107   1.0000      -0.316181        -8.6037
 108   1.0000      -0.314082        -8.5466
 109   1.0000      -0.311804        -8.4846
 110   1.0000      -0.308537        -8.3957
 111   1.0000      -0.307766        -8.3747
 112   1.0000      -0.305641        -8.3169
 113   1.0000      -0.305235        -8.3059
 114   1.0000      -0.298876        -8.1328
 115   1.0000      -0.295342        -8.0367
 116   1.0000      -0.293168        -7.9775
 117   1.0000      -0.288294        -7.8449
 118   1.0000      -0.287423        -7.8212
 119   1.0000      -0.286805        -7.8044
 120   1.0000      -0.282322        -7.6824
 121   1.0000      -0.281981        -7.6731
 122   1.0000      -0.281268        -7.6537
 123   1.0000      -0.279227        -7.5982
 124   1.0000      -0.278301        -7.5730
 125   1.0000      -0.277772        -7.5586
 126   1.0000      -0.276487        -7.5236
 127   1.0000      -0.274477        -7.4689
 128   1.0000      -0.273725        -7.4484
 129   1.0000      -0.273672        -7.4470
 130   1.0000      -0.272274        -7.4090
 131   1.0000      -0.270688        -7.3658
 132   1.0000      -0.269056        -7.3214
 133   1.0000      -0.268909        -7.3174
 134   1.0000      -0.268409        -7.3038
 135   1.0000      -0.266468        -7.2510
 136   1.0000      -0.263861        -7.1800
 137   1.0000      -0.263653        -7.1744
 138   1.0000      -0.262948        -7.1552
 139   1.0000      -0.262573        -7.1450
 140   1.0000      -0.259073        -7.0497
 141   1.0000      -0.258736        -7.0406
 142   1.0000      -0.257665        -7.0114
 143   1.0000      -0.254553        -6.9267
 144   1.0000      -0.254131        -6.9153
 145   1.0000      -0.252859        -6.8806
 146   1.0000      -0.251795        -6.8517
 147   1.0000      -0.250380        -6.8132
 148   1.0000      -0.250181        -6.8078
 149   1.0000      -0.249721        -6.7952
 150   1.0000      -0.249292        -6.7836
 151   1.0000      -0.242445        -6.5973
 152   1.0000      -0.241655        -6.5758
 153   1.0000      -0.241256        -6.5649
 154   1.0000      -0.240806        -6.5527
 155   1.0000      -0.240396        -6.5415
 156   1.0000      -0.226675        -6.1681
 157   1.0000      -0.226193        -6.1550
 158   1.0000      -0.225468        -6.1353
 159   1.0000      -0.225190        -6.1277
 160   1.0000      -0.219594        -5.9755
 161   1.0000      -0.214227        -5.8294
 162   1.0000      -0.206355        -5.6152
 163   1.0000      -0.196985        -5.3602
 164   1.0000      -0.191291        -5.2053
 165   0.0000      -0.178977        -4.8702
 166   0.0000      -0.163656        -4.4533
 167   0.0000      -0.146676        -3.9913
 168   0.0000      -0.143320        -3.8999
 169   0.0000      -0.139847        -3.8054

                 SPIN DOWN ORBITALS
  NO   OCC          E(Eh)            E(eV)
   0   1.0000    -214.508166     -5837.0639
   1   1.0000     -24.269662      -660.4111
   2   1.0000     -20.647392      -561.8441
   3   1.0000     -20.641675      -561.6885
   4   1.0000     -20.636651      -561.5518
   5   1.0000      -4.039745      -109.9271
   6   1.0000      -4.037128      -109.8558
   7   1.0000      -4.035357      -109.8076
   8   1.0000      -4.033131      -109.7471
   9   1.0000      -4.032781      -109.7375
  10   1.0000      -4.031930      -109.7144
  11   1.0000      -4.031463      -109.7017
  12   1.0000      -4.030455      -109.6743
  13   1.0000      -4.029265      -109.6419
  14   1.0000      -4.028935      -109.6329
  15   1.0000      -4.022626      -109.4612
  16   1.0000      -4.022489      -109.4575
  17   1.0000      -4.022376      -109.4544
  18   1.0000      -4.022328      -109.4531
  19   1.0000      -4.022077      -109.4463
  20   1.0000      -4.016608      -109.2975
  21   1.0000      -2.709098       -73.7183
  22   1.0000      -2.256230       -61.3951
  23   1.0000      -2.253656       -61.3251
  24   1.0000      -2.252148       -61.2841
  25   1.0000      -2.251784       -61.2742
  26   1.0000      -2.249827       -61.2209
  27   1.0000      -2.249714       -61.2178
  28   1.0000      -2.249369       -61.2084
  29   1.0000      -2.249163       -61.2028
  30   1.0000      -2.247726       -61.1637
  31   1.0000      -2.247397       -61.1548
  32   1.0000      -2.247112       -61.1470
  33   1.0000      -2.247032       -61.1448
  34   1.0000      -2.246411       -61.1279
  35   1.0000      -2.246130       -61.1203
  36   1.0000      -2.245871       -61.1132
  37   1.0000      -2.245557       -61.1047
  38   1.0000      -2.244746       -61.0827
  39   1.0000      -2.244095       -61.0649
  40   1.0000      -2.243360       -61.0449
  41   1.0000      -2.242924       -61.0331
  42   1.0000      -2.242747       -61.0282
  43   1.0000      -2.242619       -61.0248
  44   1.0000      -2.242418       -61.0193
  45   1.0000      -2.242203       -61.0134
  46   1.0000      -2.241671       -60.9990
  47   1.0000      -2.241274       -60.9882
  48   1.0000      -2.241201       -60.9862
  49   1.0000      -2.240913       -60.9783
  50   1.0000      -2.239568       -60.9417
  51   1.0000      -2.239376       -60.9365
  52   1.0000      -2.239293       -60.9343
  53   1.0000      -2.238743       -60.9193
  54   1.0000      -2.237920       -60.8969
  55   1.0000      -2.237865       -60.8954
  56   1.0000      -2.237202       -60.8774
  57   1.0000      -2.236658       -60.8626
  58   1.0000      -2.236591       -60.8607
  59   1.0000      -2.236383       -60.8551
  60   1.0000      -2.235966       -60.8437
  61   1.0000      -2.235612       -60.8341
  62   1.0000      -2.232617       -60.7526
  63   1.0000      -2.232274       -60.7433
  64   1.0000      -2.232023       -60.7364
  65   1.0000      -2.230481       -60.6945
  66   1.0000      -2.230409       -60.6925
  67   1.0000      -2.230288       -60.6892
  68   1.0000      -2.230145       -60.6853
  69   1.0000      -2.224851       -60.5413
  70   1.0000      -1.716337       -46.7039
  71   1.0000      -1.693870       -46.0925
  72   1.0000      -1.690003       -45.9873
  73   1.0000      -0.424393       -11.5483
  74   1.0000      -0.392012       -10.6672
  75   1.0000      -0.391464       -10.6523
  76   1.0000      -0.384081       -10.4514
  77   1.0000      -0.378248       -10.2926
  78   1.0000      -0.377592       -10.2748
  79   1.0000      -0.365729        -9.9520
  80   1.0000      -0.363124        -9.8811
  81   1.0000      -0.362465        -9.8632
  82   1.0000      -0.361496        -9.8368
  83   1.0000      -0.358245        -9.7483
  84   1.0000      -0.355043        -9.6612
  85   1.0000      -0.353331        -9.6146
  86   1.0000      -0.352160        -9.5828
  87   1.0000      -0.351733        -9.5711
  88   1.0000      -0.351183        -9.5562
  89   1.0000      -0.349667        -9.5149
  90   1.0000      -0.348803        -9.4914
  91   1.0000      -0.346164        -9.4196
  92   1.0000      -0.346004        -9.4153
  93   1.0000      -0.345762        -9.4087
  94   1.0000      -0.344357        -9.3704
  95   1.0000      -0.341494        -9.2925
  96   1.0000      -0.340449        -9.2641
  97   1.0000      -0.339663        -9.2427
  98   1.0000      -0.338257        -9.2044
  99   1.0000      -0.333463        -9.0740
 100   1.0000      -0.329410        -8.9637
 101   1.0000      -0.328421        -8.9368
 102   1.0000      -0.327936        -8.9236
 103   1.0000      -0.327676        -8.9165
 104   1.0000      -0.325832        -8.8663
 105   1.0000      -0.325350        -8.8532
 106   1.0000      -0.325243        -8.8503
 107   1.0000      -0.315804        -8.5935
 108   1.0000      -0.312791        -8.5115
 109   1.0000      -0.311003        -8.4628
 110   1.0000      -0.307564        -8.3692
 111   1.0000      -0.307039        -8.3550
 112   1.0000      -0.305903        -8.3241
 113   1.0000      -0.304389        -8.2828
 114   1.0000      -0.298705        -8.1282
 115   1.0000      -0.294572        -8.0157
 116   1.0000      -0.290585        -7.9072
 117   1.0000      -0.288473        -7.8497
 118   1.0000      -0.287635        -7.8270
 119   1.0000      -0.286428        -7.7941
 120   1.0000      -0.282506        -7.6874
 121   1.0000      -0.281869        -7.6701
 122   1.0000      -0.280635        -7.6365
 123   1.0000      -0.278970        -7.5912
 124   1.0000      -0.277960        -7.5637
 125   1.0000      -0.277651        -7.5553
 126   1.0000      -0.276110        -7.5133
 127   1.0000      -0.274373        -7.4661
 128   1.0000      -0.273774        -7.4498
 129   1.0000      -0.272928        -7.4267
 130   1.0000      -0.272050        -7.4029
 131   1.0000      -0.271044        -7.3755
 132   1.0000      -0.268956        -7.3187
 133   1.0000      -0.268548        -7.3076
 134   1.0000      -0.268176        -7.2974
 135   1.0000      -0.266301        -7.2464
 136   1.0000      -0.263900        -7.1811
 137   1.0000      -0.263563        -7.1719
 138   1.0000      -0.263260        -7.1637
 139   1.0000      -0.262553        -7.1444
 140   1.0000      -0.258907        -7.0452
 141   1.0000      -0.258733        -7.0405
 142   1.0000      -0.257787        -7.0147
 143   1.0000      -0.254309        -6.9201
 144   1.0000      -0.254266        -6.9189
 145   1.0000      -0.252605        -6.8737
 146   1.0000      -0.251708        -6.8493
 147   1.0000      -0.250558        -6.8180
 148   1.0000      -0.250165        -6.8073
 149   1.0000      -0.249719        -6.7952
 150   1.0000      -0.249307        -6.7840
 151   1.0000      -0.242553        -6.6002
 152   1.0000      -0.241547        -6.5728
 153   1.0000      -0.241197        -6.5633
 154   1.0000      -0.240792        -6.5523
 155   1.0000      -0.240262        -6.5379
 156   1.0000      -0.226301        -6.1580
 157   1.0000      -0.225666        -6.1407
 158   1.0000      -0.224508        -6.1092
 159   1.0000      -0.215187        -5.8555
 160   1.0000      -0.214345        -5.8326
 161   1.0000      -0.209854        -5.7104
 162   1.0000      -0.169430        -4.6104
 163   0.0000      -0.152918        -4.1611
 164   0.0000      -0.150822        -4.1041
 165   0.0000      -0.146446        -3.9850
 166   0.0000      -0.140503        -3.8233
 167   0.0000      -0.135207        -3.6792

MULLIKEN ATOMIC CHARGES AND SPIN POPULATIONS
--------------------------------------------
   0 Au:    0.154803    0.065083
   1 Au:    0.041590    0.017124
   2 Au:    0.215080   -0.058852
   3 Au:    0.224400   -0.053757
   4 Au:    0.204279    0.019379
   5 Au:    0.122213   -0.002711
   6 Au:    0.226119    0.014793
   7 Au:    0.219766    0.017444
   8 Au:    0.515438    0.003079
   9 Au:    0.520309   -0.025817
  10 Au:    0.147583    0.058073
  11 Au:    0.519010   -0.019293
  12 Au:    0.518344    0.019518
  13 Au:    0.109354   -0.021200
  14 Au:    0.515039    0.018071
  15 Au:    0.107537   -0.006934
  16 Cr:   -4.360864    1.955998
Sum of atomic charges         :   -0.0000000

LOEWDIN ATOMIC CHARGES AND SPIN POPULATIONS
-------------------------------------------
   0 Au:    0.044525    0.022894
   1 Au:   -0.000916   -0.000459
   2 Au:    0.032499   -0.018224
   3 Au:    0.035096   -0.018863
   4 Au:    0.031997    0.010638
   5 Au:    0.047212   -0.025582
   6 Au:    0.039203   -0.001816
   7 Au:    0.038173   -0.002378
   8 Au:    0.146342   -0.002971
   9 Au:    0.150124   -0.029543
  10 Au:    0.045005    0.020542
  11 Au:    0.149820   -0.024762
  12 Au:    0.142205    0.006925
  13 Au:    0.046971   -0.034775
  14 Au:    0.143210    0.006423
  15 Au:    0.050477    0.006050
  16 Cr:   -1.141941    2.085903

  Mayer bond orders larger than 0.100000
B(  0-Au,  2-Au) :   0.2675 B(  0-Au,  4-Au) :   0.2447 B(  0-Au,  5-Au) :   0.1068
B(  0-Au,  8-Au) :   0.2039 B(  0-Au,  9-Au) :   0.2023 B(  0-Au, 16-Cr) :   0.5549
B(  1-Au,  2-Au) :   0.3084 B(  1-Au,  3-Au) :   0.3069 B(  1-Au,  4-Au) :   0.3039
B(  1-Au,  6-Au) :   0.3055 B(  1-Au,  7-Au) :   0.3064 B(  1-Au, 16-Cr) :   0.1327
B(  2-Au,  4-Au) :   0.2369 B(  2-Au,  5-Au) :   0.2188 B(  2-Au,  6-Au) :   0.2229
B(  2-Au, 16-Cr) :   0.3044 B(  3-Au,  4-Au) :   0.2309 B(  3-Au,  7-Au) :   0.2149
B(  3-Au, 10-Au) :   0.2730 B(  3-Au, 13-Au) :   0.2225 B(  3-Au, 16-Cr) :   0.3019
B(  4-Au, 10-Au) :   0.2340 B(  4-Au, 16-Cr) :   0.3101 B(  5-Au,  6-Au) :   0.2681
B(  5-Au,  9-Au) :   0.2090 B(  5-Au, 11-Au) :   0.1007 B(  5-Au, 14-Au) :   0.2058
B(  5-Au, 15-Au) :   0.1394 B(  5-Au, 16-Cr) :   0.6002 B(  6-Au,  7-Au) :   0.1894
B(  6-Au, 15-Au) :   0.2382 B(  6-Au, 16-Cr) :   0.3055 B(  7-Au, 13-Au) :   0.2594
B(  7-Au, 15-Au) :   0.2445 B(  7-Au, 16-Cr) :   0.3102 B(  8-Au,  9-Au) :   0.2524
B(  8-Au, 10-Au) :   0.2060 B(  8-Au, 11-Au) :   0.2548 B(  8-Au, 15-Au) :   0.1081
B(  8-Au, 16-Cr) :   0.5184 B(  9-Au, 13-Au) :   0.1031 B(  9-Au, 14-Au) :   0.2566
B(  9-Au, 16-Cr) :   0.5037 B( 10-Au, 11-Au) :   0.2027 B( 10-Au, 13-Au) :   0.1225
B( 10-Au, 16-Cr) :   0.5592 B( 11-Au, 12-Au) :   0.2567 B( 11-Au, 13-Au) :   0.2120
B( 11-Au, 16-Cr) :   0.4794 B( 12-Au, 13-Au) :   0.2123 B( 12-Au, 14-Au) :   0.2578
B( 12-Au, 15-Au) :   0.2236 B( 12-Au, 16-Cr) :   0.4079 B( 13-Au, 15-Au) :   0.1411
B( 13-Au, 16-Cr) :   0.6207 B( 14-Au, 15-Au) :   0.2232 B( 14-Au, 16-Cr) :   0.4199
B( 15-Au, 16-Cr) :   0.6363

FINAL SINGLE POINT ENERGY     -3217.479218544911

DIPOLE MOMENT
-------------
                                X             Y             Z
Electronic contribution:     -3.14147      20.86731      30.76004
Nuclear contribution   :      3.24916     -21.25161     -31.53207
                        -----------------------------------------
Total Dipole Moment    :      0.10768      -0.38430      -0.77203
                        -----------------------------------------
Magnitude (a.u.)       :      0.86908
Magnitude (Debye)      :      2.20903

Rotational constants in cm-1:     0.000929     0.000766     0.000763
Rotational constants in MHz :    27.840366    22.968478    22.886918

                             ****ORCA TERMINATED NORMALLY****
TOTAL RUN TIME: 0 days 1 hours 58 minutes 30 seconds 215 msec
