                         Program Version 5.0.3 -  RELEASE  -
|  1> !R2SCAN def2-TZVP VERYSLOWCONV
|  2> !KDIIS
|  3> %scf
|  4>   AutoTRAHIter 200
|  5>   maxiter 400
|  6> end
|  7>
|  8> %pal nprocs 6 end
|  9>
| 10> *xyzfile 0 5 pbe.xyz
| 11>
| 12> $new_job
| 13>
| 14> !R2SCAN def2-TZVP VERYSLOWCONV
| 15> !KDIIS
| 16> %scf
| 17>   AutoTRAHIter 200
| 18>   maxiter 400
| 19> end
| 20>
| 21>
| 22> %pal nprocs 6 end
| 23>
| 24> *xyzfile 0 3 pbe.xyz
| 25>
| 26>
| 27>
| 28>
| 29>
| 30>                          ****END OF INPUT****
 Total Charge           Charge          ....    0
 Multiplicity           Mult            ....    5
 Number of Electrons    NEL             ....  328
FINAL SINGLE POINT ENERGY     -3218.051748708750

CARTESIAN COORDINATES (ANGSTROEM)
---------------------------------
  Au     8.838456    5.771629    9.213403
  Au     8.102965   10.059260   10.859891
  Au     9.866398    7.874293   10.650702
  Au     5.896744    9.487084    9.211172
  Au     7.127936    7.421573   10.603354
  Au    11.047438    7.769148    8.138592
  Au    10.378822   10.214734    9.218069
  Au     7.915183   11.203530    8.303410
  Au     7.506641    4.979133    6.899189
  Au    10.285648    5.410416    6.856696
  Au     5.979364    6.955868    8.136614
  Au     6.318747    7.005525    5.361981
  Au     8.326327    8.728511    4.446853
  Au     6.635823    9.522442    6.530115
  Au    10.777813    7.717389    5.349004
  Au     9.672941    9.988095    6.541951
  Cr     8.509393    7.529626    7.001602

 Multiplicity           Mult            ....    3
 Number of Electrons    NEL             ....  328
 Basis Dimension        Dim             ....  685

ORBITAL ENERGIES
----------------
                 SPIN UP ORBITALS
  NO   OCC          E(Eh)            E(eV)
   0   1.0000    -215.299721     -5858.6033
   1   1.0000     -24.598684      -669.3642
   2   1.0000     -20.866835      -567.8155
   3   1.0000     -20.866766      -567.8136
   4   1.0000     -20.860314      -567.6380
   5   1.0000      -4.128719      -112.3481
   6   1.0000      -4.128293      -112.3366
   7   1.0000      -4.128165      -112.3331
   8   1.0000      -4.127467      -112.3141
   9   1.0000      -4.127055      -112.3029
  10   1.0000      -4.124386      -112.2303
  11   1.0000      -4.123074      -112.1945
  12   1.0000      -4.122139      -112.1691
  13   1.0000      -4.120652      -112.1286
  14   1.0000      -4.120062      -112.1126
  15   1.0000      -4.113467      -111.9331
  16   1.0000      -4.113289      -111.9283
  17   1.0000      -4.113040      -111.9215
  18   1.0000      -4.112497      -111.9067
  19   1.0000      -4.112181      -111.8981
  20   1.0000      -4.103472      -111.6612
  21   1.0000      -2.922662       -79.5297
  22   1.0000      -2.317889       -63.0730
  23   1.0000      -2.317370       -63.0588
  24   1.0000      -2.317240       -63.0553
  25   1.0000      -2.316787       -63.0430
  26   1.0000      -2.316453       -63.0339
  27   1.0000      -2.314945       -62.9929
  28   1.0000      -2.314211       -62.9729
  29   1.0000      -2.313819       -62.9622
  30   1.0000      -2.312793       -62.9343
  31   1.0000      -2.312489       -62.9260
  32   1.0000      -2.312264       -62.9199
  33   1.0000      -2.311879       -62.9094
  34   1.0000      -2.311496       -62.8990
  35   1.0000      -2.311142       -62.8894
  36   1.0000      -2.310974       -62.8848
  37   1.0000      -2.310642       -62.8758
  38   1.0000      -2.310429       -62.8700
  39   1.0000      -2.309964       -62.8573
  40   1.0000      -2.309295       -62.8391
  41   1.0000      -2.308811       -62.8259
  42   1.0000      -2.308081       -62.8061
  43   1.0000      -2.307915       -62.8015
  44   1.0000      -2.307580       -62.7924
  45   1.0000      -2.306862       -62.7729
  46   1.0000      -2.306373       -62.7596
  47   1.0000      -2.306091       -62.7519
  48   1.0000      -2.305402       -62.7332
  49   1.0000      -2.304567       -62.7105
  50   1.0000      -2.303681       -62.6863
  51   1.0000      -2.302766       -62.6614
  52   1.0000      -2.302630       -62.6578
  53   1.0000      -2.302204       -62.6461
  54   1.0000      -2.301272       -62.6208
  55   1.0000      -2.301100       -62.6161
  56   1.0000      -2.300444       -62.5983
  57   1.0000      -2.299876       -62.5828
  58   1.0000      -2.299638       -62.5763
  59   1.0000      -2.299345       -62.5684
  60   1.0000      -2.298991       -62.5587
  61   1.0000      -2.298344       -62.5411
  62   1.0000      -2.296256       -62.4843
  63   1.0000      -2.295302       -62.4584
  64   1.0000      -2.294996       -62.4500
  65   1.0000      -2.294120       -62.4262
  66   1.0000      -2.293321       -62.4044
  67   1.0000      -2.290155       -62.3183
  68   1.0000      -2.290007       -62.3143
  69   1.0000      -2.285910       -62.2028
  70   1.0000      -1.871076       -50.9146
  71   1.0000      -1.871037       -50.9135
  72   1.0000      -1.865587       -50.7652
  73   1.0000      -0.434921       -11.8348
  74   1.0000      -0.398663       -10.8482
  75   1.0000      -0.398219       -10.8361
  76   1.0000      -0.391595       -10.6558
  77   1.0000      -0.389347       -10.5947
  78   1.0000      -0.388820       -10.5803
  79   1.0000      -0.374593       -10.1932
  80   1.0000      -0.372021       -10.1232
  81   1.0000      -0.371411       -10.1066
  82   1.0000      -0.371001       -10.0954
  83   1.0000      -0.369729       -10.0608
  84   1.0000      -0.364171        -9.9096
  85   1.0000      -0.363771        -9.8987
  86   1.0000      -0.363587        -9.8937
  87   1.0000      -0.363028        -9.8785
  88   1.0000      -0.362316        -9.8591
  89   1.0000      -0.361764        -9.8441
  90   1.0000      -0.358763        -9.7624
  91   1.0000      -0.356229        -9.6935
  92   1.0000      -0.355313        -9.6686
  93   1.0000      -0.354329        -9.6418
  94   1.0000      -0.352308        -9.5868
  95   1.0000      -0.349531        -9.5112
  96   1.0000      -0.349097        -9.4994
  97   1.0000      -0.348213        -9.4753
  98   1.0000      -0.347351        -9.4519
  99   1.0000      -0.344908        -9.3854
 100   1.0000      -0.339766        -9.2455
 101   1.0000      -0.338545        -9.2123
 102   1.0000      -0.338185        -9.2025
 103   1.0000      -0.336870        -9.1667
 104   1.0000      -0.334020        -9.0891
 105   1.0000      -0.333835        -9.0841
 106   1.0000      -0.333491        -9.0748
 107   1.0000      -0.324835        -8.8392
 108   1.0000      -0.323716        -8.8088
 109   1.0000      -0.323232        -8.7956
 110   1.0000      -0.317202        -8.6315
 111   1.0000      -0.316810        -8.6208
 112   1.0000      -0.314070        -8.5463
 113   1.0000      -0.313213        -8.5230
 114   1.0000      -0.308231        -8.3874
 115   1.0000      -0.303852        -8.2682
 116   1.0000      -0.301407        -8.2017
 117   1.0000      -0.297081        -8.0840
 118   1.0000      -0.296573        -8.0702
 119   1.0000      -0.295244        -8.0340
 120   1.0000      -0.291963        -7.9447
 121   1.0000      -0.291238        -7.9250
 122   1.0000      -0.290459        -7.9038
 123   1.0000      -0.288929        -7.8621
 124   1.0000      -0.287561        -7.8249
 125   1.0000      -0.286532        -7.7969
 126   1.0000      -0.285429        -7.7669
 127   1.0000      -0.282879        -7.6975
 128   1.0000      -0.282036        -7.6746
 129   1.0000      -0.281781        -7.6676
 130   1.0000      -0.280754        -7.6397
 131   1.0000      -0.279809        -7.6140
 132   1.0000      -0.278560        -7.5800
 133   1.0000      -0.277891        -7.5618
 134   1.0000      -0.276977        -7.5369
 135   1.0000      -0.275620        -7.5000
 136   1.0000      -0.271740        -7.3944
 137   1.0000      -0.271512        -7.3882
 138   1.0000      -0.270725        -7.3668
 139   1.0000      -0.270440        -7.3590
 140   1.0000      -0.266787        -7.2596
 141   1.0000      -0.266379        -7.2485
 142   1.0000      -0.265551        -7.2260
 143   1.0000      -0.262374        -7.1396
 144   1.0000      -0.260686        -7.0936
 145   1.0000      -0.258647        -7.0381
 146   1.0000      -0.257890        -7.0175
 147   1.0000      -0.257024        -6.9940
 148   1.0000      -0.256951        -6.9920
 149   1.0000      -0.255861        -6.9623
 150   1.0000      -0.255566        -6.9543
 151   1.0000      -0.248695        -6.7673
 152   1.0000      -0.248166        -6.7529
 153   1.0000      -0.247610        -6.7378
 154   1.0000      -0.246895        -6.7184
 155   1.0000      -0.245514        -6.6808
 156   1.0000      -0.232884        -6.3371
 157   1.0000      -0.232127        -6.3165
 158   1.0000      -0.232004        -6.3131
 159   1.0000      -0.230919        -6.2836
 160   1.0000      -0.230782        -6.2799
 161   1.0000      -0.227928        -6.2022
 162   1.0000      -0.209644        -5.7047
 163   1.0000      -0.209504        -5.7009
 164   1.0000      -0.208859        -5.6833
 165   0.0000      -0.192803        -5.2464
 166   0.0000      -0.192119        -5.2278
 167   0.0000      -0.139485        -3.7956
 168   0.0000      -0.138578        -3.7709
 169   0.0000      -0.134583        -3.6622

                 SPIN DOWN ORBITALS
  NO   OCC          E(Eh)            E(eV)
   0   1.0000    -215.299139     -5858.5874
   1   1.0000     -24.535022      -667.6319
   2   1.0000     -20.821321      -566.5769
   3   1.0000     -20.821168      -566.5728
   4   1.0000     -20.804445      -566.1177
   5   1.0000      -4.129508      -112.3696
   6   1.0000      -4.128841      -112.3515
   7   1.0000      -4.128457      -112.3410
   8   1.0000      -4.127416      -112.3127
   9   1.0000      -4.126886      -112.2983
  10   1.0000      -4.124184      -112.2247
  11   1.0000      -4.122956      -112.1913
  12   1.0000      -4.122112      -112.1684
  13   1.0000      -4.120806      -112.1328
  14   1.0000      -4.120300      -112.1191
  15   1.0000      -4.113810      -111.9425
  16   1.0000      -4.113666      -111.9385
  17   1.0000      -4.113486      -111.9336
  18   1.0000      -4.113008      -111.9206
  19   1.0000      -4.112716      -111.9127
  20   1.0000      -4.104449      -111.6877
  21   1.0000      -2.754787       -74.9616
  22   1.0000      -2.318656       -63.0938
  23   1.0000      -2.317886       -63.0729
  24   1.0000      -2.317447       -63.0609
  25   1.0000      -2.316515       -63.0356
  26   1.0000      -2.316055       -63.0231
  27   1.0000      -2.315207       -63.0000
  28   1.0000      -2.314268       -62.9744
  29   1.0000      -2.313734       -62.9599
  30   1.0000      -2.313038       -62.9410
  31   1.0000      -2.312505       -62.9265
  32   1.0000      -2.312354       -62.9224
  33   1.0000      -2.311977       -62.9121
  34   1.0000      -2.311620       -62.9024
  35   1.0000      -2.311281       -62.8931
  36   1.0000      -2.310902       -62.8828
  37   1.0000      -2.310577       -62.8740
  38   1.0000      -2.310234       -62.8647
  39   1.0000      -2.309676       -62.8495
  40   1.0000      -2.309073       -62.8331
  41   1.0000      -2.308618       -62.8207
  42   1.0000      -2.308011       -62.8042
  43   1.0000      -2.307750       -62.7971
  44   1.0000      -2.307422       -62.7881
  45   1.0000      -2.306829       -62.7720
  46   1.0000      -2.306220       -62.7554
  47   1.0000      -2.305942       -62.7479
  48   1.0000      -2.305276       -62.7298
  49   1.0000      -2.304488       -62.7083
  50   1.0000      -2.303707       -62.6871
  51   1.0000      -2.303147       -62.6718
  52   1.0000      -2.302753       -62.6611
  53   1.0000      -2.302622       -62.6575
  54   1.0000      -2.301492       -62.6268
  55   1.0000      -2.301395       -62.6241
  56   1.0000      -2.300763       -62.6069
  57   1.0000      -2.300176       -62.5910
  58   1.0000      -2.300046       -62.5874
  59   1.0000      -2.299783       -62.5803
  60   1.0000      -2.299439       -62.5709
  61   1.0000      -2.298769       -62.5527
  62   1.0000      -2.296603       -62.4938
  63   1.0000      -2.295719       -62.4697
  64   1.0000      -2.295390       -62.4607
  65   1.0000      -2.294424       -62.4345
  66   1.0000      -2.293703       -62.4148
  67   1.0000      -2.291633       -62.3585
  68   1.0000      -2.291476       -62.3542
  69   1.0000      -2.286217       -62.2111
  70   1.0000      -1.714525       -46.6546
  71   1.0000      -1.714178       -46.6451
  72   1.0000      -1.676186       -45.6113
  73   1.0000      -0.430646       -11.7185
  74   1.0000      -0.399962       -10.8835
  75   1.0000      -0.399607       -10.8739
  76   1.0000      -0.390556       -10.6276
  77   1.0000      -0.387624       -10.5478
  78   1.0000      -0.387096       -10.5334
  79   1.0000      -0.375528       -10.2186
  80   1.0000      -0.372821       -10.1450
  81   1.0000      -0.371655       -10.1132
  82   1.0000      -0.371175       -10.1002
  83   1.0000      -0.369146       -10.0450
  84   1.0000      -0.364610        -9.9216
  85   1.0000      -0.363603        -9.8941
  86   1.0000      -0.362837        -9.8733
  87   1.0000      -0.362578        -9.8662
  88   1.0000      -0.362086        -9.8529
  89   1.0000      -0.360314        -9.8046
  90   1.0000      -0.360187        -9.8012
  91   1.0000      -0.357851        -9.7376
  92   1.0000      -0.356024        -9.6879
  93   1.0000      -0.355276        -9.6675
  94   1.0000      -0.354265        -9.6401
  95   1.0000      -0.350787        -9.5454
  96   1.0000      -0.350033        -9.5249
  97   1.0000      -0.349286        -9.5046
  98   1.0000      -0.348321        -9.4783
  99   1.0000      -0.342633        -9.3235
 100   1.0000      -0.340552        -9.2669
 101   1.0000      -0.339215        -9.2305
 102   1.0000      -0.339119        -9.2279
 103   1.0000      -0.337758        -9.1909
 104   1.0000      -0.335874        -9.1396
 105   1.0000      -0.335584        -9.1317
 106   1.0000      -0.334941        -9.1142
 107   1.0000      -0.324903        -8.8411
 108   1.0000      -0.320643        -8.7251
 109   1.0000      -0.320164        -8.7121
 110   1.0000      -0.317183        -8.6310
 111   1.0000      -0.315798        -8.5933
 112   1.0000      -0.314612        -8.5610
 113   1.0000      -0.313491        -8.5305
 114   1.0000      -0.309287        -8.4161
 115   1.0000      -0.303051        -8.2464
 116   1.0000      -0.300734        -8.1834
 117   1.0000      -0.298078        -8.1111
 118   1.0000      -0.296864        -8.0781
 119   1.0000      -0.295932        -8.0527
 120   1.0000      -0.292517        -7.9598
 121   1.0000      -0.291815        -7.9407
 122   1.0000      -0.290936        -7.9168
 123   1.0000      -0.290152        -7.8954
 124   1.0000      -0.289201        -7.8696
 125   1.0000      -0.288341        -7.8462
 126   1.0000      -0.287358        -7.8194
 127   1.0000      -0.283442        -7.7128
 128   1.0000      -0.283029        -7.7016
 129   1.0000      -0.282584        -7.6895
 130   1.0000      -0.281889        -7.6706
 131   1.0000      -0.280770        -7.6401
 132   1.0000      -0.279242        -7.5986
 133   1.0000      -0.279083        -7.5942
 134   1.0000      -0.278084        -7.5670
 135   1.0000      -0.276156        -7.5146
 136   1.0000      -0.273297        -7.4368
 137   1.0000      -0.272743        -7.4217
 138   1.0000      -0.272133        -7.4051
 139   1.0000      -0.271764        -7.3951
 140   1.0000      -0.267691        -7.2842
 141   1.0000      -0.267112        -7.2685
 142   1.0000      -0.266394        -7.2490
 143   1.0000      -0.263536        -7.1712
 144   1.0000      -0.262343        -7.1387
 145   1.0000      -0.260629        -7.0921
 146   1.0000      -0.260200        -7.0804
 147   1.0000      -0.259373        -7.0579
 148   1.0000      -0.258786        -7.0419
 149   1.0000      -0.257807        -7.0153
 150   1.0000      -0.257445        -7.0054
 151   1.0000      -0.251029        -6.8308
 152   1.0000      -0.249184        -6.7806
 153   1.0000      -0.248747        -6.7687
 154   1.0000      -0.247550        -6.7362
 155   1.0000      -0.247496        -6.7347
 156   1.0000      -0.233341        -6.3495
 157   1.0000      -0.229903        -6.2560
 158   1.0000      -0.229126        -6.2348
 159   1.0000      -0.221073        -6.0157
 160   1.0000      -0.217086        -5.9072
 161   1.0000      -0.211704        -5.7608
 162   1.0000      -0.152093        -4.1387
 163   0.0000      -0.146391        -3.9835
 164   0.0000      -0.141591        -3.8529
 165   0.0000      -0.140858        -3.8329
 166   0.0000      -0.134086        -3.6487
 167   0.0000      -0.122141        -3.3236

MULLIKEN ATOMIC CHARGES AND SPIN POPULATIONS
--------------------------------------------
   0 Au:    0.144387   -0.124320
   1 Au:    0.027993    0.039482
   2 Au:    0.205354   -0.084879
   3 Au:    0.196902   -0.115467
   4 Au:    0.207174   -0.053431
   5 Au:    0.110809   -0.096495
   6 Au:    0.171832   -0.163777
   7 Au:    0.156009   -0.181964
   8 Au:    0.484182   -0.039172
   9 Au:    0.479547   -0.058073
  10 Au:    0.136680   -0.118502
  11 Au:    0.469057   -0.076361
  12 Au:    0.438709   -0.145096
  13 Au:    0.098632   -0.081068
  14 Au:    0.446666   -0.119563
  15 Au:    0.092761   -0.063162
  16 Cr:   -3.866694    3.481848
Sum of atomic charges         :   -0.0000000

LOEWDIN ATOMIC CHARGES AND SPIN POPULATIONS
-------------------------------------------
   0 Au:    0.048800   -0.110250
   1 Au:   -0.007400   -0.009505
   2 Au:    0.023824   -0.106985
   3 Au:    0.024850   -0.113696
   4 Au:    0.021536   -0.100062
   5 Au:    0.046205   -0.104930
   6 Au:    0.025215   -0.120879
   7 Au:    0.025008   -0.121470
   8 Au:    0.134038   -0.087033
   9 Au:    0.132658   -0.092769
  10 Au:    0.048915   -0.108922
  11 Au:    0.131868   -0.097596
  12 Au:    0.124260   -0.121343
  13 Au:    0.043696   -0.103863
  14 Au:    0.128029   -0.111350
  15 Au:    0.043286   -0.102512
  16 Cr:   -0.994789    3.613164

  Mayer bond orders larger than 0.100000
B(  0-Au,  2-Au) :   0.3062 B(  0-Au,  4-Au) :   0.2598 B(  0-Au,  5-Au) :   0.1050
B(  0-Au,  8-Au) :   0.1898 B(  0-Au,  9-Au) :   0.1805 B(  0-Au, 12-Au) :   0.1014
B(  0-Au, 16-Cr) :   0.5054 B(  1-Au,  2-Au) :   0.2845 B(  1-Au,  3-Au) :   0.2831
B(  1-Au,  4-Au) :   0.2815 B(  1-Au,  6-Au) :   0.2790 B(  1-Au,  7-Au) :   0.2782
B(  1-Au, 16-Cr) :   0.1036 B(  2-Au,  4-Au) :   0.2518 B(  2-Au,  5-Au) :   0.1975
B(  2-Au,  6-Au) :   0.1739 B(  2-Au, 16-Cr) :   0.2746 B(  3-Au,  4-Au) :   0.2285
B(  3-Au,  7-Au) :   0.1460 B(  3-Au, 10-Au) :   0.3223 B(  3-Au, 13-Au) :   0.1983
B(  3-Au, 16-Cr) :   0.2600 B(  4-Au, 10-Au) :   0.2300 B(  4-Au, 16-Cr) :   0.2857
B(  5-Au,  6-Au) :   0.3184 B(  5-Au,  9-Au) :   0.2087 B(  5-Au, 11-Au) :   0.1034
B(  5-Au, 14-Au) :   0.1754 B(  5-Au, 15-Au) :   0.1414 B(  5-Au, 16-Cr) :   0.5272
B(  6-Au,  7-Au) :   0.1223 B(  6-Au, 15-Au) :   0.2199 B(  6-Au, 16-Cr) :   0.2459
B(  7-Au, 13-Au) :   0.2940 B(  7-Au, 15-Au) :   0.2431 B(  7-Au, 16-Cr) :   0.2470
B(  8-Au,  9-Au) :   0.2571 B(  8-Au, 10-Au) :   0.1965 B(  8-Au, 11-Au) :   0.2476
B(  8-Au, 16-Cr) :   0.5158 B(  9-Au, 14-Au) :   0.2213 B(  9-Au, 16-Cr) :   0.5010
B( 10-Au, 11-Au) :   0.1749 B( 10-Au, 13-Au) :   0.1215 B( 10-Au, 14-Au) :   0.1041
B( 10-Au, 16-Cr) :   0.5052 B( 11-Au, 12-Au) :   0.2039 B( 11-Au, 13-Au) :   0.2092
B( 11-Au, 16-Cr) :   0.5026 B( 12-Au, 13-Au) :   0.1854 B( 12-Au, 14-Au) :   0.1859
B( 12-Au, 15-Au) :   0.2014 B( 12-Au, 16-Cr) :   0.5006 B( 13-Au, 15-Au) :   0.1441
B( 13-Au, 16-Cr) :   0.5449 B( 14-Au, 15-Au) :   0.2058 B( 14-Au, 16-Cr) :   0.5051
B( 15-Au, 16-Cr) :   0.5638

FINAL SINGLE POINT ENERGY     -3218.004499179533

DIPOLE MOMENT
-------------
                                X             Y             Z
Electronic contribution:     -3.15593      20.83854      30.78119
Nuclear contribution   :      3.24916     -21.25161     -31.53207
                        -----------------------------------------
Total Dipole Moment    :      0.09323      -0.41307      -0.75088
                        -----------------------------------------
Magnitude (a.u.)       :      0.86206
Magnitude (Debye)      :      2.19117

Rotational constants in cm-1:     0.000929     0.000766     0.000763
Rotational constants in MHz :    27.840366    22.968478    22.886918

                             ****ORCA TERMINATED NORMALLY****
TOTAL RUN TIME: 0 days 0 hours 7 minutes 26 seconds 569 msec
