                         Program Version 5.0.3 -  RELEASE  -
|  1> !RI-B2PLYP def2-TZVP def2-TZVP/C
|  2> !RIJCOSX VERYSLOWCONV
|  3>
|  4> %scf
|  5>   AutoTRAHIter 200
|  6>   maxiter 400
|  7> end
|  8>
|  9>
| 10> %pal nprocs 6 end
| 11>
| 12> *xyzfile 0 5 pbe.xyz
| 13>
| 14> $new_job
| 15>
| 16> !RI-B2PLYP def2-TZVP def2-TZVP/C
| 17> !RIJCOSX VERYSLOWCONV
| 18>
| 19> %scf
| 20>   AutoTRAHIter 200
| 21>   maxiter 400
| 22> end
| 23>
| 24>
| 25> %pal nprocs 6 end
| 26>
| 27> *xyzfile 0 3 pbe.xyz
| 28>
| 29>
| 30>
| 31>
| 32>
| 33>                          ****END OF INPUT****
 Total Charge           Charge          ....    0
 Multiplicity           Mult            ....    5
 Number of Electrons    NEL             ....  216
MP2 TOTAL ENERGY:    -2619.345644088 Eh
FINAL SINGLE POINT ENERGY     -2619.345644088397

CARTESIAN COORDINATES (ANGSTROEM)
---------------------------------
  Au    10.970560   10.147441    8.089200
  Au     8.332911    9.316415    8.257525
  Au    10.312585    7.925119    9.602382
  Au     6.298791    7.640287    7.936105
  Au     9.383590    5.474484   10.033428
  Au     8.167506    3.441321    5.288905
  Au    10.542556    7.990392    6.495552
  Au     9.600032    5.732484    5.553492
  Au     6.682214    5.364426    6.622805
  Au     8.676097    3.981481    7.954428
  Fe     8.710592    6.676593    7.825817

 Multiplicity           Mult            ....    3
 Number of Electrons    NEL             ....  216
 Basis Dimension        Dim             ....  445

ORBITAL ENERGIES
----------------
                 SPIN UP ORBITALS
  NO   OCC          E(Eh)            E(eV)
   0   1.0000    -258.336560     -7029.6952
   1   1.0000     -30.900064      -840.8335
   2   1.0000     -26.618925      -724.3378
   3   1.0000     -26.587718      -723.4886
   4   1.0000     -26.587169      -723.4737
   5   1.0000      -4.396033      -119.6221
   6   1.0000      -4.395626      -119.6111
   7   1.0000      -4.394250      -119.5736
   8   1.0000      -4.394167      -119.5714
   9   1.0000      -4.393901      -119.5641
  10   1.0000      -4.393715      -119.5591
  11   1.0000      -4.393670      -119.5578
  12   1.0000      -4.393561      -119.5549
  13   1.0000      -4.392554      -119.5275
  14   1.0000      -4.392516      -119.5264
  15   1.0000      -3.914133      -106.5090
  16   1.0000      -2.665322       -72.5271
  17   1.0000      -2.601252       -70.7837
  18   1.0000      -2.600374       -70.7598
  19   1.0000      -2.521920       -68.6249
  20   1.0000      -2.518751       -68.5387
  21   1.0000      -2.518121       -68.5215
  22   1.0000      -2.517599       -68.5073
  23   1.0000      -2.517261       -68.4981
  24   1.0000      -2.515623       -68.4536
  25   1.0000      -2.515590       -68.4527
  26   1.0000      -2.514791       -68.4309
  27   1.0000      -2.513853       -68.4054
  28   1.0000      -2.513159       -68.3865
  29   1.0000      -2.513153       -68.3864
  30   1.0000      -2.512411       -68.3662
  31   1.0000      -2.510995       -68.3276
  32   1.0000      -2.510847       -68.3236
  33   1.0000      -2.510478       -68.3136
  34   1.0000      -2.510157       -68.3048
  35   1.0000      -2.508524       -68.2604
  36   1.0000      -2.508158       -68.2504
  37   1.0000      -2.507671       -68.2372
  38   1.0000      -2.507450       -68.2312
  39   1.0000      -2.507254       -68.2258
  40   1.0000      -2.507102       -68.2217
  41   1.0000      -2.506827       -68.2142
  42   1.0000      -2.506673       -68.2100
  43   1.0000      -2.506383       -68.2021
  44   1.0000      -2.506242       -68.1983
  45   1.0000      -2.506227       -68.1979
  46   1.0000      -2.505904       -68.1891
  47   1.0000      -2.505666       -68.1826
  48   1.0000      -2.505382       -68.1749
  49   1.0000      -0.561837       -15.2884
  50   1.0000      -0.552710       -15.0400
  51   1.0000      -0.552431       -15.0324
  52   1.0000      -0.534900       -14.5554
  53   1.0000      -0.501826       -13.6554
  54   1.0000      -0.484135       -13.1740
  55   1.0000      -0.473660       -12.8889
  56   1.0000      -0.464472       -12.6389
  57   1.0000      -0.462481       -12.5847
  58   1.0000      -0.450834       -12.2678
  59   1.0000      -0.448493       -12.2041
  60   1.0000      -0.443489       -12.0680
  61   1.0000      -0.439422       -11.9573
  62   1.0000      -0.438244       -11.9252
  63   1.0000      -0.434695       -11.8286
  64   1.0000      -0.433229       -11.7888
  65   1.0000      -0.430224       -11.7070
  66   1.0000      -0.424832       -11.5603
  67   1.0000      -0.422606       -11.4997
  68   1.0000      -0.421073       -11.4580
  69   1.0000      -0.411570       -11.1994
  70   1.0000      -0.405747       -11.0409
  71   1.0000      -0.404336       -11.0025
  72   1.0000      -0.403333       -10.9752
  73   1.0000      -0.401845       -10.9348
  74   1.0000      -0.393326       -10.7030
  75   1.0000      -0.390643       -10.6299
  76   1.0000      -0.388035       -10.5590
  77   1.0000      -0.386987       -10.5304
  78   1.0000      -0.385109       -10.4794
  79   1.0000      -0.382554       -10.4098
  80   1.0000      -0.382177       -10.3996
  81   1.0000      -0.380475       -10.3532
  82   1.0000      -0.379166       -10.3176
  83   1.0000      -0.375680       -10.2228
  84   1.0000      -0.375404       -10.2153
  85   1.0000      -0.370617       -10.0850
  86   1.0000      -0.368711       -10.0331
  87   1.0000      -0.363923        -9.9029
  88   1.0000      -0.363656        -9.8956
  89   1.0000      -0.362466        -9.8632
  90   1.0000      -0.362018        -9.8510
  91   1.0000      -0.360601        -9.8125
  92   1.0000      -0.359981        -9.7956
  93   1.0000      -0.358821        -9.7640
  94   1.0000      -0.358199        -9.7471
  95   1.0000      -0.353273        -9.6130
  96   1.0000      -0.350686        -9.5427
  97   1.0000      -0.349994        -9.5238
  98   1.0000      -0.348946        -9.4953
  99   1.0000      -0.344703        -9.3799
 100   1.0000      -0.342948        -9.3321
 101   1.0000      -0.335041        -9.1169
 102   1.0000      -0.326108        -8.8738
 103   1.0000      -0.325761        -8.8644
 104   1.0000      -0.318645        -8.6708
 105   1.0000      -0.317673        -8.6443
 106   1.0000      -0.279395        -7.6027
 107   1.0000      -0.267075        -7.2675
 108   1.0000      -0.242315        -6.5937
 109   0.0000      -0.114932        -3.1274
 110   0.0000      -0.095826        -2.6075
 111   0.0000      -0.070420        -1.9162
 112   0.0000      -0.063969        -1.7407
 113   0.0000      -0.051199        -1.3932

                 SPIN DOWN ORBITALS
  NO   OCC          E(Eh)            E(eV)
   0   1.0000    -258.334482     -7029.6386
   1   1.0000     -30.806834      -838.2966
   2   1.0000     -26.518341      -721.6008
   3   1.0000     -26.510121      -721.3771
   4   1.0000     -26.510037      -721.3748
   5   1.0000      -4.394972      -119.5933
   6   1.0000      -4.394923      -119.5919
   7   1.0000      -4.394811      -119.5889
   8   1.0000      -4.394740      -119.5869
   9   1.0000      -4.394682      -119.5854
  10   1.0000      -4.394421      -119.5783
  11   1.0000      -4.394003      -119.5669
  12   1.0000      -4.393964      -119.5658
  13   1.0000      -4.393761      -119.5603
  14   1.0000      -4.393664      -119.5577
  15   1.0000      -3.667868       -99.8078
  16   1.0000      -2.520150       -68.5768
  17   1.0000      -2.519385       -68.5559
  18   1.0000      -2.517941       -68.5167
  19   1.0000      -2.517897       -68.5155
  20   1.0000      -2.516605       -68.4803
  21   1.0000      -2.515075       -68.4387
  22   1.0000      -2.514953       -68.4354
  23   1.0000      -2.514014       -68.4098
  24   1.0000      -2.513169       -68.3868
  25   1.0000      -2.512370       -68.3651
  26   1.0000      -2.512286       -68.3628
  27   1.0000      -2.511794       -68.3494
  28   1.0000      -2.511288       -68.3356
  29   1.0000      -2.510873       -68.3243
  30   1.0000      -2.510755       -68.3211
  31   1.0000      -2.510370       -68.3106
  32   1.0000      -2.509360       -68.2831
  33   1.0000      -2.509226       -68.2795
  34   1.0000      -2.508049       -68.2475
  35   1.0000      -2.507772       -68.2399
  36   1.0000      -2.507534       -68.2335
  37   1.0000      -2.507528       -68.2333
  38   1.0000      -2.507098       -68.2216
  39   1.0000      -2.507005       -68.2191
  40   1.0000      -2.506637       -68.2091
  41   1.0000      -2.506545       -68.2065
  42   1.0000      -2.505980       -68.1912
  43   1.0000      -2.505361       -68.1743
  44   1.0000      -2.504439       -68.1492
  45   1.0000      -2.504331       -68.1463
  46   1.0000      -2.347498       -63.8787
  47   1.0000      -2.345195       -63.8160
  48   1.0000      -2.330592       -63.4186
  49   1.0000      -0.485963       -13.2237
  50   1.0000      -0.474011       -12.8985
  51   1.0000      -0.471177       -12.8214
  52   1.0000      -0.465931       -12.6786
  53   1.0000      -0.463072       -12.6008
  54   1.0000      -0.457049       -12.4369
  55   1.0000      -0.455191       -12.3864
  56   1.0000      -0.455105       -12.3840
  57   1.0000      -0.441457       -12.0126
  58   1.0000      -0.439875       -11.9696
  59   1.0000      -0.434811       -11.8318
  60   1.0000      -0.433405       -11.7936
  61   1.0000      -0.431467       -11.7408
  62   1.0000      -0.426232       -11.5984
  63   1.0000      -0.422425       -11.4948
  64   1.0000      -0.419905       -11.4262
  65   1.0000      -0.419505       -11.4153
  66   1.0000      -0.417426       -11.3587
  67   1.0000      -0.413817       -11.2605
  68   1.0000      -0.412904       -11.2357
  69   1.0000      -0.406663       -11.0659
  70   1.0000      -0.399184       -10.8624
  71   1.0000      -0.392681       -10.6854
  72   1.0000      -0.392661       -10.6848
  73   1.0000      -0.390991       -10.6394
  74   1.0000      -0.390259       -10.6195
  75   1.0000      -0.388086       -10.5603
  76   1.0000      -0.383765       -10.4428
  77   1.0000      -0.382151       -10.3989
  78   1.0000      -0.377495       -10.2722
  79   1.0000      -0.375854       -10.2275
  80   1.0000      -0.374747       -10.1974
  81   1.0000      -0.374233       -10.1834
  82   1.0000      -0.373173       -10.1546
  83   1.0000      -0.366945        -9.9851
  84   1.0000      -0.365960        -9.9583
  85   1.0000      -0.365207        -9.9378
  86   1.0000      -0.363045        -9.8790
  87   1.0000      -0.362567        -9.8660
  88   1.0000      -0.361514        -9.8373
  89   1.0000      -0.359615        -9.7856
  90   1.0000      -0.357459        -9.7270
  91   1.0000      -0.352629        -9.5955
  92   1.0000      -0.352314        -9.5870
  93   1.0000      -0.351630        -9.5683
  94   1.0000      -0.346128        -9.4186
  95   1.0000      -0.345437        -9.3998
  96   1.0000      -0.341469        -9.2918
  97   1.0000      -0.336045        -9.1442
  98   1.0000      -0.330922        -9.0048
  99   1.0000      -0.327021        -8.8987
 100   1.0000      -0.322911        -8.7869
 101   1.0000      -0.322606        -8.7786
 102   1.0000      -0.295686        -8.0460
 103   1.0000      -0.288847        -7.8599
 104   1.0000      -0.252287        -6.8651
 105   1.0000      -0.215061        -5.8521
 106   1.0000      -0.194086        -5.2813
 107   0.0000      -0.081585        -2.2200
 108   0.0000      -0.068848        -1.8735
 109   0.0000      -0.067146        -1.8271
 110   0.0000      -0.039858        -1.0846
 111   0.0000      -0.032294        -0.8788

MULLIKEN ATOMIC CHARGES AND SPIN POPULATIONS
--------------------------------------------
   0 Au:    0.356176   -0.187592
   1 Au:   -0.026694   -0.350009
   2 Au:   -0.030657   -0.347923
   3 Au:    0.214417    0.041411
   4 Au:    0.216653    0.040763
   5 Au:    0.355520   -0.188276
   6 Au:   -0.004751   -0.039176
   7 Au:   -0.004717   -0.038550
   8 Au:   -0.027573   -0.348770
   9 Au:   -0.028632   -0.348955
  10 Fe:   -1.019744    3.767077
Sum of atomic charges         :   -0.0000000

LOEWDIN ATOMIC CHARGES AND SPIN POPULATIONS
-------------------------------------------
   0 Au:    0.117712   -0.166540
   1 Au:   -0.064498   -0.229543
   2 Au:   -0.065364   -0.228439
   3 Au:    0.088987   -0.149084
   4 Au:    0.089318   -0.149435
   5 Au:    0.117355   -0.167020
   6 Au:   -0.017867   -0.042911
   7 Au:   -0.017734   -0.042672
   8 Au:   -0.063889   -0.228856
   9 Au:   -0.065707   -0.229061
  10 Fe:   -0.118313    3.633562

  Mayer bond orders larger than 0.100000
B(  0-Au,  1-Au) :   0.3085 B(  0-Au,  2-Au) :   0.3100 B(  0-Au,  6-Au) :   0.3244
B(  1-Au,  2-Au) :   0.1832 B(  1-Au,  3-Au) :   0.3657 B(  1-Au, 10-Fe) :   0.3895
B(  2-Au,  4-Au) :   0.3660 B(  2-Au, 10-Fe) :   0.3926 B(  3-Au,  8-Au) :   0.3646
B(  3-Au, 10-Fe) :   0.5353 B(  4-Au,  9-Au) :   0.3663 B(  4-Au, 10-Fe) :   0.5327
B(  5-Au,  7-Au) :   0.3247 B(  5-Au,  8-Au) :   0.3074 B(  5-Au,  9-Au) :   0.3103
B(  6-Au,  7-Au) :   0.5589 B(  6-Au, 10-Fe) :   0.5389 B(  7-Au, 10-Fe) :   0.5397
B(  8-Au,  9-Au) :   0.1831 B(  8-Au, 10-Fe) :   0.3923 B(  9-Au, 10-Fe) :   0.3908

MP2 TOTAL ENERGY:    -2619.330246499 Eh
FINAL SINGLE POINT ENERGY     -2619.330246499427

DIPOLE MOMENT
-------------
                                X             Y             Z
Electronic contribution:      7.19090       0.96093      -9.37417
Nuclear contribution   :     -7.04881      -0.93907       9.18295
                        -----------------------------------------
Total Dipole Moment    :      0.14209       0.02186      -0.19122
                        -----------------------------------------
Magnitude (a.u.)       :      0.23923
Magnitude (Debye)      :      0.60809

Rotational constants in cm-1:     0.002437     0.001193     0.001174
Rotational constants in MHz :    73.048490    35.777097    35.189543

                             ****ORCA TERMINATED NORMALLY****
TOTAL RUN TIME: 0 days 0 hours 8 minutes 43 seconds 436 msec
