                         Program Version 5.0.3 -  RELEASE  -
|  1> !PBE def2-TZVP VERYSLOWCONV
|  2>
|  3> %scf
|  4>   AutoTRAHIter 200
|  5>   maxiter 400
|  6> end
|  7>
|  8>
|  9> %pal nprocs 6 end
| 10>
| 11> *xyzfile 0 5 pbe.xyz
| 12>
| 13> $new_job
| 14>
| 15> !PBE def2-TZVP VERYSLOWCONV
| 16>
| 17> %scf
| 18>   AutoTRAHIter 200
| 19>   maxiter 400
| 20> end
| 21>
| 22>
| 23> %pal nprocs 6 end
| 24>
| 25> *xyzfile 0 3 pbe.xyz
| 26>
| 27>
| 28>
| 29>
| 30>
| 31>                          ****END OF INPUT****
 Total Charge           Charge          ....    0
 Multiplicity           Mult            ....    5
 Number of Electrons    NEL             ....  216
FINAL SINGLE POINT ENERGY     -2621.738359201129

CARTESIAN COORDINATES (ANGSTROEM)
---------------------------------
  Au    10.970560   10.147441    8.089200
  Au     8.332911    9.316415    8.257525
  Au    10.312585    7.925119    9.602382
  Au     6.298791    7.640287    7.936105
  Au     9.383590    5.474484   10.033428
  Au     8.167506    3.441321    5.288905
  Au    10.542556    7.990392    6.495552
  Au     9.600032    5.732484    5.553492
  Au     6.682214    5.364426    6.622805
  Au     8.676097    3.981481    7.954428
  Fe     8.710592    6.676593    7.825817

 Multiplicity           Mult            ....    3
 Number of Electrons    NEL             ....  216
 Basis Dimension        Dim             ....  445

ORBITAL ENERGIES
----------------
                 SPIN UP ORBITALS
  NO   OCC          E(Eh)            E(eV)
   0   1.0000    -254.742671     -6931.9005
   1   1.0000     -29.581325      -804.9488
   2   1.0000     -25.529175      -694.6842
   3   1.0000     -25.511758      -694.2102
   4   1.0000     -25.509405      -694.1462
   5   1.0000      -4.024417      -109.5099
   6   1.0000      -4.023986      -109.4982
   7   1.0000      -4.023833      -109.4941
   8   1.0000      -4.023275      -109.4789
   9   1.0000      -4.020207      -109.3954
  10   1.0000      -4.020200      -109.3952
  11   1.0000      -4.018336      -109.3445
  12   1.0000      -4.018000      -109.3353
  13   1.0000      -4.017344      -109.3175
  14   1.0000      -4.015649      -109.2714
  15   1.0000      -3.359108       -91.4060
  16   1.0000      -2.243448       -61.0473
  17   1.0000      -2.242878       -61.0318
  18   1.0000      -2.242248       -61.0147
  19   1.0000      -2.241630       -60.9979
  20   1.0000      -2.241087       -60.9831
  21   1.0000      -2.240144       -60.9574
  22   1.0000      -2.239983       -60.9530
  23   1.0000      -2.237310       -60.8803
  24   1.0000      -2.237216       -60.8777
  25   1.0000      -2.237043       -60.8730
  26   1.0000      -2.236040       -60.8458
  27   1.0000      -2.234630       -60.8074
  28   1.0000      -2.233182       -60.7680
  29   1.0000      -2.232951       -60.7617
  30   1.0000      -2.232710       -60.7551
  31   1.0000      -2.232287       -60.7436
  32   1.0000      -2.231787       -60.7300
  33   1.0000      -2.231625       -60.7256
  34   1.0000      -2.231124       -60.7120
  35   1.0000      -2.231050       -60.7100
  36   1.0000      -2.230911       -60.7062
  37   1.0000      -2.230685       -60.7000
  38   1.0000      -2.230170       -60.6860
  39   1.0000      -2.230035       -60.6823
  40   1.0000      -2.229750       -60.6746
  41   1.0000      -2.229491       -60.6675
  42   1.0000      -2.223471       -60.5037
  43   1.0000      -2.222538       -60.4783
  44   1.0000      -2.221956       -60.4625
  45   1.0000      -2.221306       -60.4448
  46   1.0000      -2.197358       -59.7931
  47   1.0000      -2.162889       -58.8552
  48   1.0000      -2.157977       -58.7216
  49   1.0000      -0.405642       -11.0381
  50   1.0000      -0.381847       -10.3906
  51   1.0000      -0.371770       -10.1164
  52   1.0000      -0.368276       -10.0213
  53   1.0000      -0.360645        -9.8137
  54   1.0000      -0.358208        -9.7473
  55   1.0000      -0.356204        -9.6928
  56   1.0000      -0.355052        -9.6615
  57   1.0000      -0.339016        -9.2251
  58   1.0000      -0.337663        -9.1883
  59   1.0000      -0.331641        -9.0244
  60   1.0000      -0.331296        -9.0150
  61   1.0000      -0.326946        -8.8967
  62   1.0000      -0.326340        -8.8802
  63   1.0000      -0.323325        -8.7981
  64   1.0000      -0.322795        -8.7837
  65   1.0000      -0.318732        -8.6731
  66   1.0000      -0.312960        -8.5161
  67   1.0000      -0.312596        -8.5062
  68   1.0000      -0.311602        -8.4791
  69   1.0000      -0.309304        -8.4166
  70   1.0000      -0.299639        -8.1536
  71   1.0000      -0.294966        -8.0264
  72   1.0000      -0.293308        -7.9813
  73   1.0000      -0.293294        -7.9809
  74   1.0000      -0.287874        -7.8334
  75   1.0000      -0.287422        -7.8211
  76   1.0000      -0.286496        -7.7960
  77   1.0000      -0.282024        -7.6743
  78   1.0000      -0.281867        -7.6700
  79   1.0000      -0.279427        -7.6036
  80   1.0000      -0.275916        -7.5080
  81   1.0000      -0.274045        -7.4571
  82   1.0000      -0.273574        -7.4443
  83   1.0000      -0.272290        -7.4094
  84   1.0000      -0.268554        -7.3077
  85   1.0000      -0.266786        -7.2596
  86   1.0000      -0.266010        -7.2385
  87   1.0000      -0.265174        -7.2157
  88   1.0000      -0.261936        -7.1276
  89   1.0000      -0.261455        -7.1145
  90   1.0000      -0.258636        -7.0379
  91   1.0000      -0.257652        -7.0111
  92   1.0000      -0.256968        -6.9925
  93   1.0000      -0.254406        -6.9227
  94   1.0000      -0.253683        -6.9031
  95   1.0000      -0.252536        -6.8719
  96   1.0000      -0.251680        -6.8485
  97   1.0000      -0.249019        -6.7762
  98   1.0000      -0.247183        -6.7262
  99   1.0000      -0.246502        -6.7077
 100   1.0000      -0.244624        -6.6565
 101   1.0000      -0.244024        -6.6402
 102   1.0000      -0.237320        -6.4578
 103   1.0000      -0.233862        -6.3637
 104   1.0000      -0.232824        -6.3355
 105   1.0000      -0.230912        -6.2834
 106   1.0000      -0.228686        -6.2229
 107   1.0000      -0.214117        -5.8264
 108   1.0000      -0.210247        -5.7211
 109   0.0000      -0.181463        -4.9379
 110   0.0000      -0.168907        -4.5962
 111   0.0000      -0.134829        -3.6689
 112   0.0000      -0.128675        -3.5014
 113   0.0000      -0.119973        -3.2646

                 SPIN DOWN ORBITALS
  NO   OCC          E(Eh)            E(eV)
   0   1.0000    -254.741986     -6931.8819
   1   1.0000     -29.524623      -803.4058
   2   1.0000     -25.481461      -693.3858
   3   1.0000     -25.470745      -693.0942
   4   1.0000     -25.469690      -693.0655
   5   1.0000      -4.024284      -109.5063
   6   1.0000      -4.023925      -109.4966
   7   1.0000      -4.023771      -109.4924
   8   1.0000      -4.023291      -109.4793
   9   1.0000      -4.021046      -109.4182
  10   1.0000      -4.021042      -109.4181
  11   1.0000      -4.017698      -109.3271
  12   1.0000      -4.017548      -109.3230
  13   1.0000      -4.017223      -109.3142
  14   1.0000      -4.016121      -109.2842
  15   1.0000      -3.229996       -87.8927
  16   1.0000      -2.243580       -61.0509
  17   1.0000      -2.242948       -61.0337
  18   1.0000      -2.242254       -61.0148
  19   1.0000      -2.241417       -60.9921
  20   1.0000      -2.240314       -60.9620
  21   1.0000      -2.239565       -60.9417
  22   1.0000      -2.239430       -60.9380
  23   1.0000      -2.237777       -60.8930
  24   1.0000      -2.236875       -60.8685
  25   1.0000      -2.236771       -60.8656
  26   1.0000      -2.236663       -60.8627
  27   1.0000      -2.234513       -60.8042
  28   1.0000      -2.233346       -60.7724
  29   1.0000      -2.233267       -60.7703
  30   1.0000      -2.233071       -60.7649
  31   1.0000      -2.232226       -60.7420
  32   1.0000      -2.232062       -60.7375
  33   1.0000      -2.231861       -60.7320
  34   1.0000      -2.231447       -60.7207
  35   1.0000      -2.231233       -60.7149
  36   1.0000      -2.230945       -60.7071
  37   1.0000      -2.230781       -60.7026
  38   1.0000      -2.230713       -60.7008
  39   1.0000      -2.230229       -60.6876
  40   1.0000      -2.230167       -60.6859
  41   1.0000      -2.229873       -60.6779
  42   1.0000      -2.223136       -60.4946
  43   1.0000      -2.222303       -60.4719
  44   1.0000      -2.221723       -60.4562
  45   1.0000      -2.221255       -60.4434
  46   1.0000      -2.056871       -55.9703
  47   1.0000      -2.041747       -55.5588
  48   1.0000      -2.040564       -55.5266
  49   1.0000      -0.403642       -10.9836
  50   1.0000      -0.383688       -10.4407
  51   1.0000      -0.368628       -10.0309
  52   1.0000      -0.367262        -9.9937
  53   1.0000      -0.360962        -9.8223
  54   1.0000      -0.354238        -9.6393
  55   1.0000      -0.353087        -9.6080
  56   1.0000      -0.352064        -9.5801
  57   1.0000      -0.337839        -9.1931
  58   1.0000      -0.333275        -9.0689
  59   1.0000      -0.333212        -9.0672
  60   1.0000      -0.329291        -8.9605
  61   1.0000      -0.324136        -8.8202
  62   1.0000      -0.322305        -8.7704
  63   1.0000      -0.317351        -8.6356
  64   1.0000      -0.316997        -8.6259
  65   1.0000      -0.315552        -8.5866
  66   1.0000      -0.312560        -8.5052
  67   1.0000      -0.308794        -8.4027
  68   1.0000      -0.306091        -8.3292
  69   1.0000      -0.300950        -8.1893
  70   1.0000      -0.296756        -8.0751
  71   1.0000      -0.296398        -8.0654
  72   1.0000      -0.294489        -8.0135
  73   1.0000      -0.290145        -7.8952
  74   1.0000      -0.288706        -7.8561
  75   1.0000      -0.288381        -7.8472
  76   1.0000      -0.288289        -7.8447
  77   1.0000      -0.281090        -7.6488
  78   1.0000      -0.280933        -7.6446
  79   1.0000      -0.279417        -7.6033
  80   1.0000      -0.273915        -7.4536
  81   1.0000      -0.273061        -7.4304
  82   1.0000      -0.271177        -7.3791
  83   1.0000      -0.270284        -7.3548
  84   1.0000      -0.268244        -7.2993
  85   1.0000      -0.267146        -7.2694
  86   1.0000      -0.264933        -7.2092
  87   1.0000      -0.264457        -7.1962
  88   1.0000      -0.264316        -7.1924
  89   1.0000      -0.261638        -7.1195
  90   1.0000      -0.259155        -7.0520
  91   1.0000      -0.257800        -7.0151
  92   1.0000      -0.257148        -6.9974
  93   1.0000      -0.255979        -6.9656
  94   1.0000      -0.254437        -6.9236
  95   1.0000      -0.249783        -6.7969
  96   1.0000      -0.247920        -6.7462
  97   1.0000      -0.247026        -6.7219
  98   1.0000      -0.244947        -6.6653
  99   1.0000      -0.242158        -6.5895
 100   1.0000      -0.236774        -6.4429
 101   1.0000      -0.236145        -6.4258
 102   1.0000      -0.230945        -6.2843
 103   1.0000      -0.222980        -6.0676
 104   1.0000      -0.194430        -5.2907
 105   1.0000      -0.192459        -5.2371
 106   1.0000      -0.164736        -4.4827
 107   0.0000      -0.158159        -4.3037
 108   0.0000      -0.151984        -4.1357
 109   0.0000      -0.146024        -3.9735
 110   0.0000      -0.135475        -3.6865
 111   0.0000      -0.129656        -3.5281

MULLIKEN ATOMIC CHARGES AND SPIN POPULATIONS
--------------------------------------------
   0 Au:    0.387818   -0.107083
   1 Au:    0.031433   -0.205496
   2 Au:    0.039627   -0.185435
   3 Au:    0.221298   -0.013754
   4 Au:    0.221987   -0.021560
   5 Au:    0.387883   -0.108348
   6 Au:    0.021577   -0.008845
   7 Au:    0.020803   -0.003452
   8 Au:    0.032959   -0.190381
   9 Au:    0.039657   -0.198237
  10 Fe:   -1.405041    3.042590
Sum of atomic charges         :   -0.0000000

LOEWDIN ATOMIC CHARGES AND SPIN POPULATIONS
-------------------------------------------
   0 Au:    0.091668   -0.122622
   1 Au:   -0.009849   -0.129975
   2 Au:   -0.009493   -0.125730
   3 Au:    0.122217   -0.114597
   4 Au:    0.120588   -0.123291
   5 Au:    0.091686   -0.122851
   6 Au:    0.018845   -0.020727
   7 Au:    0.019431   -0.017932
   8 Au:   -0.007778   -0.121598
   9 Au:   -0.011119   -0.132980
  10 Fe:   -0.426194    3.032302

  Mayer bond orders larger than 0.100000
B(  0-Au,  1-Au) :   0.3386 B(  0-Au,  2-Au) :   0.3405 B(  0-Au,  6-Au) :   0.3506
B(  1-Au,  2-Au) :   0.2329 B(  1-Au,  3-Au) :   0.3969 B(  1-Au,  6-Au) :   0.1192
B(  1-Au, 10-Fe) :   0.5451 B(  2-Au,  4-Au) :   0.3999 B(  2-Au,  6-Au) :   0.1182
B(  2-Au, 10-Fe) :   0.5500 B(  3-Au,  8-Au) :   0.3981 B(  3-Au, 10-Fe) :   0.5199
B(  4-Au,  9-Au) :   0.3982 B(  4-Au, 10-Fe) :   0.5199 B(  5-Au,  7-Au) :   0.3496
B(  5-Au,  8-Au) :   0.3408 B(  5-Au,  9-Au) :   0.3379 B(  6-Au,  7-Au) :   0.5833
B(  6-Au, 10-Fe) :   0.5868 B(  7-Au,  8-Au) :   0.1171 B(  7-Au,  9-Au) :   0.1189
B(  7-Au, 10-Fe) :   0.5911 B(  8-Au,  9-Au) :   0.2330 B(  8-Au, 10-Fe) :   0.5548
B(  9-Au, 10-Fe) :   0.5411

FINAL SINGLE POINT ENERGY     -2621.725338559183

DIPOLE MOMENT
-------------
                                X             Y             Z
Electronic contribution:      7.01739       0.95146      -9.18580
Nuclear contribution   :     -7.04881      -0.93907       9.18295
                        -----------------------------------------
Total Dipole Moment    :     -0.03142       0.01239      -0.00285
                        -----------------------------------------
Magnitude (a.u.)       :      0.03390
Magnitude (Debye)      :      0.08616

Rotational constants in cm-1:     0.002437     0.001193     0.001174
Rotational constants in MHz :    73.048490    35.777097    35.189543

                             ****ORCA TERMINATED NORMALLY****
TOTAL RUN TIME: 0 days 0 hours 4 minutes 0 seconds 724 msec
