                         Program Version 5.0.3 -  RELEASE  -
|  1> !R2SCAN def2-TZVP VERYSLOWCONV
|  2>
|  3> %scf
|  4>   AutoTRAHIter 400
|  5>   maxiter 800
|  6> end
|  7>
|  8> %pal nprocs 6 end
|  9>
| 10> *xyzfile 0 5 pbe.xyz
| 11>
| 12> $new_job
| 13>
| 14> !R2SCAN def2-TZVP VERYSLOWCONV
| 15> %scf
| 16>   AutoTRAHIter 400
| 17>   maxiter 800
| 18> end
| 19>
| 20>
| 21> %pal nprocs 6 end
| 22>
| 23> *xyzfile 0 3 pbe.xyz
| 24>
| 25>
| 26>
| 27>
| 28>
| 29>                          ****END OF INPUT****
 Total Charge           Charge          ....    0
 Multiplicity           Mult            ....    5
 Number of Electrons    NEL             ....  216
FINAL SINGLE POINT ENERGY     -2622.139170931483

CARTESIAN COORDINATES (ANGSTROEM)
---------------------------------
  Au    10.970560   10.147441    8.089200
  Au     8.332911    9.316415    8.257525
  Au    10.312585    7.925119    9.602382
  Au     6.298791    7.640287    7.936105
  Au     9.383590    5.474484   10.033428
  Au     8.167506    3.441321    5.288905
  Au    10.542556    7.990392    6.495552
  Au     9.600032    5.732484    5.553492
  Au     6.682214    5.364426    6.622805
  Au     8.676097    3.981481    7.954428
  Fe     8.710592    6.676593    7.825817

 Multiplicity           Mult            ....    3
 Number of Electrons    NEL             ....  216
 Basis Dimension        Dim             ....  445

ORBITAL ENERGIES
----------------
                 SPIN UP ORBITALS
  NO   OCC          E(Eh)            E(eV)
   0   1.0000    -255.626429     -6955.9488
   1   1.0000     -29.926694      -814.3468
   2   1.0000     -25.770894      -701.2617
   3   1.0000     -25.750988      -700.7200
   4   1.0000     -25.748903      -700.6633
   5   1.0000      -4.115419      -111.9862
   6   1.0000      -4.115243      -111.9815
   7   1.0000      -4.114572      -111.9632
   8   1.0000      -4.114480      -111.9607
   9   1.0000      -4.111313      -111.8745
  10   1.0000      -4.111312      -111.8745
  11   1.0000      -4.108804      -111.8062
  12   1.0000      -4.108449      -111.7966
  13   1.0000      -4.108266      -111.7916
  14   1.0000      -4.108049      -111.7857
  15   1.0000      -3.507050       -95.4317
  16   1.0000      -2.307389       -62.7872
  17   1.0000      -2.306713       -62.7688
  18   1.0000      -2.306013       -62.7498
  19   1.0000      -2.305524       -62.7365
  20   1.0000      -2.305232       -62.7286
  21   1.0000      -2.304554       -62.7101
  22   1.0000      -2.303989       -62.6947
  23   1.0000      -2.301136       -62.6171
  24   1.0000      -2.301105       -62.6163
  25   1.0000      -2.300800       -62.6080
  26   1.0000      -2.299695       -62.5779
  27   1.0000      -2.299654       -62.5768
  28   1.0000      -2.297622       -62.5215
  29   1.0000      -2.296781       -62.4986
  30   1.0000      -2.296615       -62.4941
  31   1.0000      -2.296255       -62.4843
  32   1.0000      -2.295807       -62.4721
  33   1.0000      -2.295606       -62.4666
  34   1.0000      -2.295332       -62.4592
  35   1.0000      -2.295326       -62.4590
  36   1.0000      -2.295122       -62.4534
  37   1.0000      -2.294973       -62.4494
  38   1.0000      -2.294121       -62.4262
  39   1.0000      -2.294033       -62.4238
  40   1.0000      -2.293733       -62.4157
  41   1.0000      -2.293661       -62.4137
  42   1.0000      -2.293634       -62.4130
  43   1.0000      -2.287230       -62.2387
  44   1.0000      -2.286976       -62.2318
  45   1.0000      -2.286169       -62.2098
  46   1.0000      -2.285540       -62.1927
  47   1.0000      -2.259728       -61.4903
  48   1.0000      -2.255175       -61.3664
  49   1.0000      -0.411759       -11.2045
  50   1.0000      -0.387196       -10.5361
  51   1.0000      -0.381400       -10.3784
  52   1.0000      -0.377701       -10.2778
  53   1.0000      -0.373104       -10.1527
  54   1.0000      -0.369300       -10.0492
  55   1.0000      -0.367923       -10.0117
  56   1.0000      -0.365811        -9.9542
  57   1.0000      -0.351353        -9.5608
  58   1.0000      -0.349262        -9.5039
  59   1.0000      -0.342090        -9.3087
  60   1.0000      -0.340257        -9.2589
  61   1.0000      -0.339103        -9.2275
  62   1.0000      -0.338475        -9.2104
  63   1.0000      -0.334666        -9.1067
  64   1.0000      -0.332552        -9.0492
  65   1.0000      -0.329159        -8.9569
  66   1.0000      -0.324338        -8.8257
  67   1.0000      -0.323786        -8.8107
  68   1.0000      -0.322174        -8.7668
  69   1.0000      -0.320390        -8.7183
  70   1.0000      -0.309040        -8.4094
  71   1.0000      -0.304031        -8.2731
  72   1.0000      -0.303881        -8.2690
  73   1.0000      -0.301723        -8.2103
  74   1.0000      -0.296841        -8.0774
  75   1.0000      -0.296048        -8.0559
  76   1.0000      -0.294870        -8.0238
  77   1.0000      -0.292708        -7.9650
  78   1.0000      -0.289735        -7.8841
  79   1.0000      -0.288499        -7.8505
  80   1.0000      -0.284924        -7.7532
  81   1.0000      -0.283546        -7.7157
  82   1.0000      -0.282528        -7.6880
  83   1.0000      -0.282031        -7.6744
  84   1.0000      -0.277963        -7.5638
  85   1.0000      -0.275426        -7.4947
  86   1.0000      -0.275016        -7.4836
  87   1.0000      -0.274600        -7.4722
  88   1.0000      -0.270787        -7.3685
  89   1.0000      -0.269879        -7.3438
  90   1.0000      -0.269221        -7.3259
  91   1.0000      -0.265961        -7.2372
  92   1.0000      -0.265914        -7.2359
  93   1.0000      -0.265709        -7.2303
  94   1.0000      -0.262801        -7.1512
  95   1.0000      -0.262351        -7.1389
  96   1.0000      -0.260781        -7.0962
  97   1.0000      -0.259527        -7.0621
  98   1.0000      -0.259149        -7.0518
  99   1.0000      -0.256848        -6.9892
 100   1.0000      -0.254475        -6.9246
 101   1.0000      -0.253627        -6.9015
 102   1.0000      -0.246948        -6.7198
 103   1.0000      -0.240395        -6.5415
 104   1.0000      -0.239800        -6.5253
 105   1.0000      -0.238462        -6.4889
 106   1.0000      -0.235707        -6.4139
 107   1.0000      -0.222862        -6.0644
 108   1.0000      -0.215572        -5.8660
 109   0.0000      -0.178470        -4.8564
 110   0.0000      -0.165613        -4.5065
 111   0.0000      -0.128746        -3.5034
 112   0.0000      -0.123441        -3.3590
 113   0.0000      -0.114403        -3.1131

                 SPIN DOWN ORBITALS
  NO   OCC          E(Eh)            E(eV)
   0   1.0000    -255.625404     -6955.9209
   1   1.0000     -29.848798      -812.2271
   2   1.0000     -25.704075      -699.4434
   3   1.0000     -25.694514      -699.1833
   4   1.0000     -25.693910      -699.1668
   5   1.0000      -4.115571      -111.9904
   6   1.0000      -4.115393      -111.9855
   7   1.0000      -4.114820      -111.9699
   8   1.0000      -4.114720      -111.9672
   9   1.0000      -4.112466      -111.9059
  10   1.0000      -4.112462      -111.9058
  11   1.0000      -4.108954      -111.8103
  12   1.0000      -4.108762      -111.8051
  13   1.0000      -4.107930      -111.7825
  14   1.0000      -4.107575      -111.7728
  15   1.0000      -3.333045       -90.6968
  16   1.0000      -2.307609       -62.7932
  17   1.0000      -2.306953       -62.7754
  18   1.0000      -2.306204       -62.7550
  19   1.0000      -2.305245       -62.7289
  20   1.0000      -2.303659       -62.6857
  21   1.0000      -2.303575       -62.6835
  22   1.0000      -2.303202       -62.6733
  23   1.0000      -2.301738       -62.6335
  24   1.0000      -2.300665       -62.6043
  25   1.0000      -2.300633       -62.6034
  26   1.0000      -2.300477       -62.5991
  27   1.0000      -2.298200       -62.5372
  28   1.0000      -2.297185       -62.5096
  29   1.0000      -2.297053       -62.5060
  30   1.0000      -2.296865       -62.5009
  31   1.0000      -2.296775       -62.4984
  32   1.0000      -2.296537       -62.4920
  33   1.0000      -2.295516       -62.4642
  34   1.0000      -2.295413       -62.4614
  35   1.0000      -2.294954       -62.4489
  36   1.0000      -2.294866       -62.4465
  37   1.0000      -2.294865       -62.4464
  38   1.0000      -2.294239       -62.4294
  39   1.0000      -2.294200       -62.4284
  40   1.0000      -2.294025       -62.4236
  41   1.0000      -2.292979       -62.3951
  42   1.0000      -2.287193       -62.2377
  43   1.0000      -2.286987       -62.2321
  44   1.0000      -2.285868       -62.2016
  45   1.0000      -2.285240       -62.1845
  46   1.0000      -2.111802       -57.4650
  47   1.0000      -2.095718       -57.0274
  48   1.0000      -2.095095       -57.0104
  49   1.0000      -0.410674       -11.1750
  50   1.0000      -0.390239       -10.6190
  51   1.0000      -0.377724       -10.2784
  52   1.0000      -0.376709       -10.2508
  53   1.0000      -0.370221       -10.0742
  54   1.0000      -0.363220        -9.8837
  55   1.0000      -0.362763        -9.8713
  56   1.0000      -0.361772        -9.8443
  57   1.0000      -0.348142        -9.4734
  58   1.0000      -0.342903        -9.3309
  59   1.0000      -0.342616        -9.3231
  60   1.0000      -0.339708        -9.2439
  61   1.0000      -0.333706        -9.0806
  62   1.0000      -0.332120        -9.0375
  63   1.0000      -0.326999        -8.8981
  64   1.0000      -0.325731        -8.8636
  65   1.0000      -0.324712        -8.8359
  66   1.0000      -0.321917        -8.7598
  67   1.0000      -0.318914        -8.6781
  68   1.0000      -0.315458        -8.5840
  69   1.0000      -0.310438        -8.4474
  70   1.0000      -0.305842        -8.3224
  71   1.0000      -0.305700        -8.3185
  72   1.0000      -0.303325        -8.2539
  73   1.0000      -0.299299        -8.1444
  74   1.0000      -0.297728        -8.1016
  75   1.0000      -0.297593        -8.0979
  76   1.0000      -0.297093        -8.0843
  77   1.0000      -0.290119        -7.8945
  78   1.0000      -0.290076        -7.8934
  79   1.0000      -0.287596        -7.8259
  80   1.0000      -0.282733        -7.6936
  81   1.0000      -0.282067        -7.6754
  82   1.0000      -0.279906        -7.6166
  83   1.0000      -0.278088        -7.5672
  84   1.0000      -0.277415        -7.5488
  85   1.0000      -0.276107        -7.5132
  86   1.0000      -0.273912        -7.4535
  87   1.0000      -0.273374        -7.4389
  88   1.0000      -0.273158        -7.4330
  89   1.0000      -0.270900        -7.3716
  90   1.0000      -0.267023        -7.2661
  91   1.0000      -0.266580        -7.2540
  92   1.0000      -0.264801        -7.2056
  93   1.0000      -0.264563        -7.1991
  94   1.0000      -0.262792        -7.1509
  95   1.0000      -0.256882        -6.9901
  96   1.0000      -0.255817        -6.9611
  97   1.0000      -0.254943        -6.9374
  98   1.0000      -0.250239        -6.8093
  99   1.0000      -0.249893        -6.7999
 100   1.0000      -0.244071        -6.6415
 101   1.0000      -0.242977        -6.6117
 102   1.0000      -0.237497        -6.4626
 103   1.0000      -0.225760        -6.1433
 104   1.0000      -0.196072        -5.3354
 105   1.0000      -0.194032        -5.2799
 106   1.0000      -0.171464        -4.6658
 107   0.0000      -0.150502        -4.0954
 108   0.0000      -0.142340        -3.8733
 109   0.0000      -0.137817        -3.7502
 110   0.0000      -0.124300        -3.3824
 111   0.0000      -0.119820        -3.2605

MULLIKEN ATOMIC CHARGES AND SPIN POPULATIONS
--------------------------------------------
   0 Au:    0.351001   -0.136312
   1 Au:    0.028292   -0.219453
   2 Au:    0.023573   -0.231007
   3 Au:    0.210030   -0.013890
   4 Au:    0.210761   -0.015534
   5 Au:    0.350762   -0.137430
   6 Au:    0.016161   -0.013296
   7 Au:    0.015820   -0.013202
   8 Au:    0.022979   -0.232991
   9 Au:    0.029585   -0.216051
  10 Fe:   -1.258966    3.229165
Sum of atomic charges         :    0.0000000

LOEWDIN ATOMIC CHARGES AND SPIN POPULATIONS
-------------------------------------------
   0 Au:    0.090111   -0.137946
   1 Au:   -0.015322   -0.145235
   2 Au:   -0.017889   -0.152322
   3 Au:    0.112170   -0.133569
   4 Au:    0.112367   -0.134372
   5 Au:    0.089909   -0.138636
   6 Au:    0.009224   -0.027018
   7 Au:    0.009327   -0.027069
   8 Au:   -0.016669   -0.152430
   9 Au:   -0.016070   -0.144480
  10 Fe:   -0.357158    3.193077

  Mayer bond orders larger than 0.100000
B(  0-Au,  1-Au) :   0.3329 B(  0-Au,  2-Au) :   0.3313 B(  0-Au,  6-Au) :   0.3390
B(  1-Au,  2-Au) :   0.2028 B(  1-Au,  3-Au) :   0.3978 B(  1-Au, 10-Fe) :   0.5209
B(  2-Au,  4-Au) :   0.3956 B(  2-Au, 10-Fe) :   0.5129 B(  3-Au,  8-Au) :   0.3943
B(  3-Au, 10-Fe) :   0.5172 B(  4-Au,  9-Au) :   0.3985 B(  4-Au, 10-Fe) :   0.5150
B(  5-Au,  7-Au) :   0.3398 B(  5-Au,  8-Au) :   0.3288 B(  5-Au,  9-Au) :   0.3347
B(  6-Au,  7-Au) :   0.5926 B(  6-Au, 10-Fe) :   0.5706 B(  7-Au, 10-Fe) :   0.5703
B(  8-Au,  9-Au) :   0.2029 B(  8-Au, 10-Fe) :   0.5135 B(  9-Au, 10-Fe) :   0.5213

FINAL SINGLE POINT ENERGY     -2622.127936460570

DIPOLE MOMENT
-------------
                                X             Y             Z
Electronic contribution:      7.02513       0.93951      -9.15984
Nuclear contribution   :     -7.04881      -0.93907       9.18295
                        -----------------------------------------
Total Dipole Moment    :     -0.02369       0.00044       0.02311
                        -----------------------------------------
Magnitude (a.u.)       :      0.03309
Magnitude (Debye)      :      0.08412

Rotational constants in cm-1:     0.002437     0.001193     0.001174
Rotational constants in MHz :    73.048490    35.777097    35.189543

                             ****ORCA TERMINATED NORMALLY****
TOTAL RUN TIME: 0 days 0 hours 4 minutes 14 seconds 199 msec
