                         Program Version 5.0.3 -  RELEASE  -
|  1> !RI-B2PLYP def2-TZVP def2-TZVP/C
|  2> !RIJCOSX VERYSLOWCONV
|  3>
|  4> %scf
|  5>   AutoTRAHIter 200
|  6>   maxiter 400
|  7> end
|  8>
|  9>
| 10> %pal nprocs 6 end
| 11>
| 12> *xyzfile 0 5 pbe.xyz
| 13>
| 14> $new_job
| 15>
| 16> !RI-B2PLYP def2-TZVP def2-TZVP/C
| 17> !RIJCOSX VERYSLOWCONV
| 18>
| 19> %scf
| 20>   AutoTRAHIter 200
| 21>   maxiter 400
| 22> end
| 23>
| 24>
| 25> %pal nprocs 6 end
| 26>
| 27> *xyzfile 0 3 pbe.xyz
| 28>
| 29>
| 30>
| 31>
| 32>
| 33>                          ****END OF INPUT****
 Total Charge           Charge          ....    0
 Multiplicity           Mult            ....    5
 Number of Electrons    NEL             ....  252
MP2 TOTAL ENERGY:    -2671.310167670 Eh
FINAL SINGLE POINT ENERGY     -2671.310167670347

CARTESIAN COORDINATES (ANGSTROEM)
---------------------------------
  Au     5.568225   10.654325    6.908268
  Au     6.707828   10.017025   10.874113
  Au     9.771579    8.185229    7.450001
  Au     7.393595    7.085246    5.725351
  Au     9.599364    8.229084    4.693930
  Au     4.963516    7.957749    6.648424
  Au     8.154734   10.093442    6.121497
  Au     9.161243    9.121290    9.848369
  Au     7.689785   11.230085    8.595430
  Au     4.577492    9.247494    9.096527
  Au     6.083491    7.262682   10.377872
  Au     6.420726    5.980095    8.029376
  Cr     7.104557    8.593466    8.236307

 Multiplicity           Mult            ....    3
 Number of Electrons    NEL             ....  252
 Basis Dimension        Dim             ....  525

ORBITAL ENERGIES
----------------
                 SPIN UP ORBITALS
  NO   OCC          E(Eh)            E(eV)
   0   1.0000    -217.749130     -5925.2551
   1   1.0000     -25.434658      -692.1122
   2   1.0000     -21.574115      -587.0615
   3   1.0000     -21.573540      -587.0459
   4   1.0000     -21.568709      -586.9144
   5   1.0000      -4.397799      -119.6702
   6   1.0000      -4.396733      -119.6412
   7   1.0000      -4.396634      -119.6385
   8   1.0000      -4.394205      -119.5724
   9   1.0000      -4.394014      -119.5672
  10   1.0000      -4.391893      -119.5095
  11   1.0000      -4.390223      -119.4640
  12   1.0000      -4.389863      -119.4542
  13   1.0000      -4.389134      -119.4344
  14   1.0000      -4.388971      -119.4300
  15   1.0000      -4.388209      -119.4092
  16   1.0000      -4.385386      -119.3324
  17   1.0000      -3.223133       -87.7059
  18   1.0000      -2.521645       -68.6175
  19   1.0000      -2.519554       -68.5605
  20   1.0000      -2.517325       -68.4999
  21   1.0000      -2.516023       -68.4645
  22   1.0000      -2.515149       -68.4407
  23   1.0000      -2.514613       -68.4261
  24   1.0000      -2.514487       -68.4227
  25   1.0000      -2.513884       -68.4063
  26   1.0000      -2.513644       -68.3997
  27   1.0000      -2.513165       -68.3867
  28   1.0000      -2.512827       -68.3775
  29   1.0000      -2.511964       -68.3540
  30   1.0000      -2.511487       -68.3410
  31   1.0000      -2.510208       -68.3062
  32   1.0000      -2.509869       -68.2970
  33   1.0000      -2.509773       -68.2944
  34   1.0000      -2.509553       -68.2884
  35   1.0000      -2.509281       -68.2810
  36   1.0000      -2.508443       -68.2582
  37   1.0000      -2.508206       -68.2517
  38   1.0000      -2.508122       -68.2495
  39   1.0000      -2.507893       -68.2432
  40   1.0000      -2.507669       -68.2371
  41   1.0000      -2.507184       -68.2240
  42   1.0000      -2.506852       -68.2149
  43   1.0000      -2.506169       -68.1963
  44   1.0000      -2.505628       -68.1816
  45   1.0000      -2.505472       -68.1773
  46   1.0000      -2.504218       -68.1432
  47   1.0000      -2.503744       -68.1303
  48   1.0000      -2.503698       -68.1291
  49   1.0000      -2.502727       -68.1027
  50   1.0000      -2.502308       -68.0913
  51   1.0000      -2.501189       -68.0608
  52   1.0000      -2.500881       -68.0524
  53   1.0000      -2.499074       -68.0033
  54   1.0000      -2.114139       -57.5287
  55   1.0000      -2.106428       -57.3188
  56   1.0000      -2.104952       -57.2786
  57   1.0000      -0.488291       -13.2871
  58   1.0000      -0.475036       -12.9264
  59   1.0000      -0.471596       -12.8328
  60   1.0000      -0.467928       -12.7330
  61   1.0000      -0.464696       -12.6450
  62   1.0000      -0.461974       -12.5710
  63   1.0000      -0.457166       -12.4401
  64   1.0000      -0.451107       -12.2753
  65   1.0000      -0.448770       -12.2117
  66   1.0000      -0.445578       -12.1248
  67   1.0000      -0.444689       -12.1006
  68   1.0000      -0.441493       -12.0136
  69   1.0000      -0.439499       -11.9594
  70   1.0000      -0.434924       -11.8349
  71   1.0000      -0.432568       -11.7708
  72   1.0000      -0.429672       -11.6920
  73   1.0000      -0.428368       -11.6565
  74   1.0000      -0.422788       -11.5046
  75   1.0000      -0.421216       -11.4619
  76   1.0000      -0.419892       -11.4259
  77   1.0000      -0.419235       -11.4080
  78   1.0000      -0.416935       -11.3454
  79   1.0000      -0.414928       -11.2908
  80   1.0000      -0.413344       -11.2477
  81   1.0000      -0.411988       -11.2108
  82   1.0000      -0.406707       -11.0671
  83   1.0000      -0.404679       -11.0119
  84   1.0000      -0.401144       -10.9157
  85   1.0000      -0.397053       -10.8044
  86   1.0000      -0.394873       -10.7450
  87   1.0000      -0.394401       -10.7322
  88   1.0000      -0.390660       -10.6304
  89   1.0000      -0.387232       -10.5371
  90   1.0000      -0.385959       -10.5025
  91   1.0000      -0.382223       -10.4008
  92   1.0000      -0.380357       -10.3500
  93   1.0000      -0.377597       -10.2749
  94   1.0000      -0.375137       -10.2080
  95   1.0000      -0.371885       -10.1195
  96   1.0000      -0.370667       -10.0864
  97   1.0000      -0.369009       -10.0412
  98   1.0000      -0.364926        -9.9301
  99   1.0000      -0.363649        -9.8954
 100   1.0000      -0.362621        -9.8674
 101   1.0000      -0.362062        -9.8522
 102   1.0000      -0.358333        -9.7507
 103   1.0000      -0.358132        -9.7453
 104   1.0000      -0.355556        -9.6752
 105   1.0000      -0.355052        -9.6615
 106   1.0000      -0.351309        -9.5596
 107   1.0000      -0.348062        -9.4712
 108   1.0000      -0.347449        -9.4546
 109   1.0000      -0.344080        -9.3629
 110   1.0000      -0.342484        -9.3195
 111   1.0000      -0.341987        -9.3059
 112   1.0000      -0.339901        -9.2492
 113   1.0000      -0.337900        -9.1947
 114   1.0000      -0.337126        -9.1737
 115   1.0000      -0.335926        -9.1410
 116   1.0000      -0.333303        -9.0696
 117   1.0000      -0.328450        -8.9376
 118   1.0000      -0.326735        -8.8909
 119   1.0000      -0.320836        -8.7304
 120   1.0000      -0.316387        -8.6093
 121   1.0000      -0.310790        -8.4570
 122   1.0000      -0.306447        -8.3388
 123   1.0000      -0.296328        -8.0635
 124   1.0000      -0.275758        -7.5038
 125   1.0000      -0.236386        -6.4324
 126   1.0000      -0.231447        -6.2980
 127   0.0000      -0.121822        -3.3149
 128   0.0000      -0.086419        -2.3516
 129   0.0000      -0.080135        -2.1806
 130   0.0000      -0.073846        -2.0094
 131   0.0000      -0.067582        -1.8390

                 SPIN DOWN ORBITALS
  NO   OCC          E(Eh)            E(eV)
   0   1.0000    -217.747814     -5925.2192
   1   1.0000     -25.364312      -690.1980
   2   1.0000     -21.513781      -585.4198
   3   1.0000     -21.511937      -585.3696
   4   1.0000     -21.495757      -584.9293
   5   1.0000      -4.397712      -119.6678
   6   1.0000      -4.396969      -119.6476
   7   1.0000      -4.396732      -119.6412
   8   1.0000      -4.394554      -119.5819
   9   1.0000      -4.393504      -119.5533
  10   1.0000      -4.392684      -119.5310
  11   1.0000      -4.390354      -119.4676
  12   1.0000      -4.390238      -119.4645
  13   1.0000      -4.389853      -119.4540
  14   1.0000      -4.388905      -119.4282
  15   1.0000      -4.388207      -119.4092
  16   1.0000      -4.385720      -119.3415
  17   1.0000      -3.006780       -81.8187
  18   1.0000      -2.520615       -68.5894
  19   1.0000      -2.518948       -68.5441
  20   1.0000      -2.516434       -68.4756
  21   1.0000      -2.515689       -68.4554
  22   1.0000      -2.514596       -68.4256
  23   1.0000      -2.513959       -68.4083
  24   1.0000      -2.513584       -68.3981
  25   1.0000      -2.513191       -68.3874
  26   1.0000      -2.513150       -68.3863
  27   1.0000      -2.512833       -68.3777
  28   1.0000      -2.512506       -68.3688
  29   1.0000      -2.511357       -68.3375
  30   1.0000      -2.511334       -68.3369
  31   1.0000      -2.510470       -68.3134
  32   1.0000      -2.509712       -68.2927
  33   1.0000      -2.509501       -68.2870
  34   1.0000      -2.509411       -68.2845
  35   1.0000      -2.508590       -68.2622
  36   1.0000      -2.508440       -68.2581
  37   1.0000      -2.508041       -68.2473
  38   1.0000      -2.507780       -68.2402
  39   1.0000      -2.507420       -68.2304
  40   1.0000      -2.507338       -68.2281
  41   1.0000      -2.506774       -68.2128
  42   1.0000      -2.506620       -68.2086
  43   1.0000      -2.506337       -68.2009
  44   1.0000      -2.505714       -68.1839
  45   1.0000      -2.505605       -68.1810
  46   1.0000      -2.504407       -68.1484
  47   1.0000      -2.503677       -68.1285
  48   1.0000      -2.503402       -68.1210
  49   1.0000      -2.502656       -68.1007
  50   1.0000      -2.501752       -68.0761
  51   1.0000      -2.500982       -68.0552
  52   1.0000      -2.500458       -68.0409
  53   1.0000      -2.499067       -68.0031
  54   1.0000      -1.874544       -51.0089
  55   1.0000      -1.870180       -50.8902
  56   1.0000      -1.834235       -49.9121
  57   1.0000      -0.484034       -13.1712
  58   1.0000      -0.472198       -12.8492
  59   1.0000      -0.469144       -12.7661
  60   1.0000      -0.464656       -12.6439
  61   1.0000      -0.456848       -12.4315
  62   1.0000      -0.453609       -12.3433
  63   1.0000      -0.450391       -12.2558
  64   1.0000      -0.447779       -12.1847
  65   1.0000      -0.447250       -12.1703
  66   1.0000      -0.443115       -12.0578
  67   1.0000      -0.442403       -12.0384
  68   1.0000      -0.440213       -11.9788
  69   1.0000      -0.438393       -11.9293
  70   1.0000      -0.436516       -11.8782
  71   1.0000      -0.433847       -11.8056
  72   1.0000      -0.430970       -11.7273
  73   1.0000      -0.427293       -11.6272
  74   1.0000      -0.422971       -11.5096
  75   1.0000      -0.422410       -11.4944
  76   1.0000      -0.421568       -11.4715
  77   1.0000      -0.418108       -11.3773
  78   1.0000      -0.415058       -11.2943
  79   1.0000      -0.414691       -11.2843
  80   1.0000      -0.412190       -11.2162
  81   1.0000      -0.408785       -11.1236
  82   1.0000      -0.405562       -11.0359
  83   1.0000      -0.403894       -10.9905
  84   1.0000      -0.397906       -10.8276
  85   1.0000      -0.395764       -10.7693
  86   1.0000      -0.392868       -10.6905
  87   1.0000      -0.389519       -10.5993
  88   1.0000      -0.386678       -10.5220
  89   1.0000      -0.384476       -10.4621
  90   1.0000      -0.382390       -10.4054
  91   1.0000      -0.381026       -10.3682
  92   1.0000      -0.378650       -10.3036
  93   1.0000      -0.375791       -10.2258
  94   1.0000      -0.372745       -10.1429
  95   1.0000      -0.372193       -10.1279
  96   1.0000      -0.369106       -10.0439
  97   1.0000      -0.367641       -10.0040
  98   1.0000      -0.365587        -9.9481
  99   1.0000      -0.364811        -9.9270
 100   1.0000      -0.363559        -9.8929
 101   1.0000      -0.362938        -9.8760
 102   1.0000      -0.358646        -9.7592
 103   1.0000      -0.356972        -9.7137
 104   1.0000      -0.354110        -9.6358
 105   1.0000      -0.353200        -9.6111
 106   1.0000      -0.350507        -9.5378
 107   1.0000      -0.349096        -9.4994
 108   1.0000      -0.345574        -9.4036
 109   1.0000      -0.344483        -9.3739
 110   1.0000      -0.342793        -9.3279
 111   1.0000      -0.342355        -9.3159
 112   1.0000      -0.338949        -9.2233
 113   1.0000      -0.337796        -9.1919
 114   1.0000      -0.334326        -9.0975
 115   1.0000      -0.332906        -9.0588
 116   1.0000      -0.324685        -8.8351
 117   1.0000      -0.322332        -8.7711
 118   1.0000      -0.312174        -8.4947
 119   1.0000      -0.308107        -8.3840
 120   1.0000      -0.291746        -7.9388
 121   1.0000      -0.247542        -6.7360
 122   1.0000      -0.226766        -6.1706
 123   1.0000      -0.224292        -6.1033
 124   1.0000      -0.180039        -4.8991
 125   0.0000      -0.090174        -2.4538
 126   0.0000      -0.084209        -2.2915
 127   0.0000      -0.053310        -1.4506
 128   0.0000      -0.048645        -1.3237
 129   0.0000      -0.045330        -1.2335

MULLIKEN ATOMIC CHARGES AND SPIN POPULATIONS
--------------------------------------------
   0 Au:    0.403304   -0.025928
   1 Au:    0.434783   -0.259574
   2 Au:    0.161794   -0.177162
   3 Au:    0.277902   -0.231624
   4 Au:    0.292854    0.044201
   5 Au:    0.465760   -0.077833
   6 Au:    0.166841   -0.118080
   7 Au:    0.274373   -0.073366
   8 Au:    0.429506   -0.171827
   9 Au:    0.334335   -0.119577
  10 Au:    0.316718   -0.169038
  11 Au:    0.281815   -0.074278
  12 Cr:   -3.839986    3.454086
Sum of atomic charges         :   -0.0000000

LOEWDIN ATOMIC CHARGES AND SPIN POPULATIONS
-------------------------------------------
   0 Au:    0.107719   -0.095437
   1 Au:    0.102282   -0.238374
   2 Au:    0.047082   -0.106022
   3 Au:    0.032046   -0.161895
   4 Au:    0.161695   -0.043773
   5 Au:    0.096812   -0.124613
   6 Au:    0.009433   -0.093914
   7 Au:    0.114489   -0.146853
   8 Au:    0.084194   -0.162027
   9 Au:    0.071038   -0.104718
  10 Au:    0.104333   -0.155835
  11 Au:    0.131499   -0.130448
  12 Cr:   -1.062623    3.563910

  Mayer bond orders larger than 0.100000
B(  0-Au,  5-Au) :   0.2147 B(  0-Au,  6-Au) :   0.2649 B(  0-Au,  8-Au) :   0.2035
B(  0-Au,  9-Au) :   0.2210 B(  0-Au, 12-Cr) :   0.3849 B(  1-Au,  7-Au) :   0.1734
B(  1-Au,  8-Au) :   0.1875 B(  1-Au,  9-Au) :   0.1749 B(  1-Au, 10-Au) :   0.1785
B(  1-Au, 12-Cr) :   0.3793 B(  2-Au,  4-Au) :   0.2726 B(  2-Au,  6-Au) :   0.1184
B(  2-Au,  7-Au) :   0.4127 B(  2-Au, 12-Cr) :   0.5265 B(  3-Au,  4-Au) :   0.3344
B(  3-Au,  5-Au) :   0.1947 B(  3-Au,  6-Au) :   0.1084 B(  3-Au, 11-Au) :   0.2581
B(  3-Au, 12-Cr) :   0.3783 B(  4-Au,  6-Au) :   0.3091 B(  4-Au, 12-Cr) :   0.3428
B(  5-Au,  9-Au) :   0.1663 B(  5-Au, 11-Au) :   0.1122 B(  5-Au, 12-Cr) :   0.5846
B(  6-Au,  8-Au) :   0.1904 B(  6-Au, 12-Cr) :   0.5966 B(  7-Au, 12-Cr) :   0.6372
B(  8-Au, 12-Cr) :   0.5701 B(  9-Au, 10-Au) :   0.1301 B(  9-Au, 12-Cr) :   0.5518
B( 10-Au, 11-Au) :   0.2874 B( 10-Au, 12-Cr) :   0.5229 B( 11-Au, 12-Cr) :   0.5990

MP2 TOTAL ENERGY:    -2671.295498355 Eh
FINAL SINGLE POINT ENERGY     -2671.295498355300

DIPOLE MOMENT
-------------
                                X             Y             Z
Electronic contribution:      2.52488       5.70509     -13.32571
Nuclear contribution   :     -2.44804      -5.68115      13.06540
                        -----------------------------------------
Total Dipole Moment    :      0.07684       0.02393      -0.26031
                        -----------------------------------------
Magnitude (a.u.)       :      0.27247
Magnitude (Debye)      :      0.69257

Rotational constants in cm-1:     0.001583     0.001177     0.001076
Rotational constants in MHz :    47.458984    35.294942    32.260521

                             ****ORCA TERMINATED NORMALLY****
TOTAL RUN TIME: 0 days 0 hours 58 minutes 7 seconds 111 msec
