                         Program Version 5.0.3 -  RELEASE  -
|  1> !PBE def2-TZVP VERYSLOWCONV
|  2>
|  3> %scf
|  4>   AutoTRAHIter 200
|  5>   maxiter 400
|  6> end
|  7>
|  8>
|  9> %pal nprocs 6 end
| 10>
| 11> *xyzfile 0 5 pbe.xyz
| 12>
| 13> $new_job
| 14>
| 15> !PBE def2-TZVP VERYSLOWCONV
| 16>
| 17> %scf
| 18>   AutoTRAHIter 200
| 19>   maxiter 400
| 20> end
| 21>
| 22>
| 23> %pal nprocs 6 end
| 24>
| 25> *xyzfile 0 3 pbe.xyz
| 26>
| 27>
| 28>
| 29>
| 30>
| 31>                          ****END OF INPUT****
 Total Charge           Charge          ....    0
 Multiplicity           Mult            ....    5
 Number of Electrons    NEL             ....  252
FINAL SINGLE POINT ENERGY     -2674.155230847419

CARTESIAN COORDINATES (ANGSTROEM)
---------------------------------
  Au     5.568225   10.654325    6.908268
  Au     6.707828   10.017025   10.874113
  Au     9.771579    8.185229    7.450001
  Au     7.393595    7.085246    5.725351
  Au     9.599364    8.229084    4.693930
  Au     4.963516    7.957749    6.648424
  Au     8.154734   10.093442    6.121497
  Au     9.161243    9.121290    9.848369
  Au     7.689785   11.230085    8.595430
  Au     4.577492    9.247494    9.096527
  Au     6.083491    7.262682   10.377872
  Au     6.420726    5.980095    8.029376
  Cr     7.104557    8.593466    8.236307

 Multiplicity           Mult            ....    3
 Number of Electrons    NEL             ....  252
 Basis Dimension        Dim             ....  525

ORBITAL ENERGIES
----------------
                 SPIN UP ORBITALS
  NO   OCC          E(Eh)            E(eV)
   0   1.0000    -214.505733     -5836.9977
   1   1.0000     -24.306962      -661.4261
   2   1.0000     -20.673095      -562.5435
   3   1.0000     -20.669527      -562.4464
   4   1.0000     -20.669023      -562.4327
   5   1.0000      -4.027220      -109.5862
   6   1.0000      -4.026587      -109.5690
   7   1.0000      -4.024807      -109.5206
   8   1.0000      -4.022751      -109.4646
   9   1.0000      -4.022590      -109.4602
  10   1.0000      -4.021659      -109.4349
  11   1.0000      -4.020037      -109.3908
  12   1.0000      -4.019743      -109.3828
  13   1.0000      -4.019279      -109.3701
  14   1.0000      -4.019028      -109.3633
  15   1.0000      -4.016011      -109.2812
  16   1.0000      -4.013511      -109.2132
  17   1.0000      -2.804859       -76.3241
  18   1.0000      -2.245417       -61.1009
  19   1.0000      -2.243497       -61.0487
  20   1.0000      -2.242241       -61.0145
  21   1.0000      -2.240832       -60.9761
  22   1.0000      -2.240445       -60.9656
  23   1.0000      -2.240337       -60.9627
  24   1.0000      -2.239245       -60.9330
  25   1.0000      -2.238697       -60.9180
  26   1.0000      -2.237780       -60.8931
  27   1.0000      -2.237439       -60.8838
  28   1.0000      -2.237114       -60.8750
  29   1.0000      -2.236452       -60.8569
  30   1.0000      -2.235975       -60.8440
  31   1.0000      -2.235719       -60.8370
  32   1.0000      -2.235206       -60.8230
  33   1.0000      -2.235022       -60.8180
  34   1.0000      -2.234819       -60.8125
  35   1.0000      -2.234410       -60.8014
  36   1.0000      -2.234214       -60.7961
  37   1.0000      -2.233664       -60.7811
  38   1.0000      -2.233404       -60.7740
  39   1.0000      -2.232593       -60.7519
  40   1.0000      -2.232188       -60.7409
  41   1.0000      -2.231946       -60.7343
  42   1.0000      -2.231195       -60.7139
  43   1.0000      -2.231127       -60.7121
  44   1.0000      -2.230933       -60.7068
  45   1.0000      -2.229064       -60.6559
  46   1.0000      -2.228514       -60.6410
  47   1.0000      -2.228058       -60.6285
  48   1.0000      -2.227484       -60.6129
  49   1.0000      -2.227217       -60.6057
  50   1.0000      -2.226587       -60.5885
  51   1.0000      -2.226277       -60.5801
  52   1.0000      -2.224491       -60.5315
  53   1.0000      -2.224058       -60.5197
  54   1.0000      -1.798392       -48.9367
  55   1.0000      -1.792272       -48.7702
  56   1.0000      -1.791255       -48.7425
  57   1.0000      -0.415966       -11.3190
  58   1.0000      -0.380347       -10.3498
  59   1.0000      -0.378493       -10.2993
  60   1.0000      -0.368887       -10.0379
  61   1.0000      -0.365760        -9.9528
  62   1.0000      -0.360748        -9.8165
  63   1.0000      -0.356542        -9.7020
  64   1.0000      -0.351949        -9.5770
  65   1.0000      -0.348029        -9.4704
  66   1.0000      -0.346500        -9.4288
  67   1.0000      -0.342469        -9.3191
  68   1.0000      -0.339485        -9.2379
  69   1.0000      -0.337262        -9.1774
  70   1.0000      -0.334780        -9.1098
  71   1.0000      -0.332548        -9.0491
  72   1.0000      -0.327965        -8.9244
  73   1.0000      -0.326627        -8.8880
  74   1.0000      -0.323166        -8.7938
  75   1.0000      -0.322453        -8.7744
  76   1.0000      -0.320191        -8.7128
  77   1.0000      -0.317203        -8.6315
  78   1.0000      -0.315989        -8.5985
  79   1.0000      -0.314498        -8.5579
  80   1.0000      -0.313113        -8.5202
  81   1.0000      -0.311330        -8.4717
  82   1.0000      -0.306461        -8.3392
  83   1.0000      -0.305085        -8.3018
  84   1.0000      -0.300510        -8.1773
  85   1.0000      -0.298741        -8.1292
  86   1.0000      -0.295409        -8.0385
  87   1.0000      -0.293210        -7.9786
  88   1.0000      -0.291702        -7.9376
  89   1.0000      -0.287397        -7.8205
  90   1.0000      -0.285384        -7.7657
  91   1.0000      -0.283583        -7.7167
  92   1.0000      -0.281406        -7.6575
  93   1.0000      -0.279083        -7.5942
  94   1.0000      -0.276573        -7.5259
  95   1.0000      -0.274109        -7.4589
  96   1.0000      -0.272440        -7.4135
  97   1.0000      -0.271054        -7.3757
  98   1.0000      -0.270884        -7.3711
  99   1.0000      -0.268319        -7.3013
 100   1.0000      -0.267597        -7.2817
 101   1.0000      -0.265807        -7.2330
 102   1.0000      -0.264049        -7.1852
 103   1.0000      -0.259855        -7.0710
 104   1.0000      -0.259502        -7.0614
 105   1.0000      -0.256470        -6.9789
 106   1.0000      -0.255106        -6.9418
 107   1.0000      -0.254112        -6.9147
 108   1.0000      -0.251773        -6.8511
 109   1.0000      -0.250086        -6.8052
 110   1.0000      -0.249939        -6.8012
 111   1.0000      -0.249670        -6.7939
 112   1.0000      -0.247341        -6.7305
 113   1.0000      -0.246195        -6.6993
 114   1.0000      -0.245929        -6.6921
 115   1.0000      -0.244445        -6.6517
 116   1.0000      -0.241919        -6.5830
 117   1.0000      -0.240120        -6.5340
 118   1.0000      -0.237342        -6.4584
 119   1.0000      -0.236207        -6.4275
 120   1.0000      -0.225615        -6.1393
 121   1.0000      -0.222311        -6.0494
 122   1.0000      -0.217171        -5.9095
 123   1.0000      -0.215941        -5.8761
 124   1.0000      -0.214010        -5.8235
 125   1.0000      -0.205246        -5.5850
 126   1.0000      -0.195137        -5.3100
 127   0.0000      -0.176758        -4.8098
 128   0.0000      -0.169051        -4.6001
 129   0.0000      -0.152163        -4.1406
 130   0.0000      -0.144952        -3.9443
 131   0.0000      -0.140267        -3.8168

                 SPIN DOWN ORBITALS
  NO   OCC          E(Eh)            E(eV)
   0   1.0000    -214.505322     -5836.9866
   1   1.0000     -24.263343      -660.2391
   2   1.0000     -20.641487      -561.6834
   3   1.0000     -20.635677      -561.5253
   4   1.0000     -20.634487      -561.4929
   5   1.0000      -4.027101      -109.5830
   6   1.0000      -4.026501      -109.5667
   7   1.0000      -4.024860      -109.5220
   8   1.0000      -4.022490      -109.4575
   9   1.0000      -4.022345      -109.4536
  10   1.0000      -4.021710      -109.4363
  11   1.0000      -4.019726      -109.3823
  12   1.0000      -4.019598      -109.3788
  13   1.0000      -4.019399      -109.3734
  14   1.0000      -4.018905      -109.3600
  15   1.0000      -4.015933      -109.2791
  16   1.0000      -4.013738      -109.2194
  17   1.0000      -2.687619       -73.1338
  18   1.0000      -2.245174       -61.0943
  19   1.0000      -2.243273       -61.0426
  20   1.0000      -2.241870       -61.0044
  21   1.0000      -2.240679       -60.9720
  22   1.0000      -2.240228       -60.9597
  23   1.0000      -2.239981       -60.9530
  24   1.0000      -2.238943       -60.9247
  25   1.0000      -2.238716       -60.9186
  26   1.0000      -2.237674       -60.8902
  27   1.0000      -2.237170       -60.8765
  28   1.0000      -2.236811       -60.8667
  29   1.0000      -2.236098       -60.8473
  30   1.0000      -2.235938       -60.8430
  31   1.0000      -2.235507       -60.8313
  32   1.0000      -2.235138       -60.8212
  33   1.0000      -2.234940       -60.8158
  34   1.0000      -2.234547       -60.8051
  35   1.0000      -2.234292       -60.7982
  36   1.0000      -2.234020       -60.7908
  37   1.0000      -2.233290       -60.7709
  38   1.0000      -2.232882       -60.7598
  39   1.0000      -2.232593       -60.7519
  40   1.0000      -2.232189       -60.7410
  41   1.0000      -2.231703       -60.7277
  42   1.0000      -2.231387       -60.7191
  43   1.0000      -2.231297       -60.7167
  44   1.0000      -2.231015       -60.7090
  45   1.0000      -2.229248       -60.6609
  46   1.0000      -2.229190       -60.6593
  47   1.0000      -2.227747       -60.6201
  48   1.0000      -2.227573       -60.6153
  49   1.0000      -2.227125       -60.6032
  50   1.0000      -2.226508       -60.5864
  51   1.0000      -2.226274       -60.5800
  52   1.0000      -2.224699       -60.5371
  53   1.0000      -2.224290       -60.5260
  54   1.0000      -1.688119       -45.9361
  55   1.0000      -1.675057       -45.5806
  56   1.0000      -1.672394       -45.5082
  57   1.0000      -0.411199       -11.1893
  58   1.0000      -0.379596       -10.3293
  59   1.0000      -0.378112       -10.2890
  60   1.0000      -0.367343        -9.9959
  61   1.0000      -0.364315        -9.9135
  62   1.0000      -0.358757        -9.7623
  63   1.0000      -0.354385        -9.6433
  64   1.0000      -0.350342        -9.5333
  65   1.0000      -0.347129        -9.4459
  66   1.0000      -0.345586        -9.4039
  67   1.0000      -0.341052        -9.2805
  68   1.0000      -0.337523        -9.1845
  69   1.0000      -0.337114        -9.1733
  70   1.0000      -0.334742        -9.1088
  71   1.0000      -0.333384        -9.0718
  72   1.0000      -0.328832        -8.9480
  73   1.0000      -0.326298        -8.8790
  74   1.0000      -0.322850        -8.7852
  75   1.0000      -0.322666        -8.7802
  76   1.0000      -0.320898        -8.7321
  77   1.0000      -0.317147        -8.6300
  78   1.0000      -0.315050        -8.5730
  79   1.0000      -0.314732        -8.5643
  80   1.0000      -0.312652        -8.5077
  81   1.0000      -0.310131        -8.4391
  82   1.0000      -0.307087        -8.3563
  83   1.0000      -0.303824        -8.2675
  84   1.0000      -0.299161        -8.1406
  85   1.0000      -0.297201        -8.0872
  86   1.0000      -0.296262        -8.0617
  87   1.0000      -0.293412        -7.9841
  88   1.0000      -0.290370        -7.9014
  89   1.0000      -0.286624        -7.7994
  90   1.0000      -0.285350        -7.7648
  91   1.0000      -0.283715        -7.7203
  92   1.0000      -0.281961        -7.6726
  93   1.0000      -0.279231        -7.5983
  94   1.0000      -0.277220        -7.5435
  95   1.0000      -0.274270        -7.4633
  96   1.0000      -0.272598        -7.4178
  97   1.0000      -0.271709        -7.3936
  98   1.0000      -0.271506        -7.3881
  99   1.0000      -0.269200        -7.3253
 100   1.0000      -0.268496        -7.3062
 101   1.0000      -0.266753        -7.2587
 102   1.0000      -0.264634        -7.2010
 103   1.0000      -0.260711        -7.0943
 104   1.0000      -0.260112        -7.0780
 105   1.0000      -0.257616        -7.0101
 106   1.0000      -0.255680        -6.9574
 107   1.0000      -0.254895        -6.9360
 108   1.0000      -0.253101        -6.8872
 109   1.0000      -0.250962        -6.8290
 110   1.0000      -0.250851        -6.8260
 111   1.0000      -0.250613        -6.8195
 112   1.0000      -0.248359        -6.7582
 113   1.0000      -0.246929        -6.7193
 114   1.0000      -0.246603        -6.7104
 115   1.0000      -0.245375        -6.6770
 116   1.0000      -0.242481        -6.5982
 117   1.0000      -0.241392        -6.5686
 118   1.0000      -0.238203        -6.4818
 119   1.0000      -0.237313        -6.4576
 120   1.0000      -0.224875        -6.1192
 121   1.0000      -0.219907        -5.9840
 122   1.0000      -0.205838        -5.6011
 123   1.0000      -0.202662        -5.5147
 124   1.0000      -0.171856        -4.6764
 125   0.0000      -0.155725        -4.2375
 126   0.0000      -0.148550        -4.0422
 127   0.0000      -0.120227        -3.2715
 128   0.0000      -0.119257        -3.2451
 129   0.0000      -0.115655        -3.1471

MULLIKEN ATOMIC CHARGES AND SPIN POPULATIONS
--------------------------------------------
   0 Au:    0.377302   -0.031516
   1 Au:    0.444606   -0.094645
   2 Au:    0.169118   -0.104574
   3 Au:    0.296232   -0.087255
   4 Au:    0.329003    0.044637
   5 Au:    0.471477   -0.063283
   6 Au:    0.197441   -0.093205
   7 Au:    0.318931   -0.041432
   8 Au:    0.457135   -0.096826
   9 Au:    0.371599   -0.103294
  10 Au:    0.345961   -0.104953
  11 Au:    0.307341   -0.052758
  12 Cr:   -4.086146    2.829105
Sum of atomic charges         :   -0.0000000

LOEWDIN ATOMIC CHARGES AND SPIN POPULATIONS
-------------------------------------------
   0 Au:    0.122261   -0.076003
   1 Au:    0.086071   -0.118781
   2 Au:    0.070547   -0.064456
   3 Au:    0.032755   -0.071846
   4 Au:    0.133050   -0.017901
   5 Au:    0.113852   -0.090629
   6 Au:    0.035491   -0.068599
   7 Au:    0.134832   -0.074280
   8 Au:    0.103170   -0.097881
   9 Au:    0.093656   -0.092743
  10 Au:    0.123268   -0.106520
  11 Au:    0.148430   -0.079582
  12 Cr:   -1.197383    2.959221

  Mayer bond orders larger than 0.100000
B(  0-Au,  5-Au) :   0.2579 B(  0-Au,  6-Au) :   0.3081 B(  0-Au,  8-Au) :   0.2560
B(  0-Au,  9-Au) :   0.2690 B(  0-Au, 12-Cr) :   0.3885 B(  1-Au,  7-Au) :   0.2213
B(  1-Au,  8-Au) :   0.2474 B(  1-Au,  9-Au) :   0.2200 B(  1-Au, 10-Au) :   0.2094
B(  1-Au, 12-Cr) :   0.4519 B(  2-Au,  4-Au) :   0.3001 B(  2-Au,  6-Au) :   0.1523
B(  2-Au,  7-Au) :   0.4554 B(  2-Au, 12-Cr) :   0.6190 B(  3-Au,  4-Au) :   0.3990
B(  3-Au,  5-Au) :   0.2562 B(  3-Au,  6-Au) :   0.1033 B(  3-Au, 11-Au) :   0.2891
B(  3-Au, 12-Cr) :   0.4491 B(  4-Au,  6-Au) :   0.3496 B(  4-Au, 12-Cr) :   0.3002
B(  5-Au,  9-Au) :   0.1916 B(  5-Au, 11-Au) :   0.1540 B(  5-Au, 12-Cr) :   0.6900
B(  6-Au,  8-Au) :   0.2094 B(  6-Au, 12-Cr) :   0.6520 B(  7-Au, 12-Cr) :   0.7127
B(  8-Au, 12-Cr) :   0.6978 B(  9-Au, 10-Au) :   0.1660 B(  9-Au, 12-Cr) :   0.6493
B( 10-Au, 11-Au) :   0.3403 B( 10-Au, 12-Cr) :   0.6389 B( 11-Au, 12-Cr) :   0.6836

FINAL SINGLE POINT ENERGY     -2674.150151796382

DIPOLE MOMENT
-------------
                                X             Y             Z
Electronic contribution:      2.45100       5.73185     -13.25469
Nuclear contribution   :     -2.44804      -5.68115      13.06540
                        -----------------------------------------
Total Dipole Moment    :      0.00296       0.05069      -0.18930
                        -----------------------------------------
Magnitude (a.u.)       :      0.19599
Magnitude (Debye)      :      0.49816

Rotational constants in cm-1:     0.001583     0.001177     0.001076
Rotational constants in MHz :    47.458984    35.294942    32.260521

                             ****ORCA TERMINATED NORMALLY****
TOTAL RUN TIME: 0 days 1 hours 9 minutes 15 seconds 132 msec
