                         Program Version 5.0.3 -  RELEASE  -
|  1> !R2SCAN def2-TZVP VERYSLOWCONV
|  2> !KDIIS
|  3> %scf
|  4>   AutoTRAHIter 200
|  5>   maxiter 400
|  6> end
|  7>
|  8> %pal nprocs 6 end
|  9>
| 10> *xyzfile 0 5 pbe.xyz
| 11>
| 12> $new_job
| 13>
| 14> !R2SCAN def2-TZVP VERYSLOWCONV
| 15> !KDIIS
| 16> %scf
| 17>   AutoTRAHIter 200
| 18>   maxiter 400
| 19> end
| 20>
| 21>
| 22> %pal nprocs 6 end
| 23>
| 24> *xyzfile 0 3 pbe.xyz
| 25>
| 26>
| 27>
| 28>
| 29>
| 30>                          ****END OF INPUT****
 Total Charge           Charge          ....    0
 Multiplicity           Mult            ....    5
 Number of Electrons    NEL             ....  252
FINAL SINGLE POINT ENERGY     -2674.592425650828

CARTESIAN COORDINATES (ANGSTROEM)
---------------------------------
  Au     5.568225   10.654325    6.908268
  Au     6.707828   10.017025   10.874113
  Au     9.771579    8.185229    7.450001
  Au     7.393595    7.085246    5.725351
  Au     9.599364    8.229084    4.693930
  Au     4.963516    7.957749    6.648424
  Au     8.154734   10.093442    6.121497
  Au     9.161243    9.121290    9.848369
  Au     7.689785   11.230085    8.595430
  Au     4.577492    9.247494    9.096527
  Au     6.083491    7.262682   10.377872
  Au     6.420726    5.980095    8.029376
  Cr     7.104557    8.593466    8.236307

 Multiplicity           Mult            ....    3
 Number of Electrons    NEL             ....  252
 Basis Dimension        Dim             ....  525

ORBITAL ENERGIES
----------------
                 SPIN UP ORBITALS
  NO   OCC          E(Eh)            E(eV)
   0   1.0000    -215.301634     -5858.6553
   1   1.0000     -24.603041      -669.4828
   2   1.0000     -20.871202      -567.9343
   3   1.0000     -20.868731      -567.8670
   4   1.0000     -20.868092      -567.8496
   5   1.0000      -4.117986      -112.0561
   6   1.0000      -4.117405      -112.0403
   7   1.0000      -4.115227      -111.9810
   8   1.0000      -4.113739      -111.9405
   9   1.0000      -4.113719      -111.9400
  10   1.0000      -4.111983      -111.8928
  11   1.0000      -4.110459      -111.8513
  12   1.0000      -4.110323      -111.8476
  13   1.0000      -4.110149      -111.8428
  14   1.0000      -4.109492      -111.8250
  15   1.0000      -4.106262      -111.7371
  16   1.0000      -4.104119      -111.6788
  17   1.0000      -2.918884       -79.4269
  18   1.0000      -2.309013       -62.8314
  19   1.0000      -2.307278       -62.7842
  20   1.0000      -2.305941       -62.7478
  21   1.0000      -2.304358       -62.7048
  22   1.0000      -2.303945       -62.6935
  23   1.0000      -2.303783       -62.6891
  24   1.0000      -2.302547       -62.6555
  25   1.0000      -2.302043       -62.6418
  26   1.0000      -2.301512       -62.6273
  27   1.0000      -2.301076       -62.6155
  28   1.0000      -2.300861       -62.6096
  29   1.0000      -2.299769       -62.5799
  30   1.0000      -2.299385       -62.5695
  31   1.0000      -2.299111       -62.5620
  32   1.0000      -2.298895       -62.5561
  33   1.0000      -2.298368       -62.5418
  34   1.0000      -2.298228       -62.5380
  35   1.0000      -2.297819       -62.5268
  36   1.0000      -2.297661       -62.5225
  37   1.0000      -2.297346       -62.5140
  38   1.0000      -2.296623       -62.4943
  39   1.0000      -2.296430       -62.4890
  40   1.0000      -2.295441       -62.4621
  41   1.0000      -2.295137       -62.4539
  42   1.0000      -2.294944       -62.4486
  43   1.0000      -2.294699       -62.4419
  44   1.0000      -2.294313       -62.4314
  45   1.0000      -2.292350       -62.3780
  46   1.0000      -2.292152       -62.3726
  47   1.0000      -2.291569       -62.3568
  48   1.0000      -2.290786       -62.3355
  49   1.0000      -2.290757       -62.3347
  50   1.0000      -2.289977       -62.3134
  51   1.0000      -2.289661       -62.3049
  52   1.0000      -2.287908       -62.2571
  53   1.0000      -2.287492       -62.2458
  54   1.0000      -1.867627       -50.8207
  55   1.0000      -1.864420       -50.7335
  56   1.0000      -1.863636       -50.7121
  57   1.0000      -0.420974       -11.4553
  58   1.0000      -0.387004       -10.5309
  59   1.0000      -0.385466       -10.4891
  60   1.0000      -0.375751       -10.2247
  61   1.0000      -0.374187       -10.1822
  62   1.0000      -0.368469       -10.0266
  63   1.0000      -0.364034        -9.9059
  64   1.0000      -0.360517        -9.8102
  65   1.0000      -0.357022        -9.7151
  66   1.0000      -0.355421        -9.6715
  67   1.0000      -0.351429        -9.5629
  68   1.0000      -0.348516        -9.4836
  69   1.0000      -0.346373        -9.4253
  70   1.0000      -0.343673        -9.3518
  71   1.0000      -0.341531        -9.2935
  72   1.0000      -0.336576        -9.1587
  73   1.0000      -0.335533        -9.1303
  74   1.0000      -0.331913        -9.0318
  75   1.0000      -0.331131        -9.0105
  76   1.0000      -0.328894        -8.9497
  77   1.0000      -0.325753        -8.8642
  78   1.0000      -0.324705        -8.8357
  79   1.0000      -0.323388        -8.7998
  80   1.0000      -0.321669        -8.7530
  81   1.0000      -0.319777        -8.7016
  82   1.0000      -0.315124        -8.5750
  83   1.0000      -0.313925        -8.5423
  84   1.0000      -0.308905        -8.4057
  85   1.0000      -0.307373        -8.3641
  86   1.0000      -0.304087        -8.2746
  87   1.0000      -0.301739        -8.2107
  88   1.0000      -0.300136        -8.1671
  89   1.0000      -0.296018        -8.0551
  90   1.0000      -0.294164        -8.0046
  91   1.0000      -0.291958        -7.9446
  92   1.0000      -0.289615        -7.8808
  93   1.0000      -0.287165        -7.8142
  94   1.0000      -0.284511        -7.7419
  95   1.0000      -0.282534        -7.6881
  96   1.0000      -0.280543        -7.6340
  97   1.0000      -0.279388        -7.6025
  98   1.0000      -0.279291        -7.5999
  99   1.0000      -0.275839        -7.5059
 100   1.0000      -0.275573        -7.4987
 101   1.0000      -0.274293        -7.4639
 102   1.0000      -0.271413        -7.3855
 103   1.0000      -0.267722        -7.2851
 104   1.0000      -0.267509        -7.2793
 105   1.0000      -0.264453        -7.1961
 106   1.0000      -0.263157        -7.1609
 107   1.0000      -0.261833        -7.1248
 108   1.0000      -0.258929        -7.0458
 109   1.0000      -0.257528        -7.0077
 110   1.0000      -0.257039        -6.9944
 111   1.0000      -0.256767        -6.9870
 112   1.0000      -0.254652        -6.9294
 113   1.0000      -0.253072        -6.8864
 114   1.0000      -0.253058        -6.8861
 115   1.0000      -0.250885        -6.8269
 116   1.0000      -0.248972        -6.7749
 117   1.0000      -0.246443        -6.7060
 118   1.0000      -0.243160        -6.6167
 119   1.0000      -0.241065        -6.5597
 120   1.0000      -0.231986        -6.3127
 121   1.0000      -0.230733        -6.2786
 122   1.0000      -0.225940        -6.1481
 123   1.0000      -0.219932        -5.9846
 124   1.0000      -0.218713        -5.9515
 125   1.0000      -0.215099        -5.8531
 126   1.0000      -0.200424        -5.4538
 127   0.0000      -0.175196        -4.7673
 128   0.0000      -0.166421        -4.5286
 129   0.0000      -0.148566        -4.0427
 130   0.0000      -0.140920        -3.8346
 131   0.0000      -0.135964        -3.6998

                 SPIN DOWN ORBITALS
  NO   OCC          E(Eh)            E(eV)
   0   1.0000    -215.301024     -5858.6387
   1   1.0000     -24.542785      -667.8431
   2   1.0000     -20.826993      -566.7313
   3   1.0000     -20.821728      -566.5880
   4   1.0000     -20.820078      -566.5431
   5   1.0000      -4.118078      -112.0586
   6   1.0000      -4.117484      -112.0424
   7   1.0000      -4.115516      -111.9889
   8   1.0000      -4.113640      -111.9378
   9   1.0000      -4.113461      -111.9330
  10   1.0000      -4.112306      -111.9015
  11   1.0000      -4.110864      -111.8623
  12   1.0000      -4.110329      -111.8477
  13   1.0000      -4.110088      -111.8412
  14   1.0000      -4.109244      -111.8182
  15   1.0000      -4.106469      -111.7427
  16   1.0000      -4.104527      -111.6899
  17   1.0000      -2.761710       -75.1499
  18   1.0000      -2.308810       -62.8259
  19   1.0000      -2.307049       -62.7780
  20   1.0000      -2.305611       -62.7389
  21   1.0000      -2.304294       -62.7030
  22   1.0000      -2.303748       -62.6882
  23   1.0000      -2.303560       -62.6831
  24   1.0000      -2.302312       -62.6491
  25   1.0000      -2.301999       -62.6406
  26   1.0000      -2.301363       -62.6233
  27   1.0000      -2.300913       -62.6110
  28   1.0000      -2.300575       -62.6018
  29   1.0000      -2.299679       -62.5775
  30   1.0000      -2.299393       -62.5697
  31   1.0000      -2.298896       -62.5562
  32   1.0000      -2.298798       -62.5535
  33   1.0000      -2.298369       -62.5418
  34   1.0000      -2.298079       -62.5339
  35   1.0000      -2.297697       -62.5235
  36   1.0000      -2.297299       -62.5127
  37   1.0000      -2.297012       -62.5049
  38   1.0000      -2.296392       -62.4880
  39   1.0000      -2.296185       -62.4824
  40   1.0000      -2.295602       -62.4665
  41   1.0000      -2.295211       -62.4559
  42   1.0000      -2.295072       -62.4521
  43   1.0000      -2.294764       -62.4437
  44   1.0000      -2.294299       -62.4310
  45   1.0000      -2.293147       -62.3997
  46   1.0000      -2.292239       -62.3750
  47   1.0000      -2.291261       -62.3484
  48   1.0000      -2.290839       -62.3369
  49   1.0000      -2.290727       -62.3338
  50   1.0000      -2.290022       -62.3147
  51   1.0000      -2.289644       -62.3044
  52   1.0000      -2.288161       -62.2640
  53   1.0000      -2.287680       -62.2509
  54   1.0000      -1.717423       -46.7335
  55   1.0000      -1.705349       -46.4049
  56   1.0000      -1.702052       -46.3152
  57   1.0000      -0.416292       -11.3279
  58   1.0000      -0.386540       -10.5183
  59   1.0000      -0.385250       -10.4832
  60   1.0000      -0.374567       -10.1925
  61   1.0000      -0.372717       -10.1422
  62   1.0000      -0.366782        -9.9806
  63   1.0000      -0.362054        -9.8520
  64   1.0000      -0.359102        -9.7717
  65   1.0000      -0.356286        -9.6950
  66   1.0000      -0.354416        -9.6442
  67   1.0000      -0.350055        -9.5255
  68   1.0000      -0.346529        -9.4295
  69   1.0000      -0.346378        -9.4254
  70   1.0000      -0.344024        -9.3614
  71   1.0000      -0.342738        -9.3264
  72   1.0000      -0.338189        -9.2026
  73   1.0000      -0.335531        -9.1303
  74   1.0000      -0.331901        -9.0315
  75   1.0000      -0.331798        -9.0287
  76   1.0000      -0.330090        -8.9822
  77   1.0000      -0.326219        -8.8769
  78   1.0000      -0.324044        -8.8177
  79   1.0000      -0.323849        -8.8124
  80   1.0000      -0.321787        -8.7563
  81   1.0000      -0.318729        -8.6731
  82   1.0000      -0.316203        -8.6043
  83   1.0000      -0.312838        -8.5128
  84   1.0000      -0.307684        -8.3725
  85   1.0000      -0.305573        -8.3151
  86   1.0000      -0.305204        -8.3050
  87   1.0000      -0.302291        -8.2257
  88   1.0000      -0.298589        -8.1250
  89   1.0000      -0.295533        -8.0418
  90   1.0000      -0.294251        -8.0070
  91   1.0000      -0.292390        -7.9563
  92   1.0000      -0.290323        -7.9001
  93   1.0000      -0.287647        -7.8273
  94   1.0000      -0.285601        -7.7716
  95   1.0000      -0.282978        -7.7002
  96   1.0000      -0.280959        -7.6453
  97   1.0000      -0.280502        -7.6329
  98   1.0000      -0.279983        -7.6187
  99   1.0000      -0.277561        -7.5528
 100   1.0000      -0.276943        -7.5360
 101   1.0000      -0.275569        -7.4986
 102   1.0000      -0.272617        -7.4183
 103   1.0000      -0.269219        -7.3258
 104   1.0000      -0.268410        -7.3038
 105   1.0000      -0.266009        -7.2385
 106   1.0000      -0.263919        -7.1816
 107   1.0000      -0.262872        -7.1531
 108   1.0000      -0.260920        -7.1000
 109   1.0000      -0.258824        -7.0430
 110   1.0000      -0.258759        -7.0412
 111   1.0000      -0.258323        -7.0293
 112   1.0000      -0.256262        -6.9732
 113   1.0000      -0.254259        -6.9187
 114   1.0000      -0.253790        -6.9060
 115   1.0000      -0.252719        -6.8768
 116   1.0000      -0.249788        -6.7971
 117   1.0000      -0.248691        -6.7672
 118   1.0000      -0.244368        -6.6496
 119   1.0000      -0.243704        -6.6315
 120   1.0000      -0.231191        -6.2910
 121   1.0000      -0.222708        -6.0602
 122   1.0000      -0.207917        -5.6577
 123   1.0000      -0.204212        -5.5569
 124   1.0000      -0.170764        -4.6467
 125   0.0000      -0.151651        -4.1266
 126   0.0000      -0.143885        -3.9153
 127   0.0000      -0.112490        -3.0610
 128   0.0000      -0.109062        -2.9677
 129   0.0000      -0.102233        -2.7819

MULLIKEN ATOMIC CHARGES AND SPIN POPULATIONS
--------------------------------------------
   0 Au:    0.356296   -0.029678
   1 Au:    0.394340   -0.132693
   2 Au:    0.150217   -0.146783
   3 Au:    0.265106   -0.124940
   4 Au:    0.298362    0.053508
   5 Au:    0.433167   -0.095203
   6 Au:    0.172134   -0.129688
   7 Au:    0.286504   -0.066549
   8 Au:    0.410967   -0.137766
   9 Au:    0.321651   -0.142793
  10 Au:    0.303970   -0.154416
  11 Au:    0.279654   -0.081962
  12 Cr:   -3.672368    3.188962
Sum of atomic charges         :    0.0000000

LOEWDIN ATOMIC CHARGES AND SPIN POPULATIONS
-------------------------------------------
   0 Au:    0.120703   -0.087888
   1 Au:    0.082777   -0.144750
   2 Au:    0.065717   -0.084994
   3 Au:    0.031389   -0.094153
   4 Au:    0.130724   -0.023295
   5 Au:    0.110093   -0.110930
   6 Au:    0.032430   -0.086200
   7 Au:    0.127670   -0.096360
   8 Au:    0.098029   -0.120043
   9 Au:    0.087359   -0.112795
  10 Au:    0.116541   -0.134400
  11 Au:    0.141917   -0.103645
  12 Cr:   -1.145348    3.199453

  Mayer bond orders larger than 0.100000
B(  0-Au,  5-Au) :   0.2557 B(  0-Au,  6-Au) :   0.3076 B(  0-Au,  8-Au) :   0.2503
B(  0-Au,  9-Au) :   0.2622 B(  0-Au, 12-Cr) :   0.3647 B(  1-Au,  7-Au) :   0.2134
B(  1-Au,  8-Au) :   0.2381 B(  1-Au,  9-Au) :   0.2114 B(  1-Au, 10-Au) :   0.2036
B(  1-Au, 12-Cr) :   0.4428 B(  2-Au,  4-Au) :   0.2853 B(  2-Au,  6-Au) :   0.1297
B(  2-Au,  7-Au) :   0.4529 B(  2-Au, 12-Cr) :   0.6095 B(  3-Au,  4-Au) :   0.3926
B(  3-Au,  5-Au) :   0.2506 B(  3-Au, 11-Au) :   0.2864 B(  3-Au, 12-Cr) :   0.4447
B(  4-Au,  6-Au) :   0.3346 B(  4-Au, 12-Cr) :   0.2742 B(  5-Au,  9-Au) :   0.1779
B(  5-Au, 11-Au) :   0.1415 B(  5-Au, 12-Cr) :   0.6839 B(  6-Au,  8-Au) :   0.1991
B(  6-Au, 12-Cr) :   0.6394 B(  7-Au, 12-Cr) :   0.7060 B(  8-Au, 12-Cr) :   0.6907
B(  9-Au, 10-Au) :   0.1485 B(  9-Au, 12-Cr) :   0.6367 B( 10-Au, 11-Au) :   0.3249
B( 10-Au, 12-Cr) :   0.6345 B( 11-Au, 12-Cr) :   0.6731

FINAL SINGLE POINT ENERGY     -2674.583590514743

DIPOLE MOMENT
-------------
                                X             Y             Z
Electronic contribution:      2.44852       5.73827     -13.28193
Nuclear contribution   :     -2.44804      -5.68115      13.06540
                        -----------------------------------------
Total Dipole Moment    :      0.00048       0.05712      -0.21653
                        -----------------------------------------
Magnitude (a.u.)       :      0.22394
Magnitude (Debye)      :      0.56921

Rotational constants in cm-1:     0.001583     0.001177     0.001076
Rotational constants in MHz :    47.458984    35.294942    32.260521

                             ****ORCA TERMINATED NORMALLY****
TOTAL RUN TIME: 0 days 0 hours 17 minutes 42 seconds 615 msec
