                         Program Version 5.0.3 -  RELEASE  -
|  1> %pal nprocs 1 end
|  2>
|  3> !PBE def2-TZVP OPT UNO
|  4> !SLOWCONV
|  5>
|  6> *xyzfile 0 3 2.xyz                           ****END OF INPUT****
 Total Charge           Charge          ....    0
 Multiplicity           Mult            ....    3
 Number of Electrons    NEL             ....  330
FINAL SINGLE POINT ENERGY     -3436.719015028635
FINAL SINGLE POINT ENERGY     -3436.723456355894
FINAL SINGLE POINT ENERGY     -3436.725914329211
FINAL SINGLE POINT ENERGY     -3436.726887674170
FINAL SINGLE POINT ENERGY     -3436.727533088153
FINAL SINGLE POINT ENERGY     -3436.728015837689
FINAL SINGLE POINT ENERGY     -3436.728201913500
FINAL SINGLE POINT ENERGY     -3436.728254189774
FINAL SINGLE POINT ENERGY     -3436.728305700389
FINAL SINGLE POINT ENERGY     -3436.728344982453
FINAL SINGLE POINT ENERGY     -3436.728616079929
FINAL SINGLE POINT ENERGY     -3436.728641719258
FINAL SINGLE POINT ENERGY     -3436.728656723615
FINAL SINGLE POINT ENERGY     -3436.728669768919
FINAL SINGLE POINT ENERGY     -3436.728680128597
FINAL SINGLE POINT ENERGY     -3436.728687614708
FINAL SINGLE POINT ENERGY     -3436.728693973509
FINAL SINGLE POINT ENERGY     -3436.728700535160
FINAL SINGLE POINT ENERGY     -3436.728706919629
                    ***********************HURRAY********************

CARTESIAN COORDINATES (ANGSTROEM)
---------------------------------
  Au     9.785701   10.620046    6.265039
  Au     7.269066   11.542350    6.856809
  Au     7.782762   10.781085    4.193970
  Au     5.213307   10.512002    5.183923
  Au    10.390383    8.001993    6.942924
  Au     6.680749    8.211795    4.450309
  Au     8.460178    6.404494    5.700508
  Au     9.451503    8.604903    4.309018
  Au     8.682926    6.559742    8.600987
  Au     8.256907    9.325585    8.232891
  Au     7.068701    4.623061    7.438604
  Au     6.500551    7.892143    9.835566
  Au     4.060335    7.308923    8.545754
  Au     5.752909    5.702650    5.192282
  Au     5.467701    9.683282    7.864608
  Au     4.235003    7.992840    5.857583
  Fe     6.388920    7.177171    7.297812

 Multiplicity           Mult            ....    3
 Number of Electrons    NEL             ....  330
 Basis Dimension        Dim             ....  685

ORBITAL ENERGIES
----------------
                 SPIN UP ORBITALS
  NO   OCC          E(Eh)            E(eV)
   0   1.0000    -254.740914     -6931.8527
   1   1.0000     -29.574372      -804.7596
   2   1.0000     -25.517809      -694.3749
   3   1.0000     -25.511036      -694.1906
   4   1.0000     -25.502167      -693.9493
   5   1.0000      -4.038610      -109.8962
   6   1.0000      -4.038432      -109.8913
   7   1.0000      -4.034202      -109.7762
   8   1.0000      -4.033852      -109.7667
   9   1.0000      -4.032379      -109.7266
  10   1.0000      -4.031074      -109.6911
  11   1.0000      -4.029643      -109.6522
  12   1.0000      -4.029488      -109.6480
  13   1.0000      -4.024945      -109.5243
  14   1.0000      -4.024021      -109.4992
  15   1.0000      -4.021853      -109.4402
  16   1.0000      -4.021319      -109.4257
  17   1.0000      -4.020437      -109.4017
  18   1.0000      -4.019561      -109.3778
  19   1.0000      -4.018297      -109.3434
  20   1.0000      -4.018079      -109.3375
  21   1.0000      -3.351479       -91.1984
  22   1.0000      -2.254772       -61.3555
  23   1.0000      -2.254460       -61.3470
  24   1.0000      -2.251485       -61.2660
  25   1.0000      -2.251456       -61.2652
  26   1.0000      -2.249403       -61.2094
  27   1.0000      -2.249093       -61.2009
  28   1.0000      -2.248970       -61.1976
  29   1.0000      -2.248599       -61.1875
  30   1.0000      -2.248468       -61.1839
  31   1.0000      -2.248077       -61.1733
  32   1.0000      -2.247308       -61.1524
  33   1.0000      -2.246354       -61.1264
  34   1.0000      -2.246034       -61.1177
  35   1.0000      -2.245729       -61.1094
  36   1.0000      -2.245619       -61.1064
  37   1.0000      -2.245159       -61.0939
  38   1.0000      -2.244818       -61.0846
  39   1.0000      -2.244590       -61.0784
  40   1.0000      -2.242193       -61.0132
  41   1.0000      -2.242176       -61.0127
  42   1.0000      -2.239958       -60.9524
  43   1.0000      -2.239686       -60.9450
  44   1.0000      -2.239586       -60.9422
  45   1.0000      -2.239536       -60.9409
  46   1.0000      -2.238957       -60.9251
  47   1.0000      -2.238780       -60.9203
  48   1.0000      -2.238554       -60.9142
  49   1.0000      -2.238015       -60.8995
  50   1.0000      -2.237975       -60.8984
  51   1.0000      -2.237369       -60.8819
  52   1.0000      -2.236554       -60.8597
  53   1.0000      -2.236156       -60.8489
  54   1.0000      -2.235824       -60.8399
  55   1.0000      -2.234949       -60.8161
  56   1.0000      -2.234128       -60.7937
  57   1.0000      -2.234002       -60.7903
  58   1.0000      -2.233699       -60.7820
  59   1.0000      -2.233358       -60.7728
  60   1.0000      -2.232873       -60.7596
  61   1.0000      -2.232456       -60.7482
  62   1.0000      -2.231426       -60.7202
  63   1.0000      -2.231145       -60.7126
  64   1.0000      -2.231122       -60.7119
  65   1.0000      -2.230520       -60.6955
  66   1.0000      -2.230199       -60.6868
  67   1.0000      -2.229167       -60.6587
  68   1.0000      -2.227485       -60.6129
  69   1.0000      -2.226914       -60.5974
  70   1.0000      -2.181294       -59.3560
  71   1.0000      -2.167087       -58.9694
  72   1.0000      -2.148631       -58.4672
  73   1.0000      -0.431882       -11.7521
  74   1.0000      -0.395583       -10.7644
  75   1.0000      -0.391446       -10.6518
  76   1.0000      -0.389991       -10.6122
  77   1.0000      -0.379908       -10.3378
  78   1.0000      -0.375830       -10.2268
  79   1.0000      -0.368983       -10.0405
  80   1.0000      -0.365216        -9.9380
  81   1.0000      -0.364881        -9.9289
  82   1.0000      -0.363296        -9.8858
  83   1.0000      -0.360533        -9.8106
  84   1.0000      -0.359707        -9.7881
  85   1.0000      -0.359255        -9.7758
  86   1.0000      -0.354862        -9.6563
  87   1.0000      -0.352452        -9.5907
  88   1.0000      -0.349514        -9.5108
  89   1.0000      -0.348485        -9.4827
  90   1.0000      -0.348251        -9.4764
  91   1.0000      -0.345953        -9.4139
  92   1.0000      -0.345035        -9.3889
  93   1.0000      -0.341092        -9.2816
  94   1.0000      -0.339736        -9.2447
  95   1.0000      -0.338619        -9.2143
  96   1.0000      -0.336831        -9.1656
  97   1.0000      -0.334869        -9.1122
  98   1.0000      -0.333397        -9.0722
  99   1.0000      -0.332776        -9.0553
 100   1.0000      -0.328307        -8.9337
 101   1.0000      -0.327397        -8.9089
 102   1.0000      -0.325084        -8.8460
 103   1.0000      -0.321335        -8.7440
 104   1.0000      -0.319752        -8.7009
 105   1.0000      -0.316554        -8.6139
 106   1.0000      -0.315231        -8.5779
 107   1.0000      -0.313038        -8.5182
 108   1.0000      -0.311635        -8.4800
 109   1.0000      -0.311233        -8.4691
 110   1.0000      -0.306737        -8.3468
 111   1.0000      -0.306290        -8.3346
 112   1.0000      -0.303861        -8.2685
 113   1.0000      -0.303159        -8.2494
 114   1.0000      -0.301512        -8.2046
 115   1.0000      -0.299178        -8.1411
 116   1.0000      -0.298221        -8.1150
 117   1.0000      -0.292025        -7.9464
 118   1.0000      -0.290427        -7.9029
 119   1.0000      -0.285567        -7.7707
 120   1.0000      -0.285143        -7.7591
 121   1.0000      -0.284170        -7.7327
 122   1.0000      -0.282583        -7.6895
 123   1.0000      -0.280148        -7.6232
 124   1.0000      -0.279367        -7.6020
 125   1.0000      -0.278763        -7.5855
 126   1.0000      -0.278016        -7.5652
 127   1.0000      -0.276641        -7.5278
 128   1.0000      -0.274425        -7.4675
 129   1.0000      -0.272821        -7.4238
 130   1.0000      -0.272524        -7.4158
 131   1.0000      -0.271469        -7.3871
 132   1.0000      -0.270214        -7.3529
 133   1.0000      -0.267811        -7.2875
 134   1.0000      -0.267590        -7.2815
 135   1.0000      -0.267428        -7.2771
 136   1.0000      -0.263309        -7.1650
 137   1.0000      -0.262354        -7.1390
 138   1.0000      -0.260859        -7.0983
 139   1.0000      -0.260444        -7.0871
 140   1.0000      -0.258043        -7.0217
 141   1.0000      -0.257893        -7.0176
 142   1.0000      -0.256145        -6.9700
 143   1.0000      -0.255091        -6.9414
 144   1.0000      -0.252387        -6.8678
 145   1.0000      -0.251722        -6.8497
 146   1.0000      -0.251206        -6.8357
 147   1.0000      -0.251050        -6.8314
 148   1.0000      -0.250702        -6.8219
 149   1.0000      -0.248931        -6.7737
 150   1.0000      -0.247192        -6.7264
 151   1.0000      -0.245913        -6.6916
 152   1.0000      -0.244123        -6.6429
 153   1.0000      -0.243751        -6.6328
 154   1.0000      -0.242802        -6.6070
 155   1.0000      -0.241670        -6.5762
 156   1.0000      -0.239768        -6.5244
 157   1.0000      -0.237433        -6.4609
 158   1.0000      -0.236780        -6.4431
 159   1.0000      -0.234355        -6.3771
 160   1.0000      -0.231825        -6.3083
 161   1.0000      -0.229570        -6.2469
 162   1.0000      -0.219923        -5.9844
 163   1.0000      -0.212810        -5.7908
 164   1.0000      -0.209850        -5.7103
 165   1.0000      -0.202592        -5.5128
 166   0.0000      -0.194008        -5.2792
 167   0.0000      -0.153134        -4.1670
 168   0.0000      -0.150566        -4.0971
 169   0.0000      -0.134533        -3.6608
 170   0.0000      -0.133769        -3.6400

                 SPIN DOWN ORBITALS
  NO   OCC          E(Eh)            E(eV)
   0   1.0000    -254.740287     -6931.8356
   1   1.0000     -29.520625      -803.2971
   2   1.0000     -25.474042      -693.1839
   3   1.0000     -25.470369      -693.0840
   4   1.0000     -25.464882      -692.9347
   5   1.0000      -4.038783      -109.9009
   6   1.0000      -4.038584      -109.8954
   7   1.0000      -4.033797      -109.7652
   8   1.0000      -4.033547      -109.7584
   9   1.0000      -4.032874      -109.7401
  10   1.0000      -4.031699      -109.7081
  11   1.0000      -4.029273      -109.6421
  12   1.0000      -4.029185      -109.6397
  13   1.0000      -4.025834      -109.5485
  14   1.0000      -4.024967      -109.5249
  15   1.0000      -4.021454      -109.4293
  16   1.0000      -4.020969      -109.4161
  17   1.0000      -4.020943      -109.4154
  18   1.0000      -4.020083      -109.3920
  19   1.0000      -4.018656      -109.3532
  20   1.0000      -4.018498      -109.3489
  21   1.0000      -3.228963       -87.8646
  22   1.0000      -2.254937       -61.3600
  23   1.0000      -2.254623       -61.3514
  24   1.0000      -2.251742       -61.2730
  25   1.0000      -2.251662       -61.2708
  26   1.0000      -2.250006       -61.2258
  27   1.0000      -2.249217       -61.2043
  28   1.0000      -2.249101       -61.2011
  29   1.0000      -2.248886       -61.1953
  30   1.0000      -2.248006       -61.1714
  31   1.0000      -2.247686       -61.1626
  32   1.0000      -2.247352       -61.1535
  33   1.0000      -2.246670       -61.1350
  34   1.0000      -2.245837       -61.1123
  35   1.0000      -2.245717       -61.1091
  36   1.0000      -2.245659       -61.1075
  37   1.0000      -2.245096       -61.0922
  38   1.0000      -2.244418       -61.0737
  39   1.0000      -2.244109       -61.0653
  40   1.0000      -2.242125       -61.0113
  41   1.0000      -2.242056       -61.0095
  42   1.0000      -2.240128       -60.9570
  43   1.0000      -2.239954       -60.9522
  44   1.0000      -2.239518       -60.9404
  45   1.0000      -2.239381       -60.9367
  46   1.0000      -2.239298       -60.9344
  47   1.0000      -2.239201       -60.9318
  48   1.0000      -2.238899       -60.9235
  49   1.0000      -2.238508       -60.9129
  50   1.0000      -2.237853       -60.8951
  51   1.0000      -2.237408       -60.8830
  52   1.0000      -2.237342       -60.8812
  53   1.0000      -2.236916       -60.8696
  54   1.0000      -2.236639       -60.8620
  55   1.0000      -2.235854       -60.8407
  56   1.0000      -2.234687       -60.8089
  57   1.0000      -2.233858       -60.7864
  58   1.0000      -2.233561       -60.7783
  59   1.0000      -2.233404       -60.7740
  60   1.0000      -2.233275       -60.7705
  61   1.0000      -2.232980       -60.7625
  62   1.0000      -2.231823       -60.7310
  63   1.0000      -2.231604       -60.7250
  64   1.0000      -2.230945       -60.7071
  65   1.0000      -2.230699       -60.7004
  66   1.0000      -2.230383       -60.6918
  67   1.0000      -2.229669       -60.6724
  68   1.0000      -2.227848       -60.6228
  69   1.0000      -2.227322       -60.6085
  70   1.0000      -2.051261       -55.8176
  71   1.0000      -2.046533       -55.6890
  72   1.0000      -2.039223       -55.4901
  73   1.0000      -0.428958       -11.6725
  74   1.0000      -0.396335       -10.7848
  75   1.0000      -0.390667       -10.6306
  76   1.0000      -0.388432       -10.5698
  77   1.0000      -0.376744       -10.2517
  78   1.0000      -0.371384       -10.1059
  79   1.0000      -0.369676       -10.0594
  80   1.0000      -0.366166        -9.9639
  81   1.0000      -0.365884        -9.9562
  82   1.0000      -0.363527        -9.8921
  83   1.0000      -0.360333        -9.8052
  84   1.0000      -0.360190        -9.8013
  85   1.0000      -0.358762        -9.7624
  86   1.0000      -0.354870        -9.6565
  87   1.0000      -0.351782        -9.5725
  88   1.0000      -0.348404        -9.4805
  89   1.0000      -0.347257        -9.4493
  90   1.0000      -0.346350        -9.4247
  91   1.0000      -0.345994        -9.4150
  92   1.0000      -0.345383        -9.3983
  93   1.0000      -0.341418        -9.2905
  94   1.0000      -0.340298        -9.2600
  95   1.0000      -0.338280        -9.2051
  96   1.0000      -0.336921        -9.1681
  97   1.0000      -0.335090        -9.1183
  98   1.0000      -0.332154        -9.0384
  99   1.0000      -0.331611        -9.0236
 100   1.0000      -0.328182        -8.9303
 101   1.0000      -0.327600        -8.9144
 102   1.0000      -0.325752        -8.8641
 103   1.0000      -0.319706        -8.6996
 104   1.0000      -0.318371        -8.6633
 105   1.0000      -0.315035        -8.5725
 106   1.0000      -0.314951        -8.5703
 107   1.0000      -0.311963        -8.4890
 108   1.0000      -0.307533        -8.3684
 109   1.0000      -0.306966        -8.3530
 110   1.0000      -0.306382        -8.3371
 111   1.0000      -0.305978        -8.3261
 112   1.0000      -0.302867        -8.2414
 113   1.0000      -0.301177        -8.1955
 114   1.0000      -0.300135        -8.1671
 115   1.0000      -0.296384        -8.0650
 116   1.0000      -0.293121        -7.9762
 117   1.0000      -0.290797        -7.9130
 118   1.0000      -0.290471        -7.9041
 119   1.0000      -0.285602        -7.7716
 120   1.0000      -0.285319        -7.7639
 121   1.0000      -0.284141        -7.7319
 122   1.0000      -0.281460        -7.6589
 123   1.0000      -0.279956        -7.6180
 124   1.0000      -0.278894        -7.5891
 125   1.0000      -0.278445        -7.5769
 126   1.0000      -0.277365        -7.5475
 127   1.0000      -0.276277        -7.5179
 128   1.0000      -0.273658        -7.4466
 129   1.0000      -0.272821        -7.4238
 130   1.0000      -0.271526        -7.3886
 131   1.0000      -0.269904        -7.3445
 132   1.0000      -0.269526        -7.3342
 133   1.0000      -0.268440        -7.3046
 134   1.0000      -0.267693        -7.2843
 135   1.0000      -0.266388        -7.2488
 136   1.0000      -0.263693        -7.1755
 137   1.0000      -0.262955        -7.1554
 138   1.0000      -0.261570        -7.1177
 139   1.0000      -0.260672        -7.0932
 140   1.0000      -0.258721        -7.0402
 141   1.0000      -0.257960        -7.0194
 142   1.0000      -0.255730        -6.9588
 143   1.0000      -0.253271        -6.8918
 144   1.0000      -0.252582        -6.8731
 145   1.0000      -0.252204        -6.8628
 146   1.0000      -0.251968        -6.8564
 147   1.0000      -0.251596        -6.8463
 148   1.0000      -0.248792        -6.7700
 149   1.0000      -0.247944        -6.7469
 150   1.0000      -0.246095        -6.6966
 151   1.0000      -0.244585        -6.6555
 152   1.0000      -0.242782        -6.6064
 153   1.0000      -0.242520        -6.5993
 154   1.0000      -0.240564        -6.5461
 155   1.0000      -0.238213        -6.4821
 156   1.0000      -0.235296        -6.4027
 157   1.0000      -0.227205        -6.1826
 158   1.0000      -0.217750        -5.9253
 159   1.0000      -0.213153        -5.8002
 160   1.0000      -0.211878        -5.7655
 161   1.0000      -0.202417        -5.5081
 162   1.0000      -0.176130        -4.7928
 163   1.0000      -0.174665        -4.7529
 164   0.0000      -0.161158        -4.3853
 165   0.0000      -0.157921        -4.2973
 166   0.0000      -0.148732        -4.0472
 167   0.0000      -0.144316        -3.9270
 168   0.0000      -0.136849        -3.7239

MULLIKEN ATOMIC CHARGES AND SPIN POPULATIONS
--------------------------------------------
   0 Au:    0.216864   -0.099027
   1 Au:    0.257136   -0.085800
   2 Au:    0.210598   -0.084924
   3 Au:    0.178699   -0.027231
   4 Au:    0.187127   -0.014318
   5 Au:   -0.615678   -0.013045
   6 Au:   -0.229679   -0.177869
   7 Au:    0.250794   -0.123535
   8 Au:    0.272028   -0.030309
   9 Au:   -0.637500   -0.014971
  10 Au:    0.410199    0.003909
  11 Au:    0.470748   -0.011214
  12 Au:    0.408051   -0.000165
  13 Au:    0.466481   -0.012172
  14 Au:   -0.211774   -0.182285
  15 Au:    0.260651   -0.027408
  16 Fe:   -1.894745    2.900363
Sum of atomic charges         :   -0.0000000

LOEWDIN ATOMIC CHARGES AND SPIN POPULATIONS
-------------------------------------------
   0 Au:   -0.007778   -0.079587
   1 Au:    0.014657   -0.090691
   2 Au:   -0.010733   -0.073766
   3 Au:    0.038298   -0.071819
   4 Au:    0.040944   -0.068874
   5 Au:   -0.056906   -0.048948
   6 Au:   -0.033027   -0.078462
   7 Au:    0.016811   -0.102505
   8 Au:    0.035814   -0.032201
   9 Au:   -0.055961   -0.046005
  10 Au:    0.138888   -0.023552
  11 Au:    0.123334   -0.032148
  12 Au:    0.138138   -0.025933
  13 Au:    0.120468   -0.034981
  14 Au:   -0.030271   -0.076977
  15 Au:    0.033521   -0.033308
  16 Fe:   -0.506197    2.919760

  Mayer bond orders larger than 0.100000
B(  0-Au,  1-Au) :   0.2831 B(  0-Au,  2-Au) :   0.2264 B(  0-Au,  4-Au) :   0.2945
B(  0-Au,  7-Au) :   0.2370 B(  0-Au,  9-Au) :   0.3782 B(  1-Au,  2-Au) :   0.2485
B(  1-Au,  3-Au) :   0.1913 B(  1-Au,  9-Au) :   0.3373 B(  1-Au, 14-Au) :   0.3351
B(  2-Au,  3-Au) :   0.3108 B(  2-Au,  5-Au) :   0.3669 B(  2-Au,  7-Au) :   0.2843
B(  3-Au,  5-Au) :   0.2881 B(  3-Au, 14-Au) :   0.2993 B(  3-Au, 15-Au) :   0.3278
B(  4-Au,  6-Au) :   0.3249 B(  4-Au,  7-Au) :   0.1737 B(  4-Au,  8-Au) :   0.3334
B(  4-Au,  9-Au) :   0.2949 B(  5-Au,  6-Au) :   0.2816 B(  5-Au,  7-Au) :   0.3292
B(  5-Au, 13-Au) :   0.3404 B(  5-Au, 15-Au) :   0.2229 B(  5-Au, 16-Fe) :   0.3226
B(  6-Au,  7-Au) :   0.3377 B(  6-Au,  8-Au) :   0.1405 B(  6-Au, 10-Au) :   0.2443
B(  6-Au, 13-Au) :   0.1785 B(  6-Au, 16-Fe) :   0.4431 B(  8-Au,  9-Au) :   0.2214
B(  8-Au, 10-Au) :   0.2221 B(  8-Au, 11-Au) :   0.1428 B(  8-Au, 16-Fe) :   0.3879
B(  9-Au, 11-Au) :   0.3425 B(  9-Au, 14-Au) :   0.2822 B(  9-Au, 16-Fe) :   0.3253
B( 10-Au, 13-Au) :   0.1509 B( 10-Au, 16-Fe) :   0.5304 B( 11-Au, 12-Au) :   0.1500
B( 11-Au, 14-Au) :   0.1653 B( 11-Au, 16-Fe) :   0.4341 B( 12-Au, 14-Au) :   0.2482
B( 12-Au, 15-Au) :   0.2233 B( 12-Au, 16-Fe) :   0.5265 B( 13-Au, 15-Au) :   0.1444
B( 13-Au, 16-Fe) :   0.4251 B( 14-Au, 15-Au) :   0.1449 B( 14-Au, 16-Fe) :   0.4466
B( 15-Au, 16-Fe) :   0.3899

FINAL SINGLE POINT ENERGY     -3436.728710055187

DIPOLE MOMENT
-------------
                                X             Y             Z
Electronic contribution:     30.33623      44.73041     -26.67379
Nuclear contribution   :    -30.70505     -45.28780      27.01700
                        -----------------------------------------
Total Dipole Moment    :     -0.36882      -0.55740       0.34321
                        -----------------------------------------
Magnitude (a.u.)       :      0.75134
Magnitude (Debye)      :      1.90975

Rotational constants in cm-1:     0.000948     0.000797     0.000710
Rotational constants in MHz :    28.415813    23.903647    21.297434

                             ****ORCA TERMINATED NORMALLY****
TOTAL RUN TIME: 0 days 10 hours 17 minutes 51 seconds 913 msec
