                         Program Version 5.0.3 -  RELEASE  -
|  1> !SC-NEVPT2 def2-TZVP def2-TZVP/C
|  2> !MOREAD RIJCOSX def2/J
|  3> %maxcore 4000
|  4> %moinp "casscf.gbw"
|  5> %pal nprocs 8 end
|  6>
|  7> %casscf
|  8>  mult 5,3
|  9>  bweight 1,1
| 10>  nroots 5,45
| 11>  nel 6
| 12>  norb 5
| 13>  ptsettings
| 14>   d4tpre 1e-14 # default = 1e-10
| 15>   d3tpre 1e-14
| 16>  end
| 17>  rel
| 18>    dosoc true
| 19>    gtensor true
| 20>  end
| 21> end
| 22>
| 23>
| 24> *xyzfile 0 5 pbe.xyz
| 25>
| 26>
| 27>                          ****END OF INPUT****

CARTESIAN COORDINATES (ANGSTROEM)
---------------------------------
  Au     7.396864    6.375312    6.488323
  Au     8.288566    9.110046    6.948014
  Au     9.434052    7.454374    5.185402
  Au     6.407517    5.482329    8.917534
  Au     4.654632    6.398719    6.896739
  Au     6.003734   10.548342    7.621372
  Au     6.658708    7.396158   10.850816
  Au     7.738378    9.649937    9.620915
  Au     4.794366    9.306435   10.073550
  Au     3.761590    8.902733    7.525188
  Fe     6.197522    8.000707    8.262548

 Total Charge           Charge          ....    0
 Multiplicity           Mult            ....    5
 Number of Electrons    NEL             ....  216
 Basis Dimension        Dim             ....  445

ORBITAL ENERGIES
----------------

  NO   OCC          E(Eh)            E(eV)
   0   2.0000    -261.389978     -7112.7829
   1   2.0000     -31.954292      -869.5205
   2   2.0000     -27.434716      -746.5366
   3   2.0000     -27.434038      -746.5181
   4   2.0000     -27.433526      -746.5042
   5   2.0000      -4.724567      -128.5620
   6   2.0000      -4.722770      -128.5131
   7   2.0000      -4.718945      -128.4090
   8   2.0000      -4.713315      -128.2558
   9   2.0000      -4.713312      -128.2557
  10   2.0000      -4.712465      -128.2327
  11   2.0000      -4.712277      -128.2276
  12   2.0000      -4.701181      -127.9257
  13   2.0000      -4.700996      -127.9206
  14   2.0000      -4.698351      -127.8486
  15   2.0000      -4.188205      -113.9668
  16   2.0000      -2.769988       -75.3752
  17   2.0000      -2.768022       -75.3217
  18   2.0000      -2.766814       -75.2888
  19   2.0000      -2.764736       -75.2323
  20   2.0000      -2.762591       -75.1739
  21   2.0000      -2.761588       -75.1466
  22   2.0000      -2.758134       -75.0527
  23   2.0000      -2.757785       -75.0432
  24   2.0000      -2.757694       -75.0407
  25   2.0000      -2.756775       -75.0157
  26   2.0000      -2.755943       -74.9930
  27   2.0000      -2.753454       -74.9253
  28   2.0000      -2.752963       -74.9119
  29   2.0000      -2.751563       -74.8738
  30   2.0000      -2.750632       -74.8485
  31   2.0000      -2.750339       -74.8405
  32   2.0000      -2.749785       -74.8255
  33   2.0000      -2.748272       -74.7843
  34   2.0000      -2.747954       -74.7756
  35   2.0000      -2.747030       -74.7505
  36   2.0000      -2.745853       -74.7185
  37   2.0000      -2.745140       -74.6991
  38   2.0000      -2.745059       -74.6969
  39   2.0000      -2.743217       -74.6467
  40   2.0000      -2.738604       -74.5212
  41   2.0000      -2.737383       -74.4880
  42   2.0000      -2.735950       -74.4490
  43   2.0000      -2.735234       -74.4295
  44   2.0000      -2.734375       -74.4061
  45   2.0000      -2.733149       -74.3728
  46   2.0000      -2.732370       -74.3516
  47   2.0000      -2.730161       -74.2915
  48   2.0000      -2.729642       -74.2773
  49   2.0000      -0.581307       -15.8182
  50   2.0000      -0.559737       -15.2312
  51   2.0000      -0.557448       -15.1689
  52   2.0000      -0.548770       -14.9328
  53   2.0000      -0.548220       -14.9178
  54   2.0000      -0.535658       -14.5760
  55   2.0000      -0.531763       -14.4700
  56   2.0000      -0.531559       -14.4645
  57   2.0000      -0.523984       -14.2583
  58   2.0000      -0.523034       -14.2325
  59   2.0000      -0.522209       -14.2100
  60   2.0000      -0.521686       -14.1958
  61   2.0000      -0.518754       -14.1160
  62   2.0000      -0.518160       -14.0999
  63   2.0000      -0.515004       -14.0140
  64   2.0000      -0.512676       -13.9506
  65   2.0000      -0.507229       -13.8024
  66   2.0000      -0.501412       -13.6441
  67   2.0000      -0.500482       -13.6188
  68   2.0000      -0.494903       -13.4670
  69   2.0000      -0.490225       -13.3397
  70   2.0000      -0.486263       -13.2319
  71   2.0000      -0.485217       -13.2034
  72   2.0000      -0.481794       -13.1103
  73   2.0000      -0.481640       -13.1061
  74   2.0000      -0.476169       -12.9572
  75   2.0000      -0.473354       -12.8806
  76   2.0000      -0.466823       -12.7029
  77   2.0000      -0.465319       -12.6620
  78   2.0000      -0.463176       -12.6037
  79   2.0000      -0.458830       -12.4854
  80   2.0000      -0.457479       -12.4486
  81   2.0000      -0.455527       -12.3955
  82   2.0000      -0.452618       -12.3164
  83   2.0000      -0.451798       -12.2941
  84   2.0000      -0.449077       -12.2200
  85   2.0000      -0.446281       -12.1439
  86   2.0000      -0.445972       -12.1355
  87   2.0000      -0.443915       -12.0795
  88   2.0000      -0.440444       -11.9851
  89   2.0000      -0.439676       -11.9642
  90   2.0000      -0.435188       -11.8421
  91   2.0000      -0.433207       -11.7882
  92   2.0000      -0.429697       -11.6926
  93   2.0000      -0.424607       -11.5542
  94   2.0000      -0.421997       -11.4831
  95   2.0000      -0.419026       -11.4023
  96   2.0000      -0.411408       -11.1950
  97   2.0000      -0.409052       -11.1309
  98   2.0000      -0.403289       -10.9740
  99   2.0000      -0.402612       -10.9556
 100   2.0000      -0.345864        -9.4114
 101   2.0000      -0.333396        -9.0722
 102   2.0000      -0.303218        -8.2510
 103   2.0000      -0.250629        -6.8200
 104   2.0000      -0.204507        -5.5649
 105   1.2000      -0.269830        -7.3424
 106   1.2000      -0.260643        -7.0925
 107   1.2000      -0.262287        -7.1372
 108   1.2000      -0.271267        -7.3815
 109   1.2000      -0.260133        -7.0786
 110   0.0000      -0.037665        -1.0249
 111   0.0000      -0.011849        -0.3224
 112   0.0000      -0.005458        -0.1485
 113   0.0000      -0.004343        -0.1182
 114   0.0000       0.016392         0.4460

MULLIKEN ATOMIC CHARGES AND SPIN DENSITIES
------------------------------------------
   0 Au:   -0.054509    0.006635
   1 Au:   -0.225074    0.007522
   2 Au:    0.381477    0.002418
   3 Au:    0.038843    0.013984
   4 Au:    0.036367    0.014026
   5 Au:    0.237824    0.010557
   6 Au:    0.298237    0.007367
   7 Au:    0.239166    0.010545
   8 Au:    0.233158    0.008606
   9 Au:    0.297556    0.007319
  10 Fe:   -1.483044    2.911020
Sum of atomic charges       :    0.0000000

LOEWDIN ATOMIC CHARGES AND SPIN DENSITIES
-----------------------------------------
   0 Au:   -0.083579    0.010794
   1 Au:   -0.051260    0.010267
   2 Au:    0.142620    0.002889
   3 Au:   -0.000839    0.016059
   4 Au:   -0.000910    0.016085
   5 Au:    0.015082    0.012946
   6 Au:    0.044977    0.011183
   7 Au:    0.015059    0.012936
   8 Au:    0.042052    0.011252
   9 Au:    0.045348    0.011128
  10 Fe:   -0.168549    2.884462

  Mayer bond orders larger than 0.100000
B(  0-Au,  1-Au) :   0.4169 B(  0-Au,  2-Au) :   0.5617 B(  0-Au,  3-Au) :   0.1920
B(  0-Au,  4-Au) :   0.1901 B(  0-Au, 10-Fe) :   0.3099 B(  1-Au,  2-Au) :   0.4678
B(  1-Au,  5-Au) :   0.2616 B(  1-Au,  7-Au) :   0.2614 B(  1-Au, 10-Fe) :   0.4227
B(  3-Au,  6-Au) :   0.1902 B(  3-Au, 10-Fe) :   0.6084 B(  4-Au,  9-Au) :   0.1873
B(  4-Au, 10-Fe) :   0.6095 B(  5-Au,  9-Au) :   0.2563 B(  5-Au, 10-Fe) :   0.4885
B(  6-Au,  7-Au) :   0.2543 B(  6-Au,  8-Au) :   0.3001 B(  6-Au, 10-Fe) :   0.3629
B(  7-Au, 10-Fe) :   0.4879 B(  8-Au,  9-Au) :   0.3002 B(  8-Au, 10-Fe) :   0.4585
B(  9-Au, 10-Fe) :   0.3615

FINAL SINGLE POINT ENERGY     -2615.513812176690

DIPOLE MOMENT
-------------
                                X             Y             Z
Electronic contribution:     12.17320       2.59356      -9.51917
Nuclear contribution   :    -11.98154      -2.33828       9.46051
                        -----------------------------------------
Total Dipole Moment    :      0.19166       0.25528      -0.05867
                        -----------------------------------------
Magnitude (a.u.)       :      0.32457
Magnitude (Debye)      :      0.82499

Rotational constants in cm-1:     0.001990     0.001476     0.001349
Rotational constants in MHz :    59.664077    44.256980    40.440593

                             ****ORCA TERMINATED NORMALLY****
TOTAL RUN TIME: 0 days 3 hours 17 minutes 37 seconds 822 msec
