                         Program Version 5.0.3 -  RELEASE  -
|  1> !RI-B2PLYP def2-TZVP def2-TZVP/C
|  2> !RIJCOSX VERYSLOWCONV
|  3>
|  4> %scf
|  5>   AutoTRAHIter 200
|  6>   maxiter 400
|  7> end
|  8>
|  9>
| 10> %pal nprocs 6 end
| 11>
| 12> *xyzfile 0 5 pbe.xyz
| 13>
| 14> $new_job
| 15>
| 16> !RI-B2PLYP def2-TZVP def2-TZVP/C
| 17> !RIJCOSX VERYSLOWCONV
| 18>
| 19> %scf
| 20>   AutoTRAHIter 200
| 21>   maxiter 400
| 22> end
| 23>
| 24>
| 25> %pal nprocs 6 end
| 26>
| 27> *xyzfile 0 3 pbe.xyz
| 28>
| 29>
| 30>
| 31>
| 32>
| 33>                          ****END OF INPUT****
 Total Charge           Charge          ....    0
 Multiplicity           Mult            ....    5
 Number of Electrons    NEL             ....  252
MP2 TOTAL ENERGY:    -2671.311557395 Eh
FINAL SINGLE POINT ENERGY     -2671.311557395097

CARTESIAN COORDINATES (ANGSTROEM)
---------------------------------
  Au     6.545212   11.201705    9.597091
  Au     8.993307   11.031737    8.268771
  Au     4.728818    9.086939    9.220240
  Au     8.366220    9.168812   10.281829
  Au     6.505251    7.070260   10.056782
  Au     5.162676    6.811188    7.624285
  Au     5.202944   10.945233    7.163893
  Au     8.952058    6.900899    8.724475
  Au     7.650663   10.777636    5.834486
  Au     7.609091    6.639250    6.291634
  Au     9.422903    8.758966    6.667244
  Au     5.793057    8.674927    5.612529
  Cr     7.077067    8.923292    7.947992

 Multiplicity           Mult            ....    3
 Number of Electrons    NEL             ....  252
 Basis Dimension        Dim             ....  525

ORBITAL ENERGIES
----------------
                 SPIN UP ORBITALS
  NO   OCC          E(Eh)            E(eV)
   0   1.0000    -217.751398     -5925.3168
   1   1.0000     -25.436975      -692.1753
   2   1.0000     -21.576856      -587.1361
   3   1.0000     -21.575759      -587.1063
   4   1.0000     -21.571002      -586.9768
   5   1.0000      -4.395780      -119.6152
   6   1.0000      -4.395724      -119.6137
   7   1.0000      -4.394965      -119.5931
   8   1.0000      -4.394891      -119.5911
   9   1.0000      -4.394889      -119.5910
  10   1.0000      -4.394807      -119.5888
  11   1.0000      -4.394692      -119.5856
  12   1.0000      -4.394686      -119.5855
  13   1.0000      -4.387721      -119.3960
  14   1.0000      -4.387705      -119.3955
  15   1.0000      -4.387599      -119.3926
  16   1.0000      -4.387586      -119.3923
  17   1.0000      -3.225020       -87.7573
  18   1.0000      -2.516877       -68.4877
  19   1.0000      -2.516778       -68.4850
  20   1.0000      -2.516044       -68.4650
  21   1.0000      -2.515998       -68.4638
  22   1.0000      -2.515955       -68.4626
  23   1.0000      -2.515843       -68.4596
  24   1.0000      -2.515595       -68.4528
  25   1.0000      -2.515053       -68.4381
  26   1.0000      -2.514220       -68.4154
  27   1.0000      -2.513947       -68.4080
  28   1.0000      -2.513399       -68.3931
  29   1.0000      -2.513135       -68.3859
  30   1.0000      -2.512669       -68.3732
  31   1.0000      -2.512293       -68.3630
  32   1.0000      -2.512172       -68.3597
  33   1.0000      -2.512079       -68.3571
  34   1.0000      -2.510816       -68.3228
  35   1.0000      -2.510368       -68.3106
  36   1.0000      -2.510144       -68.3045
  37   1.0000      -2.510116       -68.3037
  38   1.0000      -2.509920       -68.2984
  39   1.0000      -2.509671       -68.2916
  40   1.0000      -2.509064       -68.2751
  41   1.0000      -2.508754       -68.2667
  42   1.0000      -2.505677       -68.1829
  43   1.0000      -2.505441       -68.1765
  44   1.0000      -2.505392       -68.1752
  45   1.0000      -2.505321       -68.1732
  46   1.0000      -2.504730       -68.1572
  47   1.0000      -2.504609       -68.1539
  48   1.0000      -2.504474       -68.1502
  49   1.0000      -2.504310       -68.1457
  50   1.0000      -2.502327       -68.0918
  51   1.0000      -2.502226       -68.0890
  52   1.0000      -2.502203       -68.0884
  53   1.0000      -2.502114       -68.0860
  54   1.0000      -2.115406       -57.5631
  55   1.0000      -2.108478       -57.3746
  56   1.0000      -2.107618       -57.3512
  57   1.0000      -0.493077       -13.4173
  58   1.0000      -0.473455       -12.8834
  59   1.0000      -0.470627       -12.8064
  60   1.0000      -0.469291       -12.7701
  61   1.0000      -0.459800       -12.5118
  62   1.0000      -0.456529       -12.4228
  63   1.0000      -0.455557       -12.3963
  64   1.0000      -0.453138       -12.3305
  65   1.0000      -0.451286       -12.2801
  66   1.0000      -0.448473       -12.2036
  67   1.0000      -0.446232       -12.1426
  68   1.0000      -0.442974       -12.0539
  69   1.0000      -0.439722       -11.9654
  70   1.0000      -0.436860       -11.8876
  71   1.0000      -0.435840       -11.8598
  72   1.0000      -0.434685       -11.8284
  73   1.0000      -0.432049       -11.7567
  74   1.0000      -0.427268       -11.6265
  75   1.0000      -0.423070       -11.5123
  76   1.0000      -0.418800       -11.3961
  77   1.0000      -0.418733       -11.3943
  78   1.0000      -0.417967       -11.3735
  79   1.0000      -0.417703       -11.3663
  80   1.0000      -0.417113       -11.3502
  81   1.0000      -0.412869       -11.2347
  82   1.0000      -0.411801       -11.2057
  83   1.0000      -0.409892       -11.1537
  84   1.0000      -0.408095       -11.1048
  85   1.0000      -0.400280       -10.8922
  86   1.0000      -0.398976       -10.8567
  87   1.0000      -0.398187       -10.8352
  88   1.0000      -0.397498       -10.8165
  89   1.0000      -0.392407       -10.6779
  90   1.0000      -0.391684       -10.6583
  91   1.0000      -0.391093       -10.6422
  92   1.0000      -0.390734       -10.6324
  93   1.0000      -0.380965       -10.3666
  94   1.0000      -0.377250       -10.2655
  95   1.0000      -0.372193       -10.1279
  96   1.0000      -0.372059       -10.1242
  97   1.0000      -0.368896       -10.0382
  98   1.0000      -0.365787        -9.9536
  99   1.0000      -0.365394        -9.9429
 100   1.0000      -0.358563        -9.7570
 101   1.0000      -0.356709        -9.7065
 102   1.0000      -0.354686        -9.6515
 103   1.0000      -0.353433        -9.6174
 104   1.0000      -0.351235        -9.5576
 105   1.0000      -0.350215        -9.5298
 106   1.0000      -0.346167        -9.4197
 107   1.0000      -0.344405        -9.3717
 108   1.0000      -0.342855        -9.3296
 109   1.0000      -0.342390        -9.3169
 110   1.0000      -0.341562        -9.2944
 111   1.0000      -0.340341        -9.2611
 112   1.0000      -0.340210        -9.2576
 113   1.0000      -0.339656        -9.2425
 114   1.0000      -0.338575        -9.2131
 115   1.0000      -0.336673        -9.1613
 116   1.0000      -0.335974        -9.1423
 117   1.0000      -0.335344        -9.1252
 118   1.0000      -0.333025        -9.0621
 119   1.0000      -0.322877        -8.7859
 120   1.0000      -0.319885        -8.7045
 121   1.0000      -0.303683        -8.2636
 122   1.0000      -0.297613        -8.0984
 123   1.0000      -0.294516        -8.0142
 124   1.0000      -0.289365        -7.8740
 125   1.0000      -0.238212        -6.4821
 126   1.0000      -0.205911        -5.6031
 127   0.0000      -0.129295        -3.5183
 128   0.0000      -0.097484        -2.6527
 129   0.0000      -0.092106        -2.5063
 130   0.0000      -0.069455        -1.8900
 131   0.0000      -0.056854        -1.5471

                 SPIN DOWN ORBITALS
  NO   OCC          E(Eh)            E(eV)
   0   1.0000    -217.750123     -5925.2821
   1   1.0000     -25.366905      -690.2686
   2   1.0000     -21.517215      -585.5132
   3   1.0000     -21.513904      -585.4231
   4   1.0000     -21.498343      -584.9997
   5   1.0000      -4.396475      -119.6342
   6   1.0000      -4.396425      -119.6328
   7   1.0000      -4.395778      -119.6152
   8   1.0000      -4.395717      -119.6135
   9   1.0000      -4.395280      -119.6016
  10   1.0000      -4.395205      -119.5996
  11   1.0000      -4.395172      -119.5987
  12   1.0000      -4.395146      -119.5980
  13   1.0000      -4.387198      -119.3817
  14   1.0000      -4.387177      -119.3812
  15   1.0000      -4.387076      -119.3784
  16   1.0000      -4.387069      -119.3782
  17   1.0000      -3.009612       -81.8957
  18   1.0000      -2.516408       -68.4749
  19   1.0000      -2.516330       -68.4728
  20   1.0000      -2.515831       -68.4592
  21   1.0000      -2.515759       -68.4573
  22   1.0000      -2.515689       -68.4554
  23   1.0000      -2.515635       -68.4539
  24   1.0000      -2.515388       -68.4472
  25   1.0000      -2.515142       -68.4405
  26   1.0000      -2.513678       -68.4006
  27   1.0000      -2.513406       -68.3932
  28   1.0000      -2.513019       -68.3827
  29   1.0000      -2.512960       -68.3811
  30   1.0000      -2.512685       -68.3736
  31   1.0000      -2.512533       -68.3695
  32   1.0000      -2.512174       -68.3597
  33   1.0000      -2.511914       -68.3527
  34   1.0000      -2.510990       -68.3275
  35   1.0000      -2.510571       -68.3161
  36   1.0000      -2.510524       -68.3148
  37   1.0000      -2.510195       -68.3059
  38   1.0000      -2.510180       -68.3055
  39   1.0000      -2.509905       -68.2980
  40   1.0000      -2.509259       -68.2804
  41   1.0000      -2.508972       -68.2726
  42   1.0000      -2.504642       -68.1548
  43   1.0000      -2.504481       -68.1504
  44   1.0000      -2.504383       -68.1477
  45   1.0000      -2.504365       -68.1472
  46   1.0000      -2.504016       -68.1377
  47   1.0000      -2.503899       -68.1345
  48   1.0000      -2.503818       -68.1324
  49   1.0000      -2.503691       -68.1289
  50   1.0000      -2.501874       -68.0795
  51   1.0000      -2.501802       -68.0775
  52   1.0000      -2.501773       -68.0767
  53   1.0000      -2.501685       -68.0743
  54   1.0000      -1.878916       -51.1279
  55   1.0000      -1.872180       -50.9446
  56   1.0000      -1.837021       -49.9879
  57   1.0000      -0.488411       -13.2903
  58   1.0000      -0.461044       -12.5457
  59   1.0000      -0.459378       -12.5003
  60   1.0000      -0.456178       -12.4132
  61   1.0000      -0.455673       -12.3995
  62   1.0000      -0.454464       -12.3666
  63   1.0000      -0.453438       -12.3387
  64   1.0000      -0.451534       -12.2869
  65   1.0000      -0.450381       -12.2555
  66   1.0000      -0.444056       -12.0834
  67   1.0000      -0.443935       -12.0801
  68   1.0000      -0.439270       -11.9532
  69   1.0000      -0.438760       -11.9393
  70   1.0000      -0.438186       -11.9236
  71   1.0000      -0.438055       -11.9201
  72   1.0000      -0.436825       -11.8866
  73   1.0000      -0.435068       -11.8388
  74   1.0000      -0.429110       -11.6767
  75   1.0000      -0.424718       -11.5572
  76   1.0000      -0.424510       -11.5515
  77   1.0000      -0.421219       -11.4620
  78   1.0000      -0.419998       -11.4287
  79   1.0000      -0.419915       -11.4265
  80   1.0000      -0.418784       -11.3957
  81   1.0000      -0.413374       -11.2485
  82   1.0000      -0.411184       -11.1889
  83   1.0000      -0.409578       -11.1452
  84   1.0000      -0.409428       -11.1411
  85   1.0000      -0.399827       -10.8798
  86   1.0000      -0.396710       -10.7950
  87   1.0000      -0.393578       -10.7098
  88   1.0000      -0.392756       -10.6874
  89   1.0000      -0.392537       -10.6815
  90   1.0000      -0.390251       -10.6193
  91   1.0000      -0.382479       -10.4078
  92   1.0000      -0.378261       -10.2930
  93   1.0000      -0.377389       -10.2693
  94   1.0000      -0.374238       -10.1835
  95   1.0000      -0.371388       -10.1060
  96   1.0000      -0.370022       -10.0688
  97   1.0000      -0.366736        -9.9794
  98   1.0000      -0.366688        -9.9781
  99   1.0000      -0.365987        -9.9590
 100   1.0000      -0.359495        -9.7824
 101   1.0000      -0.359128        -9.7724
 102   1.0000      -0.354721        -9.6525
 103   1.0000      -0.352390        -9.5890
 104   1.0000      -0.351402        -9.5621
 105   1.0000      -0.350667        -9.5421
 106   1.0000      -0.346264        -9.4223
 107   1.0000      -0.345370        -9.3980
 108   1.0000      -0.343140        -9.3373
 109   1.0000      -0.342776        -9.3274
 110   1.0000      -0.342749        -9.3267
 111   1.0000      -0.341928        -9.3043
 112   1.0000      -0.340512        -9.2658
 113   1.0000      -0.340447        -9.2640
 114   1.0000      -0.337098        -9.1729
 115   1.0000      -0.336810        -9.1651
 116   1.0000      -0.333941        -9.0870
 117   1.0000      -0.314504        -8.5581
 118   1.0000      -0.304582        -8.2881
 119   1.0000      -0.303211        -8.2508
 120   1.0000      -0.302754        -8.2384
 121   1.0000      -0.232213        -6.3188
 122   1.0000      -0.228219        -6.2101
 123   1.0000      -0.225838        -6.1454
 124   1.0000      -0.189671        -5.1612
 125   0.0000      -0.110092        -2.9958
 126   0.0000      -0.058290        -1.5862
 127   0.0000      -0.043174        -1.1748
 128   0.0000      -0.042831        -1.1655
 129   0.0000      -0.036830        -1.0022

MULLIKEN ATOMIC CHARGES AND SPIN POPULATIONS
--------------------------------------------
   0 Au:    0.485604   -0.172528
   1 Au:    0.461096    0.013597
   2 Au:    0.387443   -0.101153
   3 Au:    0.411721   -0.097633
   4 Au:    0.486293   -0.173307
   5 Au:    0.461410    0.012881
   6 Au:    0.462037    0.012598
   7 Au:    0.460906    0.012934
   8 Au:    0.488550   -0.174416
   9 Au:    0.489719   -0.174418
  10 Au:    0.387958   -0.101464
  11 Au:    0.408019   -0.097440
  12 Cr:   -5.390756    3.040349
Sum of atomic charges         :   -0.0000000

LOEWDIN ATOMIC CHARGES AND SPIN POPULATIONS
-------------------------------------------
   0 Au:    0.117641   -0.169721
   1 Au:    0.097119   -0.092328
   2 Au:    0.109348   -0.128679
   3 Au:    0.101387   -0.105176
   4 Au:    0.117831   -0.169883
   5 Au:    0.097060   -0.092748
   6 Au:    0.097193   -0.093101
   7 Au:    0.096903   -0.092802
   8 Au:    0.117755   -0.170376
   9 Au:    0.117712   -0.170463
  10 Au:    0.108794   -0.128764
  11 Au:    0.100489   -0.105311
  12 Cr:   -1.279231    3.519351

  Mayer bond orders larger than 0.100000
B(  0-Au,  1-Au) :   0.1968 B(  0-Au,  2-Au) :   0.1540 B(  0-Au,  3-Au) :   0.1565
B(  0-Au,  6-Au) :   0.1858 B(  0-Au, 12-Cr) :   0.4246 B(  1-Au,  3-Au) :   0.1688
B(  1-Au,  8-Au) :   0.1849 B(  1-Au, 10-Au) :   0.1641 B(  1-Au, 12-Cr) :   0.4926
B(  2-Au,  4-Au) :   0.1532 B(  2-Au,  5-Au) :   0.1645 B(  2-Au,  6-Au) :   0.1650
B(  2-Au, 10-Au) :   0.1178 B(  2-Au, 12-Cr) :   0.6235 B(  3-Au,  4-Au) :   0.1559
B(  3-Au,  7-Au) :   0.1684 B(  3-Au, 11-Au) :   0.1198 B(  3-Au, 12-Cr) :   0.6198
B(  4-Au,  5-Au) :   0.1862 B(  4-Au,  7-Au) :   0.1963 B(  4-Au, 12-Cr) :   0.4244
B(  5-Au,  9-Au) :   0.1950 B(  5-Au, 11-Au) :   0.1684 B(  5-Au, 12-Cr) :   0.4930
B(  6-Au,  8-Au) :   0.1954 B(  6-Au, 11-Au) :   0.1684 B(  6-Au, 12-Cr) :   0.4933
B(  7-Au,  9-Au) :   0.1848 B(  7-Au, 10-Au) :   0.1647 B(  7-Au, 12-Cr) :   0.4937
B(  8-Au, 10-Au) :   0.1537 B(  8-Au, 11-Au) :   0.1558 B(  8-Au, 12-Cr) :   0.4243
B(  9-Au, 10-Au) :   0.1525 B(  9-Au, 11-Au) :   0.1572 B(  9-Au, 12-Cr) :   0.4241
B( 10-Au, 12-Cr) :   0.6231 B( 11-Au, 12-Cr) :   0.6203

MP2 TOTAL ENERGY:    -2671.302256848 Eh
FINAL SINGLE POINT ENERGY     -2671.302256847988

DIPOLE MOMENT
-------------
                                X             Y             Z
Electronic contribution:      0.02093      -0.03469      -0.09486
Nuclear contribution   :     -0.02163       0.03495       0.09549
                        -----------------------------------------
Total Dipole Moment    :     -0.00070       0.00027       0.00063
                        -----------------------------------------
Magnitude (a.u.)       :      0.00098
Magnitude (Debye)      :      0.00249

Rotational constants in cm-1:     0.001431     0.001327     0.001327
Rotational constants in MHz :    42.892358    39.779472    39.770916

                             ****ORCA TERMINATED NORMALLY****
TOTAL RUN TIME: 0 days 1 hours 3 minutes 30 seconds 850 msec
