                         Program Version 5.0.3 -  RELEASE  -
|  1> !PBE def2-TZVP VERYSLOWCONV
|  2>
|  3> %scf
|  4>   AutoTRAHIter 200
|  5>   maxiter 400
|  6> end
|  7>
|  8>
|  9> %pal nprocs 6 end
| 10>
| 11> *xyzfile 0 5 pbe.xyz
| 12>
| 13> $new_job
| 14>
| 15> !PBE def2-TZVP VERYSLOWCONV
| 16>
| 17> %scf
| 18>   AutoTRAHIter 200
| 19>   maxiter 400
| 20> end
| 21>
| 22>
| 23> %pal nprocs 6 end
| 24>
| 25> *xyzfile 0 3 pbe.xyz
| 26>
| 27>
| 28>
| 29>
| 30>
| 31>                          ****END OF INPUT****
 Total Charge           Charge          ....    0
 Multiplicity           Mult            ....    5
 Number of Electrons    NEL             ....  252
FINAL SINGLE POINT ENERGY     -2674.156801406794

CARTESIAN COORDINATES (ANGSTROEM)
---------------------------------
  Au     6.545212   11.201705    9.597091
  Au     8.993307   11.031737    8.268771
  Au     4.728818    9.086939    9.220240
  Au     8.366220    9.168812   10.281829
  Au     6.505251    7.070260   10.056782
  Au     5.162676    6.811188    7.624285
  Au     5.202944   10.945233    7.163893
  Au     8.952058    6.900899    8.724475
  Au     7.650663   10.777636    5.834486
  Au     7.609091    6.639250    6.291634
  Au     9.422903    8.758966    6.667244
  Au     5.793057    8.674927    5.612529
  Cr     7.077067    8.923292    7.947992

 Multiplicity           Mult            ....    3
 Number of Electrons    NEL             ....  252
 Basis Dimension        Dim             ....  525

ORBITAL ENERGIES
----------------
                 SPIN UP ORBITALS
  NO   OCC          E(Eh)            E(eV)
   0   1.0000    -214.510108     -5837.1168
   1   1.0000     -24.311480      -661.5490
   2   1.0000     -20.678873      -562.7007
   3   1.0000     -20.673852      -562.5641
   4   1.0000     -20.672919      -562.5387
   5   1.0000      -4.026808      -109.5750
   6   1.0000      -4.026753      -109.5735
   7   1.0000      -4.025481      -109.5389
   8   1.0000      -4.025437      -109.5377
   9   1.0000      -4.019639      -109.3799
  10   1.0000      -4.019589      -109.3786
  11   1.0000      -4.019517      -109.3766
  12   1.0000      -4.019470      -109.3753
  13   1.0000      -4.019460      -109.3751
  14   1.0000      -4.019426      -109.3741
  15   1.0000      -4.019329      -109.3715
  16   1.0000      -4.019310      -109.3710
  17   1.0000      -2.808258       -76.4166
  18   1.0000      -2.243541       -61.0498
  19   1.0000      -2.243487       -61.0484
  20   1.0000      -2.242120       -61.0112
  21   1.0000      -2.242045       -61.0091
  22   1.0000      -2.240214       -60.9593
  23   1.0000      -2.240105       -60.9564
  24   1.0000      -2.238788       -60.9205
  25   1.0000      -2.238696       -60.9180
  26   1.0000      -2.236871       -60.8683
  27   1.0000      -2.236819       -60.8669
  28   1.0000      -2.235734       -60.8374
  29   1.0000      -2.235583       -60.8333
  30   1.0000      -2.235173       -60.8222
  31   1.0000      -2.234692       -60.8091
  32   1.0000      -2.234616       -60.8070
  33   1.0000      -2.234457       -60.8027
  34   1.0000      -2.234374       -60.8004
  35   1.0000      -2.234180       -60.7951
  36   1.0000      -2.234055       -60.7917
  37   1.0000      -2.234048       -60.7915
  38   1.0000      -2.233168       -60.7676
  39   1.0000      -2.233096       -60.7656
  40   1.0000      -2.232921       -60.7609
  41   1.0000      -2.232595       -60.7520
  42   1.0000      -2.232460       -60.7483
  43   1.0000      -2.232444       -60.7479
  44   1.0000      -2.231894       -60.7329
  45   1.0000      -2.231533       -60.7231
  46   1.0000      -2.230769       -60.7023
  47   1.0000      -2.230539       -60.6960
  48   1.0000      -2.229433       -60.6660
  49   1.0000      -2.229380       -60.6645
  50   1.0000      -2.229356       -60.6639
  51   1.0000      -2.229265       -60.6614
  52   1.0000      -2.228547       -60.6418
  53   1.0000      -2.228417       -60.6383
  54   1.0000      -1.802436       -49.0468
  55   1.0000      -1.796098       -48.8743
  56   1.0000      -1.793540       -48.8047
  57   1.0000      -0.420336       -11.4379
  58   1.0000      -0.370568       -10.0837
  59   1.0000      -0.369402       -10.0519
  60   1.0000      -0.368174       -10.0185
  61   1.0000      -0.364116        -9.9081
  62   1.0000      -0.363444        -9.8898
  63   1.0000      -0.361125        -9.8267
  64   1.0000      -0.358448        -9.7539
  65   1.0000      -0.353132        -9.6092
  66   1.0000      -0.352605        -9.5949
  67   1.0000      -0.344471        -9.3735
  68   1.0000      -0.338056        -9.1990
  69   1.0000      -0.337731        -9.1901
  70   1.0000      -0.333716        -9.0809
  71   1.0000      -0.333614        -9.0781
  72   1.0000      -0.332748        -9.0545
  73   1.0000      -0.331356        -9.0166
  74   1.0000      -0.324305        -8.8248
  75   1.0000      -0.323580        -8.8051
  76   1.0000      -0.322195        -8.7674
  77   1.0000      -0.320658        -8.7256
  78   1.0000      -0.320490        -8.7210
  79   1.0000      -0.318463        -8.6658
  80   1.0000      -0.317429        -8.6377
  81   1.0000      -0.311338        -8.4719
  82   1.0000      -0.311254        -8.4697
  83   1.0000      -0.310279        -8.4431
  84   1.0000      -0.308040        -8.3822
  85   1.0000      -0.307844        -8.3769
  86   1.0000      -0.298395        -8.1197
  87   1.0000      -0.294361        -8.0100
  88   1.0000      -0.293422        -7.9844
  89   1.0000      -0.293341        -7.9822
  90   1.0000      -0.292721        -7.9653
  91   1.0000      -0.292154        -7.9499
  92   1.0000      -0.286519        -7.7966
  93   1.0000      -0.274439        -7.4679
  94   1.0000      -0.273923        -7.4538
  95   1.0000      -0.273897        -7.4531
  96   1.0000      -0.273697        -7.4477
  97   1.0000      -0.273469        -7.4415
  98   1.0000      -0.272499        -7.4151
  99   1.0000      -0.269765        -7.3407
 100   1.0000      -0.261314        -7.1107
 101   1.0000      -0.258586        -7.0365
 102   1.0000      -0.257975        -7.0198
 103   1.0000      -0.256626        -6.9832
 104   1.0000      -0.255164        -6.9434
 105   1.0000      -0.254295        -6.9197
 106   1.0000      -0.254100        -6.9144
 107   1.0000      -0.252127        -6.8607
 108   1.0000      -0.252050        -6.8586
 109   1.0000      -0.248645        -6.7660
 110   1.0000      -0.248625        -6.7654
 111   1.0000      -0.247719        -6.7408
 112   1.0000      -0.247513        -6.7352
 113   1.0000      -0.247313        -6.7297
 114   1.0000      -0.245600        -6.6831
 115   1.0000      -0.245244        -6.6734
 116   1.0000      -0.243197        -6.6177
 117   1.0000      -0.242101        -6.5879
 118   1.0000      -0.240465        -6.5434
 119   1.0000      -0.240241        -6.5373
 120   1.0000      -0.221983        -6.0405
 121   1.0000      -0.220487        -5.9997
 122   1.0000      -0.219109        -5.9622
 123   1.0000      -0.218810        -5.9541
 124   1.0000      -0.217838        -5.9277
 125   1.0000      -0.209716        -5.7067
 126   1.0000      -0.182386        -4.9630
 127   0.0000      -0.180713        -4.9175
 128   0.0000      -0.170392        -4.6366
 129   0.0000      -0.161040        -4.3821
 130   0.0000      -0.159554        -4.3417
 131   0.0000      -0.120522        -3.2796

                 SPIN DOWN ORBITALS
  NO   OCC          E(Eh)            E(eV)
   0   1.0000    -214.509721     -5837.1063
   1   1.0000     -24.268669      -660.3841
   2   1.0000     -20.648526      -561.8750
   3   1.0000     -20.639787      -561.6372
   4   1.0000     -20.639200      -561.6212
   5   1.0000      -4.026562      -109.5683
   6   1.0000      -4.026507      -109.5668
   7   1.0000      -4.025545      -109.5407
   8   1.0000      -4.025509      -109.5397
   9   1.0000      -4.019546      -109.3774
  10   1.0000      -4.019496      -109.3760
  11   1.0000      -4.019424      -109.3741
  12   1.0000      -4.019379      -109.3729
  13   1.0000      -4.019368      -109.3726
  14   1.0000      -4.019337      -109.3717
  15   1.0000      -4.019240      -109.3691
  16   1.0000      -4.019224      -109.3686
  17   1.0000      -2.693498       -73.2938
  18   1.0000      -2.242819       -61.0302
  19   1.0000      -2.242766       -61.0288
  20   1.0000      -2.241697       -60.9997
  21   1.0000      -2.241631       -60.9979
  22   1.0000      -2.240347       -60.9629
  23   1.0000      -2.240233       -60.9598
  24   1.0000      -2.239230       -60.9326
  25   1.0000      -2.239163       -60.9307
  26   1.0000      -2.236573       -60.8603
  27   1.0000      -2.236512       -60.8586
  28   1.0000      -2.235748       -60.8378
  29   1.0000      -2.235580       -60.8332
  30   1.0000      -2.235100       -60.8202
  31   1.0000      -2.234507       -60.8040
  32   1.0000      -2.234354       -60.7999
  33   1.0000      -2.234263       -60.7974
  34   1.0000      -2.234242       -60.7968
  35   1.0000      -2.234163       -60.7947
  36   1.0000      -2.234026       -60.7909
  37   1.0000      -2.233960       -60.7891
  38   1.0000      -2.232891       -60.7601
  39   1.0000      -2.232742       -60.7560
  40   1.0000      -2.232604       -60.7523
  41   1.0000      -2.232296       -60.7439
  42   1.0000      -2.232236       -60.7422
  43   1.0000      -2.232159       -60.7401
  44   1.0000      -2.231814       -60.7307
  45   1.0000      -2.231453       -60.7209
  46   1.0000      -2.230753       -60.7019
  47   1.0000      -2.230524       -60.6956
  48   1.0000      -2.229487       -60.6674
  49   1.0000      -2.229452       -60.6665
  50   1.0000      -2.229390       -60.6648
  51   1.0000      -2.229368       -60.6642
  52   1.0000      -2.228648       -60.6446
  53   1.0000      -2.228508       -60.6408
  54   1.0000      -1.697069       -46.1796
  55   1.0000      -1.678521       -45.6749
  56   1.0000      -1.677535       -45.6480
  57   1.0000      -0.414447       -11.2777
  58   1.0000      -0.370079       -10.0704
  59   1.0000      -0.369753       -10.0615
  60   1.0000      -0.367864       -10.0101
  61   1.0000      -0.360022        -9.7967
  62   1.0000      -0.358702        -9.7608
  63   1.0000      -0.358174        -9.7464
  64   1.0000      -0.357942        -9.7401
  65   1.0000      -0.353754        -9.6261
  66   1.0000      -0.345281        -9.3956
  67   1.0000      -0.339538        -9.2393
  68   1.0000      -0.338502        -9.2111
  69   1.0000      -0.338039        -9.1985
  70   1.0000      -0.334984        -9.1154
  71   1.0000      -0.333965        -9.0877
  72   1.0000      -0.333915        -9.0863
  73   1.0000      -0.332198        -9.0396
  74   1.0000      -0.325717        -8.8632
  75   1.0000      -0.324721        -8.8361
  76   1.0000      -0.322986        -8.7889
  77   1.0000      -0.321877        -8.7587
  78   1.0000      -0.321484        -8.7480
  79   1.0000      -0.319253        -8.6873
  80   1.0000      -0.318165        -8.6577
  81   1.0000      -0.312463        -8.5026
  82   1.0000      -0.312362        -8.4998
  83   1.0000      -0.308126        -8.3845
  84   1.0000      -0.308063        -8.3828
  85   1.0000      -0.303733        -8.2650
  86   1.0000      -0.299135        -8.1399
  87   1.0000      -0.295830        -8.0500
  88   1.0000      -0.293742        -7.9931
  89   1.0000      -0.293070        -7.9749
  90   1.0000      -0.290548        -7.9062
  91   1.0000      -0.289731        -7.8840
  92   1.0000      -0.283085        -7.7031
  93   1.0000      -0.275641        -7.5006
  94   1.0000      -0.275048        -7.4844
  95   1.0000      -0.274789        -7.4774
  96   1.0000      -0.274380        -7.4663
  97   1.0000      -0.273769        -7.4496
  98   1.0000      -0.270831        -7.3697
  99   1.0000      -0.270594        -7.3632
 100   1.0000      -0.262295        -7.1374
 101   1.0000      -0.259430        -7.0594
 102   1.0000      -0.258751        -7.0410
 103   1.0000      -0.258154        -7.0247
 104   1.0000      -0.255206        -6.9445
 105   1.0000      -0.254780        -6.9329
 106   1.0000      -0.254713        -6.9311
 107   1.0000      -0.253287        -6.8923
 108   1.0000      -0.253131        -6.8880
 109   1.0000      -0.250081        -6.8051
 110   1.0000      -0.249780        -6.7969
 111   1.0000      -0.248554        -6.7635
 112   1.0000      -0.248274        -6.7559
 113   1.0000      -0.247615        -6.7379
 114   1.0000      -0.246695        -6.7129
 115   1.0000      -0.246072        -6.6960
 116   1.0000      -0.245480        -6.6799
 117   1.0000      -0.242416        -6.5965
 118   1.0000      -0.242331        -6.5942
 119   1.0000      -0.240715        -6.5502
 120   1.0000      -0.219274        -5.9667
 121   1.0000      -0.209724        -5.7069
 122   1.0000      -0.207057        -5.6343
 123   1.0000      -0.206416        -5.6169
 124   1.0000      -0.179964        -4.8971
 125   0.0000      -0.175201        -4.7675
 126   0.0000      -0.123160        -3.3514
 127   0.0000      -0.122978        -3.3464
 128   0.0000      -0.117682        -3.2023
 129   0.0000      -0.109538        -2.9807

MULLIKEN ATOMIC CHARGES AND SPIN POPULATIONS
--------------------------------------------
   0 Au:    0.483428   -0.028876
   1 Au:    0.484975   -0.028868
   2 Au:    0.446870   -0.067434
   3 Au:    0.423997   -0.072222
   4 Au:    0.484024   -0.028959
   5 Au:    0.485181   -0.029154
   6 Au:    0.486003   -0.029343
   7 Au:    0.485322   -0.028789
   8 Au:    0.485720   -0.029638
   9 Au:    0.486377   -0.030136
  10 Au:    0.448579   -0.067813
  11 Au:    0.421823   -0.072162
  12 Cr:   -5.622299    2.513393
Sum of atomic charges         :   -0.0000000

LOEWDIN ATOMIC CHARGES AND SPIN POPULATIONS
-------------------------------------------
   0 Au:    0.117111   -0.072144
   1 Au:    0.117007   -0.072524
   2 Au:    0.115946   -0.063135
   3 Au:    0.126872   -0.089517
   4 Au:    0.117083   -0.072168
   5 Au:    0.116908   -0.072789
   6 Au:    0.117100   -0.073007
   7 Au:    0.116815   -0.072573
   8 Au:    0.116867   -0.072741
   9 Au:    0.116899   -0.073072
  10 Au:    0.115447   -0.063470
  11 Au:    0.126056   -0.089406
  12 Cr:   -1.420110    2.886546

  Mayer bond orders larger than 0.100000
B(  0-Au,  1-Au) :   0.2300 B(  0-Au,  2-Au) :   0.2021 B(  0-Au,  3-Au) :   0.1980
B(  0-Au,  6-Au) :   0.2596 B(  0-Au, 12-Cr) :   0.5534 B(  1-Au,  3-Au) :   0.1986
B(  1-Au,  8-Au) :   0.2587 B(  1-Au, 10-Au) :   0.2016 B(  1-Au, 12-Cr) :   0.5516
B(  2-Au,  4-Au) :   0.2013 B(  2-Au,  5-Au) :   0.2024 B(  2-Au,  6-Au) :   0.2028
B(  2-Au, 10-Au) :   0.1206 B(  2-Au, 12-Cr) :   0.7274 B(  3-Au,  4-Au) :   0.1978
B(  3-Au,  7-Au) :   0.1986 B(  3-Au, 11-Au) :   0.1236 B(  3-Au, 12-Cr) :   0.6948
B(  4-Au,  5-Au) :   0.2603 B(  4-Au,  7-Au) :   0.2294 B(  4-Au, 12-Cr) :   0.5529
B(  5-Au,  9-Au) :   0.2284 B(  5-Au, 11-Au) :   0.1978 B(  5-Au, 12-Cr) :   0.5516
B(  6-Au,  8-Au) :   0.2288 B(  6-Au, 11-Au) :   0.1984 B(  6-Au, 12-Cr) :   0.5522
B(  7-Au,  9-Au) :   0.2586 B(  7-Au, 10-Au) :   0.2019 B(  7-Au, 12-Cr) :   0.5528
B(  8-Au, 10-Au) :   0.2023 B(  8-Au, 11-Au) :   0.1977 B(  8-Au, 12-Cr) :   0.5528
B(  9-Au, 10-Au) :   0.2007 B(  9-Au, 11-Au) :   0.1991 B(  9-Au, 12-Cr) :   0.5532
B( 10-Au, 12-Cr) :   0.7264 B( 11-Au, 12-Cr) :   0.6943

FINAL SINGLE POINT ENERGY     -2674.154780536030

DIPOLE MOMENT
-------------
                                X             Y             Z
Electronic contribution:      0.02077      -0.03417      -0.09446
Nuclear contribution   :     -0.02163       0.03495       0.09549
                        -----------------------------------------
Total Dipole Moment    :     -0.00087       0.00078       0.00103
                        -----------------------------------------
Magnitude (a.u.)       :      0.00156
Magnitude (Debye)      :      0.00396

Rotational constants in cm-1:     0.001431     0.001327     0.001327
Rotational constants in MHz :    42.892358    39.779472    39.770916

                             ****ORCA TERMINATED NORMALLY****
TOTAL RUN TIME: 0 days 1 hours 28 minutes 34 seconds 370 msec
