                         Program Version 5.0.3 -  RELEASE  -
|  1> !R2SCAN def2-TZVP VERYSLOWCONV
|  2> !KDIIS
|  3> %scf
|  4>   AutoTRAHIter 200
|  5>   maxiter 400
|  6> end
|  7>
|  8> %pal nprocs 6 end
|  9>
| 10> *xyzfile 0 5 pbe.xyz
| 11>
| 12> $new_job
| 13>
| 14> !R2SCAN def2-TZVP VERYSLOWCONV
| 15> !KDIIS
| 16> %scf
| 17>   AutoTRAHIter 200
| 18>   maxiter 400
| 19> end
| 20>
| 21>
| 22> %pal nprocs 6 end
| 23>
| 24> *xyzfile 0 3 pbe.xyz
| 25>
| 26>
| 27>
| 28>
| 29>
| 30>                          ****END OF INPUT****
 Total Charge           Charge          ....    0
 Multiplicity           Mult            ....    5
 Number of Electrons    NEL             ....  252
FINAL SINGLE POINT ENERGY     -2674.595191973038

CARTESIAN COORDINATES (ANGSTROEM)
---------------------------------
  Au     6.545212   11.201705    9.597091
  Au     8.993307   11.031737    8.268771
  Au     4.728818    9.086939    9.220240
  Au     8.366220    9.168812   10.281829
  Au     6.505251    7.070260   10.056782
  Au     5.162676    6.811188    7.624285
  Au     5.202944   10.945233    7.163893
  Au     8.952058    6.900899    8.724475
  Au     7.650663   10.777636    5.834486
  Au     7.609091    6.639250    6.291634
  Au     9.422903    8.758966    6.667244
  Au     5.793057    8.674927    5.612529
  Cr     7.077067    8.923292    7.947992

 Multiplicity           Mult            ....    3
 Number of Electrons    NEL             ....  252
 Basis Dimension        Dim             ....  525

ORBITAL ENERGIES
----------------
                 SPIN UP ORBITALS
  NO   OCC          E(Eh)            E(eV)
   0   1.0000    -215.306326     -5858.7830
   1   1.0000     -24.607790      -669.6120
   2   1.0000     -20.876907      -568.0895
   3   1.0000     -20.873358      -567.9929
   4   1.0000     -20.872492      -567.9694
   5   1.0000      -4.117308      -112.0377
   6   1.0000      -4.117257      -112.0362
   7   1.0000      -4.115935      -112.0003
   8   1.0000      -4.115850      -111.9980
   9   1.0000      -4.110284      -111.8465
  10   1.0000      -4.110242      -111.8454
  11   1.0000      -4.110148      -111.8428
  12   1.0000      -4.110111      -111.8418
  13   1.0000      -4.110058      -111.8404
  14   1.0000      -4.110047      -111.8401
  15   1.0000      -4.109947      -111.8373
  16   1.0000      -4.109914      -111.8364
  17   1.0000      -2.922275       -79.5192
  18   1.0000      -2.306746       -62.7697
  19   1.0000      -2.306669       -62.7677
  20   1.0000      -2.305246       -62.7289
  21   1.0000      -2.305173       -62.7269
  22   1.0000      -2.303751       -62.6883
  23   1.0000      -2.303634       -62.6851
  24   1.0000      -2.302151       -62.6447
  25   1.0000      -2.302024       -62.6413
  26   1.0000      -2.300547       -62.6011
  27   1.0000      -2.300475       -62.5991
  28   1.0000      -2.299257       -62.5660
  29   1.0000      -2.299085       -62.5613
  30   1.0000      -2.298660       -62.5497
  31   1.0000      -2.298171       -62.5364
  32   1.0000      -2.298095       -62.5344
  33   1.0000      -2.297917       -62.5295
  34   1.0000      -2.297856       -62.5278
  35   1.0000      -2.297525       -62.5188
  36   1.0000      -2.297485       -62.5177
  37   1.0000      -2.297449       -62.5168
  38   1.0000      -2.296536       -62.4919
  39   1.0000      -2.296458       -62.4898
  40   1.0000      -2.296309       -62.4857
  41   1.0000      -2.295915       -62.4750
  42   1.0000      -2.295814       -62.4723
  43   1.0000      -2.295749       -62.4705
  44   1.0000      -2.295188       -62.4552
  45   1.0000      -2.294801       -62.4447
  46   1.0000      -2.294447       -62.4351
  47   1.0000      -2.294157       -62.4272
  48   1.0000      -2.293060       -62.3973
  49   1.0000      -2.292957       -62.3945
  50   1.0000      -2.292940       -62.3941
  51   1.0000      -2.292791       -62.3900
  52   1.0000      -2.292124       -62.3719
  53   1.0000      -2.291977       -62.3679
  54   1.0000      -1.871399       -50.9234
  55   1.0000      -1.867961       -50.8298
  56   1.0000      -1.866539       -50.7911
  57   1.0000      -0.425364       -11.5747
  58   1.0000      -0.376205       -10.2371
  59   1.0000      -0.374728       -10.1969
  60   1.0000      -0.373514       -10.1638
  61   1.0000      -0.372447       -10.1348
  62   1.0000      -0.372188       -10.1277
  63   1.0000      -0.369026       -10.0417
  64   1.0000      -0.367041        -9.9877
  65   1.0000      -0.362807        -9.8725
  66   1.0000      -0.361946        -9.8491
  67   1.0000      -0.353464        -9.6182
  68   1.0000      -0.346865        -9.4387
  69   1.0000      -0.346635        -9.4324
  70   1.0000      -0.342752        -9.3268
  71   1.0000      -0.342609        -9.3229
  72   1.0000      -0.341647        -9.2967
  73   1.0000      -0.340435        -9.2637
  74   1.0000      -0.333156        -9.0656
  75   1.0000      -0.332660        -9.0521
  76   1.0000      -0.330518        -8.9939
  77   1.0000      -0.329622        -8.9695
  78   1.0000      -0.329150        -8.9566
  79   1.0000      -0.327112        -8.9012
  80   1.0000      -0.326006        -8.8711
  81   1.0000      -0.319682        -8.6990
  82   1.0000      -0.319648        -8.6981
  83   1.0000      -0.317962        -8.6522
  84   1.0000      -0.317189        -8.6311
  85   1.0000      -0.316737        -8.6189
  86   1.0000      -0.307274        -8.3614
  87   1.0000      -0.303059        -8.2466
  88   1.0000      -0.302397        -8.2286
  89   1.0000      -0.301563        -8.2059
  90   1.0000      -0.301401        -8.2015
  91   1.0000      -0.300939        -8.1890
  92   1.0000      -0.294931        -8.0255
  93   1.0000      -0.283121        -7.7041
  94   1.0000      -0.282645        -7.6912
  95   1.0000      -0.282526        -7.6879
  96   1.0000      -0.281208        -7.6521
  97   1.0000      -0.281130        -7.6499
  98   1.0000      -0.280761        -7.6399
  99   1.0000      -0.277309        -7.5459
 100   1.0000      -0.269408        -7.3310
 101   1.0000      -0.267046        -7.2667
 102   1.0000      -0.266336        -7.2474
 103   1.0000      -0.263913        -7.1814
 104   1.0000      -0.263151        -7.1607
 105   1.0000      -0.262658        -7.1473
 106   1.0000      -0.261384        -7.1126
 107   1.0000      -0.259031        -7.0486
 108   1.0000      -0.258920        -7.0456
 109   1.0000      -0.255604        -6.9553
 110   1.0000      -0.255425        -6.9505
 111   1.0000      -0.255216        -6.9448
 112   1.0000      -0.255143        -6.9428
 113   1.0000      -0.254615        -6.9284
 114   1.0000      -0.252819        -6.8796
 115   1.0000      -0.252668        -6.8754
 116   1.0000      -0.249336        -6.7848
 117   1.0000      -0.247476        -6.7342
 118   1.0000      -0.245130        -6.6703
 119   1.0000      -0.244415        -6.6509
 120   1.0000      -0.232218        -6.3190
 121   1.0000      -0.231642        -6.3033
 122   1.0000      -0.225328        -6.1315
 123   1.0000      -0.224848        -6.1184
 124   1.0000      -0.223125        -6.0716
 125   1.0000      -0.215580        -5.8662
 126   1.0000      -0.186020        -5.0619
 127   0.0000      -0.179179        -4.8757
 128   0.0000      -0.167503        -4.5580
 129   0.0000      -0.158677        -4.3178
 130   0.0000      -0.156132        -4.2486
 131   0.0000      -0.112300        -3.0559

                 SPIN DOWN ORBITALS
  NO   OCC          E(Eh)            E(eV)
   0   1.0000    -215.305742     -5858.7671
   1   1.0000     -24.548405      -667.9961
   2   1.0000     -20.833836      -566.9175
   3   1.0000     -20.826464      -566.7169
   4   1.0000     -20.825248      -566.6838
   5   1.0000      -4.117304      -112.0375
   6   1.0000      -4.117259      -112.0363
   7   1.0000      -4.116390      -112.0127
   8   1.0000      -4.116295      -112.0101
   9   1.0000      -4.110300      -111.8469
  10   1.0000      -4.110262      -111.8459
  11   1.0000      -4.110175      -111.8435
  12   1.0000      -4.110136      -111.8425
  13   1.0000      -4.110069      -111.8407
  14   1.0000      -4.110062      -111.8405
  15   1.0000      -4.109962      -111.8378
  16   1.0000      -4.109930      -111.8369
  17   1.0000      -2.767825       -75.3163
  18   1.0000      -2.306140       -62.7532
  19   1.0000      -2.306072       -62.7514
  20   1.0000      -2.305175       -62.7270
  21   1.0000      -2.305096       -62.7249
  22   1.0000      -2.303890       -62.6920
  23   1.0000      -2.303773       -62.6889
  24   1.0000      -2.302789       -62.6621
  25   1.0000      -2.302673       -62.6589
  26   1.0000      -2.300225       -62.5923
  27   1.0000      -2.300159       -62.5905
  28   1.0000      -2.299383       -62.5694
  29   1.0000      -2.299203       -62.5645
  30   1.0000      -2.298534       -62.5463
  31   1.0000      -2.298047       -62.5330
  32   1.0000      -2.297939       -62.5301
  33   1.0000      -2.297828       -62.5271
  34   1.0000      -2.297713       -62.5240
  35   1.0000      -2.297524       -62.5188
  36   1.0000      -2.297508       -62.5184
  37   1.0000      -2.297356       -62.5142
  38   1.0000      -2.296340       -62.4866
  39   1.0000      -2.296230       -62.4836
  40   1.0000      -2.296018       -62.4778
  41   1.0000      -2.295708       -62.4694
  42   1.0000      -2.295648       -62.4677
  43   1.0000      -2.295515       -62.4641
  44   1.0000      -2.295006       -62.4503
  45   1.0000      -2.294629       -62.4400
  46   1.0000      -2.294409       -62.4340
  47   1.0000      -2.294134       -62.4266
  48   1.0000      -2.293065       -62.3975
  49   1.0000      -2.292964       -62.3947
  50   1.0000      -2.292949       -62.3943
  51   1.0000      -2.292837       -62.3913
  52   1.0000      -2.292176       -62.3733
  53   1.0000      -2.292020       -62.3690
  54   1.0000      -1.725553       -46.9547
  55   1.0000      -1.710104       -46.5343
  56   1.0000      -1.707605       -46.4663
  57   1.0000      -0.419366       -11.4115
  58   1.0000      -0.376415       -10.2428
  59   1.0000      -0.376256       -10.2384
  60   1.0000      -0.374271       -10.1844
  61   1.0000      -0.367724       -10.0063
  62   1.0000      -0.367618       -10.0034
  63   1.0000      -0.366215        -9.9652
  64   1.0000      -0.365923        -9.9573
  65   1.0000      -0.363429        -9.8894
  66   1.0000      -0.353121        -9.6089
  67   1.0000      -0.347912        -9.4672
  68   1.0000      -0.347514        -9.4563
  69   1.0000      -0.347466        -9.4550
  70   1.0000      -0.344577        -9.3764
  71   1.0000      -0.343432        -9.3453
  72   1.0000      -0.343289        -9.3414
  73   1.0000      -0.341602        -9.2955
  74   1.0000      -0.335245        -9.1225
  75   1.0000      -0.334128        -9.0921
  76   1.0000      -0.331981        -9.0337
  77   1.0000      -0.330840        -9.0026
  78   1.0000      -0.330803        -9.0016
  79   1.0000      -0.328526        -8.9396
  80   1.0000      -0.327365        -8.9080
  81   1.0000      -0.321379        -8.7452
  82   1.0000      -0.321139        -8.7386
  83   1.0000      -0.317519        -8.6401
  84   1.0000      -0.317266        -8.6333
  85   1.0000      -0.311096        -8.4653
  86   1.0000      -0.308430        -8.3928
  87   1.0000      -0.305304        -8.3078
  88   1.0000      -0.302964        -8.2441
  89   1.0000      -0.302193        -8.2231
  90   1.0000      -0.298427        -8.1206
  91   1.0000      -0.297678        -8.1002
  92   1.0000      -0.290974        -7.9178
  93   1.0000      -0.284753        -7.7485
  94   1.0000      -0.283343        -7.7102
  95   1.0000      -0.283314        -7.7094
  96   1.0000      -0.283150        -7.7049
  97   1.0000      -0.282640        -7.6910
  98   1.0000      -0.279016        -7.5924
  99   1.0000      -0.278981        -7.5914
 100   1.0000      -0.270737        -7.3671
 101   1.0000      -0.268062        -7.2943
 102   1.0000      -0.267272        -7.2728
 103   1.0000      -0.266432        -7.2500
 104   1.0000      -0.262996        -7.1565
 105   1.0000      -0.262935        -7.1548
 106   1.0000      -0.262440        -7.1413
 107   1.0000      -0.261194        -7.1074
 108   1.0000      -0.260924        -7.1001
 109   1.0000      -0.257721        -7.0129
 110   1.0000      -0.257320        -7.0020
 111   1.0000      -0.256572        -6.9817
 112   1.0000      -0.256286        -6.9739
 113   1.0000      -0.255201        -6.9444
 114   1.0000      -0.254619        -6.9285
 115   1.0000      -0.253930        -6.9098
 116   1.0000      -0.252144        -6.8612
 117   1.0000      -0.249636        -6.7929
 118   1.0000      -0.248303        -6.7567
 119   1.0000      -0.246215        -6.6999
 120   1.0000      -0.225620        -6.1394
 121   1.0000      -0.211145        -5.7455
 122   1.0000      -0.208554        -5.6751
 123   1.0000      -0.207428        -5.6444
 124   1.0000      -0.179416        -4.8822
 125   0.0000      -0.172217        -4.6863
 126   0.0000      -0.109278        -2.9736
 127   0.0000      -0.105579        -2.8730
 128   0.0000      -0.103910        -2.8275
 129   0.0000      -0.103123        -2.8061

MULLIKEN ATOMIC CHARGES AND SPIN POPULATIONS
--------------------------------------------
   0 Au:    0.438956   -0.051872
   1 Au:    0.439901   -0.048057
   2 Au:    0.366415   -0.117699
   3 Au:    0.400936   -0.110547
   4 Au:    0.439655   -0.052405
   5 Au:    0.440532   -0.048696
   6 Au:    0.441245   -0.048400
   7 Au:    0.440185   -0.048436
   8 Au:    0.441292   -0.053520
   9 Au:    0.441730   -0.053267
  10 Au:    0.367806   -0.118096
  11 Au:    0.398983   -0.110689
  12 Cr:   -5.057636    2.861684
Sum of atomic charges         :   -0.0000000

LOEWDIN ATOMIC CHARGES AND SPIN POPULATIONS
-------------------------------------------
   0 Au:    0.113337   -0.091899
   1 Au:    0.112855   -0.090641
   2 Au:    0.121130   -0.115183
   3 Au:    0.110226   -0.084087
   4 Au:    0.113425   -0.092231
   5 Au:    0.112724   -0.090912
   6 Au:    0.112836   -0.090829
   7 Au:    0.112714   -0.090885
   8 Au:    0.113245   -0.092920
   9 Au:    0.113117   -0.092818
  10 Au:    0.120593   -0.115406
  11 Au:    0.109574   -0.084371
  12 Cr:   -1.365776    3.132183

  Mayer bond orders larger than 0.100000
B(  0-Au,  1-Au) :   0.2667 B(  0-Au,  2-Au) :   0.1879 B(  0-Au,  3-Au) :   0.1925
B(  0-Au,  6-Au) :   0.2229 B(  0-Au, 12-Cr) :   0.5554 B(  1-Au,  3-Au) :   0.1934
B(  1-Au,  8-Au) :   0.2218 B(  1-Au, 10-Au) :   0.1876 B(  1-Au, 12-Cr) :   0.5540
B(  2-Au,  4-Au) :   0.1870 B(  2-Au,  5-Au) :   0.1884 B(  2-Au,  6-Au) :   0.1888
B(  2-Au, 12-Cr) :   0.7155 B(  3-Au,  4-Au) :   0.1924 B(  3-Au,  7-Au) :   0.1933
B(  3-Au, 12-Cr) :   0.7507 B(  4-Au,  5-Au) :   0.2232 B(  4-Au,  7-Au) :   0.2659
B(  4-Au, 12-Cr) :   0.5552 B(  5-Au,  9-Au) :   0.2648 B(  5-Au, 11-Au) :   0.1923
B(  5-Au, 12-Cr) :   0.5539 B(  6-Au,  8-Au) :   0.2650 B(  6-Au, 11-Au) :   0.1931
B(  6-Au, 12-Cr) :   0.5548 B(  7-Au,  9-Au) :   0.2219 B(  7-Au, 10-Au) :   0.1880
B(  7-Au, 12-Cr) :   0.5554 B(  8-Au, 10-Au) :   0.1882 B(  8-Au, 11-Au) :   0.1923
B(  8-Au, 12-Cr) :   0.5550 B(  9-Au, 10-Au) :   0.1867 B(  9-Au, 11-Au) :   0.1935
B(  9-Au, 12-Cr) :   0.5550 B( 10-Au, 12-Cr) :   0.7146 B( 11-Au, 12-Cr) :   0.7503

FINAL SINGLE POINT ENERGY     -2674.589319132259

DIPOLE MOMENT
-------------
                                X             Y             Z
Electronic contribution:      0.02136      -0.03464      -0.09464
Nuclear contribution   :     -0.02163       0.03495       0.09549
                        -----------------------------------------
Total Dipole Moment    :     -0.00028       0.00031       0.00085
                        -----------------------------------------
Magnitude (a.u.)       :      0.00095
Magnitude (Debye)      :      0.00241

Rotational constants in cm-1:     0.001431     0.001327     0.001327
Rotational constants in MHz :    42.892358    39.779472    39.770916

                             ****ORCA TERMINATED NORMALLY****
TOTAL RUN TIME: 0 days 0 hours 20 minutes 1 seconds 312 msec
