                         Program Version 5.0.3 -  RELEASE  -
|  1> %pal nprocs 1 end
|  2>
|  3> !PBE def2-TZVP OPT UNO
|  4> !SLOWCONV KDIIS
|  5>
|  6> %geom maxiter 300 end
|  7>
|  8> *xyzfile 0 5 6.xyz                           ****END OF INPUT****
 Total Charge           Charge          ....    0
 Multiplicity           Mult            ....    5
 Number of Electrons    NEL             ....  214
FINAL SINGLE POINT ENERGY     -2402.450745366383
FINAL SINGLE POINT ENERGY     -2402.452467966366
FINAL SINGLE POINT ENERGY     -2402.453680182655
FINAL SINGLE POINT ENERGY     -2402.454160681314
FINAL SINGLE POINT ENERGY     -2402.454357185603
FINAL SINGLE POINT ENERGY     -2402.454633036366
FINAL SINGLE POINT ENERGY     -2402.454804814005
FINAL SINGLE POINT ENERGY     -2402.454926360309
FINAL SINGLE POINT ENERGY     -2402.455063063752
FINAL SINGLE POINT ENERGY     -2402.455272942326
FINAL SINGLE POINT ENERGY     -2402.472943681235
FINAL SINGLE POINT ENERGY     -2402.472957374111
FINAL SINGLE POINT ENERGY     -2402.472967371627
FINAL SINGLE POINT ENERGY     -2402.472973169373
FINAL SINGLE POINT ENERGY     -2402.472977226929
FINAL SINGLE POINT ENERGY     -2402.472982037487
FINAL SINGLE POINT ENERGY     -2402.472987338989
FINAL SINGLE POINT ENERGY     -2402.472991153271
FINAL SINGLE POINT ENERGY     -2402.472993067471
                    ***********************HURRAY********************

CARTESIAN COORDINATES (ANGSTROEM)
---------------------------------
  Au     9.920557    7.617424   10.396405
  Au     7.943021    5.543909   10.667676
  Au    10.639938    5.088328   10.787685
  Au     8.082561    3.249881    8.866048
  Au     5.716120    6.925070   10.234563
  Au     9.065541    9.909993    9.425681
  Au     9.979221    7.960219    7.354652
  Au     9.522176    5.459340    8.107685
  Au     5.469950    7.538687    7.285982
  Au     6.665653    5.264661    7.861938
  Cr     7.743962    7.661372    8.717122

 Multiplicity           Mult            ....    5
 Number of Electrons    NEL             ....  214
 Basis Dimension        Dim             ....  445

ORBITAL ENERGIES
----------------
                 SPIN UP ORBITALS
  NO   OCC          E(Eh)            E(eV)
   0   1.0000    -214.472662     -5836.0978
   1   1.0000     -24.272434      -660.4865
   2   1.0000     -20.638043      -561.5897
   3   1.0000     -20.635770      -561.5279
   4   1.0000     -20.632327      -561.4342
   5   1.0000      -4.025920      -109.5508
   6   1.0000      -4.025917      -109.5508
   7   1.0000      -4.024650      -109.5163
   8   1.0000      -4.023264      -109.4786
   9   1.0000      -4.015194      -109.2590
  10   1.0000      -4.015172      -109.2584
  11   1.0000      -4.014938      -109.2520
  12   1.0000      -4.014805      -109.2484
  13   1.0000      -4.014147      -109.2305
  14   1.0000      -4.013721      -109.2189
  15   1.0000      -2.782411       -75.7133
  16   1.0000      -2.246132       -61.1204
  17   1.0000      -2.246052       -61.1182
  18   1.0000      -2.242743       -61.0281
  19   1.0000      -2.241536       -60.9953
  20   1.0000      -2.239816       -60.9485
  21   1.0000      -2.239495       -60.9397
  22   1.0000      -2.237070       -60.8738
  23   1.0000      -2.235892       -60.8417
  24   1.0000      -2.234084       -60.7925
  25   1.0000      -2.233347       -60.7725
  26   1.0000      -2.233128       -60.7665
  27   1.0000      -2.232927       -60.7610
  28   1.0000      -2.232617       -60.7526
  29   1.0000      -2.232442       -60.7478
  30   1.0000      -2.232360       -60.7456
  31   1.0000      -2.231972       -60.7350
  32   1.0000      -2.231665       -60.7267
  33   1.0000      -2.231497       -60.7221
  34   1.0000      -2.228469       -60.6397
  35   1.0000      -2.228359       -60.6367
  36   1.0000      -2.226717       -60.5921
  37   1.0000      -2.226484       -60.5857
  38   1.0000      -2.225756       -60.5659
  39   1.0000      -2.225505       -60.5591
  40   1.0000      -2.224054       -60.5196
  41   1.0000      -2.223990       -60.5178
  42   1.0000      -2.222123       -60.4670
  43   1.0000      -2.222116       -60.4668
  44   1.0000      -2.221335       -60.4456
  45   1.0000      -2.220733       -60.4292
  46   1.0000      -1.775615       -48.3169
  47   1.0000      -1.773305       -48.2541
  48   1.0000      -1.768634       -48.1270
  49   1.0000      -0.408103       -11.1051
  50   1.0000      -0.381119       -10.3708
  51   1.0000      -0.373709       -10.1691
  52   1.0000      -0.366053        -9.9608
  53   1.0000      -0.365271        -9.9395
  54   1.0000      -0.352480        -9.5915
  55   1.0000      -0.350171        -9.5287
  56   1.0000      -0.339157        -9.2289
  57   1.0000      -0.338236        -9.2039
  58   1.0000      -0.334512        -9.1025
  59   1.0000      -0.333663        -9.0794
  60   1.0000      -0.328131        -8.9289
  61   1.0000      -0.322881        -8.7860
  62   1.0000      -0.317312        -8.6345
  63   1.0000      -0.317107        -8.6289
  64   1.0000      -0.313993        -8.5442
  65   1.0000      -0.310986        -8.4623
  66   1.0000      -0.310484        -8.4487
  67   1.0000      -0.302462        -8.2304
  68   1.0000      -0.300208        -8.1691
  69   1.0000      -0.293171        -7.9776
  70   1.0000      -0.291121        -7.9218
  71   1.0000      -0.290036        -7.8923
  72   1.0000      -0.288044        -7.8381
  73   1.0000      -0.286786        -7.8038
  74   1.0000      -0.285799        -7.7770
  75   1.0000      -0.284060        -7.7297
  76   1.0000      -0.282125        -7.6770
  77   1.0000      -0.281296        -7.6545
  78   1.0000      -0.278818        -7.5870
  79   1.0000      -0.277244        -7.5442
  80   1.0000      -0.275399        -7.4940
  81   1.0000      -0.273588        -7.4447
  82   1.0000      -0.271550        -7.3892
  83   1.0000      -0.271303        -7.3825
  84   1.0000      -0.269217        -7.3258
  85   1.0000      -0.266881        -7.2622
  86   1.0000      -0.265803        -7.2329
  87   1.0000      -0.264955        -7.2098
  88   1.0000      -0.263729        -7.1764
  89   1.0000      -0.262368        -7.1394
  90   1.0000      -0.258789        -7.0420
  91   1.0000      -0.257515        -7.0073
  92   1.0000      -0.256046        -6.9674
  93   1.0000      -0.255000        -6.9389
  94   1.0000      -0.252242        -6.8638
  95   1.0000      -0.250822        -6.8252
  96   1.0000      -0.248981        -6.7751
  97   1.0000      -0.245914        -6.6917
  98   1.0000      -0.244616        -6.6563
  99   1.0000      -0.242955        -6.6111
 100   1.0000      -0.235538        -6.4093
 101   1.0000      -0.234003        -6.3676
 102   1.0000      -0.220070        -5.9884
 103   1.0000      -0.210794        -5.7360
 104   1.0000      -0.205108        -5.5813
 105   1.0000      -0.203321        -5.5326
 106   1.0000      -0.195724        -5.3259
 107   1.0000      -0.192816        -5.2468
 108   1.0000      -0.180634        -4.9153
 109   0.0000      -0.167316        -4.5529
 110   0.0000      -0.149156        -4.0587
 111   0.0000      -0.138432        -3.7669
 112   0.0000      -0.131800        -3.5865
 113   0.0000      -0.122648        -3.3374

                 SPIN DOWN ORBITALS
  NO   OCC          E(Eh)            E(eV)
   0   1.0000    -214.472189     -5836.0850
   1   1.0000     -24.222794      -659.1357
   2   1.0000     -20.602507      -560.6227
   3   1.0000     -20.598660      -560.5180
   4   1.0000     -20.591196      -560.3149
   5   1.0000      -4.025479      -109.5388
   6   1.0000      -4.025465      -109.5385
   7   1.0000      -4.023742      -109.4916
   8   1.0000      -4.022368      -109.4542
   9   1.0000      -4.014861      -109.2499
  10   1.0000      -4.014711      -109.2459
  11   1.0000      -4.014593      -109.2426
  12   1.0000      -4.014587      -109.2425
  13   1.0000      -4.013163      -109.2037
  14   1.0000      -4.012729      -109.1919
  15   1.0000      -2.647452       -72.0408
  16   1.0000      -2.245897       -61.1140
  17   1.0000      -2.245809       -61.1116
  18   1.0000      -2.241722       -61.0004
  19   1.0000      -2.240522       -60.9677
  20   1.0000      -2.238921       -60.9241
  21   1.0000      -2.238575       -60.9147
  22   1.0000      -2.235932       -60.8428
  23   1.0000      -2.234774       -60.8113
  24   1.0000      -2.233477       -60.7760
  25   1.0000      -2.232753       -60.7563
  26   1.0000      -2.232397       -60.7466
  27   1.0000      -2.232278       -60.7434
  28   1.0000      -2.231928       -60.7339
  29   1.0000      -2.231819       -60.7309
  30   1.0000      -2.231610       -60.7252
  31   1.0000      -2.231445       -60.7207
  32   1.0000      -2.231143       -60.7125
  33   1.0000      -2.230898       -60.7058
  34   1.0000      -2.227963       -60.6260
  35   1.0000      -2.227879       -60.6237
  36   1.0000      -2.226662       -60.5906
  37   1.0000      -2.226406       -60.5836
  38   1.0000      -2.224602       -60.5345
  39   1.0000      -2.224345       -60.5275
  40   1.0000      -2.223987       -60.5178
  41   1.0000      -2.223908       -60.5156
  42   1.0000      -2.221474       -60.4494
  43   1.0000      -2.221459       -60.4490
  44   1.0000      -2.220559       -60.4245
  45   1.0000      -2.219936       -60.4075
  46   1.0000      -1.650832       -44.9214
  47   1.0000      -1.642163       -44.6855
  48   1.0000      -1.625092       -44.2210
  49   1.0000      -0.403743       -10.9864
  50   1.0000      -0.380124       -10.3437
  51   1.0000      -0.368501       -10.0274
  52   1.0000      -0.363521        -9.8919
  53   1.0000      -0.362068        -9.8524
  54   1.0000      -0.351233        -9.5575
  55   1.0000      -0.347750        -9.4628
  56   1.0000      -0.337769        -9.1912
  57   1.0000      -0.336915        -9.1679
  58   1.0000      -0.332537        -9.0488
  59   1.0000      -0.330937        -9.0053
  60   1.0000      -0.324443        -8.8285
  61   1.0000      -0.321166        -8.7394
  62   1.0000      -0.315439        -8.5835
  63   1.0000      -0.314345        -8.5538
  64   1.0000      -0.310365        -8.4455
  65   1.0000      -0.309610        -8.4249
  66   1.0000      -0.304897        -8.2967
  67   1.0000      -0.299462        -8.1488
  68   1.0000      -0.298419        -8.1204
  69   1.0000      -0.291352        -7.9281
  70   1.0000      -0.289378        -7.8744
  71   1.0000      -0.289131        -7.8676
  72   1.0000      -0.287058        -7.8113
  73   1.0000      -0.285511        -7.7692
  74   1.0000      -0.283908        -7.7255
  75   1.0000      -0.283283        -7.7085
  76   1.0000      -0.279020        -7.5925
  77   1.0000      -0.278746        -7.5851
  78   1.0000      -0.277579        -7.5533
  79   1.0000      -0.276659        -7.5283
  80   1.0000      -0.274261        -7.4630
  81   1.0000      -0.272327        -7.4104
  82   1.0000      -0.270685        -7.3657
  83   1.0000      -0.270236        -7.3535
  84   1.0000      -0.268478        -7.3056
  85   1.0000      -0.266339        -7.2475
  86   1.0000      -0.265499        -7.2246
  87   1.0000      -0.264745        -7.2041
  88   1.0000      -0.263312        -7.1651
  89   1.0000      -0.262076        -7.1314
  90   1.0000      -0.258163        -7.0250
  91   1.0000      -0.256570        -6.9816
  92   1.0000      -0.255216        -6.9448
  93   1.0000      -0.254144        -6.9156
  94   1.0000      -0.251627        -6.8471
  95   1.0000      -0.250288        -6.8107
  96   1.0000      -0.248446        -6.7606
  97   1.0000      -0.244940        -6.6652
  98   1.0000      -0.243901        -6.6369
  99   1.0000      -0.242374        -6.5953
 100   1.0000      -0.234495        -6.3809
 101   1.0000      -0.232991        -6.3400
 102   1.0000      -0.218221        -5.9381
 103   1.0000      -0.206476        -5.6185
 104   1.0000      -0.193969        -5.2782
 105   0.0000      -0.156586        -4.2609
 106   0.0000      -0.142692        -3.8828
 107   0.0000      -0.138538        -3.7698
 108   0.0000      -0.133370        -3.6292
 109   0.0000      -0.104777        -2.8511

MULLIKEN ATOMIC CHARGES AND SPIN POPULATIONS
--------------------------------------------
   0 Au:    0.039398    0.001322
   1 Au:   -0.162091   -0.033448
   2 Au:    0.395758    0.044303
   3 Au:    0.402904    0.053631
   4 Au:    0.335972   -0.006925
   5 Au:    0.271434   -0.002105
   6 Au:    0.333864   -0.005224
   7 Au:   -0.168277   -0.035537
   8 Au:    0.264289   -0.009615
   9 Au:    0.033299    0.002408
  10 Cr:   -1.746548    3.991190
Sum of atomic charges         :   -0.0000000

LOEWDIN ATOMIC CHARGES AND SPIN POPULATIONS
-------------------------------------------
   0 Au:   -0.024204    0.010655
   1 Au:   -0.067626    0.014700
   2 Au:    0.134181    0.022805
   3 Au:    0.133527    0.029714
   4 Au:    0.145069    0.002855
   5 Au:    0.155450    0.026243
   6 Au:    0.139736    0.003251
   7 Au:   -0.063560    0.013611
   8 Au:    0.157024    0.022413
   9 Au:   -0.030171    0.010823
  10 Cr:   -0.679424    3.842932

  Mayer bond orders larger than 0.100000
B(  0-Au,  1-Au) :   0.2821 B(  0-Au,  2-Au) :   0.5355 B(  0-Au,  5-Au) :   0.5645
B(  0-Au,  7-Au) :   0.1254 B(  0-Au, 10-Cr) :   0.5744 B(  1-Au,  2-Au) :   0.3539
B(  1-Au,  3-Au) :   0.1862 B(  1-Au,  4-Au) :   0.5532 B(  1-Au,  7-Au) :   0.2147
B(  1-Au,  9-Au) :   0.1397 B(  1-Au, 10-Cr) :   0.4135 B(  2-Au,  7-Au) :   0.1849
B(  2-Au, 10-Cr) :   0.1047 B(  3-Au,  7-Au) :   0.3508 B(  3-Au,  9-Au) :   0.5371
B(  3-Au, 10-Cr) :   0.1006 B(  4-Au, 10-Cr) :   0.6593 B(  5-Au,  6-Au) :   0.1032
B(  5-Au, 10-Cr) :   0.5822 B(  6-Au,  7-Au) :   0.5514 B(  6-Au, 10-Cr) :   0.6590
B(  7-Au,  9-Au) :   0.2885 B(  7-Au, 10-Cr) :   0.4180 B(  8-Au,  9-Au) :   0.5701
B(  8-Au, 10-Cr) :   0.5988 B(  9-Au, 10-Cr) :   0.5571

FINAL SINGLE POINT ENERGY     -2402.472994026614

DIPOLE MOMENT
-------------
                                X             Y             Z
Electronic contribution:     19.45369     -42.12382      13.34921
Nuclear contribution   :    -19.45101      42.13846     -13.34138
                        -----------------------------------------
Total Dipole Moment    :      0.00268       0.01464       0.00782
                        -----------------------------------------
Magnitude (a.u.)       :      0.01682
Magnitude (Debye)      :      0.04274

Rotational constants in cm-1:     0.001807     0.001781     0.001299
Rotational constants in MHz :    54.183364    53.402942    38.946438

                             ****ORCA TERMINATED NORMALLY****
TOTAL RUN TIME: 0 days 5 hours 49 minutes 52 seconds 541 msec
