                         Program Version 5.0.3 -  RELEASE  -
|  1> !SC-NEVPT2 def2-TZVP def2-TZVP/C
|  2> !MOREAD RIJCOSX def2/J
|  3> %maxcore 4000
|  4> %moinp "casscf.gbw"
|  5> %pal nprocs 6 end
|  6>
|  7> %casscf
|  8>  mult 6,4
|  9>  bweight 1,1
| 10>  nroots 1,24
| 11>  nel 5
| 12>  norb 5
| 13>  ptsettings
| 14>   d4tpre 1e-14 # default = 1e-10
| 15>   d3tpre 1e-14
| 16>  end
| 17>  rel
| 18>    dosoc true
| 19>    gtensor true
| 20>  end
| 21> end
| 22>
| 23>
| 24> *xyzfile 0 6 pbe.xyz
| 25>
| 26>
| 27>                          ****END OF INPUT****

CARTESIAN COORDINATES (ANGSTROEM)
---------------------------------
  Au     8.150091   11.302518    7.473943
  Au    10.610899   12.333256    8.054528
  Au     7.223745    7.344487    5.262882
  Au     9.797279    8.105806    4.892847
  Au    10.723922   10.244830    6.274866
  Au    11.198131    7.750164    7.547043
  Au     8.965597    7.480535    9.557476
  Au    10.204033    9.858876    9.170430
  Au     6.711890    6.950602    8.150328
  Au     9.095552    6.002389    6.928256
  Au     4.701061    7.440467    6.345801
  Au     6.179399    9.667208    6.901160
  Mn     8.642297    8.693665    7.214578

 Total Charge           Charge          ....    0
 Multiplicity           Mult            ....    6
 Number of Electrons    NEL             ....  253
 Basis Dimension        Dim             ....  525

ORBITAL ENERGIES
----------------

  NO   OCC          E(Eh)            E(eV)
   0   2.0000    -240.547082     -6545.6189
   1   2.0000     -29.124691      -792.5231
   2   2.0000     -24.829559      -675.6467
   3   2.0000     -24.829424      -675.6430
   4   2.0000     -24.828992      -675.6312
   5   2.0000      -4.728951      -128.6813
   6   2.0000      -4.728727      -128.6752
   7   2.0000      -4.723366      -128.5293
   8   2.0000      -4.723351      -128.5289
   9   2.0000      -4.707683      -128.1026
  10   2.0000      -4.707621      -128.1009
  11   2.0000      -4.707560      -128.0992
  12   2.0000      -4.707532      -128.0985
  13   2.0000      -4.707481      -128.0971
  14   2.0000      -4.706996      -128.0839
  15   2.0000      -4.702173      -127.9526
  16   2.0000      -4.702093      -127.9505
  17   2.0000      -3.831057      -104.2484
  18   2.0000      -2.769909       -75.3730
  19   2.0000      -2.768649       -75.3388
  20   2.0000      -2.767439       -75.3058
  21   2.0000      -2.764941       -75.2379
  22   2.0000      -2.764048       -75.2136
  23   2.0000      -2.763180       -75.1900
  24   2.0000      -2.762727       -75.1776
  25   2.0000      -2.762278       -75.1654
  26   2.0000      -2.758787       -75.0704
  27   2.0000      -2.758504       -75.0627
  28   2.0000      -2.757484       -75.0350
  29   2.0000      -2.757296       -75.0298
  30   2.0000      -2.750832       -74.8539
  31   2.0000      -2.746226       -74.7286
  32   2.0000      -2.745691       -74.7141
  33   2.0000      -2.745092       -74.6977
  34   2.0000      -2.745002       -74.6953
  35   2.0000      -2.744806       -74.6900
  36   2.0000      -2.744336       -74.6772
  37   2.0000      -2.743426       -74.6524
  38   2.0000      -2.743013       -74.6412
  39   2.0000      -2.741588       -74.6024
  40   2.0000      -2.741438       -74.5983
  41   2.0000      -2.741311       -74.5949
  42   2.0000      -2.739764       -74.5528
  43   2.0000      -2.739587       -74.5480
  44   2.0000      -2.739519       -74.5461
  45   2.0000      -2.739475       -74.5449
  46   2.0000      -2.738296       -74.5128
  47   2.0000      -2.737622       -74.4945
  48   2.0000      -2.737586       -74.4935
  49   2.0000      -2.736404       -74.4613
  50   2.0000      -2.735581       -74.4389
  51   2.0000      -2.735135       -74.4268
  52   2.0000      -2.735045       -74.4244
  53   2.0000      -2.734508       -74.4098
  54   2.0000      -2.498958       -68.0001
  55   2.0000      -2.498857       -67.9974
  56   2.0000      -2.498702       -67.9931
  57   2.0000      -0.582353       -15.8466
  58   2.0000      -0.555339       -15.1116
  59   2.0000      -0.553672       -15.0662
  60   2.0000      -0.553375       -15.0581
  61   2.0000      -0.552733       -15.0406
  62   2.0000      -0.552416       -15.0320
  63   2.0000      -0.543747       -14.7961
  64   2.0000      -0.541745       -14.7416
  65   2.0000      -0.541394       -14.7321
  66   2.0000      -0.540770       -14.7151
  67   2.0000      -0.537608       -14.6291
  68   2.0000      -0.531066       -14.4510
  69   2.0000      -0.526547       -14.3281
  70   2.0000      -0.525406       -14.2970
  71   2.0000      -0.524391       -14.2694
  72   2.0000      -0.524192       -14.2640
  73   2.0000      -0.519872       -14.1464
  74   2.0000      -0.512082       -13.9345
  75   2.0000      -0.510752       -13.8983
  76   2.0000      -0.509975       -13.8771
  77   2.0000      -0.508762       -13.8441
  78   2.0000      -0.505628       -13.7588
  79   2.0000      -0.495122       -13.4729
  80   2.0000      -0.494113       -13.4455
  81   2.0000      -0.491945       -13.3865
  82   2.0000      -0.489674       -13.3247
  83   2.0000      -0.484951       -13.1962
  84   2.0000      -0.482504       -13.1296
  85   2.0000      -0.482014       -13.1163
  86   2.0000      -0.479040       -13.0353
  87   2.0000      -0.473756       -12.8915
  88   2.0000      -0.470721       -12.8090
  89   2.0000      -0.469732       -12.7821
  90   2.0000      -0.468873       -12.7587
  91   2.0000      -0.463407       -12.6099
  92   2.0000      -0.461233       -12.5508
  93   2.0000      -0.460417       -12.5286
  94   2.0000      -0.456588       -12.4244
  95   2.0000      -0.456281       -12.4160
  96   2.0000      -0.453644       -12.3443
  97   2.0000      -0.450658       -12.2630
  98   2.0000      -0.449075       -12.2199
  99   2.0000      -0.448952       -12.2166
 100   2.0000      -0.446814       -12.1584
 101   2.0000      -0.439986       -11.9726
 102   2.0000      -0.439323       -11.9546
 103   2.0000      -0.438020       -11.9191
 104   2.0000      -0.437389       -11.9020
 105   2.0000      -0.435880       -11.8609
 106   2.0000      -0.434731       -11.8296
 107   2.0000      -0.433198       -11.7879
 108   2.0000      -0.431814       -11.7503
 109   2.0000      -0.427131       -11.6228
 110   2.0000      -0.426250       -11.5989
 111   2.0000      -0.421780       -11.4772
 112   2.0000      -0.420729       -11.4486
 113   2.0000      -0.416292       -11.3279
 114   2.0000      -0.413081       -11.2405
 115   2.0000      -0.400284       -10.8923
 116   2.0000      -0.399754       -10.8779
 117   2.0000      -0.387691       -10.5496
 118   2.0000      -0.380894       -10.3647
 119   2.0000      -0.339616        -9.2414
 120   2.0000      -0.313390        -8.5278
 121   2.0000      -0.255398        -6.9497
 122   2.0000      -0.243835        -6.6351
 123   2.0000      -0.211500        -5.7552
 124   1.0000      -0.143362        -3.9011
 125   1.0000      -0.148842        -4.0502
 126   1.0000      -0.152681        -4.1547
 127   1.0000      -0.146792        -3.9944
 128   1.0000      -0.146551        -3.9879
 129   0.0000      -0.044218        -1.2032
 130   0.0000      -0.011156        -0.3036
 131   0.0000      -0.005174        -0.1408
 132   0.0000      -0.000052        -0.0014
 133   0.0000       0.015201         0.4136

MULLIKEN ATOMIC CHARGES AND SPIN DENSITIES
------------------------------------------
   0 Au:    0.027831    0.009711
   1 Au:    0.402305    0.004640
   2 Au:   -0.136209    0.012721
   3 Au:    0.467368    0.009437
   4 Au:   -0.136806    0.012781
   5 Au:    0.353035    0.008240
   6 Au:    0.468243    0.009459
   7 Au:   -0.137682    0.012811
   8 Au:   -0.136718    0.012721
   9 Au:    0.354047    0.008236
  10 Au:    0.402319    0.004613
  11 Au:    0.023703    0.009741
  12 Mn:   -1.951436    3.884889
Sum of atomic charges       :    0.0000000

LOEWDIN ATOMIC CHARGES AND SPIN DENSITIES
-----------------------------------------
   0 Au:   -0.014784    0.014981
   1 Au:    0.144249    0.005575
   2 Au:   -0.095023    0.015688
   3 Au:    0.097696    0.016021
   4 Au:   -0.094114    0.015776
   5 Au:    0.089120    0.010749
   6 Au:    0.097744    0.016052
   7 Au:   -0.094757    0.015796
   8 Au:   -0.094470    0.015700
   9 Au:    0.088515    0.010757
  10 Au:    0.144951    0.005549
  11 Au:   -0.014782    0.015016
  12 Mn:   -0.254344    3.842342

  Mayer bond orders larger than 0.100000
B(  0-Au,  1-Au) :   0.2984 B(  0-Au,  4-Au) :   0.1552 B(  0-Au,  7-Au) :   0.1554
B(  0-Au, 11-Au) :   0.4011 B(  0-Au, 12-Mn) :   0.4958 B(  1-Au,  4-Au) :   0.3089
B(  1-Au,  7-Au) :   0.3101 B(  2-Au,  3-Au) :   0.2793 B(  2-Au,  8-Au) :   0.1874
B(  2-Au,  9-Au) :   0.2311 B(  2-Au, 10-Au) :   0.3092 B(  2-Au, 11-Au) :   0.1557
B(  2-Au, 12-Mn) :   0.4188 B(  3-Au,  4-Au) :   0.2747 B(  3-Au,  5-Au) :   0.1005
B(  3-Au,  9-Au) :   0.1030 B(  3-Au, 12-Mn) :   0.3195 B(  4-Au,  5-Au) :   0.2322
B(  4-Au,  7-Au) :   0.1872 B(  4-Au, 12-Mn) :   0.4193 B(  5-Au,  6-Au) :   0.1012
B(  5-Au,  7-Au) :   0.2303 B(  5-Au, 12-Mn) :   0.4175 B(  6-Au,  7-Au) :   0.2770
B(  6-Au,  8-Au) :   0.2767 B(  6-Au,  9-Au) :   0.1007 B(  6-Au, 12-Mn) :   0.3204
B(  7-Au, 12-Mn) :   0.4196 B(  8-Au,  9-Au) :   0.2315 B(  8-Au, 10-Au) :   0.3094
B(  8-Au, 11-Au) :   0.1552 B(  8-Au, 12-Mn) :   0.4194 B(  9-Au, 12-Mn) :   0.4171
B( 10-Au, 11-Au) :   0.2993 B( 11-Au, 12-Mn) :   0.4964

FINAL SINGLE POINT ENERGY     -2773.485955057557

DIPOLE MOMENT
-------------
                                X             Y             Z
Electronic contribution:     -0.10715       0.07100      -0.04184
Nuclear contribution   :      0.44256      -0.47649       0.04661
                        -----------------------------------------
Total Dipole Moment    :      0.33541      -0.40549       0.00477
                        -----------------------------------------
Magnitude (a.u.)       :      0.52625
Magnitude (Debye)      :      1.33763

Rotational constants in cm-1:     0.001723     0.001068     0.000957
Rotational constants in MHz :    51.646989    32.010626    28.689017

                             ****ORCA TERMINATED NORMALLY****
TOTAL RUN TIME: 0 days 1 hours 19 minutes 8 seconds 558 msec
