                         Program Version 5.0.3 -  RELEASE  -
|  1> %pal nprocs 1 end
|  2>
|  3> !PBE def2-TZVP OPT UNO
|  4> !SLOWCONV
|  5>
|  6> *xyz 0 3
|  7> Au  6.34102047458243      5.00579134310141      7.14224664868982
|  8> Au  8.92575698720606      6.15455258356917      7.34443711744721
|  9> Au  4.42242535946242      7.03554123975347      8.31933316976128
| 10> Au  7.02113283154307      6.61973011325423      9.40730182944275
| 11> Au  8.71093133667858      8.79234311864774      8.40837082291683
| 12> Au  4.45757940853322      9.26889002191293      6.60172835498161
| 13> Au  6.00396719710787      9.23153528376023      9.13582253091306
| 14> Au  4.69947760077910      6.62227974073894      5.50303486018601
| 15> Au  9.79544247885046     10.51417880883355      6.50749000529503
| 16> Au  7.03262034615616     10.58733857889242      6.98944575718394
| 17> Au  8.01124599792085     11.05355025985609      4.40924655014707
| 18> Au  5.24934805693116     11.28031951970388      4.89157775585319
| 19> Au  10.93059990039674      7.95205888546788      6.79972119536281
| 20> Au  6.32760006214525      8.74081862282881      4.41170364128530
| 21> Au  7.45875137928384      6.21175627790339      4.85512864665555
| 22> Au  9.04213111286871      8.41031546355611      4.81748640138557
| 23> Fe  6.67358087955393      7.70541435821960      6.97320478249302
| 24> *
| 25>
| 26>                          ****END OF INPUT****
 Total Charge           Charge          ....    0
 Multiplicity           Mult            ....    3
 Number of Electrons    NEL             ....  330
FINAL SINGLE POINT ENERGY     -3436.742061538659
FINAL SINGLE POINT ENERGY     -3436.742256626830
FINAL SINGLE POINT ENERGY     -3436.742626594551
FINAL SINGLE POINT ENERGY     -3436.743016120600
FINAL SINGLE POINT ENERGY     -3436.743452202132
FINAL SINGLE POINT ENERGY     -3436.743905491572
FINAL SINGLE POINT ENERGY     -3436.744289618292
FINAL SINGLE POINT ENERGY     -3436.744590196880
FINAL SINGLE POINT ENERGY     -3436.744782489004
FINAL SINGLE POINT ENERGY     -3436.744871182827
FINAL SINGLE POINT ENERGY     -3436.744939809256
FINAL SINGLE POINT ENERGY     -3436.744978568291
FINAL SINGLE POINT ENERGY     -3436.745002244052
FINAL SINGLE POINT ENERGY     -3436.745023953017
FINAL SINGLE POINT ENERGY     -3436.745039412311
FINAL SINGLE POINT ENERGY     -3436.745048175788
FINAL SINGLE POINT ENERGY     -3436.745053084092
FINAL SINGLE POINT ENERGY     -3436.745056534295
                    ***********************HURRAY********************

CARTESIAN COORDINATES (ANGSTROEM)
---------------------------------
  Au     6.336473    5.020501    7.127779
  Au     8.950240    6.207325    7.131392
  Au     4.476691    7.015971    8.338148
  Au     7.143708    6.610910    9.319229
  Au     8.702610    8.853470    8.424878
  Au     4.470584    9.287626    6.632451
  Au     6.022153    9.204082    9.137761
  Au     4.615601    6.667665    5.522286
  Au     9.800403   10.581598    6.514518
  Au     7.025381   10.616592    6.989118
  Au     8.063611   10.919674    4.377528
  Au     5.277694   11.261232    4.879942
  Au    11.006887    8.069831    7.030755
  Au     6.296850    8.718443    4.342775
  Au     7.277874    6.136174    4.740878
  Au     8.954736    8.295292    5.098943
  Fe     6.682117    7.720029    6.908899

 Multiplicity           Mult            ....    3
 Number of Electrons    NEL             ....  330
 Basis Dimension        Dim             ....  685

ORBITAL ENERGIES
----------------
                 SPIN UP ORBITALS
  NO   OCC          E(Eh)            E(eV)
   0   1.0000    -254.740408     -6931.8389
   1   1.0000     -29.573870      -804.7459
   2   1.0000     -25.512386      -694.2273
   3   1.0000     -25.511067      -694.1914
   4   1.0000     -25.506028      -694.0543
   5   1.0000      -4.037774      -109.8734
   6   1.0000      -4.035782      -109.8192
   7   1.0000      -4.033878      -109.7674
   8   1.0000      -4.033215      -109.7494
   9   1.0000      -4.032925      -109.7415
  10   1.0000      -4.032484      -109.7295
  11   1.0000      -4.032034      -109.7172
  12   1.0000      -4.030661      -109.6799
  13   1.0000      -4.030144      -109.6658
  14   1.0000      -4.029823      -109.6571
  15   1.0000      -4.027631      -109.5974
  16   1.0000      -4.026216      -109.5589
  17   1.0000      -4.022374      -109.4544
  18   1.0000      -4.020360      -109.3996
  19   1.0000      -4.018774      -109.3564
  20   1.0000      -4.018456      -109.3477
  21   1.0000      -3.351458       -91.1978
  22   1.0000      -2.253772       -61.3283
  23   1.0000      -2.252467       -61.2927
  24   1.0000      -2.251221       -61.2588
  25   1.0000      -2.249703       -61.2175
  26   1.0000      -2.249228       -61.2046
  27   1.0000      -2.248912       -61.1960
  28   1.0000      -2.248497       -61.1847
  29   1.0000      -2.248263       -61.1784
  30   1.0000      -2.247767       -61.1649
  31   1.0000      -2.247567       -61.1594
  32   1.0000      -2.246749       -61.1371
  33   1.0000      -2.246686       -61.1354
  34   1.0000      -2.246406       -61.1278
  35   1.0000      -2.245839       -61.1124
  36   1.0000      -2.245758       -61.1102
  37   1.0000      -2.245398       -61.1004
  38   1.0000      -2.245097       -61.0922
  39   1.0000      -2.245050       -61.0909
  40   1.0000      -2.244797       -61.0840
  41   1.0000      -2.244359       -61.0721
  42   1.0000      -2.244199       -61.0678
  43   1.0000      -2.243446       -61.0473
  44   1.0000      -2.242963       -61.0341
  45   1.0000      -2.242637       -61.0253
  46   1.0000      -2.242434       -61.0197
  47   1.0000      -2.242282       -61.0156
  48   1.0000      -2.241503       -60.9944
  49   1.0000      -2.241256       -60.9877
  50   1.0000      -2.241139       -60.9845
  51   1.0000      -2.241037       -60.9817
  52   1.0000      -2.240665       -60.9716
  53   1.0000      -2.239636       -60.9436
  54   1.0000      -2.239473       -60.9392
  55   1.0000      -2.239223       -60.9324
  56   1.0000      -2.238456       -60.9115
  57   1.0000      -2.237681       -60.8904
  58   1.0000      -2.237666       -60.8900
  59   1.0000      -2.235003       -60.8175
  60   1.0000      -2.234926       -60.8154
  61   1.0000      -2.234395       -60.8010
  62   1.0000      -2.233669       -60.7812
  63   1.0000      -2.232955       -60.7618
  64   1.0000      -2.231989       -60.7355
  65   1.0000      -2.231242       -60.7152
  66   1.0000      -2.231179       -60.7135
  67   1.0000      -2.230642       -60.6988
  68   1.0000      -2.229901       -60.6787
  69   1.0000      -2.229567       -60.6696
  70   1.0000      -2.171806       -59.0979
  71   1.0000      -2.167795       -58.9887
  72   1.0000      -2.157870       -58.7186
  73   1.0000      -0.443449       -12.0669
  74   1.0000      -0.401158       -10.9161
  75   1.0000      -0.395874       -10.7723
  76   1.0000      -0.394807       -10.7432
  77   1.0000      -0.381186       -10.3726
  78   1.0000      -0.380454       -10.3527
  79   1.0000      -0.376802       -10.2533
  80   1.0000      -0.375237       -10.2107
  81   1.0000      -0.371163       -10.0998
  82   1.0000      -0.369358       -10.0507
  83   1.0000      -0.367861       -10.0100
  84   1.0000      -0.363602        -9.8941
  85   1.0000      -0.362413        -9.8618
  86   1.0000      -0.356493        -9.7007
  87   1.0000      -0.355382        -9.6704
  88   1.0000      -0.354749        -9.6532
  89   1.0000      -0.350491        -9.5374
  90   1.0000      -0.349738        -9.5169
  91   1.0000      -0.347389        -9.4529
  92   1.0000      -0.346518        -9.4292
  93   1.0000      -0.345172        -9.3926
  94   1.0000      -0.343810        -9.3555
  95   1.0000      -0.342239        -9.3128
  96   1.0000      -0.338818        -9.2197
  97   1.0000      -0.338332        -9.2065
  98   1.0000      -0.336977        -9.1696
  99   1.0000      -0.335752        -9.1363
 100   1.0000      -0.331017        -9.0074
 101   1.0000      -0.326958        -8.8970
 102   1.0000      -0.325563        -8.8590
 103   1.0000      -0.323918        -8.8143
 104   1.0000      -0.319387        -8.6910
 105   1.0000      -0.318503        -8.6669
 106   1.0000      -0.313710        -8.5365
 107   1.0000      -0.312236        -8.4964
 108   1.0000      -0.312059        -8.4916
 109   1.0000      -0.309515        -8.4223
 110   1.0000      -0.307185        -8.3589
 111   1.0000      -0.305798        -8.3212
 112   1.0000      -0.304533        -8.2868
 113   1.0000      -0.299431        -8.1479
 114   1.0000      -0.298512        -8.1229
 115   1.0000      -0.296808        -8.0766
 116   1.0000      -0.293985        -7.9997
 117   1.0000      -0.291449        -7.9307
 118   1.0000      -0.290869        -7.9149
 119   1.0000      -0.289241        -7.8707
 120   1.0000      -0.286144        -7.7864
 121   1.0000      -0.284869        -7.7517
 122   1.0000      -0.281248        -7.6531
 123   1.0000      -0.281006        -7.6466
 124   1.0000      -0.280294        -7.6272
 125   1.0000      -0.278280        -7.5724
 126   1.0000      -0.277898        -7.5620
 127   1.0000      -0.276982        -7.5371
 128   1.0000      -0.276198        -7.5157
 129   1.0000      -0.274552        -7.4709
 130   1.0000      -0.273892        -7.4530
 131   1.0000      -0.272042        -7.4026
 132   1.0000      -0.271839        -7.3971
 133   1.0000      -0.269517        -7.3339
 134   1.0000      -0.267896        -7.2898
 135   1.0000      -0.267163        -7.2699
 136   1.0000      -0.266810        -7.2603
 137   1.0000      -0.265363        -7.2209
 138   1.0000      -0.264964        -7.2100
 139   1.0000      -0.263524        -7.1708
 140   1.0000      -0.263234        -7.1630
 141   1.0000      -0.260273        -7.0824
 142   1.0000      -0.259372        -7.0579
 143   1.0000      -0.257962        -7.0195
 144   1.0000      -0.254489        -6.9250
 145   1.0000      -0.254263        -6.9188
 146   1.0000      -0.253545        -6.8993
 147   1.0000      -0.251850        -6.8532
 148   1.0000      -0.251370        -6.8401
 149   1.0000      -0.250630        -6.8200
 150   1.0000      -0.248894        -6.7728
 151   1.0000      -0.248425        -6.7600
 152   1.0000      -0.246526        -6.7083
 153   1.0000      -0.245931        -6.6921
 154   1.0000      -0.244354        -6.6492
 155   1.0000      -0.243748        -6.6327
 156   1.0000      -0.242533        -6.5997
 157   1.0000      -0.238943        -6.5020
 158   1.0000      -0.237566        -6.4645
 159   1.0000      -0.236841        -6.4448
 160   1.0000      -0.235632        -6.4119
 161   1.0000      -0.231403        -6.2968
 162   1.0000      -0.220088        -5.9889
 163   1.0000      -0.213160        -5.8004
 164   1.0000      -0.209639        -5.7046
 165   1.0000      -0.199039        -5.4161
 166   0.0000      -0.186082        -5.0635
 167   0.0000      -0.158579        -4.3152
 168   0.0000      -0.144609        -3.9350
 169   0.0000      -0.139699        -3.8014
 170   0.0000      -0.130505        -3.5512

                 SPIN DOWN ORBITALS
  NO   OCC          E(Eh)            E(eV)
   0   1.0000    -254.739818     -6931.8228
   1   1.0000     -29.519775      -803.2739
   2   1.0000     -25.470551      -693.0889
   3   1.0000     -25.470078      -693.0761
   4   1.0000     -25.466368      -692.9751
   5   1.0000      -4.038028      -109.8803
   6   1.0000      -4.036302      -109.8334
   7   1.0000      -4.033784      -109.7648
   8   1.0000      -4.033660      -109.7615
   9   1.0000      -4.032879      -109.7402
  10   1.0000      -4.032576      -109.7320
  11   1.0000      -4.032532      -109.7308
  12   1.0000      -4.030955      -109.6879
  13   1.0000      -4.030058      -109.6635
  14   1.0000      -4.029753      -109.6552
  15   1.0000      -4.027668      -109.5984
  16   1.0000      -4.026500      -109.5666
  17   1.0000      -4.022414      -109.4554
  18   1.0000      -4.021319      -109.4257
  19   1.0000      -4.019781      -109.3838
  20   1.0000      -4.018712      -109.3547
  21   1.0000      -3.228534       -87.8529
  22   1.0000      -2.254407       -61.3455
  23   1.0000      -2.253177       -61.3121
  24   1.0000      -2.251515       -61.2668
  25   1.0000      -2.250292       -61.2336
  26   1.0000      -2.249737       -61.2184
  27   1.0000      -2.248918       -61.1962
  28   1.0000      -2.248775       -61.1923
  29   1.0000      -2.248248       -61.1779
  30   1.0000      -2.247809       -61.1660
  31   1.0000      -2.247492       -61.1574
  32   1.0000      -2.247009       -61.1442
  33   1.0000      -2.246694       -61.1357
  34   1.0000      -2.246571       -61.1323
  35   1.0000      -2.246098       -61.1194
  36   1.0000      -2.246023       -61.1174
  37   1.0000      -2.245477       -61.1025
  38   1.0000      -2.245259       -61.0966
  39   1.0000      -2.245069       -61.0914
  40   1.0000      -2.244758       -61.0830
  41   1.0000      -2.244021       -61.0629
  42   1.0000      -2.243994       -61.0622
  43   1.0000      -2.243512       -61.0491
  44   1.0000      -2.243091       -61.0376
  45   1.0000      -2.242929       -61.0332
  46   1.0000      -2.242617       -61.0247
  47   1.0000      -2.242432       -61.0197
  48   1.0000      -2.241661       -60.9987
  49   1.0000      -2.241549       -60.9957
  50   1.0000      -2.241406       -60.9918
  51   1.0000      -2.240929       -60.9788
  52   1.0000      -2.240781       -60.9747
  53   1.0000      -2.239833       -60.9490
  54   1.0000      -2.239632       -60.9435
  55   1.0000      -2.239302       -60.9345
  56   1.0000      -2.238854       -60.9223
  57   1.0000      -2.237868       -60.8955
  58   1.0000      -2.237835       -60.8946
  59   1.0000      -2.236235       -60.8511
  60   1.0000      -2.235123       -60.8208
  61   1.0000      -2.234622       -60.8071
  62   1.0000      -2.234266       -60.7975
  63   1.0000      -2.233932       -60.7884
  64   1.0000      -2.232582       -60.7516
  65   1.0000      -2.232200       -60.7413
  66   1.0000      -2.231746       -60.7289
  67   1.0000      -2.230960       -60.7075
  68   1.0000      -2.230864       -60.7049
  69   1.0000      -2.230110       -60.6844
  70   1.0000      -2.049040       -55.7572
  71   1.0000      -2.046867       -55.6981
  72   1.0000      -2.040188       -55.5163
  73   1.0000      -0.440721       -11.9926
  74   1.0000      -0.400670       -10.9028
  75   1.0000      -0.396698       -10.7947
  76   1.0000      -0.395358       -10.7582
  77   1.0000      -0.377966       -10.2850
  78   1.0000      -0.377487       -10.2719
  79   1.0000      -0.374694       -10.1960
  80   1.0000      -0.371212       -10.1012
  81   1.0000      -0.369826       -10.0635
  82   1.0000      -0.368253       -10.0207
  83   1.0000      -0.367255        -9.9935
  84   1.0000      -0.362199        -9.8559
  85   1.0000      -0.362002        -9.8506
  86   1.0000      -0.356161        -9.6916
  87   1.0000      -0.355518        -9.6741
  88   1.0000      -0.354462        -9.6454
  89   1.0000      -0.350253        -9.5309
  90   1.0000      -0.349983        -9.5235
  91   1.0000      -0.347369        -9.4524
  92   1.0000      -0.346365        -9.4251
  93   1.0000      -0.345353        -9.3975
  94   1.0000      -0.343839        -9.3563
  95   1.0000      -0.342384        -9.3168
  96   1.0000      -0.339351        -9.2342
  97   1.0000      -0.338372        -9.2076
  98   1.0000      -0.337248        -9.1770
  99   1.0000      -0.335623        -9.1328
 100   1.0000      -0.331230        -9.0132
 101   1.0000      -0.326987        -8.8978
 102   1.0000      -0.325826        -8.8662
 103   1.0000      -0.323665        -8.8074
 104   1.0000      -0.319240        -8.6870
 105   1.0000      -0.317459        -8.6385
 106   1.0000      -0.313572        -8.5327
 107   1.0000      -0.312720        -8.5095
 108   1.0000      -0.311533        -8.4773
 109   1.0000      -0.308254        -8.3880
 110   1.0000      -0.306687        -8.3454
 111   1.0000      -0.305306        -8.3078
 112   1.0000      -0.304259        -8.2793
 113   1.0000      -0.296111        -8.0576
 114   1.0000      -0.293950        -7.9988
 115   1.0000      -0.292857        -7.9690
 116   1.0000      -0.292504        -7.9594
 117   1.0000      -0.288224        -7.8430
 118   1.0000      -0.287797        -7.8314
 119   1.0000      -0.287602        -7.8261
 120   1.0000      -0.284401        -7.7389
 121   1.0000      -0.283734        -7.7208
 122   1.0000      -0.281792        -7.6679
 123   1.0000      -0.281393        -7.6571
 124   1.0000      -0.280966        -7.6455
 125   1.0000      -0.277504        -7.5513
 126   1.0000      -0.277249        -7.5443
 127   1.0000      -0.276974        -7.5368
 128   1.0000      -0.276690        -7.5291
 129   1.0000      -0.274797        -7.4776
 130   1.0000      -0.274418        -7.4673
 131   1.0000      -0.272187        -7.4066
 132   1.0000      -0.272102        -7.4043
 133   1.0000      -0.270077        -7.3492
 134   1.0000      -0.268339        -7.3019
 135   1.0000      -0.267669        -7.2836
 136   1.0000      -0.267210        -7.2712
 137   1.0000      -0.265156        -7.2153
 138   1.0000      -0.264981        -7.2105
 139   1.0000      -0.264099        -7.1865
 140   1.0000      -0.263532        -7.1711
 141   1.0000      -0.260772        -7.0960
 142   1.0000      -0.259863        -7.0712
 143   1.0000      -0.257600        -7.0097
 144   1.0000      -0.255197        -6.9443
 145   1.0000      -0.254618        -6.9285
 146   1.0000      -0.254066        -6.9135
 147   1.0000      -0.252039        -6.8583
 148   1.0000      -0.251623        -6.8470
 149   1.0000      -0.250982        -6.8296
 150   1.0000      -0.249104        -6.7785
 151   1.0000      -0.248550        -6.7634
 152   1.0000      -0.244775        -6.6607
 153   1.0000      -0.243687        -6.6311
 154   1.0000      -0.239563        -6.5188
 155   1.0000      -0.238331        -6.4853
 156   1.0000      -0.236863        -6.4454
 157   1.0000      -0.227844        -6.2000
 158   1.0000      -0.220947        -6.0123
 159   1.0000      -0.219002        -5.9593
 160   1.0000      -0.208623        -5.6769
 161   1.0000      -0.200724        -5.4620
 162   1.0000      -0.174090        -4.7372
 163   1.0000      -0.172091        -4.6828
 164   0.0000      -0.157022        -4.2728
 165   0.0000      -0.150121        -4.0850
 166   0.0000      -0.146757        -3.9935
 167   0.0000      -0.145112        -3.9487
 168   0.0000      -0.139255        -3.7893

MULLIKEN ATOMIC CHARGES AND SPIN POPULATIONS
--------------------------------------------
   0 Au:    0.345454   -0.009472
   1 Au:    0.075453   -0.026383
   2 Au:    0.343706    0.002029
   3 Au:    0.378288   -0.068000
   4 Au:   -0.154621   -0.086229
   5 Au:    0.078959   -0.014596
   6 Au:    0.414922   -0.046971
   7 Au:    0.375921   -0.059538
   8 Au:    0.354152    0.031788
   9 Au:   -0.430994   -0.012283
  10 Au:    0.311925   -0.072902
  11 Au:    0.398332   -0.136365
  12 Au:    0.374253   -0.176618
  13 Au:   -0.158932   -0.102309
  14 Au:    0.409111   -0.037702
  15 Au:   -0.404184    0.007054
  16 Fe:   -2.711746    2.808497
Sum of atomic charges         :   -0.0000000

LOEWDIN ATOMIC CHARGES AND SPIN POPULATIONS
-------------------------------------------
   0 Au:    0.072084   -0.034545
   1 Au:    0.019274   -0.064006
   2 Au:    0.071772   -0.023827
   3 Au:    0.096487   -0.059090
   4 Au:   -0.017888   -0.063824
   5 Au:    0.022654   -0.050125
   6 Au:    0.107324   -0.063889
   7 Au:    0.097654   -0.053048
   8 Au:    0.032404   -0.006734
   9 Au:   -0.066985   -0.039350
  10 Au:    0.027695   -0.050172
  11 Au:    0.098754   -0.119250
  12 Au:    0.093345   -0.131591
  13 Au:   -0.022368   -0.075825
  14 Au:    0.104277   -0.055285
  15 Au:   -0.061475   -0.030450
  16 Fe:   -0.675008    2.921013

  Mayer bond orders larger than 0.100000
B(  0-Au,  1-Au) :   0.2185 B(  0-Au,  2-Au) :   0.1205 B(  0-Au,  3-Au) :   0.1668
B(  0-Au,  7-Au) :   0.1944 B(  0-Au, 14-Au) :   0.2032 B(  0-Au, 16-Fe) :   0.4127
B(  1-Au,  3-Au) :   0.1651 B(  1-Au,  4-Au) :   0.1971 B(  1-Au, 12-Au) :   0.3297
B(  1-Au, 14-Au) :   0.1163 B(  1-Au, 15-Au) :   0.1913 B(  1-Au, 16-Fe) :   0.4111
B(  2-Au,  3-Au) :   0.1938 B(  2-Au,  5-Au) :   0.2366 B(  2-Au,  6-Au) :   0.2092
B(  2-Au,  7-Au) :   0.1596 B(  2-Au, 16-Fe) :   0.4103 B(  3-Au,  4-Au) :   0.1911
B(  3-Au,  6-Au) :   0.1518 B(  3-Au, 16-Fe) :   0.4238 B(  4-Au,  6-Au) :   0.2276
B(  4-Au,  8-Au) :   0.2772 B(  4-Au,  9-Au) :   0.2631 B(  4-Au, 12-Au) :   0.2930
B(  4-Au, 15-Au) :   0.1539 B(  4-Au, 16-Fe) :   0.4225 B(  5-Au,  6-Au) :   0.1049
B(  5-Au,  7-Au) :   0.1657 B(  5-Au,  9-Au) :   0.2034 B(  5-Au, 11-Au) :   0.3486
B(  5-Au, 13-Au) :   0.1961 B(  5-Au, 16-Fe) :   0.3973 B(  6-Au,  9-Au) :   0.2742
B(  6-Au, 16-Fe) :   0.4277 B(  7-Au, 13-Au) :   0.1692 B(  7-Au, 14-Au) :   0.1559
B(  7-Au, 16-Fe) :   0.4425 B(  8-Au,  9-Au) :   0.3011 B(  8-Au, 10-Au) :   0.2719
B(  8-Au, 12-Au) :   0.1960 B(  8-Au, 15-Au) :   0.2314 B(  9-Au, 10-Au) :   0.2415
B(  9-Au, 11-Au) :   0.2734 B(  9-Au, 13-Au) :   0.1602 B(  9-Au, 15-Au) :   0.1245
B(  9-Au, 16-Fe) :   0.3895 B( 10-Au, 11-Au) :   0.1952 B( 10-Au, 13-Au) :   0.2535
B( 10-Au, 15-Au) :   0.2685 B( 11-Au, 13-Au) :   0.2916 B( 12-Au, 15-Au) :   0.2762
B( 13-Au, 14-Au) :   0.2338 B( 13-Au, 15-Au) :   0.2786 B( 13-Au, 16-Fe) :   0.4248
B( 14-Au, 15-Au) :   0.2704 B( 14-Au, 16-Fe) :   0.4259 B( 15-Au, 16-Fe) :   0.3819

FINAL SINGLE POINT ENERGY     -3436.745058925664

DIPOLE MOMENT
-------------
                                X             Y             Z
Electronic contribution:     17.81684      23.62639     -11.71739
Nuclear contribution   :    -17.95907     -23.79175      11.80267
                        -----------------------------------------
Total Dipole Moment    :     -0.14223      -0.16537       0.08528
                        -----------------------------------------
Magnitude (a.u.)       :      0.23420
Magnitude (Debye)      :      0.59528

Rotational constants in cm-1:     0.000949     0.000863     0.000707
Rotational constants in MHz :    28.457911    25.863933    21.188878

                             ****ORCA TERMINATED NORMALLY****
TOTAL RUN TIME: 0 days 6 hours 16 minutes 50 seconds 504 msec
