                         Program Version 5.0.3 -  RELEASE  -
|  1> !SC-NEVPT2 def2-TZVP def2-TZVP/C
|  2> !MOREAD RIJCOSX def2/J
|  3> %maxcore 4000
|  4> %moinp "casscf.gbw"
|  5> %pal nprocs 8 end
|  6>
|  7> %casscf
|  8>  mult 5,3
|  9>  bweight 1,1
| 10>  nroots 5,45
| 11>  nel 6
| 12>  norb 5
| 13>  ptsettings
| 14>   d4tpre 1e-14 # default = 1e-10
| 15>   d3tpre 1e-14
| 16>  end
| 17>  rel
| 18>    dosoc true
| 19>    gtensor true
| 20>  end
| 21> end
| 22>
| 23>
| 24> *xyzfile 0 5 pbe.xyz
| 25>
| 26>
| 27>                          ****END OF INPUT****

CARTESIAN COORDINATES (ANGSTROEM)
---------------------------------
  Au     8.774593    5.312964   11.069863
  Au     6.391537    4.385235    9.894776
  Au     7.763016    3.379600    7.743069
  Au    10.224859    4.253261    8.791593
  Au    10.644535    6.729138    7.768871
  Au     8.311835    5.358054    5.973885
  Au     8.613205    7.958316    6.086615
  Au     9.149954    7.854868   10.202518
  Au    10.061246    9.396553    8.113532
  Au     8.276228   10.648704    6.432977
  Au     6.036970    7.059322    9.639675
  Au     7.223895    9.005093    8.348705
  Cr     8.203061    5.984823    8.549332

 Total Charge           Charge          ....    0
 Multiplicity           Mult            ....    5
 Number of Electrons    NEL             ....  252
 Basis Dimension        Dim             ....  525

ORBITAL ENERGIES
----------------

  NO   OCC          E(Eh)            E(eV)
   0   2.0000    -220.548637     -6001.4335
   1   2.0000     -26.396315      -718.2803
   2   2.0000     -22.331806      -607.6793
   3   2.0000     -22.326265      -607.5285
   4   2.0000     -22.316454      -607.2616
   5   2.0000      -4.715936      -128.3271
   6   2.0000      -4.715340      -128.3109
   7   2.0000      -4.712371      -128.2301
   8   2.0000      -4.711405      -128.2039
   9   2.0000      -4.705860      -128.0530
  10   2.0000      -4.704818      -128.0246
  11   2.0000      -4.704346      -128.0118
  12   2.0000      -4.704075      -128.0044
  13   2.0000      -4.703348      -127.9846
  14   2.0000      -4.699964      -127.8925
  15   2.0000      -4.698946      -127.8648
  16   2.0000      -4.698129      -127.8426
  17   2.0000      -3.443496       -93.7023
  18   2.0000      -2.756745       -75.0148
  19   2.0000      -2.755857       -74.9907
  20   2.0000      -2.754876       -74.9640
  21   2.0000      -2.753397       -74.9238
  22   2.0000      -2.751257       -74.8655
  23   2.0000      -2.750379       -74.8416
  24   2.0000      -2.749724       -74.8238
  25   2.0000      -2.749074       -74.8061
  26   2.0000      -2.747588       -74.7657
  27   2.0000      -2.747285       -74.7574
  28   2.0000      -2.747100       -74.7524
  29   2.0000      -2.746425       -74.7340
  30   2.0000      -2.745885       -74.7193
  31   2.0000      -2.744468       -74.6808
  32   2.0000      -2.744224       -74.6741
  33   2.0000      -2.743591       -74.6569
  34   2.0000      -2.743176       -74.6456
  35   2.0000      -2.742650       -74.6313
  36   2.0000      -2.742159       -74.6180
  37   2.0000      -2.740928       -74.5844
  38   2.0000      -2.740023       -74.5598
  39   2.0000      -2.739317       -74.5406
  40   2.0000      -2.738326       -74.5136
  41   2.0000      -2.737700       -74.4966
  42   2.0000      -2.736758       -74.4710
  43   2.0000      -2.736393       -74.4610
  44   2.0000      -2.736073       -74.4523
  45   2.0000      -2.735548       -74.4380
  46   2.0000      -2.734882       -74.4199
  47   2.0000      -2.734194       -74.4012
  48   2.0000      -2.733594       -74.3849
  49   2.0000      -2.732510       -74.3554
  50   2.0000      -2.731737       -74.3344
  51   2.0000      -2.731457       -74.3267
  52   2.0000      -2.730851       -74.3102
  53   2.0000      -2.729706       -74.2791
  54   2.0000      -2.207141       -60.0593
  55   2.0000      -2.201546       -59.9071
  56   2.0000      -2.193963       -59.7008
  57   2.0000      -0.558037       -15.1850
  58   2.0000      -0.547151       -14.8887
  59   2.0000      -0.545806       -14.8521
  60   2.0000      -0.543947       -14.8016
  61   2.0000      -0.539782       -14.6882
  62   2.0000      -0.534213       -14.5367
  63   2.0000      -0.533416       -14.5150
  64   2.0000      -0.532990       -14.5034
  65   2.0000      -0.529446       -14.4070
  66   2.0000      -0.527409       -14.3515
  67   2.0000      -0.525435       -14.2978
  68   2.0000      -0.525099       -14.2887
  69   2.0000      -0.521413       -14.1884
  70   2.0000      -0.517153       -14.0724
  71   2.0000      -0.515306       -14.0222
  72   2.0000      -0.514619       -14.0035
  73   2.0000      -0.510339       -13.8870
  74   2.0000      -0.508366       -13.8333
  75   2.0000      -0.501460       -13.6454
  76   2.0000      -0.498881       -13.5753
  77   2.0000      -0.497666       -13.5422
  78   2.0000      -0.496676       -13.5153
  79   2.0000      -0.495188       -13.4747
  80   2.0000      -0.487097       -13.2546
  81   2.0000      -0.486022       -13.2253
  82   2.0000      -0.482149       -13.1200
  83   2.0000      -0.477425       -12.9914
  84   2.0000      -0.476666       -12.9707
  85   2.0000      -0.475942       -12.9511
  86   2.0000      -0.473019       -12.8715
  87   2.0000      -0.472029       -12.8446
  88   2.0000      -0.468422       -12.7464
  89   2.0000      -0.466137       -12.6842
  90   2.0000      -0.463621       -12.6158
  91   2.0000      -0.461405       -12.5555
  92   2.0000      -0.457880       -12.4595
  93   2.0000      -0.456660       -12.4263
  94   2.0000      -0.455694       -12.4001
  95   2.0000      -0.453345       -12.3361
  96   2.0000      -0.451402       -12.2833
  97   2.0000      -0.450730       -12.2650
  98   2.0000      -0.447987       -12.1903
  99   2.0000      -0.444510       -12.0957
 100   2.0000      -0.441093       -12.0028
 101   2.0000      -0.438135       -11.9223
 102   2.0000      -0.437478       -11.9044
 103   2.0000      -0.436674       -11.8825
 104   2.0000      -0.434580       -11.8255
 105   2.0000      -0.432494       -11.7688
 106   2.0000      -0.429776       -11.6948
 107   2.0000      -0.429031       -11.6745
 108   2.0000      -0.427330       -11.6282
 109   2.0000      -0.417466       -11.3598
 110   2.0000      -0.417286       -11.3549
 111   2.0000      -0.411127       -11.1873
 112   2.0000      -0.409895       -11.1538
 113   2.0000      -0.407866       -11.0986
 114   2.0000      -0.402999       -10.9662
 115   2.0000      -0.401228       -10.9180
 116   2.0000      -0.400909       -10.9093
 117   2.0000      -0.386972       -10.5300
 118   2.0000      -0.370057       -10.0698
 119   2.0000      -0.323735        -8.8093
 120   2.0000      -0.283213        -7.7066
 121   2.0000      -0.254912        -6.9365
 122   2.0000      -0.221213        -6.0195
 123   1.2000      -0.154734        -4.2105
 124   1.2000      -0.141330        -3.8458
 125   1.2000      -0.138217        -3.7611
 126   1.2000      -0.142350        -3.8735
 127   1.2000      -0.107232        -2.9179
 128   0.0000      -0.006408        -0.1744
 129   0.0000       0.001079         0.0294
 130   0.0000       0.007410         0.2016
 131   0.0000       0.015371         0.4183
 132   0.0000       0.018556         0.5049

MULLIKEN ATOMIC CHARGES AND SPIN DENSITIES
------------------------------------------
   0 Au:    0.329157    0.064056
   1 Au:    0.362532    0.048095
   2 Au:    0.343545    0.042279
   3 Au:    0.338980    0.072588
   4 Au:    0.312261    0.067874
   5 Au:    0.342922    0.025678
   6 Au:   -0.257619    0.027369
   7 Au:    0.303706    0.065442
   8 Au:    0.262776    0.109286
   9 Au:    0.533431    0.023389
  10 Au:    0.334888    0.029054
  11 Au:   -0.239068    0.035332
  12 Cr:   -2.967511    2.389557
Sum of atomic charges       :    0.0000000

LOEWDIN ATOMIC CHARGES AND SPIN DENSITIES
-----------------------------------------
   0 Au:    0.124134    0.071060
   1 Au:    0.091846    0.071185
   2 Au:    0.086232    0.067509
   3 Au:    0.127851    0.075899
   4 Au:    0.081376    0.083281
   5 Au:    0.116745    0.039785
   6 Au:   -0.090073    0.039305
   7 Au:    0.077757    0.080469
   8 Au:    0.001881    0.088742
   9 Au:    0.180851    0.032489
  10 Au:    0.118284    0.044826
  11 Au:   -0.087713    0.043248
  12 Cr:   -0.829171    2.262202

  Mayer bond orders larger than 0.100000
B(  0-Au,  1-Au) :   0.1568 B(  0-Au,  3-Au) :   0.2152 B(  0-Au,  7-Au) :   0.1837
B(  0-Au, 12-Cr) :   0.4668 B(  1-Au,  2-Au) :   0.2133 B(  1-Au,  4-Au) :   0.1376
B(  1-Au, 10-Au) :   0.1930 B(  1-Au, 12-Cr) :   0.3787 B(  2-Au,  3-Au) :   0.1563
B(  2-Au,  5-Au) :   0.2001 B(  2-Au,  7-Au) :   0.1339 B(  2-Au, 12-Cr) :   0.4042
B(  3-Au,  4-Au) :   0.1835 B(  3-Au, 12-Cr) :   0.4479 B(  4-Au,  7-Au) :   0.2103
B(  4-Au,  8-Au) :   0.1927 B(  4-Au, 12-Cr) :   0.3554 B(  5-Au,  6-Au) :   0.4180
B(  5-Au, 12-Cr) :   0.5004 B(  6-Au,  8-Au) :   0.2023 B(  6-Au,  9-Au) :   0.3511
B(  6-Au, 11-Au) :   0.3679 B(  6-Au, 12-Cr) :   0.4422 B(  7-Au,  8-Au) :   0.2032
B(  7-Au, 12-Cr) :   0.3650 B(  8-Au,  9-Au) :   0.1849 B(  8-Au, 11-Au) :   0.2059
B(  8-Au, 12-Cr) :   0.2135 B(  9-Au, 11-Au) :   0.3449 B( 10-Au, 11-Au) :   0.4168
B( 10-Au, 12-Cr) :   0.5001 B( 11-Au, 12-Cr) :   0.4320

FINAL SINGLE POINT ENERGY     -2666.940571451353

DIPOLE MOMENT
-------------
                                X             Y             Z
Electronic contribution:      9.22490      27.58290      -7.03086
Nuclear contribution   :     -8.87833     -27.85715       7.38871
                        -----------------------------------------
Total Dipole Moment    :      0.34657      -0.27425       0.35785
                        -----------------------------------------
Magnitude (a.u.)       :      0.56866
Magnitude (Debye)      :      1.44543

Rotational constants in cm-1:     0.001761     0.001025     0.000952
Rotational constants in MHz :    52.782073    30.737114    28.548189

                             ****ORCA TERMINATED NORMALLY****
TOTAL RUN TIME: 0 days 0 hours 46 minutes 3 seconds 572 msec
