                         Program Version 5.0.3 -  RELEASE  -
|  1> !SC-NEVPT2 def2-TZVP def2-TZVP/C
|  2> !MOREAD RIJCOSX def2/J
|  3> %maxcore 4000
|  4> %moinp "casscf.gbw"
|  5> %pal nprocs 6 end
|  6>
|  7> %casscf
|  8>  mult 5,3
|  9>  bweight 1,1
| 10>  nroots 5,45
| 11>  nel 6
| 12>  norb 5
| 13>  ptsettings
| 14>   d4tpre 1e-14 # default = 1e-10
| 15>   d3tpre 1e-14
| 16>  end
| 17>  rel
| 18>    dosoc true
| 19>    gtensor true
| 20>  end
| 21> end
| 22>
| 23>
| 24> *xyzfile 0 5 pbe.xyz
| 25>
| 26>
| 27>                          ****END OF INPUT****

CARTESIAN COORDINATES (ANGSTROEM)
---------------------------------
  Au     7.556493    5.540447    9.121005
  Au     5.736210    9.489030    7.502077
  Au     3.674044    8.234908    6.041816
  Au     5.893941    9.229769    4.675734
  Au     5.285677    6.646396    7.724861
  Au     6.556914    8.083021    9.849049
  Au     7.408503    5.179220    6.340537
  Au     5.454462    6.420186    4.893261
  Au     8.075436    7.449969    4.844184
  Au    10.283488    8.674300    7.194182
  Au     8.171453   10.016382    5.957003
  Au     9.855602    5.956114    7.439394
  Au     9.357517    7.631034    9.776413
  Au     8.280636   10.042675    8.758993
  Fe     7.823043    7.692104    7.491621

 Total Charge           Charge          ....    0
 Multiplicity           Mult            ....    5
 Number of Electrons    NEL             ....  292
 Basis Dimension        Dim             ....  605

ORBITAL ENERGIES
----------------

  NO   OCC          E(Eh)            E(eV)
   0   2.0000    -261.401959     -7113.1089
   1   2.0000     -31.963947      -869.7832
   2   2.0000     -27.444110      -746.7922
   3   2.0000     -27.444029      -746.7900
   4   2.0000     -27.443772      -746.7830
   5   2.0000      -4.726524      -128.6153
   6   2.0000      -4.725832      -128.5964
   7   2.0000      -4.721600      -128.4813
   8   2.0000      -4.721536      -128.4795
   9   2.0000      -4.721382      -128.4753
  10   2.0000      -4.721342      -128.4742
  11   2.0000      -4.717146      -128.3601
  12   2.0000      -4.717031      -128.3569
  13   2.0000      -4.715185      -128.3067
  14   2.0000      -4.714924      -128.2996
  15   2.0000      -4.711597      -128.2091
  16   2.0000      -4.708492      -128.1246
  17   2.0000      -4.704181      -128.0073
  18   2.0000      -4.703777      -127.9963
  19   2.0000      -4.198171      -114.2380
  20   2.0000      -2.778421       -75.6047
  21   2.0000      -2.777452       -75.5783
  22   2.0000      -2.777410       -75.5772
  23   2.0000      -2.765995       -75.2665
  24   2.0000      -2.764619       -75.2291
  25   2.0000      -2.764240       -75.2188
  26   2.0000      -2.762806       -75.1798
  27   2.0000      -2.762215       -75.1637
  28   2.0000      -2.762137       -75.1616
  29   2.0000      -2.760981       -75.1301
  30   2.0000      -2.760168       -75.1080
  31   2.0000      -2.758863       -75.0725
  32   2.0000      -2.758441       -75.0610
  33   2.0000      -2.758361       -75.0588
  34   2.0000      -2.757620       -75.0387
  35   2.0000      -2.757412       -75.0330
  36   2.0000      -2.757143       -75.0257
  37   2.0000      -2.756117       -74.9978
  38   2.0000      -2.755423       -74.9789
  39   2.0000      -2.754203       -74.9457
  40   2.0000      -2.753906       -74.9376
  41   2.0000      -2.753647       -74.9305
  42   2.0000      -2.753598       -74.9292
  43   2.0000      -2.753390       -74.9236
  44   2.0000      -2.753087       -74.9153
  45   2.0000      -2.751777       -74.8797
  46   2.0000      -2.751293       -74.8665
  47   2.0000      -2.751032       -74.8594
  48   2.0000      -2.750532       -74.8458
  49   2.0000      -2.749462       -74.8167
  50   2.0000      -2.749411       -74.8153
  51   2.0000      -2.748124       -74.7803
  52   2.0000      -2.747705       -74.7689
  53   2.0000      -2.746840       -74.7453
  54   2.0000      -2.746807       -74.7444
  55   2.0000      -2.745184       -74.7003
  56   2.0000      -2.744943       -74.6937
  57   2.0000      -2.744127       -74.6715
  58   2.0000      -2.743937       -74.6663
  59   2.0000      -2.740857       -74.5825
  60   2.0000      -2.740240       -74.5657
  61   2.0000      -2.739892       -74.5562
  62   2.0000      -2.738507       -74.5186
  63   2.0000      -2.738081       -74.5070
  64   2.0000      -2.737145       -74.4815
  65   2.0000      -0.599532       -16.3141
  66   2.0000      -0.558582       -15.1998
  67   2.0000      -0.558262       -15.1911
  68   2.0000      -0.555033       -15.1032
  69   2.0000      -0.553550       -15.0629
  70   2.0000      -0.553172       -15.0526
  71   2.0000      -0.551260       -15.0005
  72   2.0000      -0.549848       -14.9621
  73   2.0000      -0.548264       -14.9190
  74   2.0000      -0.548078       -14.9140
  75   2.0000      -0.548018       -14.9123
  76   2.0000      -0.544433       -14.8148
  77   2.0000      -0.543360       -14.7856
  78   2.0000      -0.541461       -14.7339
  79   2.0000      -0.541012       -14.7217
  80   2.0000      -0.539637       -14.6843
  81   2.0000      -0.536843       -14.6082
  82   2.0000      -0.535629       -14.5752
  83   2.0000      -0.533727       -14.5234
  84   2.0000      -0.532756       -14.4970
  85   2.0000      -0.526819       -14.3355
  86   2.0000      -0.523229       -14.2378
  87   2.0000      -0.519557       -14.1379
  88   2.0000      -0.518909       -14.1202
  89   2.0000      -0.515209       -14.0196
  90   2.0000      -0.507898       -13.8206
  91   2.0000      -0.504738       -13.7346
  92   2.0000      -0.503190       -13.6925
  93   2.0000      -0.502401       -13.6710
  94   2.0000      -0.500152       -13.6098
  95   2.0000      -0.498847       -13.5743
  96   2.0000      -0.494726       -13.4622
  97   2.0000      -0.494524       -13.4567
  98   2.0000      -0.491199       -13.3662
  99   2.0000      -0.481863       -13.1122
 100   2.0000      -0.481623       -13.1056
 101   2.0000      -0.480979       -13.0881
 102   2.0000      -0.475942       -12.9510
 103   2.0000      -0.473379       -12.8813
 104   2.0000      -0.470257       -12.7964
 105   2.0000      -0.469538       -12.7768
 106   2.0000      -0.466193       -12.6858
 107   2.0000      -0.462322       -12.5804
 108   2.0000      -0.460766       -12.5381
 109   2.0000      -0.460321       -12.5260
 110   2.0000      -0.457275       -12.4431
 111   2.0000      -0.454312       -12.3625
 112   2.0000      -0.453274       -12.3342
 113   2.0000      -0.452439       -12.3115
 114   2.0000      -0.450204       -12.2507
 115   2.0000      -0.448877       -12.2146
 116   2.0000      -0.445993       -12.1361
 117   2.0000      -0.444391       -12.0925
 118   2.0000      -0.443743       -12.0749
 119   2.0000      -0.437900       -11.9159
 120   2.0000      -0.437511       -11.9053
 121   2.0000      -0.435860       -11.8604
 122   2.0000      -0.433213       -11.7883
 123   2.0000      -0.432556       -11.7704
 124   2.0000      -0.431345       -11.7375
 125   2.0000      -0.431105       -11.7310
 126   2.0000      -0.427685       -11.6379
 127   2.0000      -0.423853       -11.5336
 128   2.0000      -0.422307       -11.4916
 129   2.0000      -0.420275       -11.4363
 130   2.0000      -0.415921       -11.3178
 131   2.0000      -0.410620       -11.1735
 132   2.0000      -0.410022       -11.1573
 133   2.0000      -0.408852       -11.1254
 134   2.0000      -0.405465       -11.0333
 135   2.0000      -0.402189       -10.9441
 136   2.0000      -0.385755       -10.4969
 137   2.0000      -0.352700        -9.5974
 138   2.0000      -0.338805        -9.2194
 139   2.0000      -0.257894        -7.0176
 140   2.0000      -0.239190        -6.5087
 141   2.0000      -0.232879        -6.3370
 142   2.0000      -0.222989        -6.0679
 143   1.2000      -0.269390        -7.3305
 144   1.2000      -0.273097        -7.4313
 145   1.2000      -0.276391        -7.5210
 146   1.2000      -0.274807        -7.4779
 147   1.2000      -0.277168        -7.5421
 148   0.0000      -0.056205        -1.5294
 149   0.0000      -0.021489        -0.5847
 150   0.0000      -0.007464        -0.2031
 151   0.0000      -0.000772        -0.0210
 152   0.0000       0.003614         0.0984

MULLIKEN ATOMIC CHARGES AND SPIN DENSITIES
------------------------------------------
   0 Au:    0.377877    0.006955
   1 Au:   -0.310821    0.009775
   2 Au:    0.409981    0.003284
   3 Au:    0.115050    0.004415
   4 Au:   -0.312883    0.009757
   5 Au:    0.435785    0.005847
   6 Au:    0.093300    0.007058
   7 Au:    0.117423    0.004409
   8 Au:    0.212875    0.008628
   9 Au:    0.212211    0.009144
  10 Au:    0.101194    0.006851
  11 Au:    0.216272    0.008940
  12 Au:    0.218292    0.006123
  13 Au:    0.375721    0.007033
  14 Fe:   -2.262277    2.901781
Sum of atomic charges       :    0.0000000

LOEWDIN ATOMIC CHARGES AND SPIN DENSITIES
-----------------------------------------
   0 Au:    0.044734    0.008911
   1 Au:   -0.062739    0.011106
   2 Au:    0.128539    0.004433
   3 Au:   -0.034823    0.005231
   4 Au:   -0.062161    0.011074
   5 Au:    0.058415    0.008544
   6 Au:    0.014600    0.009056
   7 Au:   -0.033499    0.005226
   8 Au:    0.029824    0.012386
   9 Au:    0.062074    0.010915
  10 Au:    0.014161    0.008860
  11 Au:    0.061127    0.010715
  12 Au:    0.012578    0.007988
  13 Au:    0.045830    0.008970
  14 Fe:   -0.278659    2.876585

  Mayer bond orders larger than 0.100000
B(  0-Au,  4-Au) :   0.2587 B(  0-Au,  5-Au) :   0.1813 B(  0-Au, 11-Au) :   0.1168
B(  0-Au, 12-Au) :   0.1566 B(  0-Au, 14-Fe) :   0.3825 B(  1-Au,  2-Au) :   0.2883
B(  1-Au,  3-Au) :   0.2532 B(  1-Au,  4-Au) :   0.1540 B(  1-Au,  5-Au) :   0.1278
B(  1-Au, 13-Au) :   0.2606 B(  1-Au, 14-Fe) :   0.4641 B(  2-Au,  3-Au) :   0.1758
B(  2-Au,  4-Au) :   0.2914 B(  2-Au,  7-Au) :   0.1763 B(  3-Au,  7-Au) :   0.1956
B(  3-Au,  8-Au) :   0.2783 B(  3-Au, 10-Au) :   0.3085 B(  3-Au, 14-Fe) :   0.1381
B(  4-Au,  5-Au) :   0.1324 B(  4-Au,  7-Au) :   0.2506 B(  4-Au, 14-Fe) :   0.4659
B(  5-Au, 12-Au) :   0.2036 B(  5-Au, 13-Au) :   0.1789 B(  5-Au, 14-Fe) :   0.3119
B(  6-Au,  7-Au) :   0.3082 B(  6-Au,  8-Au) :   0.2417 B(  6-Au, 11-Au) :   0.2705
B(  6-Au, 14-Fe) :   0.4387 B(  7-Au,  8-Au) :   0.2807 B(  7-Au, 14-Fe) :   0.1391
B(  8-Au, 10-Au) :   0.2460 B(  8-Au, 14-Fe) :   0.3020 B(  9-Au, 10-Au) :   0.2688
B(  9-Au, 11-Au) :   0.1265 B(  9-Au, 12-Au) :   0.1002 B(  9-Au, 13-Au) :   0.1110
B(  9-Au, 14-Fe) :   0.4438 B( 10-Au, 14-Fe) :   0.4327 B( 11-Au, 12-Au) :   0.1043
B( 11-Au, 14-Fe) :   0.4365 B( 12-Au, 13-Au) :   0.1587 B( 12-Au, 14-Fe) :   0.3956
B( 13-Au, 14-Fe) :   0.3842

FINAL SINGLE POINT ENERGY     -3156.775434507275

DIPOLE MOMENT
-------------
                                X             Y             Z
Electronic contribution:    -21.53235       2.45925     -12.85912
Nuclear contribution   :     21.63164      -2.46525      12.99218
                        -----------------------------------------
Total Dipole Moment    :      0.09929      -0.00600       0.13306
                        -----------------------------------------
Magnitude (a.u.)       :      0.16613
Magnitude (Debye)      :      0.42228

Rotational constants in cm-1:     0.001317     0.000964     0.000921
Rotational constants in MHz :    39.475956    28.890274    27.599067

                             ****ORCA TERMINATED NORMALLY****
TOTAL RUN TIME: 0 days 4 hours 40 minutes 30 seconds 749 msec
