                         Program Version 5.0.3 -  RELEASE  -
|  1> !RI-B2PLYP def2-TZVP def2-TZVP/C
|  2> !RIJCOSX VERYSLOWCONV
|  3>
|  4> %scf
|  5>   AutoTRAHIter 200
|  6>   maxiter 400
|  7> end
|  8>
|  9>
| 10> %pal nprocs 6 end
| 11>
| 12> *xyzfile 0 5 pbe.xyz
| 13>
| 14> $new_job
| 15>
| 16> !RI-B2PLYP def2-TZVP def2-TZVP/C
| 17> !RIJCOSX VERYSLOWCONV
| 18>
| 19> %scf
| 20>   AutoTRAHIter 200
| 21>   maxiter 400
| 22> end
| 23>
| 24>
| 25> %pal nprocs 6 end
| 26>
| 27> *xyzfile 0 3 pbe.xyz
| 28>
| 29>
| 30>
| 31>
| 32>
| 33>                          ****END OF INPUT****
 Total Charge           Charge          ....    0
 Multiplicity           Mult            ....    5
 Number of Electrons    NEL             ....  214
MP2 TOTAL ENERGY:    -2400.102699012 Eh
FINAL SINGLE POINT ENERGY     -2400.102699011672

CARTESIAN COORDINATES (ANGSTROEM)
---------------------------------
  Au     9.920557    7.617424   10.396405
  Au     7.943021    5.543909   10.667676
  Au    10.639938    5.088328   10.787685
  Au     8.082561    3.249881    8.866048
  Au     5.716120    6.925070   10.234563
  Au     9.065541    9.909993    9.425681
  Au     9.979221    7.960219    7.354652
  Au     9.522176    5.459340    8.107685
  Au     5.469950    7.538687    7.285982
  Au     6.665653    5.264661    7.861938
  Cr     7.743962    7.661372    8.717122

 Multiplicity           Mult            ....    3
 Number of Electrons    NEL             ....  214
 Basis Dimension        Dim             ....  445

ORBITAL ENERGIES
----------------
                 SPIN UP ORBITALS
  NO   OCC          E(Eh)            E(eV)
   0   1.0000    -217.733390     -5924.8268
   1   1.0000     -25.417811      -691.6538
   2   1.0000     -21.556915      -586.5935
   3   1.0000     -21.555719      -586.5609
   4   1.0000     -21.552878      -586.4836
   5   1.0000      -4.398853      -119.6989
   6   1.0000      -4.398625      -119.6927
   7   1.0000      -4.395319      -119.6027
   8   1.0000      -4.394928      -119.5921
   9   1.0000      -4.392288      -119.5202
  10   1.0000      -4.391662      -119.5032
  11   1.0000      -4.388750      -119.4240
  12   1.0000      -4.388258      -119.4106
  13   1.0000      -4.386135      -119.3528
  14   1.0000      -4.384158      -119.2990
  15   1.0000      -3.210412       -87.3598
  16   1.0000      -2.520989       -68.5996
  17   1.0000      -2.520153       -68.5768
  18   1.0000      -2.519042       -68.5466
  19   1.0000      -2.518937       -68.5438
  20   1.0000      -2.517117       -68.4942
  21   1.0000      -2.516323       -68.4726
  22   1.0000      -2.514091       -68.4119
  23   1.0000      -2.513414       -68.3935
  24   1.0000      -2.512716       -68.3745
  25   1.0000      -2.512315       -68.3636
  26   1.0000      -2.512090       -68.3574
  27   1.0000      -2.511281       -68.3354
  28   1.0000      -2.509201       -68.2788
  29   1.0000      -2.508835       -68.2689
  30   1.0000      -2.508445       -68.2583
  31   1.0000      -2.507979       -68.2456
  32   1.0000      -2.507689       -68.2377
  33   1.0000      -2.507641       -68.2364
  34   1.0000      -2.507339       -68.2282
  35   1.0000      -2.506514       -68.2057
  36   1.0000      -2.506073       -68.1937
  37   1.0000      -2.504883       -68.1613
  38   1.0000      -2.504454       -68.1497
  39   1.0000      -2.504269       -68.1446
  40   1.0000      -2.503888       -68.1343
  41   1.0000      -2.502303       -68.0911
  42   1.0000      -2.500938       -68.0540
  43   1.0000      -2.500272       -68.0359
  44   1.0000      -2.499183       -68.0062
  45   1.0000      -2.496885       -67.9437
  46   1.0000      -2.101411       -57.1823
  47   1.0000      -2.095783       -57.0291
  48   1.0000      -2.093018       -56.9539
  49   1.0000      -0.480253       -13.0683
  50   1.0000      -0.473190       -12.8761
  51   1.0000      -0.470874       -12.8131
  52   1.0000      -0.464389       -12.6367
  53   1.0000      -0.461418       -12.5558
  54   1.0000      -0.456157       -12.4127
  55   1.0000      -0.454423       -12.3655
  56   1.0000      -0.445804       -12.1310
  57   1.0000      -0.443796       -12.0763
  58   1.0000      -0.442535       -12.0420
  59   1.0000      -0.438464       -11.9312
  60   1.0000      -0.432777       -11.7765
  61   1.0000      -0.428370       -11.6565
  62   1.0000      -0.420560       -11.4440
  63   1.0000      -0.418486       -11.3876
  64   1.0000      -0.418081       -11.3766
  65   1.0000      -0.413246       -11.2450
  66   1.0000      -0.409847       -11.1525
  67   1.0000      -0.407825       -11.0975
  68   1.0000      -0.399791       -10.8789
  69   1.0000      -0.396517       -10.7898
  70   1.0000      -0.393659       -10.7120
  71   1.0000      -0.390970       -10.6388
  72   1.0000      -0.387637       -10.5481
  73   1.0000      -0.386312       -10.5121
  74   1.0000      -0.385963       -10.5026
  75   1.0000      -0.382371       -10.4048
  76   1.0000      -0.382034       -10.3957
  77   1.0000      -0.380575       -10.3560
  78   1.0000      -0.379079       -10.3153
  79   1.0000      -0.376788       -10.2529
  80   1.0000      -0.372425       -10.1342
  81   1.0000      -0.371872       -10.1192
  82   1.0000      -0.369879       -10.0649
  83   1.0000      -0.368559       -10.0290
  84   1.0000      -0.366809        -9.9814
  85   1.0000      -0.362605        -9.8670
  86   1.0000      -0.361125        -9.8267
  87   1.0000      -0.360212        -9.8019
  88   1.0000      -0.359503        -9.7826
  89   1.0000      -0.357532        -9.7289
  90   1.0000      -0.356216        -9.6931
  91   1.0000      -0.354298        -9.6409
  92   1.0000      -0.349626        -9.5138
  93   1.0000      -0.349331        -9.5058
  94   1.0000      -0.347212        -9.4481
  95   1.0000      -0.345714        -9.4074
  96   1.0000      -0.344277        -9.3682
  97   1.0000      -0.343005        -9.3336
  98   1.0000      -0.338307        -9.2058
  99   1.0000      -0.334449        -9.1008
 100   1.0000      -0.333513        -9.0754
 101   1.0000      -0.325335        -8.8528
 102   1.0000      -0.317615        -8.6427
 103   1.0000      -0.305309        -8.3079
 104   1.0000      -0.296191        -8.0598
 105   1.0000      -0.287392        -7.8203
 106   1.0000      -0.248487        -6.7617
 107   1.0000      -0.235732        -6.4146
 108   0.0000      -0.141381        -3.8472
 109   0.0000      -0.090940        -2.4746
 110   0.0000      -0.074864        -2.0372
 111   0.0000      -0.071222        -1.9380
 112   0.0000      -0.059351        -1.6150

                 SPIN DOWN ORBITALS
  NO   OCC          E(Eh)            E(eV)
   0   1.0000    -217.732154     -5924.7931
   1   1.0000     -25.346089      -689.7022
   2   1.0000     -21.495261      -584.9158
   3   1.0000     -21.491878      -584.8237
   4   1.0000     -21.480082      -584.5027
   5   1.0000      -4.400019      -119.7306
   6   1.0000      -4.399895      -119.7272
   7   1.0000      -4.396433      -119.6330
   8   1.0000      -4.395502      -119.6077
   9   1.0000      -4.394328      -119.5757
  10   1.0000      -4.392764      -119.5332
  11   1.0000      -4.390840      -119.4808
  12   1.0000      -4.389398      -119.4416
  13   1.0000      -4.386824      -119.3715
  14   1.0000      -4.384881      -119.3187
  15   1.0000      -2.988315       -81.3162
  16   1.0000      -2.522997       -68.6542
  17   1.0000      -2.522337       -68.6363
  18   1.0000      -2.520846       -68.5957
  19   1.0000      -2.519985       -68.5723
  20   1.0000      -2.516967       -68.4901
  21   1.0000      -2.516698       -68.4828
  22   1.0000      -2.515765       -68.4575
  23   1.0000      -2.514197       -68.4148
  24   1.0000      -2.513340       -68.3914
  25   1.0000      -2.513020       -68.3827
  26   1.0000      -2.512645       -68.3725
  27   1.0000      -2.512254       -68.3619
  28   1.0000      -2.510333       -68.3096
  29   1.0000      -2.509848       -68.2964
  30   1.0000      -2.509167       -68.2779
  31   1.0000      -2.508762       -68.2669
  32   1.0000      -2.508287       -68.2540
  33   1.0000      -2.508002       -68.2462
  34   1.0000      -2.507511       -68.2328
  35   1.0000      -2.506609       -68.2083
  36   1.0000      -2.506510       -68.2056
  37   1.0000      -2.506326       -68.2006
  38   1.0000      -2.505292       -68.1725
  39   1.0000      -2.505080       -68.1667
  40   1.0000      -2.504802       -68.1591
  41   1.0000      -2.502407       -68.0940
  42   1.0000      -2.501454       -68.0680
  43   1.0000      -2.501419       -68.0671
  44   1.0000      -2.499270       -68.0086
  45   1.0000      -2.496792       -67.9412
  46   1.0000      -1.855568       -50.4926
  47   1.0000      -1.847269       -50.2667
  48   1.0000      -1.820730       -49.5446
  49   1.0000      -0.482124       -13.1193
  50   1.0000      -0.477321       -12.9886
  51   1.0000      -0.467396       -12.7185
  52   1.0000      -0.464587       -12.6421
  53   1.0000      -0.461069       -12.5463
  54   1.0000      -0.456560       -12.4236
  55   1.0000      -0.454678       -12.3724
  56   1.0000      -0.446697       -12.1552
  57   1.0000      -0.443714       -12.0741
  58   1.0000      -0.439902       -11.9704
  59   1.0000      -0.436741       -11.8843
  60   1.0000      -0.426643       -11.6095
  61   1.0000      -0.425520       -11.5790
  62   1.0000      -0.421276       -11.4635
  63   1.0000      -0.418281       -11.3820
  64   1.0000      -0.416148       -11.3240
  65   1.0000      -0.413812       -11.2604
  66   1.0000      -0.405959       -11.0467
  67   1.0000      -0.401497       -10.9253
  68   1.0000      -0.399409       -10.8685
  69   1.0000      -0.393514       -10.7081
  70   1.0000      -0.391817       -10.6619
  71   1.0000      -0.390847       -10.6355
  72   1.0000      -0.390412       -10.6237
  73   1.0000      -0.388835       -10.5807
  74   1.0000      -0.386441       -10.5156
  75   1.0000      -0.384675       -10.4675
  76   1.0000      -0.383316       -10.4306
  77   1.0000      -0.381289       -10.3754
  78   1.0000      -0.380249       -10.3471
  79   1.0000      -0.377121       -10.2620
  80   1.0000      -0.374573       -10.1926
  81   1.0000      -0.372235       -10.1290
  82   1.0000      -0.371371       -10.1055
  83   1.0000      -0.369902       -10.0655
  84   1.0000      -0.366278        -9.9669
  85   1.0000      -0.364462        -9.9175
  86   1.0000      -0.363116        -9.8809
  87   1.0000      -0.361793        -9.8449
  88   1.0000      -0.358860        -9.7651
  89   1.0000      -0.358570        -9.7572
  90   1.0000      -0.356990        -9.7142
  91   1.0000      -0.354823        -9.6552
  92   1.0000      -0.350388        -9.5345
  93   1.0000      -0.349200        -9.5022
  94   1.0000      -0.347627        -9.4594
  95   1.0000      -0.345383        -9.3984
  96   1.0000      -0.343856        -9.3568
  97   1.0000      -0.338962        -9.2236
  98   1.0000      -0.331101        -9.0097
  99   1.0000      -0.327667        -8.9163
 100   1.0000      -0.314123        -8.5477
 101   1.0000      -0.308582        -8.3969
 102   1.0000      -0.263971        -7.1830
 103   1.0000      -0.243997        -6.6395
 104   1.0000      -0.221221        -6.0197
 105   1.0000      -0.167414        -4.5556
 106   0.0000      -0.081794        -2.2257
 107   0.0000      -0.079718        -2.1692
 108   0.0000      -0.075690        -2.0596
 109   0.0000      -0.036533        -0.9941
 110   0.0000      -0.033444        -0.9101

MULLIKEN ATOMIC CHARGES AND SPIN POPULATIONS
--------------------------------------------
   0 Au:   -0.065094   -0.191212
   1 Au:   -0.154556   -0.015739
   2 Au:    0.389163   -0.457607
   3 Au:    0.425175   -0.440881
   4 Au:    0.290237   -0.140793
   5 Au:    0.268568   -0.392833
   6 Au:    0.282711   -0.169909
   7 Au:   -0.147804   -0.040052
   8 Au:    0.240912   -0.314580
   9 Au:   -0.063194   -0.184927
  10 Cr:   -1.466120    4.348533
Sum of atomic charges         :   -0.0000000

LOEWDIN ATOMIC CHARGES AND SPIN POPULATIONS
-------------------------------------------
   0 Au:   -0.030590   -0.158472
   1 Au:   -0.084002   -0.122390
   2 Au:    0.117285   -0.333834
   3 Au:    0.142338   -0.326846
   4 Au:    0.105793   -0.129643
   5 Au:    0.145751   -0.270913
   6 Au:    0.110262   -0.167571
   7 Au:   -0.072878   -0.129022
   8 Au:    0.133655   -0.205262
   9 Au:   -0.041011   -0.138547
  10 Cr:   -0.526603    3.982500

  Mayer bond orders larger than 0.100000
B(  0-Au,  1-Au) :   0.2942 B(  0-Au,  2-Au) :   0.2999 B(  0-Au,  5-Au) :   0.3822
B(  0-Au,  7-Au) :   0.1069 B(  0-Au, 10-Cr) :   0.5252 B(  1-Au,  2-Au) :   0.2901
B(  1-Au,  3-Au) :   0.1345 B(  1-Au,  4-Au) :   0.5406 B(  1-Au,  7-Au) :   0.2120
B(  1-Au,  9-Au) :   0.1149 B(  1-Au, 10-Cr) :   0.3893 B(  2-Au,  7-Au) :   0.1304
B(  3-Au,  7-Au) :   0.2812 B(  3-Au,  9-Au) :   0.3062 B(  4-Au, 10-Cr) :   0.5942
B(  5-Au, 10-Cr) :   0.4626 B(  6-Au,  7-Au) :   0.5128 B(  6-Au, 10-Cr) :   0.5828
B(  7-Au,  9-Au) :   0.3162 B(  7-Au, 10-Cr) :   0.3569 B(  8-Au,  9-Au) :   0.4268
B(  8-Au, 10-Cr) :   0.5346 B(  9-Au, 10-Cr) :   0.4814

MP2 TOTAL ENERGY:    -2400.060165967 Eh
FINAL SINGLE POINT ENERGY     -2400.060165967468

DIPOLE MOMENT
-------------
                                X             Y             Z
Electronic contribution:     19.42716     -41.96715      13.27743
Nuclear contribution   :    -19.45101      42.13846     -13.34138
                        -----------------------------------------
Total Dipole Moment    :     -0.02385       0.17131      -0.06395
                        -----------------------------------------
Magnitude (a.u.)       :      0.18441
Magnitude (Debye)      :      0.46872

Rotational constants in cm-1:     0.001807     0.001781     0.001299
Rotational constants in MHz :    54.183364    53.402942    38.946438

                             ****ORCA TERMINATED NORMALLY****
TOTAL RUN TIME: 0 days 0 hours 20 minutes 58 seconds 49 msec
