                         Program Version 5.0.3 -  RELEASE  -
|  1> !PBE def2-TZVP VERYSLOWCONV
|  2>
|  3> %scf
|  4>   AutoTRAHIter 200
|  5>   maxiter 400
|  6> end
|  7>
|  8>
|  9> %pal nprocs 6 end
| 10>
| 11> *xyzfile 0 5 pbe.xyz
| 12>
| 13> $new_job
| 14>
| 15> !PBE def2-TZVP VERYSLOWCONV
| 16>
| 17> %scf
| 18>   AutoTRAHIter 200
| 19>   maxiter 400
| 20> end
| 21>
| 22>
| 23> %pal nprocs 6 end
| 24>
| 25> *xyzfile 0 3 pbe.xyz
| 26>
| 27>
| 28>
| 29>
| 30>
| 31>                          ****END OF INPUT****
 Total Charge           Charge          ....    0
 Multiplicity           Mult            ....    5
 Number of Electrons    NEL             ....  214
FINAL SINGLE POINT ENERGY     -2402.472993643665

CARTESIAN COORDINATES (ANGSTROEM)
---------------------------------
  Au     9.920557    7.617424   10.396405
  Au     7.943021    5.543909   10.667676
  Au    10.639938    5.088328   10.787685
  Au     8.082561    3.249881    8.866048
  Au     5.716120    6.925070   10.234563
  Au     9.065541    9.909993    9.425681
  Au     9.979221    7.960219    7.354652
  Au     9.522176    5.459340    8.107685
  Au     5.469950    7.538687    7.285982
  Au     6.665653    5.264661    7.861938
  Cr     7.743962    7.661372    8.717122

 Multiplicity           Mult            ....    3
 Number of Electrons    NEL             ....  214
 Basis Dimension        Dim             ....  445

ORBITAL ENERGIES
----------------
                 SPIN UP ORBITALS
  NO   OCC          E(Eh)            E(eV)
   0   1.0000    -214.504195     -5836.9559
   1   1.0000     -24.306387      -661.4104
   2   1.0000     -20.671484      -562.4997
   3   1.0000     -20.670598      -562.4756
   4   1.0000     -20.666901      -562.3750
   5   1.0000      -4.029630      -109.6518
   6   1.0000      -4.029154      -109.6389
   7   1.0000      -4.027918      -109.6052
   8   1.0000      -4.026805      -109.5749
   9   1.0000      -4.019406      -109.3736
  10   1.0000      -4.018800      -109.3571
  11   1.0000      -4.018540      -109.3500
  12   1.0000      -4.018072      -109.3373
  13   1.0000      -4.015149      -109.2578
  14   1.0000      -4.014755      -109.2470
  15   1.0000      -2.808252       -76.4164
  16   1.0000      -2.248669       -61.1894
  17   1.0000      -2.248345       -61.1806
  18   1.0000      -2.245340       -61.0988
  19   1.0000      -2.244624       -61.0793
  20   1.0000      -2.243630       -61.0523
  21   1.0000      -2.243369       -61.0452
  22   1.0000      -2.240247       -60.9602
  23   1.0000      -2.239234       -60.9327
  24   1.0000      -2.237689       -60.8906
  25   1.0000      -2.237548       -60.8868
  26   1.0000      -2.237083       -60.8741
  27   1.0000      -2.236140       -60.8485
  28   1.0000      -2.236049       -60.8460
  29   1.0000      -2.235882       -60.8414
  30   1.0000      -2.235468       -60.8302
  31   1.0000      -2.235012       -60.8178
  32   1.0000      -2.231948       -60.7344
  33   1.0000      -2.231869       -60.7322
  34   1.0000      -2.231491       -60.7220
  35   1.0000      -2.231210       -60.7143
  36   1.0000      -2.231065       -60.7104
  37   1.0000      -2.230771       -60.7024
  38   1.0000      -2.227343       -60.6091
  39   1.0000      -2.227038       -60.6008
  40   1.0000      -2.226149       -60.5766
  41   1.0000      -2.225490       -60.5587
  42   1.0000      -2.225483       -60.5585
  43   1.0000      -2.224956       -60.5441
  44   1.0000      -2.224792       -60.5397
  45   1.0000      -2.224327       -60.5270
  46   1.0000      -1.799957       -48.9793
  47   1.0000      -1.799718       -48.9728
  48   1.0000      -1.792699       -48.7818
  49   1.0000      -0.410842       -11.1796
  50   1.0000      -0.381977       -10.3941
  51   1.0000      -0.377789       -10.2802
  52   1.0000      -0.368561       -10.0290
  53   1.0000      -0.367132        -9.9902
  54   1.0000      -0.355245        -9.6667
  55   1.0000      -0.352611        -9.5950
  56   1.0000      -0.341653        -9.2968
  57   1.0000      -0.340741        -9.2720
  58   1.0000      -0.337459        -9.1827
  59   1.0000      -0.336204        -9.1486
  60   1.0000      -0.331214        -9.0128
  61   1.0000      -0.325283        -8.8514
  62   1.0000      -0.321252        -8.7417
  63   1.0000      -0.320721        -8.7272
  64   1.0000      -0.317392        -8.6367
  65   1.0000      -0.314689        -8.5631
  66   1.0000      -0.313896        -8.5416
  67   1.0000      -0.306199        -8.3321
  68   1.0000      -0.302629        -8.2349
  69   1.0000      -0.297268        -8.0891
  70   1.0000      -0.293359        -7.9827
  71   1.0000      -0.291646        -7.9361
  72   1.0000      -0.289534        -7.8786
  73   1.0000      -0.288444        -7.8490
  74   1.0000      -0.287283        -7.8174
  75   1.0000      -0.285903        -7.7798
  76   1.0000      -0.285305        -7.7636
  77   1.0000      -0.283623        -7.7178
  78   1.0000      -0.279933        -7.6174
  79   1.0000      -0.278904        -7.5894
  80   1.0000      -0.276916        -7.5353
  81   1.0000      -0.276535        -7.5249
  82   1.0000      -0.274058        -7.4575
  83   1.0000      -0.273703        -7.4478
  84   1.0000      -0.272685        -7.4201
  85   1.0000      -0.269485        -7.3331
  86   1.0000      -0.269347        -7.3293
  87   1.0000      -0.268880        -7.3166
  88   1.0000      -0.266320        -7.2469
  89   1.0000      -0.265718        -7.2305
  90   1.0000      -0.261251        -7.1090
  91   1.0000      -0.258780        -7.0418
  92   1.0000      -0.257427        -7.0049
  93   1.0000      -0.256645        -6.9837
  94   1.0000      -0.253822        -6.9069
  95   1.0000      -0.251718        -6.8496
  96   1.0000      -0.250838        -6.8257
  97   1.0000      -0.248398        -6.7593
  98   1.0000      -0.246144        -6.6979
  99   1.0000      -0.245351        -6.6763
 100   1.0000      -0.237437        -6.4610
 101   1.0000      -0.235634        -6.4119
 102   1.0000      -0.224732        -6.1153
 103   1.0000      -0.219929        -5.9846
 104   1.0000      -0.217862        -5.9283
 105   1.0000      -0.214250        -5.8300
 106   1.0000      -0.210425        -5.7260
 107   1.0000      -0.208823        -5.6824
 108   0.0000      -0.190138        -5.1739
 109   0.0000      -0.170818        -4.6482
 110   0.0000      -0.149602        -4.0709
 111   0.0000      -0.139424        -3.7939
 112   0.0000      -0.134122        -3.6496

                 SPIN DOWN ORBITALS
  NO   OCC          E(Eh)            E(eV)
   0   1.0000    -214.503778     -5836.9445
   1   1.0000     -24.260410      -660.1593
   2   1.0000     -20.639268      -561.6230
   3   1.0000     -20.634024      -561.4803
   4   1.0000     -20.630339      -561.3801
   5   1.0000      -4.030807      -109.6838
   6   1.0000      -4.030256      -109.6689
   7   1.0000      -4.028337      -109.6166
   8   1.0000      -4.027209      -109.5859
   9   1.0000      -4.019904      -109.3872
  10   1.0000      -4.019270      -109.3699
  11   1.0000      -4.018489      -109.3486
  12   1.0000      -4.018033      -109.3362
  13   1.0000      -4.015998      -109.2809
  14   1.0000      -4.015583      -109.2696
  15   1.0000      -2.684101       -73.0381
  16   1.0000      -2.250449       -61.2378
  17   1.0000      -2.250017       -61.2261
  18   1.0000      -2.246209       -61.1225
  19   1.0000      -2.245557       -61.1047
  20   1.0000      -2.244828       -61.0849
  21   1.0000      -2.244537       -61.0770
  22   1.0000      -2.240424       -60.9650
  23   1.0000      -2.239365       -60.9362
  24   1.0000      -2.238169       -60.9037
  25   1.0000      -2.238102       -60.9019
  26   1.0000      -2.237643       -60.8894
  27   1.0000      -2.236499       -60.8582
  28   1.0000      -2.236364       -60.8546
  29   1.0000      -2.235812       -60.8395
  30   1.0000      -2.235434       -60.8293
  31   1.0000      -2.235287       -60.8253
  32   1.0000      -2.232814       -60.7580
  33   1.0000      -2.232738       -60.7559
  34   1.0000      -2.232125       -60.7392
  35   1.0000      -2.232078       -60.7379
  36   1.0000      -2.231893       -60.7329
  37   1.0000      -2.231374       -60.7188
  38   1.0000      -2.228201       -60.6324
  39   1.0000      -2.227878       -60.6237
  40   1.0000      -2.226343       -60.5819
  41   1.0000      -2.225557       -60.5605
  42   1.0000      -2.225501       -60.5590
  43   1.0000      -2.225359       -60.5551
  44   1.0000      -2.225070       -60.5472
  45   1.0000      -2.224964       -60.5444
  46   1.0000      -1.686651       -45.8961
  47   1.0000      -1.672867       -45.5210
  48   1.0000      -1.665791       -45.3285
  49   1.0000      -0.408924       -11.1274
  50   1.0000      -0.384296       -10.4572
  51   1.0000      -0.373853       -10.1731
  52   1.0000      -0.368352       -10.0234
  53   1.0000      -0.367308        -9.9950
  54   1.0000      -0.355861        -9.6835
  55   1.0000      -0.352494        -9.5918
  56   1.0000      -0.342538        -9.3209
  57   1.0000      -0.341037        -9.2801
  58   1.0000      -0.337068        -9.1721
  59   1.0000      -0.335409        -9.1269
  60   1.0000      -0.329449        -8.9648
  61   1.0000      -0.325313        -8.8522
  62   1.0000      -0.319598        -8.6967
  63   1.0000      -0.319132        -8.6840
  64   1.0000      -0.316137        -8.6025
  65   1.0000      -0.314966        -8.5707
  66   1.0000      -0.310599        -8.4518
  67   1.0000      -0.305026        -8.3002
  68   1.0000      -0.302593        -8.2340
  69   1.0000      -0.296122        -8.0579
  70   1.0000      -0.294261        -8.0072
  71   1.0000      -0.293155        -7.9771
  72   1.0000      -0.290348        -7.9008
  73   1.0000      -0.289457        -7.8765
  74   1.0000      -0.288229        -7.8431
  75   1.0000      -0.287257        -7.8167
  76   1.0000      -0.285883        -7.7793
  77   1.0000      -0.284005        -7.7282
  78   1.0000      -0.280923        -7.6443
  79   1.0000      -0.280705        -7.6384
  80   1.0000      -0.278059        -7.5664
  81   1.0000      -0.276752        -7.5308
  82   1.0000      -0.275540        -7.4978
  83   1.0000      -0.275001        -7.4832
  84   1.0000      -0.273903        -7.4533
  85   1.0000      -0.270794        -7.3687
  86   1.0000      -0.270762        -7.3678
  87   1.0000      -0.270312        -7.3556
  88   1.0000      -0.267413        -7.2767
  89   1.0000      -0.266824        -7.2606
  90   1.0000      -0.262187        -7.1345
  91   1.0000      -0.260437        -7.0869
  92   1.0000      -0.258865        -7.0441
  93   1.0000      -0.257941        -7.0189
  94   1.0000      -0.255245        -6.9456
  95   1.0000      -0.253511        -6.8984
  96   1.0000      -0.252376        -6.8675
  97   1.0000      -0.249018        -6.7761
  98   1.0000      -0.248199        -6.7538
  99   1.0000      -0.246449        -6.7062
 100   1.0000      -0.238655        -6.4941
 101   1.0000      -0.237430        -6.4608
 102   1.0000      -0.222660        -6.0589
 103   1.0000      -0.212073        -5.7708
 104   1.0000      -0.199633        -5.4323
 105   1.0000      -0.161731        -4.4009
 106   0.0000      -0.148627        -4.0443
 107   0.0000      -0.145777        -3.9668
 108   0.0000      -0.144746        -3.9387
 109   0.0000      -0.117974        -3.2102
 110   0.0000      -0.114833        -3.1248

MULLIKEN ATOMIC CHARGES AND SPIN POPULATIONS
--------------------------------------------
   0 Au:   -0.026723   -0.129974
   1 Au:   -0.138188   -0.049237
   2 Au:    0.398014   -0.286070
   3 Au:    0.409800   -0.284383
   4 Au:    0.346521   -0.088689
   5 Au:    0.273891   -0.210752
   6 Au:    0.344233   -0.082906
   7 Au:   -0.141362   -0.052608
   8 Au:    0.267524   -0.211373
   9 Au:   -0.035176   -0.129002
  10 Cr:   -1.698535    3.524995
Sum of atomic charges         :    0.0000000

LOEWDIN ATOMIC CHARGES AND SPIN POPULATIONS
-------------------------------------------
   0 Au:   -0.007808   -0.120669
   1 Au:   -0.065274   -0.082765
   2 Au:    0.107388   -0.233791
   3 Au:    0.110286   -0.233286
   4 Au:    0.136120   -0.086786
   5 Au:    0.139241   -0.160101
   6 Au:    0.133065   -0.084229
   7 Au:   -0.060411   -0.083419
   8 Au:    0.139650   -0.160220
   9 Au:   -0.013011   -0.123154
  10 Cr:   -0.619244    3.368420

  Mayer bond orders larger than 0.100000
B(  0-Au,  1-Au) :   0.2975 B(  0-Au,  2-Au) :   0.4036 B(  0-Au,  5-Au) :   0.4673
B(  0-Au,  7-Au) :   0.1333 B(  0-Au, 10-Cr) :   0.6687 B(  1-Au,  2-Au) :   0.3489
B(  1-Au,  3-Au) :   0.1896 B(  1-Au,  4-Au) :   0.5233 B(  1-Au,  7-Au) :   0.2183
B(  1-Au,  9-Au) :   0.1477 B(  1-Au, 10-Cr) :   0.4387 B(  2-Au,  7-Au) :   0.1870
B(  2-Au, 10-Cr) :   0.1173 B(  3-Au,  7-Au) :   0.3427 B(  3-Au,  9-Au) :   0.4062
B(  3-Au, 10-Cr) :   0.1080 B(  4-Au,  8-Au) :   0.1065 B(  4-Au, 10-Cr) :   0.7201
B(  5-Au,  6-Au) :   0.1194 B(  5-Au, 10-Cr) :   0.6595 B(  6-Au,  7-Au) :   0.5213
B(  6-Au, 10-Cr) :   0.7188 B(  7-Au,  9-Au) :   0.3070 B(  7-Au, 10-Cr) :   0.4415
B(  8-Au,  9-Au) :   0.4772 B(  8-Au, 10-Cr) :   0.6680 B(  9-Au, 10-Cr) :   0.6547

FINAL SINGLE POINT ENERGY     -2402.446233587014

DIPOLE MOMENT
-------------
                                X             Y             Z
Electronic contribution:     19.39628     -42.00957      13.30094
Nuclear contribution   :    -19.45101      42.13846     -13.34138
                        -----------------------------------------
Total Dipole Moment    :     -0.05473       0.12889      -0.04044
                        -----------------------------------------
Magnitude (a.u.)       :      0.14575
Magnitude (Debye)      :      0.37046

Rotational constants in cm-1:     0.001807     0.001781     0.001299
Rotational constants in MHz :    54.183364    53.402942    38.946438

                             ****ORCA TERMINATED NORMALLY****
TOTAL RUN TIME: 0 days 0 hours 16 minutes 6 seconds 390 msec
