                         Program Version 5.0.3 -  RELEASE  -
|  1> !R2SCAN def2-TZVP VERYSLOWCONV
|  2> !KDIIS
|  3> %scf
|  4>   AutoTRAHIter 200
|  5>   maxiter 400
|  6> end
|  7>
|  8> %pal nprocs 6 end
|  9>
| 10> *xyzfile 0 5 pbe.xyz
| 11>
| 12> $new_job
| 13>
| 14> !R2SCAN def2-TZVP VERYSLOWCONV
| 15> !KDIIS
| 16> %scf
| 17>   AutoTRAHIter 200
| 18>   maxiter 400
| 19> end
| 20>
| 21>
| 22> %pal nprocs 6 end
| 23>
| 24> *xyzfile 0 3 pbe.xyz
| 25>
| 26>
| 27>
| 28>
| 29>
| 30>                          ****END OF INPUT****
 Total Charge           Charge          ....    0
 Multiplicity           Mult            ....    5
 Number of Electrons    NEL             ....  214
FINAL SINGLE POINT ENERGY     -2402.866811606657

CARTESIAN COORDINATES (ANGSTROEM)
---------------------------------
  Au     9.920557    7.617424   10.396405
  Au     7.943021    5.543909   10.667676
  Au    10.639938    5.088328   10.787685
  Au     8.082561    3.249881    8.866048
  Au     5.716120    6.925070   10.234563
  Au     9.065541    9.909993    9.425681
  Au     9.979221    7.960219    7.354652
  Au     9.522176    5.459340    8.107685
  Au     5.469950    7.538687    7.285982
  Au     6.665653    5.264661    7.861938
  Cr     7.743962    7.661372    8.717122

 Multiplicity           Mult            ....    3
 Number of Electrons    NEL             ....  214
 Basis Dimension        Dim             ....  445

ORBITAL ENERGIES
----------------
                 SPIN UP ORBITALS
  NO   OCC          E(Eh)            E(eV)
   0   1.0000    -215.303658     -5858.7104
   1   1.0000     -24.606844      -669.5863
   2   1.0000     -20.874160      -568.0148
   3   1.0000     -20.873756      -568.0038
   4   1.0000     -20.870619      -567.9184
   5   1.0000      -4.119935      -112.1091
   6   1.0000      -4.119407      -112.0948
   7   1.0000      -4.118303      -112.0647
   8   1.0000      -4.117206      -112.0349
   9   1.0000      -4.109649      -111.8292
  10   1.0000      -4.109210      -111.8173
  11   1.0000      -4.109032      -111.8125
  12   1.0000      -4.108684      -111.8030
  13   1.0000      -4.105613      -111.7194
  14   1.0000      -4.105122      -111.7061
  15   1.0000      -2.924574       -79.5817
  16   1.0000      -2.311393       -62.8962
  17   1.0000      -2.311020       -62.8861
  18   1.0000      -2.308466       -62.8166
  19   1.0000      -2.307793       -62.7982
  20   1.0000      -2.306704       -62.7686
  21   1.0000      -2.306403       -62.7604
  22   1.0000      -2.303532       -62.6823
  23   1.0000      -2.302565       -62.6560
  24   1.0000      -2.301042       -62.6145
  25   1.0000      -2.300227       -62.5924
  26   1.0000      -2.299751       -62.5794
  27   1.0000      -2.299526       -62.5733
  28   1.0000      -2.299278       -62.5665
  29   1.0000      -2.299202       -62.5645
  30   1.0000      -2.298727       -62.5515
  31   1.0000      -2.298393       -62.5424
  32   1.0000      -2.295157       -62.4544
  33   1.0000      -2.294757       -62.4435
  34   1.0000      -2.294580       -62.4387
  35   1.0000      -2.294370       -62.4330
  36   1.0000      -2.293890       -62.4199
  37   1.0000      -2.293793       -62.4173
  38   1.0000      -2.290629       -62.3312
  39   1.0000      -2.290222       -62.3201
  40   1.0000      -2.289722       -62.3065
  41   1.0000      -2.289133       -62.2905
  42   1.0000      -2.289109       -62.2898
  43   1.0000      -2.288477       -62.2726
  44   1.0000      -2.288247       -62.2664
  45   1.0000      -2.287693       -62.2513
  46   1.0000      -1.872943       -50.9654
  47   1.0000      -1.871655       -50.9303
  48   1.0000      -1.868490       -50.8442
  49   1.0000      -0.415200       -11.2982
  50   1.0000      -0.388196       -10.5634
  51   1.0000      -0.385589       -10.4924
  52   1.0000      -0.376145       -10.2354
  53   1.0000      -0.375252       -10.2111
  54   1.0000      -0.363820        -9.9001
  55   1.0000      -0.361545        -9.8382
  56   1.0000      -0.350258        -9.5310
  57   1.0000      -0.349195        -9.5021
  58   1.0000      -0.346960        -9.4413
  59   1.0000      -0.345125        -9.3913
  60   1.0000      -0.340031        -9.2527
  61   1.0000      -0.334304        -9.0969
  62   1.0000      -0.329903        -8.9771
  63   1.0000      -0.328998        -8.9525
  64   1.0000      -0.326055        -8.8724
  65   1.0000      -0.322978        -8.7887
  66   1.0000      -0.322231        -8.7683
  67   1.0000      -0.313969        -8.5435
  68   1.0000      -0.310747        -8.4559
  69   1.0000      -0.304985        -8.2991
  70   1.0000      -0.301660        -8.2086
  71   1.0000      -0.299463        -8.1488
  72   1.0000      -0.298124        -8.1124
  73   1.0000      -0.296572        -8.0701
  74   1.0000      -0.295334        -8.0364
  75   1.0000      -0.292789        -7.9672
  76   1.0000      -0.292436        -7.9576
  77   1.0000      -0.291396        -7.9293
  78   1.0000      -0.288227        -7.8431
  79   1.0000      -0.286485        -7.7957
  80   1.0000      -0.284436        -7.7399
  81   1.0000      -0.284050        -7.7294
  82   1.0000      -0.282088        -7.6760
  83   1.0000      -0.281502        -7.6601
  84   1.0000      -0.279930        -7.6173
  85   1.0000      -0.277681        -7.5561
  86   1.0000      -0.276890        -7.5346
  87   1.0000      -0.276279        -7.5179
  88   1.0000      -0.274066        -7.4577
  89   1.0000      -0.273227        -7.4349
  90   1.0000      -0.269305        -7.3282
  91   1.0000      -0.266143        -7.2421
  92   1.0000      -0.264569        -7.1993
  93   1.0000      -0.263854        -7.1798
  94   1.0000      -0.261577        -7.1179
  95   1.0000      -0.259214        -7.0536
  96   1.0000      -0.258190        -7.0257
  97   1.0000      -0.256194        -6.9714
  98   1.0000      -0.252598        -6.8735
  99   1.0000      -0.252106        -6.8601
 100   1.0000      -0.243394        -6.6231
 101   1.0000      -0.241463        -6.5705
 102   1.0000      -0.235444        -6.4068
 103   1.0000      -0.234219        -6.3734
 104   1.0000      -0.232880        -6.3370
 105   1.0000      -0.218700        -5.9511
 106   1.0000      -0.215120        -5.8537
 107   1.0000      -0.213549        -5.8110
 108   0.0000      -0.188264        -5.1229
 109   0.0000      -0.168598        -4.5878
 110   0.0000      -0.144266        -3.9257
 111   0.0000      -0.135473        -3.6864
 112   0.0000      -0.128073        -3.4850

                 SPIN DOWN ORBITALS
  NO   OCC          E(Eh)            E(eV)
   0   1.0000    -215.303104     -5858.6953
   1   1.0000     -24.544875      -667.9000
   2   1.0000     -20.829717      -566.8054
   3   1.0000     -20.824835      -566.6726
   4   1.0000     -20.820981      -566.5677
   5   1.0000      -4.121601      -112.1545
   6   1.0000      -4.121000      -112.1381
   7   1.0000      -4.118839      -112.0793
   8   1.0000      -4.117717      -112.0488
   9   1.0000      -4.110580      -111.8546
  10   1.0000      -4.109929      -111.8369
  11   1.0000      -4.109335      -111.8207
  12   1.0000      -4.108825      -111.8068
  13   1.0000      -4.106824      -111.7524
  14   1.0000      -4.106315      -111.7385
  15   1.0000      -2.763556       -75.2002
  16   1.0000      -2.313888       -62.9641
  17   1.0000      -2.313392       -62.9506
  18   1.0000      -2.309530       -62.8455
  19   1.0000      -2.308936       -62.8294
  20   1.0000      -2.308190       -62.8090
  21   1.0000      -2.307861       -62.8001
  22   1.0000      -2.303755       -62.6884
  23   1.0000      -2.302726       -62.6604
  24   1.0000      -2.301647       -62.6310
  25   1.0000      -2.301324       -62.6222
  26   1.0000      -2.300803       -62.6080
  27   1.0000      -2.300037       -62.5872
  28   1.0000      -2.299986       -62.5858
  29   1.0000      -2.299358       -62.5687
  30   1.0000      -2.298920       -62.5568
  31   1.0000      -2.298630       -62.5489
  32   1.0000      -2.296284       -62.4851
  33   1.0000      -2.295976       -62.4767
  34   1.0000      -2.295381       -62.4605
  35   1.0000      -2.295256       -62.4571
  36   1.0000      -2.295071       -62.4520
  37   1.0000      -2.294597       -62.4392
  38   1.0000      -2.291574       -62.3569
  39   1.0000      -2.291151       -62.3454
  40   1.0000      -2.289914       -62.3117
  41   1.0000      -2.289124       -62.2902
  42   1.0000      -2.289084       -62.2892
  43   1.0000      -2.289072       -62.2888
  44   1.0000      -2.288571       -62.2752
  45   1.0000      -2.288531       -62.2741
  46   1.0000      -1.720703       -46.8227
  47   1.0000      -1.708467       -46.4898
  48   1.0000      -1.700342       -46.2686
  49   1.0000      -0.413770       -11.2592
  50   1.0000      -0.391710       -10.6590
  51   1.0000      -0.381147       -10.3715
  52   1.0000      -0.376650       -10.2492
  53   1.0000      -0.375702       -10.2234
  54   1.0000      -0.364684        -9.9235
  55   1.0000      -0.361520        -9.8375
  56   1.0000      -0.351493        -9.5646
  57   1.0000      -0.349934        -9.5222
  58   1.0000      -0.346309        -9.4236
  59   1.0000      -0.344493        -9.3741
  60   1.0000      -0.338289        -9.2053
  61   1.0000      -0.334441        -9.1006
  62   1.0000      -0.328444        -8.9374
  63   1.0000      -0.327891        -8.9224
  64   1.0000      -0.325039        -8.8448
  65   1.0000      -0.323986        -8.8161
  66   1.0000      -0.318804        -8.6751
  67   1.0000      -0.313781        -8.5384
  68   1.0000      -0.310758        -8.4562
  69   1.0000      -0.304512        -8.2862
  70   1.0000      -0.302647        -8.2354
  71   1.0000      -0.301291        -8.1986
  72   1.0000      -0.298896        -8.1334
  73   1.0000      -0.297987        -8.1087
  74   1.0000      -0.296789        -8.0760
  75   1.0000      -0.295691        -8.0461
  76   1.0000      -0.293646        -7.9905
  77   1.0000      -0.292338        -7.9549
  78   1.0000      -0.289522        -7.8783
  79   1.0000      -0.288951        -7.8628
  80   1.0000      -0.285959        -7.7813
  81   1.0000      -0.285295        -7.7633
  82   1.0000      -0.283997        -7.7279
  83   1.0000      -0.283570        -7.7163
  84   1.0000      -0.281754        -7.6669
  85   1.0000      -0.279572        -7.6075
  86   1.0000      -0.279068        -7.5938
  87   1.0000      -0.278839        -7.5876
  88   1.0000      -0.275384        -7.4936
  89   1.0000      -0.274767        -7.4768
  90   1.0000      -0.270409        -7.3582
  91   1.0000      -0.268508        -7.3065
  92   1.0000      -0.266293        -7.2462
  93   1.0000      -0.265747        -7.2313
  94   1.0000      -0.263215        -7.1624
  95   1.0000      -0.261383        -7.1126
  96   1.0000      -0.260176        -7.0797
  97   1.0000      -0.256463        -6.9787
  98   1.0000      -0.255735        -6.9589
  99   1.0000      -0.253502        -6.8981
 100   1.0000      -0.245345        -6.6762
 101   1.0000      -0.243975        -6.6389
 102   1.0000      -0.227075        -6.1790
 103   1.0000      -0.215355        -5.8601
 104   1.0000      -0.202134        -5.5003
 105   1.0000      -0.160609        -4.3704
 106   0.0000      -0.144458        -3.9309
 107   0.0000      -0.141012        -3.8371
 108   0.0000      -0.139185        -3.7874
 109   0.0000      -0.102718        -2.7951
 110   0.0000      -0.097486        -2.6527

MULLIKEN ATOMIC CHARGES AND SPIN POPULATIONS
--------------------------------------------
   0 Au:   -0.051646   -0.145500
   1 Au:   -0.111841   -0.023925
   2 Au:    0.357903   -0.332231
   3 Au:    0.370295   -0.329802
   4 Au:    0.318161   -0.124365
   5 Au:    0.247292   -0.258479
   6 Au:    0.317382   -0.116660
   7 Au:   -0.116034   -0.028208
   8 Au:    0.240998   -0.259100
   9 Au:   -0.059995   -0.143074
  10 Cr:   -1.512516    3.761343
Sum of atomic charges         :   -0.0000000

LOEWDIN ATOMIC CHARGES AND SPIN POPULATIONS
-------------------------------------------
   0 Au:   -0.012334   -0.137060
   1 Au:   -0.066140   -0.086122
   2 Au:    0.103323   -0.252303
   3 Au:    0.106675   -0.251154
   4 Au:    0.129571   -0.106601
   5 Au:    0.130169   -0.184161
   6 Au:    0.126858   -0.103682
   7 Au:   -0.061490   -0.086876
   8 Au:    0.130291   -0.184014
   9 Au:   -0.017074   -0.138657
  10 Cr:   -0.569850    3.530629

  Mayer bond orders larger than 0.100000
B(  0-Au,  1-Au) :   0.2812 B(  0-Au,  2-Au) :   0.3856 B(  0-Au,  5-Au) :   0.4442
B(  0-Au,  7-Au) :   0.1105 B(  0-Au, 10-Cr) :   0.6520 B(  1-Au,  2-Au) :   0.3383
B(  1-Au,  3-Au) :   0.1723 B(  1-Au,  4-Au) :   0.5333 B(  1-Au,  7-Au) :   0.1778
B(  1-Au,  9-Au) :   0.1238 B(  1-Au, 10-Cr) :   0.4087 B(  2-Au,  7-Au) :   0.1689
B(  2-Au, 10-Cr) :   0.1072 B(  3-Au,  7-Au) :   0.3318 B(  3-Au,  9-Au) :   0.3888
B(  4-Au, 10-Cr) :   0.6958 B(  5-Au,  6-Au) :   0.1011 B(  5-Au, 10-Cr) :   0.6493
B(  6-Au,  7-Au) :   0.5321 B(  6-Au, 10-Cr) :   0.6948 B(  7-Au,  9-Au) :   0.2906
B(  7-Au, 10-Cr) :   0.4114 B(  8-Au,  9-Au) :   0.4541 B(  8-Au, 10-Cr) :   0.6568
B(  9-Au, 10-Cr) :   0.6396

FINAL SINGLE POINT ENERGY     -2402.835663503819

DIPOLE MOMENT
-------------
                                X             Y             Z
Electronic contribution:     19.38674     -41.99105      13.29316
Nuclear contribution   :    -19.45101      42.13846     -13.34138
                        -----------------------------------------
Total Dipole Moment    :     -0.06427       0.14741      -0.04822
                        -----------------------------------------
Magnitude (a.u.)       :      0.16789
Magnitude (Debye)      :      0.42673

Rotational constants in cm-1:     0.001807     0.001781     0.001299
Rotational constants in MHz :    54.183364    53.402942    38.946438

                             ****ORCA TERMINATED NORMALLY****
TOTAL RUN TIME: 0 days 0 hours 4 minutes 36 seconds 172 msec
