                         Program Version 5.0.3 -  RELEASE  -
|  1> %pal nprocs 16 end
|  2>
|  3> !PBE def2-TZVP OPT UNO
|  4> !SLOWCONV KDIIS
|  5>
|  6> %geom maxiter 300 end
|  7>
|  8> *xyzfile 0 3 2.xyz                           ****END OF INPUT****
 Total Charge           Charge          ....    0
 Multiplicity           Mult            ....    3
 Number of Electrons    NEL             ....  254
FINAL SINGLE POINT ENERGY     -2893.396472949216
FINAL SINGLE POINT ENERGY     -2893.396679295490
FINAL SINGLE POINT ENERGY     -2893.396867102766
FINAL SINGLE POINT ENERGY     -2893.396904352644
FINAL SINGLE POINT ENERGY     -2893.396982463601
FINAL SINGLE POINT ENERGY     -2893.397014246747
FINAL SINGLE POINT ENERGY     -2893.397044472714
FINAL SINGLE POINT ENERGY     -2893.397058093256
FINAL SINGLE POINT ENERGY     -2893.397061493561
FINAL SINGLE POINT ENERGY     -2893.397062267545
FINAL SINGLE POINT ENERGY     -2893.397063513210
                    ***********************HURRAY********************

CARTESIAN COORDINATES (ANGSTROEM)
---------------------------------
  Au     6.029159    5.985135    8.200795
  Au     6.735772    8.319751    6.729576
  Au     6.207776    8.269865    9.646008
  Au     6.824230    3.688658    6.919889
  Au     8.209965    5.946300    6.187802
  Au     9.683936    8.205883    6.445952
  Au    10.039245    6.109177   10.347350
  Au    10.758792    8.592988    8.902349
  Au    11.211308    8.239674   11.589825
  Au     8.575700    8.623227   10.913862
  Au     8.308418    9.953230    8.408998
  Au     8.581044    4.598664    8.800915
  Fe     8.414923    7.241966    8.574389

 Multiplicity           Mult            ....    3
 Number of Electrons    NEL             ....  254
 Basis Dimension        Dim             ....  525

ORBITAL ENERGIES
----------------
                 SPIN UP ORBITALS
  NO   OCC          E(Eh)            E(eV)
   0   1.0000    -254.747193     -6932.0235
   1   1.0000     -29.584471      -805.0344
   2   1.0000     -25.533754      -694.8088
   3   1.0000     -25.513666      -694.2622
   4   1.0000     -25.512974      -694.2433
   5   1.0000      -4.028005      -109.6076
   6   1.0000      -4.027992      -109.6072
   7   1.0000      -4.027941      -109.6058
   8   1.0000      -4.027936      -109.6057
   9   1.0000      -4.023215      -109.4772
  10   1.0000      -4.023083      -109.4736
  11   1.0000      -4.021344      -109.4263
  12   1.0000      -4.021002      -109.4170
  13   1.0000      -4.020774      -109.4108
  14   1.0000      -4.020666      -109.4079
  15   1.0000      -4.018745      -109.3556
  16   1.0000      -4.018723      -109.3550
  17   1.0000      -3.360407       -91.4413
  18   1.0000      -2.246311       -61.1252
  19   1.0000      -2.245879       -61.1135
  20   1.0000      -2.245818       -61.1118
  21   1.0000      -2.245375       -61.0997
  22   1.0000      -2.243681       -61.0537
  23   1.0000      -2.242858       -61.0313
  24   1.0000      -2.242555       -61.0230
  25   1.0000      -2.241212       -60.9865
  26   1.0000      -2.241144       -60.9846
  27   1.0000      -2.238083       -60.9013
  28   1.0000      -2.237649       -60.8895
  29   1.0000      -2.237640       -60.8893
  30   1.0000      -2.237472       -60.8847
  31   1.0000      -2.237302       -60.8801
  32   1.0000      -2.237284       -60.8796
  33   1.0000      -2.237003       -60.8720
  34   1.0000      -2.235962       -60.8436
  35   1.0000      -2.235888       -60.8416
  36   1.0000      -2.235860       -60.8408
  37   1.0000      -2.235450       -60.8297
  38   1.0000      -2.235401       -60.8284
  39   1.0000      -2.234874       -60.8140
  40   1.0000      -2.234489       -60.8035
  41   1.0000      -2.233814       -60.7852
  42   1.0000      -2.233555       -60.7781
  43   1.0000      -2.232922       -60.7609
  44   1.0000      -2.231917       -60.7336
  45   1.0000      -2.231887       -60.7327
  46   1.0000      -2.231240       -60.7151
  47   1.0000      -2.231116       -60.7118
  48   1.0000      -2.229601       -60.6705
  49   1.0000      -2.229579       -60.6699
  50   1.0000      -2.229258       -60.6612
  51   1.0000      -2.229146       -60.6582
  52   1.0000      -2.226329       -60.5815
  53   1.0000      -2.225714       -60.5648
  54   1.0000      -2.202016       -59.9199
  55   1.0000      -2.161383       -58.8142
  56   1.0000      -2.158590       -58.7382
  57   1.0000      -0.426579       -11.6078
  58   1.0000      -0.389772       -10.6062
  59   1.0000      -0.386768       -10.5245
  60   1.0000      -0.374835       -10.1998
  61   1.0000      -0.372856       -10.1459
  62   1.0000      -0.370523       -10.0824
  63   1.0000      -0.368634       -10.0310
  64   1.0000      -0.366222        -9.9654
  65   1.0000      -0.350191        -9.5292
  66   1.0000      -0.349926        -9.5220
  67   1.0000      -0.344687        -9.3794
  68   1.0000      -0.343794        -9.3551
  69   1.0000      -0.338410        -9.2086
  70   1.0000      -0.336492        -9.1564
  71   1.0000      -0.333356        -9.0711
  72   1.0000      -0.332853        -9.0574
  73   1.0000      -0.331065        -9.0087
  74   1.0000      -0.328394        -8.9361
  75   1.0000      -0.328308        -8.9337
  76   1.0000      -0.323965        -8.8155
  77   1.0000      -0.322852        -8.7852
  78   1.0000      -0.320886        -8.7318
  79   1.0000      -0.317030        -8.6268
  80   1.0000      -0.316910        -8.6236
  81   1.0000      -0.309516        -8.4223
  82   1.0000      -0.309397        -8.4191
  83   1.0000      -0.305198        -8.3049
  84   1.0000      -0.298512        -8.1229
  85   1.0000      -0.297260        -8.0889
  86   1.0000      -0.295267        -8.0346
  87   1.0000      -0.291297        -7.9266
  88   1.0000      -0.288040        -7.8380
  89   1.0000      -0.287559        -7.8249
  90   1.0000      -0.287292        -7.8176
  91   1.0000      -0.286313        -7.7910
  92   1.0000      -0.284913        -7.7529
  93   1.0000      -0.281157        -7.6507
  94   1.0000      -0.278983        -7.5915
  95   1.0000      -0.277188        -7.5427
  96   1.0000      -0.276551        -7.5253
  97   1.0000      -0.276325        -7.5192
  98   1.0000      -0.274918        -7.4809
  99   1.0000      -0.270747        -7.3674
 100   1.0000      -0.270613        -7.3637
 101   1.0000      -0.268825        -7.3151
 102   1.0000      -0.266006        -7.2384
 103   1.0000      -0.263275        -7.1641
 104   1.0000      -0.261277        -7.1097
 105   1.0000      -0.261220        -7.1081
 106   1.0000      -0.259731        -7.0676
 107   1.0000      -0.257627        -7.0104
 108   1.0000      -0.257543        -7.0081
 109   1.0000      -0.256639        -6.9835
 110   1.0000      -0.256238        -6.9726
 111   1.0000      -0.255485        -6.9521
 112   1.0000      -0.255085        -6.9412
 113   1.0000      -0.251238        -6.8365
 114   1.0000      -0.249473        -6.7885
 115   1.0000      -0.245333        -6.6758
 116   1.0000      -0.245030        -6.6676
 117   1.0000      -0.244397        -6.6504
 118   1.0000      -0.243041        -6.6135
 119   1.0000      -0.241822        -6.5803
 120   1.0000      -0.241777        -6.5791
 121   1.0000      -0.236269        -6.4292
 122   1.0000      -0.235234        -6.4010
 123   1.0000      -0.234860        -6.3909
 124   1.0000      -0.229757        -6.2520
 125   1.0000      -0.221440        -6.0257
 126   1.0000      -0.213449        -5.8083
 127   1.0000      -0.199862        -5.4385
 128   0.0000      -0.176749        -4.8096
 129   0.0000      -0.166989        -4.5440
 130   0.0000      -0.138927        -3.7804
 131   0.0000      -0.133261        -3.6262
 132   0.0000      -0.131571        -3.5802

                 SPIN DOWN ORBITALS
  NO   OCC          E(Eh)            E(eV)
   0   1.0000    -254.746531     -6932.0055
   1   1.0000     -29.529093      -803.5275
   2   1.0000     -25.485415      -693.4934
   3   1.0000     -25.475066      -693.2118
   4   1.0000     -25.474458      -693.1952
   5   1.0000      -4.027748      -109.6006
   6   1.0000      -4.027736      -109.6003
   7   1.0000      -4.027688      -109.5990
   8   1.0000      -4.027684      -109.5988
   9   1.0000      -4.023715      -109.4908
  10   1.0000      -4.023575      -109.4870
  11   1.0000      -4.021433      -109.4288
  12   1.0000      -4.021325      -109.4258
  13   1.0000      -4.020794      -109.4114
  14   1.0000      -4.020453      -109.4021
  15   1.0000      -4.019134      -109.3662
  16   1.0000      -4.019112      -109.3656
  17   1.0000      -3.234964       -88.0279
  18   1.0000      -2.246063       -61.1185
  19   1.0000      -2.245613       -61.1062
  20   1.0000      -2.245504       -61.1033
  21   1.0000      -2.244970       -61.0887
  22   1.0000      -2.242867       -61.0315
  23   1.0000      -2.242007       -61.0081
  24   1.0000      -2.241770       -61.0017
  25   1.0000      -2.240426       -60.9651
  26   1.0000      -2.240388       -60.9641
  27   1.0000      -2.238454       -60.9114
  28   1.0000      -2.238106       -60.9020
  29   1.0000      -2.237700       -60.8909
  30   1.0000      -2.237509       -60.8857
  31   1.0000      -2.237329       -60.8808
  32   1.0000      -2.237165       -60.8764
  33   1.0000      -2.236894       -60.8690
  34   1.0000      -2.236258       -60.8517
  35   1.0000      -2.236119       -60.8479
  36   1.0000      -2.235777       -60.8386
  37   1.0000      -2.235366       -60.8274
  38   1.0000      -2.235330       -60.8264
  39   1.0000      -2.234659       -60.8082
  40   1.0000      -2.234328       -60.7991
  41   1.0000      -2.233870       -60.7867
  42   1.0000      -2.233798       -60.7847
  43   1.0000      -2.233287       -60.7708
  44   1.0000      -2.232933       -60.7612
  45   1.0000      -2.232716       -60.7553
  46   1.0000      -2.232175       -60.7406
  47   1.0000      -2.232124       -60.7392
  48   1.0000      -2.230216       -60.6873
  49   1.0000      -2.230193       -60.6866
  50   1.0000      -2.229477       -60.6671
  51   1.0000      -2.229332       -60.6632
  52   1.0000      -2.226547       -60.5874
  53   1.0000      -2.225931       -60.5707
  54   1.0000      -2.059884       -56.0523
  55   1.0000      -2.047753       -55.7222
  56   1.0000      -2.046452       -55.6868
  57   1.0000      -0.423396       -11.5212
  58   1.0000      -0.390198       -10.6178
  59   1.0000      -0.386167       -10.5081
  60   1.0000      -0.375133       -10.2079
  61   1.0000      -0.366797        -9.9810
  62   1.0000      -0.365970        -9.9586
  63   1.0000      -0.364496        -9.9185
  64   1.0000      -0.360773        -9.8171
  65   1.0000      -0.349735        -9.5168
  66   1.0000      -0.348167        -9.4741
  67   1.0000      -0.344134        -9.3644
  68   1.0000      -0.343244        -9.3401
  69   1.0000      -0.340088        -9.2543
  70   1.0000      -0.335172        -9.1205
  71   1.0000      -0.331412        -9.0182
  72   1.0000      -0.330609        -8.9963
  73   1.0000      -0.328648        -8.9430
  74   1.0000      -0.328260        -8.9324
  75   1.0000      -0.325179        -8.8486
  76   1.0000      -0.324906        -8.8411
  77   1.0000      -0.321622        -8.7518
  78   1.0000      -0.319617        -8.6972
  79   1.0000      -0.314316        -8.5530
  80   1.0000      -0.309840        -8.4312
  81   1.0000      -0.308184        -8.3861
  82   1.0000      -0.305365        -8.3094
  83   1.0000      -0.300862        -8.1869
  84   1.0000      -0.297979        -8.1084
  85   1.0000      -0.297197        -8.0871
  86   1.0000      -0.294421        -8.0116
  87   1.0000      -0.292631        -7.9629
  88   1.0000      -0.289008        -7.8643
  89   1.0000      -0.286816        -7.8047
  90   1.0000      -0.286447        -7.7946
  91   1.0000      -0.283099        -7.7035
  92   1.0000      -0.282735        -7.6936
  93   1.0000      -0.278150        -7.5688
  94   1.0000      -0.276727        -7.5301
  95   1.0000      -0.276704        -7.5295
  96   1.0000      -0.275960        -7.5092
  97   1.0000      -0.274654        -7.4737
  98   1.0000      -0.274105        -7.4588
  99   1.0000      -0.270426        -7.3587
 100   1.0000      -0.270310        -7.3555
 101   1.0000      -0.267872        -7.2892
 102   1.0000      -0.266071        -7.2402
 103   1.0000      -0.264913        -7.2086
 104   1.0000      -0.261801        -7.1240
 105   1.0000      -0.261270        -7.1095
 106   1.0000      -0.260441        -7.0870
 107   1.0000      -0.259592        -7.0639
 108   1.0000      -0.257820        -7.0156
 109   1.0000      -0.257445        -7.0054
 110   1.0000      -0.255954        -6.9649
 111   1.0000      -0.253140        -6.8883
 112   1.0000      -0.252519        -6.8714
 113   1.0000      -0.249793        -6.7972
 114   1.0000      -0.248569        -6.7639
 115   1.0000      -0.245994        -6.6938
 116   1.0000      -0.245937        -6.6923
 117   1.0000      -0.242852        -6.6083
 118   1.0000      -0.236471        -6.4347
 119   1.0000      -0.236293        -6.4298
 120   1.0000      -0.233512        -6.3542
 121   1.0000      -0.220985        -6.0133
 122   1.0000      -0.208206        -5.6656
 123   1.0000      -0.196840        -5.3563
 124   1.0000      -0.186815        -5.0835
 125   1.0000      -0.169772        -4.6197
 126   0.0000      -0.162656        -4.4261
 127   0.0000      -0.154320        -4.1993
 128   0.0000      -0.151144        -4.1128
 129   0.0000      -0.136371        -3.7109
 130   0.0000      -0.131917        -3.5896

MULLIKEN ATOMIC CHARGES AND SPIN POPULATIONS
--------------------------------------------
   0 Au:    0.064902   -0.125554
   1 Au:    0.197192   -0.149196
   2 Au:    0.347234   -0.086323
   3 Au:    0.395152    0.031128
   4 Au:    0.065687   -0.125447
   5 Au:    0.346090   -0.086572
   6 Au:    0.046021    0.021212
   7 Au:    0.065366   -0.125203
   8 Au:    0.395298    0.031099
   9 Au:    0.064619   -0.125912
  10 Au:    0.197026   -0.149133
  11 Au:    0.046314    0.021113
  12 Fe:   -2.230900    2.868789
Sum of atomic charges         :   -0.0000000

LOEWDIN ATOMIC CHARGES AND SPIN POPULATIONS
-------------------------------------------
   0 Au:    0.001433   -0.073779
   1 Au:    0.054115   -0.137032
   2 Au:    0.111856   -0.144928
   3 Au:    0.103675   -0.007532
   4 Au:    0.001293   -0.073781
   5 Au:    0.111862   -0.144496
   6 Au:    0.030880   -0.011203
   7 Au:    0.000868   -0.073747
   8 Au:    0.103799   -0.007525
   9 Au:    0.001508   -0.073825
  10 Au:    0.054118   -0.137036
  11 Au:    0.030990   -0.011155
  12 Fe:   -0.606398    2.896039

  Mayer bond orders larger than 0.100000
B(  0-Au,  1-Au) :   0.2065 B(  0-Au,  2-Au) :   0.3274 B(  0-Au,  3-Au) :   0.3448
B(  0-Au,  4-Au) :   0.1764 B(  0-Au, 11-Au) :   0.1522 B(  0-Au, 12-Fe) :   0.5101
B(  1-Au,  2-Au) :   0.1022 B(  1-Au,  4-Au) :   0.2084 B(  1-Au,  5-Au) :   0.1020
B(  1-Au, 10-Au) :   0.2329 B(  1-Au, 12-Fe) :   0.5409 B(  2-Au,  9-Au) :   0.3277
B(  2-Au, 10-Au) :   0.1027 B(  2-Au, 12-Fe) :   0.4503 B(  3-Au,  4-Au) :   0.3437
B(  3-Au, 11-Au) :   0.3491 B(  4-Au,  5-Au) :   0.3263 B(  4-Au, 11-Au) :   0.1526
B(  4-Au, 12-Fe) :   0.5091 B(  5-Au,  7-Au) :   0.3269 B(  5-Au, 10-Au) :   0.1015
B(  5-Au, 12-Fe) :   0.4519 B(  6-Au,  7-Au) :   0.1529 B(  6-Au,  8-Au) :   0.3488
B(  6-Au,  9-Au) :   0.1525 B(  6-Au, 11-Au) :   0.4783 B(  6-Au, 12-Fe) :   0.5551
B(  7-Au,  8-Au) :   0.3440 B(  7-Au,  9-Au) :   0.1763 B(  7-Au, 10-Au) :   0.2089
B(  7-Au, 12-Fe) :   0.5081 B(  8-Au,  9-Au) :   0.3446 B(  9-Au, 10-Au) :   0.2063
B(  9-Au, 12-Fe) :   0.5108 B( 10-Au, 12-Fe) :   0.5404 B( 11-Au, 12-Fe) :   0.5547

FINAL SINGLE POINT ENERGY     -2893.397063600316

DIPOLE MOMENT
-------------
                                X             Y             Z
Electronic contribution:      0.53288      -1.05702       0.57367
Nuclear contribution   :     -0.59068       1.17658      -0.63627
                        -----------------------------------------
Total Dipole Moment    :     -0.05780       0.11956      -0.06261
                        -----------------------------------------
Magnitude (a.u.)       :      0.14682
Magnitude (Debye)      :      0.37318

Rotational constants in cm-1:     0.001733     0.001082     0.000967
Rotational constants in MHz :    51.944645    32.447054    28.985232

                             ****ORCA TERMINATED NORMALLY****
TOTAL RUN TIME: 0 days 0 hours 20 minutes 47 seconds 180 msec
