                         Program Version 5.0.3 -  RELEASE  -
|  1> !RI-B2PLYP def2-TZVP def2-TZVP/C
|  2> !RIJCOSX VERYSLOWCONV
|  3>
|  4> %scf
|  5>   AutoTRAHIter 200
|  6>   maxiter 400
|  7> end
|  8>
|  9>
| 10> %pal nprocs 6 end
| 11>
| 12> *xyzfile 0 5 pbe.xyz
| 13>
| 14> $new_job
| 15>
| 16> !RI-B2PLYP def2-TZVP def2-TZVP/C
| 17> !RIJCOSX VERYSLOWCONV
| 18>
| 19> %scf
| 20>   AutoTRAHIter 200
| 21>   maxiter 400
| 22> end
| 23>
| 24>
| 25> %pal nprocs 6 end
| 26>
| 27> *xyzfile 0 3 pbe.xyz
| 28>
| 29>
| 30>
| 31>
| 32>
| 33>                          ****END OF INPUT****
 Total Charge           Charge          ....    0
 Multiplicity           Mult            ....    5
 Number of Electrons    NEL             ....  254
MP2 TOTAL ENERGY:    -2890.532509904 Eh
FINAL SINGLE POINT ENERGY     -2890.532509904363

CARTESIAN COORDINATES (ANGSTROEM)
---------------------------------
  Au     9.558587    9.743912   10.121544
  Au    12.260167    9.778829    9.441232
  Au     9.169736    7.138918   11.398466
  Au    11.565668    8.390346   11.847586
  Au     7.058864    5.889152   10.039333
  Au     7.035713    8.758753   10.178539
  Au     6.329171    7.273416    7.794180
  Au    10.467896    9.288099    7.432794
  Au    10.412217    6.426545    6.922863
  Au     8.311625    8.132818    6.167306
  Au    11.443480    7.113897    9.416072
  Au     9.573938    5.061843    9.258370
  Fe     8.829625    7.563444    8.716458

 Multiplicity           Mult            ....    3
 Number of Electrons    NEL             ....  254
 Basis Dimension        Dim             ....  525

ORBITAL ENERGIES
----------------
                 SPIN UP ORBITALS
  NO   OCC          E(Eh)            E(eV)
   0   1.0000    -258.331047     -7029.5452
   1   1.0000     -30.891420      -840.5983
   2   1.0000     -26.608977      -724.0671
   3   1.0000     -26.580263      -723.2857
   4   1.0000     -26.579624      -723.2683
   5   1.0000      -4.410806      -120.0241
   6   1.0000      -4.406780      -119.9146
   7   1.0000      -4.401090      -119.7598
   8   1.0000      -4.400224      -119.7362
   9   1.0000      -4.398098      -119.6783
  10   1.0000      -4.396823      -119.6436
  11   1.0000      -4.395264      -119.6012
  12   1.0000      -4.395167      -119.5986
  13   1.0000      -4.391611      -119.5018
  14   1.0000      -4.387540      -119.3910
  15   1.0000      -4.384556      -119.3098
  16   1.0000      -4.383037      -119.2685
  17   1.0000      -3.902891      -106.2031
  18   1.0000      -2.652019       -72.1651
  19   1.0000      -2.592085       -70.5342
  20   1.0000      -2.590267       -70.4847
  21   1.0000      -2.532772       -68.9202
  22   1.0000      -2.528537       -68.8050
  23   1.0000      -2.528080       -68.7926
  24   1.0000      -2.526063       -68.7377
  25   1.0000      -2.524022       -68.6821
  26   1.0000      -2.522221       -68.6331
  27   1.0000      -2.521316       -68.6085
  28   1.0000      -2.521072       -68.6019
  29   1.0000      -2.519968       -68.5718
  30   1.0000      -2.519457       -68.5579
  31   1.0000      -2.518690       -68.5370
  32   1.0000      -2.518283       -68.5260
  33   1.0000      -2.516443       -68.4759
  34   1.0000      -2.516029       -68.4646
  35   1.0000      -2.515125       -68.4400
  36   1.0000      -2.514835       -68.4321
  37   1.0000      -2.514304       -68.4177
  38   1.0000      -2.513714       -68.4016
  39   1.0000      -2.512739       -68.3751
  40   1.0000      -2.511799       -68.3495
  41   1.0000      -2.511409       -68.3389
  42   1.0000      -2.510832       -68.3232
  43   1.0000      -2.510695       -68.3195
  44   1.0000      -2.509801       -68.2952
  45   1.0000      -2.508898       -68.2706
  46   1.0000      -2.508622       -68.2631
  47   1.0000      -2.505573       -68.1801
  48   1.0000      -2.505188       -68.1696
  49   1.0000      -2.504824       -68.1597
  50   1.0000      -2.503553       -68.1251
  51   1.0000      -2.502710       -68.1022
  52   1.0000      -2.502396       -68.0937
  53   1.0000      -2.500489       -68.0418
  54   1.0000      -2.499283       -68.0090
  55   1.0000      -2.499180       -68.0062
  56   1.0000      -2.496248       -67.9264
  57   1.0000      -0.556834       -15.1522
  58   1.0000      -0.551193       -14.9987
  59   1.0000      -0.548874       -14.9356
  60   1.0000      -0.527178       -14.3453
  61   1.0000      -0.510009       -13.8780
  62   1.0000      -0.499309       -13.5869
  63   1.0000      -0.475555       -12.9405
  64   1.0000      -0.466853       -12.7037
  65   1.0000      -0.464716       -12.6456
  66   1.0000      -0.461319       -12.5531
  67   1.0000      -0.454468       -12.3667
  68   1.0000      -0.452121       -12.3028
  69   1.0000      -0.451349       -12.2818
  70   1.0000      -0.448145       -12.1946
  71   1.0000      -0.446378       -12.1466
  72   1.0000      -0.442444       -12.0395
  73   1.0000      -0.440290       -11.9809
  74   1.0000      -0.438336       -11.9277
  75   1.0000      -0.435715       -11.8564
  76   1.0000      -0.433400       -11.7934
  77   1.0000      -0.431431       -11.7398
  78   1.0000      -0.430272       -11.7083
  79   1.0000      -0.427540       -11.6339
  80   1.0000      -0.424893       -11.5619
  81   1.0000      -0.421329       -11.4649
  82   1.0000      -0.420207       -11.4344
  83   1.0000      -0.416012       -11.3203
  84   1.0000      -0.414748       -11.2859
  85   1.0000      -0.409419       -11.1409
  86   1.0000      -0.405058       -11.0222
  87   1.0000      -0.401855       -10.9350
  88   1.0000      -0.397446       -10.8151
  89   1.0000      -0.394287       -10.7291
  90   1.0000      -0.389988       -10.6121
  91   1.0000      -0.388411       -10.5692
  92   1.0000      -0.385693       -10.4952
  93   1.0000      -0.384391       -10.4598
  94   1.0000      -0.380791       -10.3619
  95   1.0000      -0.377273       -10.2661
  96   1.0000      -0.375783       -10.2256
  97   1.0000      -0.375149       -10.2083
  98   1.0000      -0.373770       -10.1708
  99   1.0000      -0.372049       -10.1240
 100   1.0000      -0.370903       -10.0928
 101   1.0000      -0.370503       -10.0819
 102   1.0000      -0.367878       -10.0105
 103   1.0000      -0.367032        -9.9875
 104   1.0000      -0.364339        -9.9142
 105   1.0000      -0.362432        -9.8623
 106   1.0000      -0.360900        -9.8206
 107   1.0000      -0.359960        -9.7950
 108   1.0000      -0.359338        -9.7781
 109   1.0000      -0.358259        -9.7487
 110   1.0000      -0.357500        -9.7281
 111   1.0000      -0.354508        -9.6467
 112   1.0000      -0.352492        -9.5918
 113   1.0000      -0.350399        -9.5348
 114   1.0000      -0.348476        -9.4825
 115   1.0000      -0.345812        -9.4100
 116   1.0000      -0.342471        -9.3191
 117   1.0000      -0.338736        -9.2175
 118   1.0000      -0.336990        -9.1700
 119   1.0000      -0.332483        -9.0473
 120   1.0000      -0.330125        -8.9832
 121   1.0000      -0.324412        -8.8277
 122   1.0000      -0.321419        -8.7463
 123   1.0000      -0.319383        -8.6909
 124   1.0000      -0.298134        -8.1126
 125   1.0000      -0.275894        -7.5075
 126   1.0000      -0.223897        -6.0925
 127   1.0000      -0.218903        -5.9566
 128   0.0000      -0.115571        -3.1448
 129   0.0000      -0.097071        -2.6414
 130   0.0000      -0.091235        -2.4826
 131   0.0000      -0.065996        -1.7958
 132   0.0000      -0.057942        -1.5767

                 SPIN DOWN ORBITALS
  NO   OCC          E(Eh)            E(eV)
   0   1.0000    -258.329021     -7029.4900
   1   1.0000     -30.799516      -838.0974
   2   1.0000     -26.511006      -721.4012
   3   1.0000     -26.503248      -721.1900
   4   1.0000     -26.502792      -721.1776
   5   1.0000      -4.411042      -120.0305
   6   1.0000      -4.406784      -119.9147
   7   1.0000      -4.401011      -119.7576
   8   1.0000      -4.400833      -119.7528
   9   1.0000      -4.398910      -119.7004
  10   1.0000      -4.397345      -119.6579
  11   1.0000      -4.395575      -119.6097
  12   1.0000      -4.395462      -119.6066
  13   1.0000      -4.391609      -119.5017
  14   1.0000      -4.388224      -119.4097
  15   1.0000      -4.384213      -119.3005
  16   1.0000      -4.383342      -119.2768
  17   1.0000      -3.661048       -99.6222
  18   1.0000      -2.532370       -68.9093
  19   1.0000      -2.527760       -68.7838
  20   1.0000      -2.526920       -68.7610
  21   1.0000      -2.526391       -68.7466
  22   1.0000      -2.523915       -68.6792
  23   1.0000      -2.521361       -68.6097
  24   1.0000      -2.521088       -68.6023
  25   1.0000      -2.520131       -68.5762
  26   1.0000      -2.519322       -68.5542
  27   1.0000      -2.518817       -68.5405
  28   1.0000      -2.518172       -68.5229
  29   1.0000      -2.517800       -68.5128
  30   1.0000      -2.516656       -68.4817
  31   1.0000      -2.515942       -68.4623
  32   1.0000      -2.515432       -68.4484
  33   1.0000      -2.514995       -68.4365
  34   1.0000      -2.513866       -68.4058
  35   1.0000      -2.513505       -68.3960
  36   1.0000      -2.512638       -68.3723
  37   1.0000      -2.511697       -68.3467
  38   1.0000      -2.511085       -68.3301
  39   1.0000      -2.510653       -68.3183
  40   1.0000      -2.510260       -68.3077
  41   1.0000      -2.509834       -68.2961
  42   1.0000      -2.508957       -68.2722
  43   1.0000      -2.508788       -68.2676
  44   1.0000      -2.506730       -68.2116
  45   1.0000      -2.505212       -68.1703
  46   1.0000      -2.504843       -68.1602
  47   1.0000      -2.504042       -68.1384
  48   1.0000      -2.503121       -68.1134
  49   1.0000      -2.501758       -68.0763
  50   1.0000      -2.500594       -68.0446
  51   1.0000      -2.499557       -68.0164
  52   1.0000      -2.499220       -68.0072
  53   1.0000      -2.496819       -67.9419
  54   1.0000      -2.339568       -63.6629
  55   1.0000      -2.338752       -63.6407
  56   1.0000      -2.327778       -63.3421
  57   1.0000      -0.511229       -13.9113
  58   1.0000      -0.480771       -13.0825
  59   1.0000      -0.478307       -13.0154
  60   1.0000      -0.470688       -12.8081
  61   1.0000      -0.465493       -12.6667
  62   1.0000      -0.464199       -12.6315
  63   1.0000      -0.461915       -12.5694
  64   1.0000      -0.460008       -12.5175
  65   1.0000      -0.455656       -12.3990
  66   1.0000      -0.452974       -12.3260
  67   1.0000      -0.451201       -12.2778
  68   1.0000      -0.448271       -12.1981
  69   1.0000      -0.443443       -12.0667
  70   1.0000      -0.441367       -12.0102
  71   1.0000      -0.440204       -11.9786
  72   1.0000      -0.436602       -11.8806
  73   1.0000      -0.433150       -11.7866
  74   1.0000      -0.431455       -11.7405
  75   1.0000      -0.429764       -11.6945
  76   1.0000      -0.428275       -11.6539
  77   1.0000      -0.426237       -11.5985
  78   1.0000      -0.421891       -11.4802
  79   1.0000      -0.421086       -11.4583
  80   1.0000      -0.415678       -11.3112
  81   1.0000      -0.413734       -11.2583
  82   1.0000      -0.409021       -11.1300
  83   1.0000      -0.406066       -11.0496
  84   1.0000      -0.401406       -10.9228
  85   1.0000      -0.398006       -10.8303
  86   1.0000      -0.396740       -10.7958
  87   1.0000      -0.392370       -10.6769
  88   1.0000      -0.390536       -10.6270
  89   1.0000      -0.383736       -10.4420
  90   1.0000      -0.381380       -10.3779
  91   1.0000      -0.380787       -10.3618
  92   1.0000      -0.377335       -10.2678
  93   1.0000      -0.376873       -10.2552
  94   1.0000      -0.375125       -10.2077
  95   1.0000      -0.374503       -10.1908
  96   1.0000      -0.372461       -10.1352
  97   1.0000      -0.371701       -10.1145
  98   1.0000      -0.370757       -10.0888
  99   1.0000      -0.369479       -10.0540
 100   1.0000      -0.365683        -9.9507
 101   1.0000      -0.363933        -9.9031
 102   1.0000      -0.362244        -9.8572
 103   1.0000      -0.361620        -9.8402
 104   1.0000      -0.360685        -9.8147
 105   1.0000      -0.358665        -9.7598
 106   1.0000      -0.357980        -9.7411
 107   1.0000      -0.355003        -9.6601
 108   1.0000      -0.352836        -9.6011
 109   1.0000      -0.350139        -9.5278
 110   1.0000      -0.347632        -9.4596
 111   1.0000      -0.346429        -9.4268
 112   1.0000      -0.341601        -9.2954
 113   1.0000      -0.339319        -9.2333
 114   1.0000      -0.335047        -9.1171
 115   1.0000      -0.332957        -9.0602
 116   1.0000      -0.330655        -8.9976
 117   1.0000      -0.327596        -8.9143
 118   1.0000      -0.322812        -8.7842
 119   1.0000      -0.320542        -8.7224
 120   1.0000      -0.313164        -8.5216
 121   1.0000      -0.295505        -8.0411
 122   1.0000      -0.234777        -6.3886
 123   1.0000      -0.228459        -6.2167
 124   1.0000      -0.217436        -5.9167
 125   1.0000      -0.192524        -5.2388
 126   0.0000      -0.097115        -2.6426
 127   0.0000      -0.073219        -1.9924
 128   0.0000      -0.066026        -1.7967
 129   0.0000      -0.056656        -1.5417
 130   0.0000      -0.040353        -1.0981

MULLIKEN ATOMIC CHARGES AND SPIN POPULATIONS
--------------------------------------------
   0 Au:   -0.075609   -0.210393
   1 Au:    0.344719    0.060349
   2 Au:   -0.101825   -0.184850
   3 Au:    0.293802    0.119313
   4 Au:    0.273321   -0.168304
   5 Au:    0.321084   -0.199992
   6 Au:    0.168887   -0.098765
   7 Au:    0.022314   -0.157267
   8 Au:    0.375220   -0.148110
   9 Au:    0.191790   -0.068243
  10 Au:   -0.247358   -0.139887
  11 Au:    0.240640   -0.279120
  12 Fe:   -1.806984    3.475270
Sum of atomic charges         :   -0.0000000

LOEWDIN ATOMIC CHARGES AND SPIN POPULATIONS
-------------------------------------------
   0 Au:   -0.042683   -0.121747
   1 Au:    0.061671   -0.010511
   2 Au:   -0.038678   -0.136383
   3 Au:    0.074531    0.056448
   4 Au:    0.022026   -0.203686
   5 Au:    0.079771   -0.183244
   6 Au:    0.025313   -0.102237
   7 Au:   -0.009227   -0.146526
   8 Au:    0.111706   -0.163837
   9 Au:    0.063705   -0.109246
  10 Au:   -0.092178   -0.087412
  11 Au:    0.097268   -0.222783
  12 Fe:   -0.353228    3.431167

  Mayer bond orders larger than 0.100000
B(  0-Au,  1-Au) :   0.2523 B(  0-Au,  2-Au) :   0.1491 B(  0-Au,  3-Au) :   0.1199
B(  0-Au,  5-Au) :   0.2964 B(  0-Au,  7-Au) :   0.1960 B(  0-Au, 10-Au) :   0.1209
B(  0-Au, 12-Fe) :   0.4725 B(  1-Au,  3-Au) :   0.1297 B(  1-Au,  7-Au) :   0.3558
B(  1-Au, 10-Au) :   0.2927 B(  2-Au,  3-Au) :   0.4046 B(  2-Au,  4-Au) :   0.2454
B(  2-Au,  5-Au) :   0.1287 B(  2-Au, 10-Au) :   0.1908 B(  2-Au, 12-Fe) :   0.4707
B(  3-Au, 10-Au) :   0.3889 B(  4-Au,  5-Au) :   0.1163 B(  4-Au,  6-Au) :   0.2452
B(  4-Au, 11-Au) :   0.1745 B(  4-Au, 12-Fe) :   0.3982 B(  5-Au,  6-Au) :   0.1121
B(  5-Au, 12-Fe) :   0.4860 B(  6-Au,  9-Au) :   0.2526 B(  6-Au, 12-Fe) :   0.4753
B(  7-Au,  8-Au) :   0.1247 B(  7-Au,  9-Au) :   0.2415 B(  7-Au, 10-Au) :   0.1145
B(  7-Au, 12-Fe) :   0.4801 B(  8-Au,  9-Au) :   0.1396 B(  8-Au, 10-Au) :   0.3243
B(  8-Au, 11-Au) :   0.1055 B(  8-Au, 12-Fe) :   0.4555 B(  9-Au, 12-Fe) :   0.4597
B( 10-Au, 11-Au) :   0.2152 B( 10-Au, 12-Fe) :   0.3940 B( 11-Au, 12-Fe) :   0.4713

MP2 TOTAL ENERGY:    -2890.526408307 Eh
FINAL SINGLE POINT ENERGY     -2890.526408306809

DIPOLE MOMENT
-------------
                                X             Y             Z
Electronic contribution:     23.15946       6.91516      17.09709
Nuclear contribution   :    -22.93180      -7.08798     -17.18971
                        -----------------------------------------
Total Dipole Moment    :      0.22766      -0.17281      -0.09263
                        -----------------------------------------
Magnitude (a.u.)       :      0.30045
Magnitude (Debye)      :      0.76369

Rotational constants in cm-1:     0.001625     0.001240     0.001077
Rotational constants in MHz :    48.708124    37.176114    32.297467

                             ****ORCA TERMINATED NORMALLY****
TOTAL RUN TIME: 0 days 0 hours 59 minutes 36 seconds 494 msec
