                         Program Version 5.0.3 -  RELEASE  -
|  1> !PBE def2-TZVP VERYSLOWCONV
|  2>
|  3> %scf
|  4>   AutoTRAHIter 200
|  5>   maxiter 400
|  6> end
|  7>
|  8>
|  9> %pal nprocs 6 end
| 10>
| 11> *xyzfile 0 5 pbe.xyz
| 12>
| 13> $new_job
| 14>
| 15> !PBE def2-TZVP VERYSLOWCONV
| 16>
| 17> %scf
| 18>   AutoTRAHIter 200
| 19>   maxiter 400
| 20> end
| 21>
| 22>
| 23> %pal nprocs 6 end
| 24>
| 25> *xyzfile 0 3 pbe.xyz
| 26>
| 27>
| 28>
| 29>
| 30>
| 31>                          ****END OF INPUT****
 Total Charge           Charge          ....    0
 Multiplicity           Mult            ....    5
 Number of Electrons    NEL             ....  254
FINAL SINGLE POINT ENERGY     -2893.392682300067

CARTESIAN COORDINATES (ANGSTROEM)
---------------------------------
  Au     9.558587    9.743912   10.121544
  Au    12.260167    9.778829    9.441232
  Au     9.169736    7.138918   11.398466
  Au    11.565668    8.390346   11.847586
  Au     7.058864    5.889152   10.039333
  Au     7.035713    8.758753   10.178539
  Au     6.329171    7.273416    7.794180
  Au    10.467896    9.288099    7.432794
  Au    10.412217    6.426545    6.922863
  Au     8.311625    8.132818    6.167306
  Au    11.443480    7.113897    9.416072
  Au     9.573938    5.061843    9.258370
  Fe     8.829625    7.563444    8.716458

 Multiplicity           Mult            ....    3
 Number of Electrons    NEL             ....  254
 Basis Dimension        Dim             ....  525

ORBITAL ENERGIES
----------------
                 SPIN UP ORBITALS
  NO   OCC          E(Eh)            E(eV)
   0   1.0000    -254.748409     -6932.0566
   1   1.0000     -29.585511      -805.0627
   2   1.0000     -25.526252      -694.6046
   3   1.0000     -25.520898      -694.4589
   4   1.0000     -25.516465      -694.3383
   5   1.0000      -4.034843      -109.7937
   6   1.0000      -4.028730      -109.6273
   7   1.0000      -4.028570      -109.6230
   8   1.0000      -4.027639      -109.5976
   9   1.0000      -4.025337      -109.5350
  10   1.0000      -4.024575      -109.5143
  11   1.0000      -4.023688      -109.4901
  12   1.0000      -4.022465      -109.4568
  13   1.0000      -4.019181      -109.3675
  14   1.0000      -4.018692      -109.3542
  15   1.0000      -4.013067      -109.2011
  16   1.0000      -4.011905      -109.1695
  17   1.0000      -3.361227       -91.4636
  18   1.0000      -2.252260       -61.2871
  19   1.0000      -2.246245       -61.1234
  20   1.0000      -2.246128       -61.1203
  21   1.0000      -2.245825       -61.1120
  22   1.0000      -2.244991       -61.0893
  23   1.0000      -2.244687       -61.0810
  24   1.0000      -2.242645       -61.0255
  25   1.0000      -2.242395       -61.0187
  26   1.0000      -2.241749       -61.0011
  27   1.0000      -2.240734       -60.9735
  28   1.0000      -2.239766       -60.9471
  29   1.0000      -2.239603       -60.9427
  30   1.0000      -2.239541       -60.9410
  31   1.0000      -2.238504       -60.9128
  32   1.0000      -2.238387       -60.9096
  33   1.0000      -2.238276       -60.9066
  34   1.0000      -2.237510       -60.8858
  35   1.0000      -2.236718       -60.8642
  36   1.0000      -2.235941       -60.8431
  37   1.0000      -2.235475       -60.8304
  38   1.0000      -2.234943       -60.8159
  39   1.0000      -2.234443       -60.8023
  40   1.0000      -2.234194       -60.7955
  41   1.0000      -2.233524       -60.7773
  42   1.0000      -2.233336       -60.7722
  43   1.0000      -2.233144       -60.7670
  44   1.0000      -2.231750       -60.7290
  45   1.0000      -2.231648       -60.7262
  46   1.0000      -2.230347       -60.6908
  47   1.0000      -2.228061       -60.6286
  48   1.0000      -2.227424       -60.6113
  49   1.0000      -2.227000       -60.5998
  50   1.0000      -2.226047       -60.5738
  51   1.0000      -2.225556       -60.5605
  52   1.0000      -2.223231       -60.4972
  53   1.0000      -2.220177       -60.4141
  54   1.0000      -2.185465       -59.4695
  55   1.0000      -2.174755       -59.1781
  56   1.0000      -2.164899       -58.9099
  57   1.0000      -0.428812       -11.6686
  58   1.0000      -0.388947       -10.5838
  59   1.0000      -0.381957       -10.3936
  60   1.0000      -0.378916       -10.3108
  61   1.0000      -0.368570       -10.0293
  62   1.0000      -0.366899        -9.9838
  63   1.0000      -0.363273        -9.8852
  64   1.0000      -0.361907        -9.8480
  65   1.0000      -0.352825        -9.6009
  66   1.0000      -0.350822        -9.5464
  67   1.0000      -0.348563        -9.4849
  68   1.0000      -0.342185        -9.3113
  69   1.0000      -0.340367        -9.2619
  70   1.0000      -0.338336        -9.2066
  71   1.0000      -0.337443        -9.1823
  72   1.0000      -0.335791        -9.1373
  73   1.0000      -0.332497        -9.0477
  74   1.0000      -0.330379        -8.9901
  75   1.0000      -0.326818        -8.8932
  76   1.0000      -0.324969        -8.8429
  77   1.0000      -0.323953        -8.8152
  78   1.0000      -0.320127        -8.7111
  79   1.0000      -0.318888        -8.6774
  80   1.0000      -0.315665        -8.5897
  81   1.0000      -0.313398        -8.5280
  82   1.0000      -0.313132        -8.5208
  83   1.0000      -0.309866        -8.4319
  84   1.0000      -0.306156        -8.3309
  85   1.0000      -0.304599        -8.2886
  86   1.0000      -0.300275        -8.1709
  87   1.0000      -0.295584        -8.0432
  88   1.0000      -0.290544        -7.9061
  89   1.0000      -0.287690        -7.8284
  90   1.0000      -0.286768        -7.8034
  91   1.0000      -0.284656        -7.7459
  92   1.0000      -0.281339        -7.6556
  93   1.0000      -0.281146        -7.6504
  94   1.0000      -0.277705        -7.5567
  95   1.0000      -0.277235        -7.5440
  96   1.0000      -0.274748        -7.4763
  97   1.0000      -0.274200        -7.4614
  98   1.0000      -0.273836        -7.4515
  99   1.0000      -0.272435        -7.4133
 100   1.0000      -0.270202        -7.3526
 101   1.0000      -0.268353        -7.3022
 102   1.0000      -0.266363        -7.2481
 103   1.0000      -0.265959        -7.2371
 104   1.0000      -0.264480        -7.1969
 105   1.0000      -0.263422        -7.1681
 106   1.0000      -0.260710        -7.0943
 107   1.0000      -0.258378        -7.0308
 108   1.0000      -0.257329        -7.0023
 109   1.0000      -0.256221        -6.9721
 110   1.0000      -0.253751        -6.9049
 111   1.0000      -0.252657        -6.8751
 112   1.0000      -0.251358        -6.8398
 113   1.0000      -0.249642        -6.7931
 114   1.0000      -0.248054        -6.7499
 115   1.0000      -0.246645        -6.7116
 116   1.0000      -0.245707        -6.6860
 117   1.0000      -0.244150        -6.6437
 118   1.0000      -0.242215        -6.5910
 119   1.0000      -0.239352        -6.5131
 120   1.0000      -0.238412        -6.4875
 121   1.0000      -0.237795        -6.4707
 122   1.0000      -0.236273        -6.4293
 123   1.0000      -0.234565        -6.3828
 124   1.0000      -0.232169        -6.3176
 125   1.0000      -0.231266        -6.2931
 126   1.0000      -0.201592        -5.4856
 127   1.0000      -0.199548        -5.4300
 128   0.0000      -0.178421        -4.8551
 129   0.0000      -0.163516        -4.4495
 130   0.0000      -0.153437        -4.1752
 131   0.0000      -0.130946        -3.5632
 132   0.0000      -0.125073        -3.4034

                 SPIN DOWN ORBITALS
  NO   OCC          E(Eh)            E(eV)
   0   1.0000    -254.747753     -6932.0388
   1   1.0000     -29.530379      -803.5625
   2   1.0000     -25.482404      -693.4115
   3   1.0000     -25.478807      -693.3136
   4   1.0000     -25.477486      -693.2777
   5   1.0000      -4.035041      -109.7990
   6   1.0000      -4.029043      -109.6358
   7   1.0000      -4.028240      -109.6140
   8   1.0000      -4.027410      -109.5914
   9   1.0000      -4.025644      -109.5433
  10   1.0000      -4.024667      -109.5168
  11   1.0000      -4.023903      -109.4960
  12   1.0000      -4.022396      -109.4550
  13   1.0000      -4.019756      -109.3831
  14   1.0000      -4.018671      -109.3536
  15   1.0000      -4.013373      -109.2094
  16   1.0000      -4.011777      -109.1660
  17   1.0000      -3.236767       -88.0769
  18   1.0000      -2.252568       -61.2955
  19   1.0000      -2.246452       -61.1291
  20   1.0000      -2.245887       -61.1137
  21   1.0000      -2.245632       -61.1068
  22   1.0000      -2.245452       -61.1019
  23   1.0000      -2.244363       -61.0722
  24   1.0000      -2.242131       -61.0115
  25   1.0000      -2.242009       -61.0082
  26   1.0000      -2.241797       -61.0024
  27   1.0000      -2.240149       -60.9576
  28   1.0000      -2.239966       -60.9526
  29   1.0000      -2.239796       -60.9479
  30   1.0000      -2.239268       -60.9336
  31   1.0000      -2.238861       -60.9225
  32   1.0000      -2.238672       -60.9174
  33   1.0000      -2.238178       -60.9039
  34   1.0000      -2.237475       -60.8848
  35   1.0000      -2.236858       -60.8680
  36   1.0000      -2.236182       -60.8496
  37   1.0000      -2.235600       -60.8338
  38   1.0000      -2.235212       -60.8232
  39   1.0000      -2.234596       -60.8065
  40   1.0000      -2.234212       -60.7960
  41   1.0000      -2.233661       -60.7810
  42   1.0000      -2.233490       -60.7763
  43   1.0000      -2.233127       -60.7665
  44   1.0000      -2.232005       -60.7359
  45   1.0000      -2.231804       -60.7305
  46   1.0000      -2.231199       -60.7140
  47   1.0000      -2.228418       -60.6383
  48   1.0000      -2.227403       -60.6107
  49   1.0000      -2.226732       -60.5925
  50   1.0000      -2.226343       -60.5819
  51   1.0000      -2.225448       -60.5575
  52   1.0000      -2.223614       -60.5076
  53   1.0000      -2.220467       -60.4220
  54   1.0000      -2.057870       -55.9975
  55   1.0000      -2.051254       -55.8175
  56   1.0000      -2.050543       -55.7981
  57   1.0000      -0.425945       -11.5905
  58   1.0000      -0.387564       -10.5461
  59   1.0000      -0.380949       -10.3662
  60   1.0000      -0.378450       -10.2982
  61   1.0000      -0.364950        -9.9308
  62   1.0000      -0.362324        -9.8593
  63   1.0000      -0.360760        -9.8168
  64   1.0000      -0.358404        -9.7527
  65   1.0000      -0.351076        -9.5533
  66   1.0000      -0.348347        -9.4790
  67   1.0000      -0.347585        -9.4583
  68   1.0000      -0.341613        -9.2958
  69   1.0000      -0.339329        -9.2336
  70   1.0000      -0.338153        -9.2016
  71   1.0000      -0.336142        -9.1469
  72   1.0000      -0.334427        -9.1002
  73   1.0000      -0.330559        -8.9950
  74   1.0000      -0.329236        -8.9590
  75   1.0000      -0.327425        -8.9097
  76   1.0000      -0.325511        -8.8576
  77   1.0000      -0.322151        -8.7662
  78   1.0000      -0.319240        -8.6870
  79   1.0000      -0.317967        -8.6523
  80   1.0000      -0.314024        -8.5450
  81   1.0000      -0.310841        -8.4584
  82   1.0000      -0.310041        -8.4366
  83   1.0000      -0.306947        -8.3525
  84   1.0000      -0.302183        -8.2228
  85   1.0000      -0.299948        -8.1620
  86   1.0000      -0.297993        -8.1088
  87   1.0000      -0.294969        -8.0265
  88   1.0000      -0.290015        -7.8917
  89   1.0000      -0.286882        -7.8064
  90   1.0000      -0.285245        -7.7619
  91   1.0000      -0.281474        -7.6593
  92   1.0000      -0.281307        -7.6548
  93   1.0000      -0.279095        -7.5946
  94   1.0000      -0.277368        -7.5476
  95   1.0000      -0.275929        -7.5084
  96   1.0000      -0.274941        -7.4815
  97   1.0000      -0.274216        -7.4618
  98   1.0000      -0.273783        -7.4500
  99   1.0000      -0.271289        -7.3822
 100   1.0000      -0.269012        -7.3202
 101   1.0000      -0.268243        -7.2993
 102   1.0000      -0.266395        -7.2490
 103   1.0000      -0.266206        -7.2438
 104   1.0000      -0.264414        -7.1951
 105   1.0000      -0.263744        -7.1768
 106   1.0000      -0.261608        -7.1187
 107   1.0000      -0.257780        -7.0145
 108   1.0000      -0.257448        -7.0055
 109   1.0000      -0.256543        -6.9809
 110   1.0000      -0.253767        -6.9054
 111   1.0000      -0.252735        -6.8773
 112   1.0000      -0.252134        -6.8609
 113   1.0000      -0.249646        -6.7932
 114   1.0000      -0.247181        -6.7261
 115   1.0000      -0.244927        -6.6648
 116   1.0000      -0.241956        -6.5840
 117   1.0000      -0.240258        -6.5377
 118   1.0000      -0.239710        -6.5228
 119   1.0000      -0.237851        -6.4723
 120   1.0000      -0.234003        -6.3675
 121   1.0000      -0.209741        -5.7074
 122   1.0000      -0.207012        -5.6331
 123   1.0000      -0.198750        -5.4083
 124   1.0000      -0.185436        -5.0460
 125   1.0000      -0.176228        -4.7954
 126   0.0000      -0.159266        -4.3339
 127   0.0000      -0.155032        -4.2186
 128   0.0000      -0.148658        -4.0452
 129   0.0000      -0.147126        -4.0035
 130   0.0000      -0.141094        -3.8394

MULLIKEN ATOMIC CHARGES AND SPIN POPULATIONS
--------------------------------------------
   0 Au:   -0.001574   -0.068977
   1 Au:    0.363721    0.041915
   2 Au:   -0.079856   -0.103122
   3 Au:    0.305052    0.020328
   4 Au:    0.309227   -0.092218
   5 Au:    0.339467   -0.113320
   6 Au:    0.215978   -0.010524
   7 Au:    0.034696   -0.082156
   8 Au:    0.343182   -0.162343
   9 Au:    0.280127   -0.037540
  10 Au:   -0.243829   -0.090999
  11 Au:    0.337378   -0.124111
  12 Fe:   -2.203570    2.823067
Sum of atomic charges         :   -0.0000000

LOEWDIN ATOMIC CHARGES AND SPIN POPULATIONS
-------------------------------------------
   0 Au:    0.003813   -0.048352
   1 Au:    0.056548   -0.004289
   2 Au:   -0.003713   -0.084052
   3 Au:    0.058874    0.003686
   4 Au:    0.053260   -0.109881
   5 Au:    0.111136   -0.103017
   6 Au:    0.050886   -0.039380
   7 Au:    0.030171   -0.075446
   8 Au:    0.114663   -0.152719
   9 Au:    0.085939   -0.075935
  10 Au:   -0.059211   -0.057379
  11 Au:    0.124880   -0.136651
  12 Fe:   -0.627246    2.883415

  Mayer bond orders larger than 0.100000
B(  0-Au,  1-Au) :   0.2869 B(  0-Au,  2-Au) :   0.1903 B(  0-Au,  3-Au) :   0.1710
B(  0-Au,  5-Au) :   0.3391 B(  0-Au,  7-Au) :   0.2078 B(  0-Au, 10-Au) :   0.1183
B(  0-Au, 12-Fe) :   0.5232 B(  1-Au,  3-Au) :   0.1922 B(  1-Au,  7-Au) :   0.3612
B(  1-Au, 10-Au) :   0.3145 B(  2-Au,  3-Au) :   0.4161 B(  2-Au,  4-Au) :   0.2512
B(  2-Au,  5-Au) :   0.1549 B(  2-Au, 10-Au) :   0.2029 B(  2-Au, 12-Fe) :   0.5681
B(  3-Au, 10-Au) :   0.3735 B(  3-Au, 12-Fe) :   0.1047 B(  4-Au,  5-Au) :   0.1203
B(  4-Au,  6-Au) :   0.2752 B(  4-Au, 11-Au) :   0.2309 B(  4-Au, 12-Fe) :   0.4675
B(  5-Au,  6-Au) :   0.1450 B(  5-Au, 12-Fe) :   0.5422 B(  6-Au,  9-Au) :   0.2836
B(  6-Au, 12-Fe) :   0.5391 B(  7-Au,  8-Au) :   0.1168 B(  7-Au,  9-Au) :   0.2587
B(  7-Au, 10-Au) :   0.1311 B(  7-Au, 12-Fe) :   0.5760 B(  8-Au,  9-Au) :   0.1779
B(  8-Au, 10-Au) :   0.2741 B(  8-Au, 11-Au) :   0.1508 B(  8-Au, 12-Fe) :   0.5939
B(  9-Au, 12-Fe) :   0.4958 B( 10-Au, 11-Au) :   0.2624 B( 10-Au, 12-Fe) :   0.5219
B( 11-Au, 12-Fe) :   0.5070

FINAL SINGLE POINT ENERGY     -2893.389590104950

DIPOLE MOMENT
-------------
                                X             Y             Z
Electronic contribution:     23.08702       7.00058      17.22685
Nuclear contribution   :    -22.93180      -7.08798     -17.18971
                        -----------------------------------------
Total Dipole Moment    :      0.15522      -0.08739       0.03713
                        -----------------------------------------
Magnitude (a.u.)       :      0.18196
Magnitude (Debye)      :      0.46251

Rotational constants in cm-1:     0.001625     0.001240     0.001077
Rotational constants in MHz :    48.708124    37.176114    32.297467

                             ****ORCA TERMINATED NORMALLY****
TOTAL RUN TIME: 0 days 0 hours 14 minutes 42 seconds 880 msec
