                         Program Version 5.0.3 -  RELEASE  -
|  1> !R2SCAN def2-TZVP VERYSLOWCONV
|  2> !KDIIS
|  3> %scf
|  4>   AutoTRAHIter 200
|  5>   maxiter 400
|  6> end
|  7>
|  8> %pal nprocs 6 end
|  9>
| 10> *xyzfile 0 5 pbe.xyz
| 11>
| 12> $new_job
| 13>
| 14> !R2SCAN def2-TZVP VERYSLOWCONV
| 15> !KDIIS
| 16> %scf
| 17>   AutoTRAHIter 200
| 18>   maxiter 400
| 19> end
| 20>
| 21>
| 22> %pal nprocs 6 end
| 23>
| 24> *xyzfile 0 3 pbe.xyz
| 25>
| 26>
| 27>
| 28>
| 29>
| 30>                          ****END OF INPUT****
 Total Charge           Charge          ....    0
 Multiplicity           Mult            ....    5
 Number of Electrons    NEL             ....  254
FINAL SINGLE POINT ENERGY     -2893.839251718481

CARTESIAN COORDINATES (ANGSTROEM)
---------------------------------
  Au     9.558587    9.743912   10.121544
  Au    12.260167    9.778829    9.441232
  Au     9.169736    7.138918   11.398466
  Au    11.565668    8.390346   11.847586
  Au     7.058864    5.889152   10.039333
  Au     7.035713    8.758753   10.178539
  Au     6.329171    7.273416    7.794180
  Au    10.467896    9.288099    7.432794
  Au    10.412217    6.426545    6.922863
  Au     8.311625    8.132818    6.167306
  Au    11.443480    7.113897    9.416072
  Au     9.573938    5.061843    9.258370
  Fe     8.829625    7.563444    8.716458

 Multiplicity           Mult            ....    3
 Number of Electrons    NEL             ....  254
 Basis Dimension        Dim             ....  525

ORBITAL ENERGIES
----------------
                 SPIN UP ORBITALS
  NO   OCC          E(Eh)            E(eV)
   0   1.0000    -255.631177     -6956.0780
   1   1.0000     -29.929538      -814.4241
   2   1.0000     -25.766217      -701.1344
   3   1.0000     -25.758868      -700.9344
   4   1.0000     -25.755051      -700.8306
   5   1.0000      -4.125912      -112.2718
   6   1.0000      -4.119524      -112.0980
   7   1.0000      -4.119060      -112.0853
   8   1.0000      -4.118913      -112.0813
   9   1.0000      -4.117529      -112.0437
  10   1.0000      -4.115606      -111.9913
  11   1.0000      -4.115386      -111.9853
  12   1.0000      -4.113521      -111.9346
  13   1.0000      -4.109800      -111.8333
  14   1.0000      -4.109743      -111.8318
  15   1.0000      -4.103155      -111.6525
  16   1.0000      -4.102308      -111.6295
  17   1.0000      -3.507601       -95.4467
  18   1.0000      -2.316141       -63.0254
  19   1.0000      -2.310461       -62.8708
  20   1.0000      -2.309962       -62.8573
  21   1.0000      -2.309810       -62.8531
  22   1.0000      -2.308858       -62.8272
  23   1.0000      -2.308195       -62.8092
  24   1.0000      -2.306974       -62.7760
  25   1.0000      -2.306740       -62.7696
  26   1.0000      -2.305704       -62.7414
  27   1.0000      -2.304701       -62.7141
  28   1.0000      -2.304535       -62.7096
  29   1.0000      -2.304024       -62.6957
  30   1.0000      -2.303604       -62.6842
  31   1.0000      -2.303000       -62.6678
  32   1.0000      -2.302271       -62.6480
  33   1.0000      -2.301923       -62.6385
  34   1.0000      -2.301182       -62.6183
  35   1.0000      -2.300764       -62.6070
  36   1.0000      -2.300498       -62.5997
  37   1.0000      -2.299539       -62.5736
  38   1.0000      -2.299178       -62.5638
  39   1.0000      -2.298204       -62.5373
  40   1.0000      -2.298125       -62.5352
  41   1.0000      -2.297995       -62.5316
  42   1.0000      -2.297034       -62.5055
  43   1.0000      -2.296477       -62.4903
  44   1.0000      -2.295668       -62.4683
  45   1.0000      -2.294944       -62.4486
  46   1.0000      -2.293580       -62.4115
  47   1.0000      -2.291045       -62.3425
  48   1.0000      -2.290837       -62.3368
  49   1.0000      -2.290676       -62.3325
  50   1.0000      -2.288683       -62.2782
  51   1.0000      -2.288502       -62.2733
  52   1.0000      -2.286090       -62.2077
  53   1.0000      -2.285260       -62.1851
  54   1.0000      -2.283502       -62.1372
  55   1.0000      -2.270438       -61.7817
  56   1.0000      -2.261653       -61.5427
  57   1.0000      -0.434851       -11.8329
  58   1.0000      -0.396551       -10.7907
  59   1.0000      -0.390649       -10.6301
  60   1.0000      -0.387314       -10.5394
  61   1.0000      -0.380340       -10.3496
  62   1.0000      -0.378643       -10.3034
  63   1.0000      -0.373963       -10.1760
  64   1.0000      -0.371553       -10.1105
  65   1.0000      -0.363518        -9.8918
  66   1.0000      -0.360566        -9.8115
  67   1.0000      -0.358468        -9.7544
  68   1.0000      -0.352292        -9.5864
  69   1.0000      -0.350913        -9.5488
  70   1.0000      -0.348096        -9.4722
  71   1.0000      -0.347802        -9.4642
  72   1.0000      -0.345224        -9.3940
  73   1.0000      -0.342083        -9.3086
  74   1.0000      -0.340694        -9.2708
  75   1.0000      -0.335761        -9.1365
  76   1.0000      -0.335044        -9.1170
  77   1.0000      -0.333916        -9.0863
  78   1.0000      -0.330730        -8.9996
  79   1.0000      -0.329321        -8.9613
  80   1.0000      -0.326038        -8.8719
  81   1.0000      -0.323103        -8.7921
  82   1.0000      -0.322455        -8.7744
  83   1.0000      -0.319356        -8.6901
  84   1.0000      -0.316120        -8.6021
  85   1.0000      -0.315337        -8.5808
  86   1.0000      -0.309448        -8.4205
  87   1.0000      -0.304763        -8.2930
  88   1.0000      -0.300070        -8.1653
  89   1.0000      -0.297230        -8.0880
  90   1.0000      -0.296016        -8.0550
  91   1.0000      -0.294310        -8.0086
  92   1.0000      -0.290861        -7.9147
  93   1.0000      -0.290043        -7.8925
  94   1.0000      -0.286940        -7.8080
  95   1.0000      -0.286592        -7.7986
  96   1.0000      -0.283765        -7.7216
  97   1.0000      -0.282698        -7.6926
  98   1.0000      -0.282512        -7.6876
  99   1.0000      -0.281614        -7.6631
 100   1.0000      -0.279219        -7.5979
 101   1.0000      -0.276848        -7.5334
 102   1.0000      -0.275438        -7.4951
 103   1.0000      -0.274826        -7.4784
 104   1.0000      -0.272823        -7.4239
 105   1.0000      -0.271436        -7.3861
 106   1.0000      -0.269029        -7.3207
 107   1.0000      -0.267932        -7.2908
 108   1.0000      -0.265746        -7.2313
 109   1.0000      -0.265032        -7.2119
 110   1.0000      -0.264508        -7.1976
 111   1.0000      -0.262608        -7.1459
 112   1.0000      -0.259932        -7.0731
 113   1.0000      -0.259537        -7.0624
 114   1.0000      -0.258919        -7.0456
 115   1.0000      -0.257907        -7.0180
 116   1.0000      -0.255477        -6.9519
 117   1.0000      -0.254180        -6.9166
 118   1.0000      -0.251437        -6.8420
 119   1.0000      -0.249049        -6.7770
 120   1.0000      -0.247294        -6.7292
 121   1.0000      -0.245835        -6.6895
 122   1.0000      -0.244930        -6.6649
 123   1.0000      -0.243797        -6.6341
 124   1.0000      -0.238942        -6.5019
 125   1.0000      -0.237667        -6.4672
 126   1.0000      -0.203530        -5.5383
 127   1.0000      -0.201155        -5.4737
 128   0.0000      -0.176897        -4.8136
 129   0.0000      -0.160680        -4.3723
 130   0.0000      -0.150097        -4.0844
 131   0.0000      -0.125775        -3.4225
 132   0.0000      -0.120719        -3.2849

                 SPIN DOWN ORBITALS
  NO   OCC          E(Eh)            E(eV)
   0   1.0000    -255.630194     -6956.0512
   1   1.0000     -29.853101      -812.3442
   2   1.0000     -25.704513      -699.4553
   3   1.0000     -25.700725      -699.3523
   4   1.0000     -25.699989      -699.3323
   5   1.0000      -4.126419      -112.2856
   6   1.0000      -4.119673      -112.1020
   7   1.0000      -4.119393      -112.0944
   8   1.0000      -4.118775      -112.0776
   9   1.0000      -4.118036      -112.0575
  10   1.0000      -4.116039      -112.0031
  11   1.0000      -4.115644      -111.9924
  12   1.0000      -4.113660      -111.9384
  13   1.0000      -4.110361      -111.8486
  14   1.0000      -4.109905      -111.8362
  15   1.0000      -4.103454      -111.6607
  16   1.0000      -4.102373      -111.6312
  17   1.0000      -3.340611       -90.9027
  18   1.0000      -2.316679       -63.0400
  19   1.0000      -2.310774       -62.8794
  20   1.0000      -2.310177       -62.8631
  21   1.0000      -2.309463       -62.8437
  22   1.0000      -2.308704       -62.8230
  23   1.0000      -2.308270       -62.8112
  24   1.0000      -2.306935       -62.7749
  25   1.0000      -2.306053       -62.7509
  26   1.0000      -2.305552       -62.7373
  27   1.0000      -2.304836       -62.7178
  28   1.0000      -2.304217       -62.7009
  29   1.0000      -2.304067       -62.6968
  30   1.0000      -2.303576       -62.6835
  31   1.0000      -2.303159       -62.6721
  32   1.0000      -2.302574       -62.6562
  33   1.0000      -2.302028       -62.6414
  34   1.0000      -2.301449       -62.6256
  35   1.0000      -2.301031       -62.6142
  36   1.0000      -2.300734       -62.6062
  37   1.0000      -2.299917       -62.5839
  38   1.0000      -2.299320       -62.5677
  39   1.0000      -2.298467       -62.5445
  40   1.0000      -2.298105       -62.5346
  41   1.0000      -2.297779       -62.5257
  42   1.0000      -2.297262       -62.5117
  43   1.0000      -2.296825       -62.4998
  44   1.0000      -2.295959       -62.4762
  45   1.0000      -2.295280       -62.4578
  46   1.0000      -2.294605       -62.4394
  47   1.0000      -2.291499       -62.3549
  48   1.0000      -2.291262       -62.3484
  49   1.0000      -2.289903       -62.3114
  50   1.0000      -2.289013       -62.2872
  51   1.0000      -2.288598       -62.2759
  52   1.0000      -2.286477       -62.2182
  53   1.0000      -2.283899       -62.1480
  54   1.0000      -2.113647       -57.5153
  55   1.0000      -2.105892       -57.3042
  56   1.0000      -2.104489       -57.2660
  57   1.0000      -0.432914       -11.7802
  58   1.0000      -0.394738       -10.7414
  59   1.0000      -0.388741       -10.5782
  60   1.0000      -0.386473       -10.5165
  61   1.0000      -0.373913       -10.1747
  62   1.0000      -0.371120       -10.0987
  63   1.0000      -0.369921       -10.0661
  64   1.0000      -0.367482        -9.9997
  65   1.0000      -0.360270        -9.8034
  66   1.0000      -0.357935        -9.7399
  67   1.0000      -0.357006        -9.7146
  68   1.0000      -0.351541        -9.5659
  69   1.0000      -0.348957        -9.4956
  70   1.0000      -0.347669        -9.4605
  71   1.0000      -0.345940        -9.4135
  72   1.0000      -0.343987        -9.3604
  73   1.0000      -0.340006        -9.2520
  74   1.0000      -0.339096        -9.2273
  75   1.0000      -0.337122        -9.1736
  76   1.0000      -0.335209        -9.1215
  77   1.0000      -0.332030        -9.0350
  78   1.0000      -0.328698        -8.9443
  79   1.0000      -0.327692        -8.9170
  80   1.0000      -0.323404        -8.8003
  81   1.0000      -0.320265        -8.7149
  82   1.0000      -0.318403        -8.6642
  83   1.0000      -0.315772        -8.5926
  84   1.0000      -0.311009        -8.4630
  85   1.0000      -0.308673        -8.3994
  86   1.0000      -0.306889        -8.3509
  87   1.0000      -0.303722        -8.2647
  88   1.0000      -0.299423        -8.1477
  89   1.0000      -0.294980        -8.0268
  90   1.0000      -0.293797        -7.9946
  91   1.0000      -0.290492        -7.9047
  92   1.0000      -0.289746        -7.8844
  93   1.0000      -0.287967        -7.8360
  94   1.0000      -0.285814        -7.7774
  95   1.0000      -0.284520        -7.7422
  96   1.0000      -0.283673        -7.7191
  97   1.0000      -0.283067        -7.7026
  98   1.0000      -0.282567        -7.6890
  99   1.0000      -0.280048        -7.6205
 100   1.0000      -0.277297        -7.5456
 101   1.0000      -0.276474        -7.5232
 102   1.0000      -0.275431        -7.4949
 103   1.0000      -0.274746        -7.4762
 104   1.0000      -0.272600        -7.4178
 105   1.0000      -0.271876        -7.3981
 106   1.0000      -0.270190        -7.3522
 107   1.0000      -0.266115        -7.2413
 108   1.0000      -0.265859        -7.2344
 109   1.0000      -0.264676        -7.2022
 110   1.0000      -0.261900        -7.1267
 111   1.0000      -0.260457        -7.0874
 112   1.0000      -0.260149        -7.0790
 113   1.0000      -0.257741        -7.0135
 114   1.0000      -0.254735        -6.9317
 115   1.0000      -0.252482        -6.8704
 116   1.0000      -0.249025        -6.7763
 117   1.0000      -0.247625        -6.7382
 118   1.0000      -0.246666        -6.7121
 119   1.0000      -0.244137        -6.6433
 120   1.0000      -0.241151        -6.5621
 121   1.0000      -0.212112        -5.7719
 122   1.0000      -0.208850        -5.6831
 123   1.0000      -0.199661        -5.4331
 124   1.0000      -0.185717        -5.0536
 125   1.0000      -0.178237        -4.8501
 126   0.0000      -0.154058        -4.1921
 127   0.0000      -0.146529        -3.9873
 128   0.0000      -0.140181        -3.8145
 129   0.0000      -0.139706        -3.8016
 130   0.0000      -0.130732        -3.5574

MULLIKEN ATOMIC CHARGES AND SPIN POPULATIONS
--------------------------------------------
   0 Au:    0.011836   -0.081243
   1 Au:    0.326095    0.048705
   2 Au:   -0.076769   -0.128595
   3 Au:    0.261028    0.012253
   4 Au:    0.281803   -0.111901
   5 Au:    0.318513   -0.142659
   6 Au:    0.182019   -0.031785
   7 Au:    0.023378   -0.110559
   8 Au:    0.329291   -0.177971
   9 Au:    0.243146   -0.052879
  10 Au:   -0.205557   -0.095736
  11 Au:    0.308148   -0.150159
  12 Fe:   -2.002932    3.022530
Sum of atomic charges         :   -0.0000000

LOEWDIN ATOMIC CHARGES AND SPIN POPULATIONS
-------------------------------------------
   0 Au:   -0.000057   -0.060065
   1 Au:    0.052619   -0.005081
   2 Au:   -0.010727   -0.104200
   3 Au:    0.052975   -0.000528
   4 Au:    0.045676   -0.130457
   5 Au:    0.104372   -0.123151
   6 Au:    0.040717   -0.056345
   7 Au:    0.022752   -0.095021
   8 Au:    0.112922   -0.163848
   9 Au:    0.077070   -0.089257
  10 Au:   -0.061658   -0.069223
  11 Au:    0.120685   -0.154122
  12 Fe:   -0.557347    3.051299

  Mayer bond orders larger than 0.100000
B(  0-Au,  1-Au) :   0.2697 B(  0-Au,  2-Au) :   0.1705 B(  0-Au,  3-Au) :   0.1482
B(  0-Au,  5-Au) :   0.3423 B(  0-Au,  7-Au) :   0.1975 B(  0-Au, 12-Fe) :   0.5213
B(  1-Au,  3-Au) :   0.1713 B(  1-Au,  7-Au) :   0.3673 B(  1-Au, 10-Au) :   0.3097
B(  2-Au,  3-Au) :   0.4227 B(  2-Au,  4-Au) :   0.2401 B(  2-Au,  5-Au) :   0.1427
B(  2-Au, 10-Au) :   0.1769 B(  2-Au, 12-Fe) :   0.5325 B(  3-Au, 10-Au) :   0.3752
B(  4-Au,  5-Au) :   0.1042 B(  4-Au,  6-Au) :   0.2697 B(  4-Au, 11-Au) :   0.2170
B(  4-Au, 12-Fe) :   0.4460 B(  5-Au,  6-Au) :   0.1237 B(  5-Au, 12-Fe) :   0.5343
B(  6-Au,  9-Au) :   0.2775 B(  6-Au, 12-Fe) :   0.5208 B(  7-Au,  8-Au) :   0.1055
B(  7-Au,  9-Au) :   0.2493 B(  7-Au, 10-Au) :   0.1094 B(  7-Au, 12-Fe) :   0.5540
B(  8-Au,  9-Au) :   0.1626 B(  8-Au, 10-Au) :   0.2801 B(  8-Au, 11-Au) :   0.1355
B(  8-Au, 12-Fe) :   0.5751 B(  9-Au, 12-Fe) :   0.4867 B( 10-Au, 11-Au) :   0.2568
B( 10-Au, 12-Fe) :   0.4818 B( 11-Au, 12-Fe) :   0.5138

FINAL SINGLE POINT ENERGY     -2893.833172631338

DIPOLE MOMENT
-------------
                                X             Y             Z
Electronic contribution:     23.09404       6.97578      17.19952
Nuclear contribution   :    -22.93180      -7.08798     -17.18971
                        -----------------------------------------
Total Dipole Moment    :      0.16224      -0.11219       0.00980
                        -----------------------------------------
Magnitude (a.u.)       :      0.19749
Magnitude (Debye)      :      0.50199

Rotational constants in cm-1:     0.001625     0.001240     0.001077
Rotational constants in MHz :    48.708124    37.176114    32.297467

                             ****ORCA TERMINATED NORMALLY****
TOTAL RUN TIME: 0 days 0 hours 16 minutes 26 seconds 388 msec
