                         Program Version 5.0.3 -  RELEASE  -
|  1> !RI-B2PLYP def2-TZVP def2-TZVP/C
|  2> !RIJCOSX KDIIS
|  3> %pal nprocs 16 end
|  4>
|  5> %scf
|  6>   AutoTRAHIter 200
|  7>   maxiter 400
|  8> end
|  9>
| 10>
| 11>
| 12> *xyzfile 0 5 pbe.xyz
| 13>
| 14> $new_job
| 15>
| 16> !RI-B2PLYP def2-TZVP def2-TZVP/C
| 17> !RIJCOSX KDIIS
| 18>
| 19> %pal nprocs 16 end
| 20> %scf
| 21>   AutoTRAHIter 200
| 22>   maxiter 400
| 23> end
| 24>
| 25>
| 26> *xyzfile 0 3 pbe.xyz
| 27>
| 28>
| 29>
| 30>
| 31>
| 32>                          ****END OF INPUT****
 Total Charge           Charge          ....    0
 Multiplicity           Mult            ....    5
 Number of Electrons    NEL             ....  310
MP2 TOTAL ENERGY:    -3184.696971780 Eh
FINAL SINGLE POINT ENERGY     -3184.696971780486

CARTESIAN COORDINATES (ANGSTROEM)
---------------------------------
  Au     7.168566    9.749107    6.960127
  Au     5.239216    5.602965    7.488143
  Au     6.710263    7.238386    5.777598
  Au     6.771767    3.653084    8.748517
  Au     9.274037    7.789123    6.750063
  Au     9.730185    7.867804    9.660798
  Au     8.236985    5.273701    7.027245
  Au     9.664815   10.168954    8.118965
  Au     8.681355    5.349836    9.849407
  Au     7.589907    7.391602   11.397852
  Au     5.182435    8.365712   10.357271
  Au     7.643595    9.832505   10.005675
  Au     5.680210    5.678254   10.311512
  Au     5.276450   10.651758    8.792162
  Au     4.729415    8.289676    7.446117
  Mn     7.156796    7.382107    8.587096

 Multiplicity           Mult            ....    3
 Number of Electrons    NEL             ....  310
 Basis Dimension        Dim             ....  645

ORBITAL ENERGIES
----------------
                 SPIN UP ORBITALS
  NO   OCC          E(Eh)            E(eV)
   0   1.0000    -237.629903     -6466.2384
   1   1.0000     -28.131005      -765.4836
   2   1.0000     -24.049467      -654.4193
   3   1.0000     -24.048768      -654.4002
   4   1.0000     -24.048283      -654.3871
   5   1.0000      -4.409745      -119.9953
   6   1.0000      -4.409701      -119.9941
   7   1.0000      -4.406532      -119.9078
   8   1.0000      -4.406433      -119.9051
   9   1.0000      -4.404752      -119.8594
  10   1.0000      -4.404668      -119.8571
  11   1.0000      -4.404646      -119.8565
  12   1.0000      -4.404568      -119.8544
  13   1.0000      -4.404381      -119.8493
  14   1.0000      -4.404354      -119.8486
  15   1.0000      -4.404297      -119.8470
  16   1.0000      -4.404228      -119.8451
  17   1.0000      -4.400994      -119.7571
  18   1.0000      -4.395355      -119.6037
  19   1.0000      -4.395351      -119.6036
  20   1.0000      -3.609124       -98.2093
  21   1.0000      -2.529760       -68.8383
  22   1.0000      -2.529643       -68.8351
  23   1.0000      -2.528445       -68.8025
  24   1.0000      -2.528219       -68.7963
  25   1.0000      -2.528049       -68.7917
  26   1.0000      -2.527987       -68.7900
  27   1.0000      -2.527728       -68.7830
  28   1.0000      -2.527707       -68.7824
  29   1.0000      -2.527482       -68.7763
  30   1.0000      -2.526206       -68.7416
  31   1.0000      -2.524832       -68.7042
  32   1.0000      -2.524590       -68.6976
  33   1.0000      -2.524289       -68.6894
  34   1.0000      -2.523738       -68.6744
  35   1.0000      -2.523605       -68.6708
  36   1.0000      -2.523513       -68.6683
  37   1.0000      -2.523359       -68.6641
  38   1.0000      -2.523209       -68.6600
  39   1.0000      -2.522044       -68.6283
  40   1.0000      -2.521920       -68.6249
  41   1.0000      -2.521687       -68.6186
  42   1.0000      -2.521560       -68.6151
  43   1.0000      -2.521429       -68.6116
  44   1.0000      -2.521170       -68.6045
  45   1.0000      -2.520924       -68.5978
  46   1.0000      -2.520732       -68.5926
  47   1.0000      -2.520686       -68.5914
  48   1.0000      -2.520016       -68.5731
  49   1.0000      -2.519863       -68.5690
  50   1.0000      -2.519181       -68.5504
  51   1.0000      -2.519162       -68.5499
  52   1.0000      -2.518595       -68.5344
  53   1.0000      -2.518262       -68.5254
  54   1.0000      -2.517750       -68.5115
  55   1.0000      -2.517587       -68.5070
  56   1.0000      -2.517306       -68.4994
  57   1.0000      -2.516981       -68.4905
  58   1.0000      -2.516796       -68.4855
  59   1.0000      -2.516117       -68.4670
  60   1.0000      -2.512281       -68.3626
  61   1.0000      -2.512271       -68.3624
  62   1.0000      -2.511814       -68.3499
  63   1.0000      -2.511705       -68.3470
  64   1.0000      -2.511064       -68.3295
  65   1.0000      -2.510929       -68.3258
  66   1.0000      -2.411472       -65.6195
  67   1.0000      -2.410720       -65.5990
  68   1.0000      -2.410707       -65.5987
  69   1.0000      -0.524809       -14.2808
  70   1.0000      -0.522324       -14.2132
  71   1.0000      -0.516445       -14.0532
  72   1.0000      -0.515349       -14.0234
  73   1.0000      -0.513091       -13.9619
  74   1.0000      -0.506802       -13.7908
  75   1.0000      -0.474744       -12.9184
  76   1.0000      -0.473672       -12.8893
  77   1.0000      -0.473406       -12.8820
  78   1.0000      -0.470570       -12.8049
  79   1.0000      -0.468825       -12.7574
  80   1.0000      -0.466472       -12.6933
  81   1.0000      -0.464176       -12.6309
  82   1.0000      -0.462401       -12.5826
  83   1.0000      -0.462244       -12.5783
  84   1.0000      -0.462073       -12.5736
  85   1.0000      -0.458544       -12.4776
  86   1.0000      -0.457485       -12.4488
  87   1.0000      -0.456358       -12.4181
  88   1.0000      -0.454815       -12.3761
  89   1.0000      -0.451772       -12.2934
  90   1.0000      -0.448080       -12.1929
  91   1.0000      -0.446185       -12.1413
  92   1.0000      -0.445554       -12.1241
  93   1.0000      -0.444550       -12.0968
  94   1.0000      -0.442829       -12.0500
  95   1.0000      -0.442817       -12.0497
  96   1.0000      -0.442264       -12.0346
  97   1.0000      -0.440548       -11.9879
  98   1.0000      -0.437825       -11.9138
  99   1.0000      -0.433010       -11.7828
 100   1.0000      -0.430670       -11.7191
 101   1.0000      -0.428267       -11.6537
 102   1.0000      -0.428214       -11.6523
 103   1.0000      -0.422392       -11.4939
 104   1.0000      -0.420236       -11.4352
 105   1.0000      -0.416244       -11.3266
 106   1.0000      -0.412184       -11.2161
 107   1.0000      -0.412127       -11.2146
 108   1.0000      -0.411605       -11.2003
 109   1.0000      -0.407140       -11.0788
 110   1.0000      -0.406707       -11.0670
 111   1.0000      -0.398861       -10.8536
 112   1.0000      -0.392279       -10.6745
 113   1.0000      -0.389709       -10.6045
 114   1.0000      -0.387578       -10.5465
 115   1.0000      -0.385958       -10.5025
 116   1.0000      -0.384800       -10.4709
 117   1.0000      -0.384444       -10.4613
 118   1.0000      -0.381951       -10.3934
 119   1.0000      -0.377329       -10.2677
 120   1.0000      -0.375958       -10.2303
 121   1.0000      -0.375438       -10.2162
 122   1.0000      -0.374167       -10.1816
 123   1.0000      -0.373068       -10.1517
 124   1.0000      -0.371888       -10.1196
 125   1.0000      -0.371434       -10.1072
 126   1.0000      -0.371280       -10.1031
 127   1.0000      -0.368112       -10.0168
 128   1.0000      -0.366308        -9.9677
 129   1.0000      -0.366167        -9.9639
 130   1.0000      -0.362564        -9.8659
 131   1.0000      -0.360648        -9.8137
 132   1.0000      -0.358912        -9.7665
 133   1.0000      -0.358173        -9.7464
 134   1.0000      -0.358022        -9.7423
 135   1.0000      -0.357061        -9.7161
 136   1.0000      -0.355546        -9.6749
 137   1.0000      -0.355268        -9.6673
 138   1.0000      -0.354854        -9.6561
 139   1.0000      -0.353439        -9.6176
 140   1.0000      -0.350619        -9.5408
 141   1.0000      -0.349736        -9.5168
 142   1.0000      -0.349410        -9.5079
 143   1.0000      -0.349274        -9.5042
 144   1.0000      -0.348176        -9.4744
 145   1.0000      -0.340331        -9.2609
 146   1.0000      -0.335260        -9.1229
 147   1.0000      -0.329113        -8.9556
 148   1.0000      -0.328045        -8.9266
 149   1.0000      -0.326935        -8.8963
 150   1.0000      -0.317739        -8.6461
 151   1.0000      -0.314511        -8.5583
 152   1.0000      -0.312849        -8.5130
 153   1.0000      -0.255529        -6.9533
 154   1.0000      -0.238057        -6.4779
 155   1.0000      -0.220617        -6.0033
 156   0.0000      -0.140520        -3.8237
 157   0.0000      -0.121779        -3.3138
 158   0.0000      -0.084741        -2.3059
 159   0.0000      -0.080611        -2.1935
 160   0.0000      -0.074073        -2.0156

                 SPIN DOWN ORBITALS
  NO   OCC          E(Eh)            E(eV)
   0   1.0000    -237.628309     -6466.1950
   1   1.0000     -28.030128      -762.7386
   2   1.0000     -23.956467      -651.8886
   3   1.0000     -23.955748      -651.8690
   4   1.0000     -23.955683      -651.8673
   5   1.0000      -4.411599      -120.0457
   6   1.0000      -4.411550      -120.0444
   7   1.0000      -4.407310      -119.9290
   8   1.0000      -4.407219      -119.9265
   9   1.0000      -4.405260      -119.8732
  10   1.0000      -4.405241      -119.8727
  11   1.0000      -4.405182      -119.8711
  12   1.0000      -4.405136      -119.8698
  13   1.0000      -4.404992      -119.8659
  14   1.0000      -4.404919      -119.8639
  15   1.0000      -4.404888      -119.8631
  16   1.0000      -4.404812      -119.8610
  17   1.0000      -4.402542      -119.7992
  18   1.0000      -4.397389      -119.6590
  19   1.0000      -4.397373      -119.6586
  20   1.0000      -3.325359       -90.4876
  21   1.0000      -2.530309       -68.8532
  22   1.0000      -2.530207       -68.8504
  23   1.0000      -2.530123       -68.8481
  24   1.0000      -2.529919       -68.8426
  25   1.0000      -2.528769       -68.8113
  26   1.0000      -2.528158       -68.7947
  27   1.0000      -2.528087       -68.7927
  28   1.0000      -2.527734       -68.7831
  29   1.0000      -2.527485       -68.7764
  30   1.0000      -2.527356       -68.7728
  31   1.0000      -2.525118       -68.7120
  32   1.0000      -2.525006       -68.7089
  33   1.0000      -2.524750       -68.7019
  34   1.0000      -2.524525       -68.6958
  35   1.0000      -2.523867       -68.6779
  36   1.0000      -2.523655       -68.6721
  37   1.0000      -2.523383       -68.6647
  38   1.0000      -2.523291       -68.6622
  39   1.0000      -2.522385       -68.6376
  40   1.0000      -2.522306       -68.6354
  41   1.0000      -2.522096       -68.6297
  42   1.0000      -2.521874       -68.6237
  43   1.0000      -2.521598       -68.6162
  44   1.0000      -2.521595       -68.6161
  45   1.0000      -2.521508       -68.6137
  46   1.0000      -2.521064       -68.6016
  47   1.0000      -2.520942       -68.5983
  48   1.0000      -2.520465       -68.5853
  49   1.0000      -2.520139       -68.5765
  50   1.0000      -2.520066       -68.5745
  51   1.0000      -2.519774       -68.5665
  52   1.0000      -2.519328       -68.5544
  53   1.0000      -2.518926       -68.5435
  54   1.0000      -2.518307       -68.5266
  55   1.0000      -2.518230       -68.5245
  56   1.0000      -2.518173       -68.5230
  57   1.0000      -2.518040       -68.5194
  58   1.0000      -2.517913       -68.5159
  59   1.0000      -2.517303       -68.4993
  60   1.0000      -2.515032       -68.4375
  61   1.0000      -2.515001       -68.4367
  62   1.0000      -2.513813       -68.4043
  63   1.0000      -2.513723       -68.4019
  64   1.0000      -2.512825       -68.3774
  65   1.0000      -2.512730       -68.3749
  66   1.0000      -2.086166       -56.7675
  67   1.0000      -2.085191       -56.7409
  68   1.0000      -2.084188       -56.7136
  69   1.0000      -0.519087       -14.1251
  70   1.0000      -0.479147       -13.0382
  71   1.0000      -0.478942       -13.0327
  72   1.0000      -0.477964       -13.0061
  73   1.0000      -0.477777       -13.0010
  74   1.0000      -0.475053       -12.9268
  75   1.0000      -0.474829       -12.9207
  76   1.0000      -0.474249       -12.9050
  77   1.0000      -0.472706       -12.8630
  78   1.0000      -0.470310       -12.7978
  79   1.0000      -0.469344       -12.7715
  80   1.0000      -0.468619       -12.7518
  81   1.0000      -0.463840       -12.6217
  82   1.0000      -0.462000       -12.5716
  83   1.0000      -0.461936       -12.5699
  84   1.0000      -0.459611       -12.5067
  85   1.0000      -0.457520       -12.4497
  86   1.0000      -0.454628       -12.3711
  87   1.0000      -0.451214       -12.2782
  88   1.0000      -0.450621       -12.2620
  89   1.0000      -0.449197       -12.2233
  90   1.0000      -0.448783       -12.2120
  91   1.0000      -0.446812       -12.1584
  92   1.0000      -0.444221       -12.0879
  93   1.0000      -0.442316       -12.0360
  94   1.0000      -0.440899       -11.9975
  95   1.0000      -0.438046       -11.9198
  96   1.0000      -0.433121       -11.7858
  97   1.0000      -0.430521       -11.7151
  98   1.0000      -0.424682       -11.5562
  99   1.0000      -0.422689       -11.5019
 100   1.0000      -0.419576       -11.4173
 101   1.0000      -0.416726       -11.3397
 102   1.0000      -0.415474       -11.3056
 103   1.0000      -0.415195       -11.2980
 104   1.0000      -0.412191       -11.2163
 105   1.0000      -0.411602       -11.2002
 106   1.0000      -0.408773       -11.1233
 107   1.0000      -0.400925       -10.9097
 108   1.0000      -0.395618       -10.7653
 109   1.0000      -0.394672       -10.7396
 110   1.0000      -0.392103       -10.6697
 111   1.0000      -0.391858       -10.6630
 112   1.0000      -0.390759       -10.6331
 113   1.0000      -0.387696       -10.5497
 114   1.0000      -0.385984       -10.5031
 115   1.0000      -0.381322       -10.3763
 116   1.0000      -0.380499       -10.3539
 117   1.0000      -0.377187       -10.2638
 118   1.0000      -0.376271       -10.2389
 119   1.0000      -0.374745       -10.1973
 120   1.0000      -0.374707       -10.1963
 121   1.0000      -0.374337       -10.1862
 122   1.0000      -0.373071       -10.1518
 123   1.0000      -0.370589       -10.0842
 124   1.0000      -0.368942       -10.0394
 125   1.0000      -0.364753        -9.9254
 126   1.0000      -0.363929        -9.9030
 127   1.0000      -0.363915        -9.9026
 128   1.0000      -0.362638        -9.8679
 129   1.0000      -0.360293        -9.8041
 130   1.0000      -0.360175        -9.8009
 131   1.0000      -0.359878        -9.7928
 132   1.0000      -0.359550        -9.7839
 133   1.0000      -0.357695        -9.7334
 134   1.0000      -0.357554        -9.7295
 135   1.0000      -0.353431        -9.6173
 136   1.0000      -0.352091        -9.5809
 137   1.0000      -0.351511        -9.5651
 138   1.0000      -0.351268        -9.5585
 139   1.0000      -0.350860        -9.5474
 140   1.0000      -0.346997        -9.4423
 141   1.0000      -0.340969        -9.2782
 142   1.0000      -0.335236        -9.1222
 143   1.0000      -0.332347        -9.0436
 144   1.0000      -0.332320        -9.0429
 145   1.0000      -0.327983        -8.9249
 146   1.0000      -0.327386        -8.9086
 147   1.0000      -0.318294        -8.6612
 148   1.0000      -0.265675        -7.2294
 149   1.0000      -0.251838        -6.8529
 150   1.0000      -0.237744        -6.4693
 151   1.0000      -0.234148        -6.3715
 152   1.0000      -0.221257        -6.0207
 153   1.0000      -0.159223        -4.3327
 154   0.0000      -0.085659        -2.3309
 155   0.0000      -0.084229        -2.2920
 156   0.0000      -0.067357        -1.8329
 157   0.0000      -0.064029        -1.7423
 158   0.0000      -0.050386        -1.3711

MULLIKEN ATOMIC CHARGES AND SPIN POPULATIONS
--------------------------------------------
   0 Au:    0.019507   -0.251169
   1 Au:    0.152296   -0.074431
   2 Au:    0.235846   -0.292801
   3 Au:    0.274415   -0.152535
   4 Au:    0.127452   -0.115553
   5 Au:    0.126602   -0.116457
   6 Au:    0.151510   -0.074835
   7 Au:    0.295897   -0.174478
   8 Au:    0.152910   -0.075192
   9 Au:    0.236844   -0.292308
  10 Au:    0.126775   -0.115644
  11 Au:    0.022379   -0.251925
  12 Au:    0.152874   -0.075054
  13 Au:    0.295969   -0.176098
  14 Au:    0.127160   -0.115762
  15 Mn:   -2.498434    4.354242
Sum of atomic charges         :   -0.0000000

LOEWDIN ATOMIC CHARGES AND SPIN POPULATIONS
-------------------------------------------
   0 Au:   -0.016136   -0.173880
   1 Au:    0.013749   -0.101656
   2 Au:    0.024418   -0.226776
   3 Au:    0.096081   -0.140678
   4 Au:   -0.001723   -0.176226
   5 Au:   -0.001934   -0.176475
   6 Au:    0.013375   -0.101974
   7 Au:    0.079619   -0.212376
   8 Au:    0.013882   -0.102108
   9 Au:    0.024873   -0.226480
  10 Au:   -0.001733   -0.176023
  11 Au:   -0.015723   -0.174305
  12 Au:    0.013743   -0.102055
  13 Au:    0.079606   -0.213484
  14 Au:   -0.001811   -0.176459
  15 Mn:   -0.320287    4.480956

  Mayer bond orders larger than 0.100000
B(  0-Au,  2-Au) :   0.1733 B(  0-Au,  4-Au) :   0.1346 B(  0-Au,  7-Au) :   0.1967
B(  0-Au, 11-Au) :   0.2264 B(  0-Au, 13-Au) :   0.1966 B(  0-Au, 14-Au) :   0.1344
B(  0-Au, 15-Mn) :   0.3560 B(  1-Au,  2-Au) :   0.1680 B(  1-Au,  3-Au) :   0.2563
B(  1-Au,  6-Au) :   0.1060 B(  1-Au, 12-Au) :   0.1844 B(  1-Au, 14-Au) :   0.2871
B(  1-Au, 15-Mn) :   0.3528 B(  2-Au,  4-Au) :   0.1844 B(  2-Au,  6-Au) :   0.1690
B(  2-Au, 14-Au) :   0.1849 B(  2-Au, 15-Mn) :   0.3380 B(  3-Au,  6-Au) :   0.2569
B(  3-Au,  8-Au) :   0.2566 B(  3-Au, 12-Au) :   0.2567 B(  4-Au,  5-Au) :   0.1447
B(  4-Au,  6-Au) :   0.2870 B(  4-Au,  7-Au) :   0.3208 B(  4-Au, 15-Mn) :   0.3278
B(  5-Au,  7-Au) :   0.3225 B(  5-Au,  8-Au) :   0.2874 B(  5-Au,  9-Au) :   0.1834
B(  5-Au, 11-Au) :   0.1334 B(  5-Au, 15-Mn) :   0.3286 B(  6-Au,  8-Au) :   0.1845
B(  6-Au, 15-Mn) :   0.3528 B(  7-Au, 11-Au) :   0.1955 B(  8-Au,  9-Au) :   0.1686
B(  8-Au, 12-Au) :   0.1059 B(  8-Au, 15-Mn) :   0.3526 B(  9-Au, 10-Au) :   0.1831
B(  9-Au, 11-Au) :   0.1744 B(  9-Au, 12-Au) :   0.1685 B(  9-Au, 15-Mn) :   0.3391
B( 10-Au, 11-Au) :   0.1329 B( 10-Au, 12-Au) :   0.2881 B( 10-Au, 13-Au) :   0.3217
B( 10-Au, 14-Au) :   0.1442 B( 10-Au, 15-Mn) :   0.3298 B( 11-Au, 13-Au) :   0.1967
B( 11-Au, 15-Mn) :   0.3543 B( 12-Au, 15-Mn) :   0.3513 B( 13-Au, 14-Au) :   0.3208
B( 14-Au, 15-Mn) :   0.3280

MP2 TOTAL ENERGY:    -3184.641952746 Eh
FINAL SINGLE POINT ENERGY     -3184.641952746323

DIPOLE MOMENT
-------------
                                X             Y             Z
Electronic contribution:      0.55088       5.25749      -0.27737
Nuclear contribution   :     -0.55372      -5.28945       0.28018
                        -----------------------------------------
Total Dipole Moment    :     -0.00284      -0.03197       0.00281
                        -----------------------------------------
Magnitude (a.u.)       :      0.03222
Magnitude (Debye)      :      0.08189

Rotational constants in cm-1:     0.001090     0.000868     0.000844
Rotational constants in MHz :    32.688075    26.028798    25.287555

                             ****ORCA TERMINATED NORMALLY****
TOTAL RUN TIME: 0 days 0 hours 21 minutes 29 seconds 306 msec
