                         Program Version 5.0.3 -  RELEASE  -
|  1> !PBE def2-TZVP SLOWCONV
|  2> !KDIIS
|  3>
|  4>
|  5> %pal nprocs 16 end
|  6>
|  7> %scf
|  8>   AutoTRAHIter 200
|  9>   maxiter 400
| 10> end
| 11>
| 12>
| 13> *xyzfile 0 5 pbe.xyz
| 14>
| 15> $new_job
| 16>
| 17> !PBE def2-TZVP SLOWCONV
| 18> !KDIIS
| 19>
| 20> %scf
| 21>   AutoTRAHIter 200
| 22>   maxiter 400
| 23> end
| 24>
| 25>
| 26> %pal nprocs 16 end
| 27>
| 28> *xyzfile 0 3 pbe.xyz
| 29>
| 30>
| 31>
| 32>
| 33>
| 34>                          ****END OF INPUT****
 Total Charge           Charge          ....    0
 Multiplicity           Mult            ....    5
 Number of Electrons    NEL             ....  310
FINAL SINGLE POINT ENERGY     -3188.225918135367

CARTESIAN COORDINATES (ANGSTROEM)
---------------------------------
  Au     7.168566    9.749107    6.960127
  Au     5.239216    5.602965    7.488143
  Au     6.710263    7.238386    5.777598
  Au     6.771767    3.653084    8.748517
  Au     9.274037    7.789123    6.750063
  Au     9.730185    7.867804    9.660798
  Au     8.236985    5.273701    7.027245
  Au     9.664815   10.168954    8.118965
  Au     8.681355    5.349836    9.849407
  Au     7.589907    7.391602   11.397852
  Au     5.182435    8.365712   10.357271
  Au     7.643595    9.832505   10.005675
  Au     5.680210    5.678254   10.311512
  Au     5.276450   10.651758    8.792162
  Au     4.729415    8.289676    7.446117
  Mn     7.156796    7.382107    8.587096

 Multiplicity           Mult            ....    3
 Number of Electrons    NEL             ....  310
 Basis Dimension        Dim             ....  645

ORBITAL ENERGIES
----------------
                 SPIN UP ORBITALS
  NO   OCC          E(Eh)            E(eV)
   0   1.0000    -234.201509     -6372.9470
   1   1.0000     -26.893495      -731.8092
   2   1.0000     -23.043592      -627.0480
   3   1.0000     -23.042422      -627.0162
   4   1.0000     -23.040788      -626.9717
   5   1.0000      -4.035955      -109.8239
   6   1.0000      -4.035864      -109.8215
   7   1.0000      -4.035243      -109.8045
   8   1.0000      -4.035185      -109.8030
   9   1.0000      -4.033409      -109.7546
  10   1.0000      -4.033354      -109.7532
  11   1.0000      -4.033338      -109.7527
  12   1.0000      -4.033267      -109.7508
  13   1.0000      -4.030745      -109.6822
  14   1.0000      -4.030658      -109.6798
  15   1.0000      -4.030645      -109.6794
  16   1.0000      -4.030569      -109.6774
  17   1.0000      -4.027285      -109.5880
  18   1.0000      -4.024986      -109.5254
  19   1.0000      -4.024946      -109.5243
  20   1.0000      -3.101483       -84.3956
  21   1.0000      -2.251335       -61.2619
  22   1.0000      -2.251234       -61.2592
  23   1.0000      -2.251085       -61.2551
  24   1.0000      -2.251021       -61.2534
  25   1.0000      -2.250902       -61.2502
  26   1.0000      -2.250639       -61.2430
  27   1.0000      -2.249852       -61.2216
  28   1.0000      -2.249675       -61.2168
  29   1.0000      -2.249028       -61.1992
  30   1.0000      -2.248824       -61.1936
  31   1.0000      -2.247980       -61.1707
  32   1.0000      -2.247854       -61.1672
  33   1.0000      -2.247820       -61.1663
  34   1.0000      -2.247649       -61.1617
  35   1.0000      -2.246889       -61.1410
  36   1.0000      -2.246581       -61.1326
  37   1.0000      -2.246271       -61.1241
  38   1.0000      -2.245922       -61.1146
  39   1.0000      -2.245679       -61.1080
  40   1.0000      -2.245630       -61.1067
  41   1.0000      -2.245434       -61.1014
  42   1.0000      -2.245354       -61.0992
  43   1.0000      -2.245044       -61.0908
  44   1.0000      -2.244871       -61.0860
  45   1.0000      -2.244135       -61.0660
  46   1.0000      -2.243811       -61.0572
  47   1.0000      -2.243294       -61.0431
  48   1.0000      -2.243055       -61.0366
  49   1.0000      -2.242542       -61.0227
  50   1.0000      -2.242339       -61.0171
  51   1.0000      -2.242202       -61.0134
  52   1.0000      -2.241708       -61.0000
  53   1.0000      -2.241425       -60.9923
  54   1.0000      -2.240941       -60.9791
  55   1.0000      -2.240572       -60.9691
  56   1.0000      -2.240167       -60.9581
  57   1.0000      -2.239631       -60.9435
  58   1.0000      -2.239142       -60.9301
  59   1.0000      -2.239108       -60.9292
  60   1.0000      -2.238084       -60.9014
  61   1.0000      -2.238056       -60.9006
  62   1.0000      -2.237968       -60.8982
  63   1.0000      -2.237862       -60.8953
  64   1.0000      -2.236212       -60.8504
  65   1.0000      -2.236142       -60.8485
  66   1.0000      -2.007220       -54.6192
  67   1.0000      -2.003003       -54.5045
  68   1.0000      -2.002183       -54.4822
  69   1.0000      -0.438449       -11.9308
  70   1.0000      -0.395773       -10.7695
  71   1.0000      -0.392342       -10.6762
  72   1.0000      -0.389555       -10.6003
  73   1.0000      -0.382071       -10.3967
  74   1.0000      -0.381828       -10.3901
  75   1.0000      -0.374447       -10.1892
  76   1.0000      -0.373757       -10.1705
  77   1.0000      -0.371987       -10.1223
  78   1.0000      -0.366928        -9.9846
  79   1.0000      -0.365501        -9.9458
  80   1.0000      -0.361579        -9.8391
  81   1.0000      -0.355194        -9.6653
  82   1.0000      -0.355134        -9.6637
  83   1.0000      -0.354336        -9.6420
  84   1.0000      -0.352487        -9.5917
  85   1.0000      -0.352391        -9.5890
  86   1.0000      -0.351700        -9.5702
  87   1.0000      -0.346695        -9.4340
  88   1.0000      -0.346231        -9.4214
  89   1.0000      -0.344947        -9.3865
  90   1.0000      -0.344756        -9.3813
  91   1.0000      -0.341184        -9.2841
  92   1.0000      -0.338860        -9.2209
  93   1.0000      -0.337504        -9.1839
  94   1.0000      -0.337406        -9.1813
  95   1.0000      -0.332860        -9.0576
  96   1.0000      -0.332179        -9.0390
  97   1.0000      -0.325554        -8.8588
  98   1.0000      -0.321066        -8.7367
  99   1.0000      -0.319356        -8.6901
 100   1.0000      -0.317807        -8.6480
 101   1.0000      -0.317329        -8.6349
 102   1.0000      -0.316980        -8.6255
 103   1.0000      -0.315312        -8.5801
 104   1.0000      -0.313200        -8.5226
 105   1.0000      -0.311018        -8.4632
 106   1.0000      -0.310111        -8.4386
 107   1.0000      -0.305411        -8.3106
 108   1.0000      -0.299125        -8.1396
 109   1.0000      -0.298628        -8.1261
 110   1.0000      -0.296381        -8.0649
 111   1.0000      -0.293767        -7.9938
 112   1.0000      -0.292295        -7.9537
 113   1.0000      -0.292049        -7.9471
 114   1.0000      -0.291167        -7.9231
 115   1.0000      -0.286482        -7.7956
 116   1.0000      -0.280774        -7.6403
 117   1.0000      -0.278911        -7.5896
 118   1.0000      -0.278136        -7.5685
 119   1.0000      -0.276617        -7.5271
 120   1.0000      -0.276370        -7.5204
 121   1.0000      -0.276268        -7.5176
 122   1.0000      -0.274837        -7.4787
 123   1.0000      -0.273491        -7.4421
 124   1.0000      -0.271170        -7.3789
 125   1.0000      -0.270093        -7.3496
 126   1.0000      -0.266707        -7.2575
 127   1.0000      -0.266643        -7.2557
 128   1.0000      -0.266093        -7.2408
 129   1.0000      -0.264329        -7.1928
 130   1.0000      -0.263345        -7.1660
 131   1.0000      -0.263215        -7.1624
 132   1.0000      -0.262529        -7.1438
 133   1.0000      -0.261679        -7.1206
 134   1.0000      -0.261056        -7.1037
 135   1.0000      -0.259370        -7.0578
 136   1.0000      -0.258755        -7.0411
 137   1.0000      -0.258335        -7.0297
 138   1.0000      -0.257355        -7.0030
 139   1.0000      -0.256149        -6.9702
 140   1.0000      -0.255331        -6.9479
 141   1.0000      -0.253251        -6.8913
 142   1.0000      -0.253052        -6.8859
 143   1.0000      -0.250878        -6.8267
 144   1.0000      -0.249092        -6.7781
 145   1.0000      -0.247958        -6.7473
 146   1.0000      -0.246676        -6.7124
 147   1.0000      -0.244202        -6.6451
 148   1.0000      -0.242650        -6.6028
 149   1.0000      -0.242209        -6.5908
 150   1.0000      -0.239310        -6.5120
 151   1.0000      -0.237407        -6.4602
 152   1.0000      -0.232718        -6.3326
 153   1.0000      -0.224841        -6.1182
 154   1.0000      -0.214166        -5.8278
 155   1.0000      -0.199482        -5.4282
 156   0.0000      -0.196729        -5.3533
 157   0.0000      -0.185826        -5.0566
 158   0.0000      -0.147550        -4.0150
 159   0.0000      -0.142622        -3.8810
 160   0.0000      -0.137800        -3.7497

                 SPIN DOWN ORBITALS
  NO   OCC          E(Eh)            E(eV)
   0   1.0000    -234.200959     -6372.9321
   1   1.0000     -26.829257      -730.0612
   2   1.0000     -22.993980      -625.6980
   3   1.0000     -22.993569      -625.6868
   4   1.0000     -22.993020      -625.6719
   5   1.0000      -4.036175      -109.8299
   6   1.0000      -4.036149      -109.8292
   7   1.0000      -4.036037      -109.8261
   8   1.0000      -4.035988      -109.8248
   9   1.0000      -4.033781      -109.7648
  10   1.0000      -4.033731      -109.7634
  11   1.0000      -4.033716      -109.7630
  12   1.0000      -4.033649      -109.7612
  13   1.0000      -4.030956      -109.6879
  14   1.0000      -4.030869      -109.6855
  15   1.0000      -4.030854      -109.6851
  16   1.0000      -4.030780      -109.6831
  17   1.0000      -4.028517      -109.6215
  18   1.0000      -4.026693      -109.5719
  19   1.0000      -4.026643      -109.5705
  20   1.0000      -2.943921       -80.1082
  21   1.0000      -2.251697       -61.2718
  22   1.0000      -2.251630       -61.2700
  23   1.0000      -2.251545       -61.2677
  24   1.0000      -2.251279       -61.2604
  25   1.0000      -2.251268       -61.2601
  26   1.0000      -2.250945       -61.2513
  27   1.0000      -2.250919       -61.2506
  28   1.0000      -2.250735       -61.2456
  29   1.0000      -2.249269       -61.2057
  30   1.0000      -2.249043       -61.1996
  31   1.0000      -2.248402       -61.1821
  32   1.0000      -2.248223       -61.1773
  33   1.0000      -2.248056       -61.1727
  34   1.0000      -2.247871       -61.1677
  35   1.0000      -2.247755       -61.1645
  36   1.0000      -2.246923       -61.1419
  37   1.0000      -2.246843       -61.1397
  38   1.0000      -2.246680       -61.1353
  39   1.0000      -2.246010       -61.1170
  40   1.0000      -2.245945       -61.1153
  41   1.0000      -2.245773       -61.1106
  42   1.0000      -2.245536       -61.1041
  43   1.0000      -2.245514       -61.1036
  44   1.0000      -2.245191       -61.0947
  45   1.0000      -2.244615       -61.0791
  46   1.0000      -2.244383       -61.0728
  47   1.0000      -2.243362       -61.0450
  48   1.0000      -2.243171       -61.0398
  49   1.0000      -2.242912       -61.0327
  50   1.0000      -2.242735       -61.0279
  51   1.0000      -2.242406       -61.0190
  52   1.0000      -2.242313       -61.0164
  53   1.0000      -2.241409       -60.9919
  54   1.0000      -2.241403       -60.9917
  55   1.0000      -2.241096       -60.9833
  56   1.0000      -2.240705       -60.9727
  57   1.0000      -2.240633       -60.9707
  58   1.0000      -2.240331       -60.9625
  59   1.0000      -2.240236       -60.9599
  60   1.0000      -2.240111       -60.9565
  61   1.0000      -2.240057       -60.9550
  62   1.0000      -2.239658       -60.9442
  63   1.0000      -2.239550       -60.9413
  64   1.0000      -2.237820       -60.8942
  65   1.0000      -2.237750       -60.8923
  66   1.0000      -1.851493       -50.3817
  67   1.0000      -1.848725       -50.3064
  68   1.0000      -1.848273       -50.2941
  69   1.0000      -0.434872       -11.8335
  70   1.0000      -0.396515       -10.7897
  71   1.0000      -0.394153       -10.7255
  72   1.0000      -0.390668       -10.6306
  73   1.0000      -0.379181       -10.3180
  74   1.0000      -0.377804       -10.2806
  75   1.0000      -0.371949       -10.1212
  76   1.0000      -0.371643       -10.1129
  77   1.0000      -0.371533       -10.1099
  78   1.0000      -0.367031        -9.9874
  79   1.0000      -0.366088        -9.9618
  80   1.0000      -0.363465        -9.8904
  81   1.0000      -0.356335        -9.6964
  82   1.0000      -0.356305        -9.6956
  83   1.0000      -0.355957        -9.6861
  84   1.0000      -0.352223        -9.5845
  85   1.0000      -0.351991        -9.5781
  86   1.0000      -0.348606        -9.4860
  87   1.0000      -0.347385        -9.4528
  88   1.0000      -0.346872        -9.4389
  89   1.0000      -0.346745        -9.4354
  90   1.0000      -0.346590        -9.4312
  91   1.0000      -0.343175        -9.3383
  92   1.0000      -0.339674        -9.2430
  93   1.0000      -0.339260        -9.2317
  94   1.0000      -0.338513        -9.2114
  95   1.0000      -0.334090        -9.0911
  96   1.0000      -0.332612        -9.0508
  97   1.0000      -0.327072        -8.9001
  98   1.0000      -0.321035        -8.7358
  99   1.0000      -0.320823        -8.7300
 100   1.0000      -0.319167        -8.6850
 101   1.0000      -0.315917        -8.5965
 102   1.0000      -0.315179        -8.5764
 103   1.0000      -0.313823        -8.5395
 104   1.0000      -0.310973        -8.4620
 105   1.0000      -0.310058        -8.4371
 106   1.0000      -0.308704        -8.4003
 107   1.0000      -0.300768        -8.1843
 108   1.0000      -0.295888        -8.0515
 109   1.0000      -0.294305        -8.0084
 110   1.0000      -0.294155        -8.0044
 111   1.0000      -0.293810        -7.9950
 112   1.0000      -0.293605        -7.9894
 113   1.0000      -0.292808        -7.9677
 114   1.0000      -0.289287        -7.8719
 115   1.0000      -0.285265        -7.7625
 116   1.0000      -0.281878        -7.6703
 117   1.0000      -0.279677        -7.6104
 118   1.0000      -0.279452        -7.6043
 119   1.0000      -0.278420        -7.5762
 120   1.0000      -0.277693        -7.5564
 121   1.0000      -0.277126        -7.5410
 122   1.0000      -0.276068        -7.5122
 123   1.0000      -0.272916        -7.4264
 124   1.0000      -0.272548        -7.4164
 125   1.0000      -0.270576        -7.3627
 126   1.0000      -0.269321        -7.3286
 127   1.0000      -0.268066        -7.2944
 128   1.0000      -0.267708        -7.2847
 129   1.0000      -0.265287        -7.2188
 130   1.0000      -0.264676        -7.2022
 131   1.0000      -0.263927        -7.1818
 132   1.0000      -0.263246        -7.1633
 133   1.0000      -0.263056        -7.1581
 134   1.0000      -0.262050        -7.1308
 135   1.0000      -0.260031        -7.0758
 136   1.0000      -0.259884        -7.0718
 137   1.0000      -0.259122        -7.0511
 138   1.0000      -0.258744        -7.0408
 139   1.0000      -0.256612        -6.9828
 140   1.0000      -0.256148        -6.9701
 141   1.0000      -0.253462        -6.8971
 142   1.0000      -0.253381        -6.8948
 143   1.0000      -0.252513        -6.8712
 144   1.0000      -0.249355        -6.7853
 145   1.0000      -0.243313        -6.6209
 146   1.0000      -0.242346        -6.5946
 147   1.0000      -0.234386        -6.3780
 148   1.0000      -0.234338        -6.3767
 149   1.0000      -0.222927        -6.0661
 150   1.0000      -0.214354        -5.8329
 151   1.0000      -0.210396        -5.7252
 152   1.0000      -0.200083        -5.4445
 153   1.0000      -0.153140        -4.1671
 154   0.0000      -0.148403        -4.0383
 155   0.0000      -0.141656        -3.8547
 156   0.0000      -0.130555        -3.5526
 157   0.0000      -0.129606        -3.5268
 158   0.0000      -0.128991        -3.5100

MULLIKEN ATOMIC CHARGES AND SPIN POPULATIONS
--------------------------------------------
   0 Au:    0.003640   -0.213323
   1 Au:    0.164943   -0.048030
   2 Au:    0.293140   -0.186841
   3 Au:    0.316183   -0.197623
   4 Au:    0.161909   -0.064349
   5 Au:    0.160865   -0.064650
   6 Au:    0.164961   -0.048879
   7 Au:    0.346455   -0.177331
   8 Au:    0.166234   -0.048882
   9 Au:    0.294044   -0.186191
  10 Au:    0.161208   -0.064420
  11 Au:    0.006161   -0.213503
  12 Au:    0.166328   -0.048256
  13 Au:    0.346411   -0.179074
  14 Au:    0.162225   -0.064764
  15 Mn:   -2.914705    3.806117
Sum of atomic charges         :   -0.0000000

LOEWDIN ATOMIC CHARGES AND SPIN POPULATIONS
-------------------------------------------
   0 Au:   -0.004912   -0.143848
   1 Au:    0.031616   -0.073607
   2 Au:    0.057667   -0.146388
   3 Au:    0.069049   -0.178273
   4 Au:    0.028689   -0.119746
   5 Au:    0.028476   -0.119701
   6 Au:    0.031492   -0.074039
   7 Au:    0.077643   -0.208248
   8 Au:    0.031875   -0.074140
   9 Au:    0.058073   -0.145951
  10 Au:    0.028761   -0.119394
  11 Au:   -0.004434   -0.144042
  12 Au:    0.031746   -0.073904
  13 Au:    0.077688   -0.209722
  14 Au:    0.028661   -0.119996
  15 Mn:   -0.572090    3.950999

  Mayer bond orders larger than 0.100000
B(  0-Au,  2-Au) :   0.2084 B(  0-Au,  4-Au) :   0.1625 B(  0-Au,  7-Au) :   0.2442
B(  0-Au, 11-Au) :   0.2303 B(  0-Au, 13-Au) :   0.2438 B(  0-Au, 14-Au) :   0.1622
B(  0-Au, 15-Mn) :   0.4071 B(  1-Au,  2-Au) :   0.1908 B(  1-Au,  3-Au) :   0.2840
B(  1-Au,  6-Au) :   0.1302 B(  1-Au, 12-Au) :   0.2116 B(  1-Au, 14-Au) :   0.2961
B(  1-Au, 15-Mn) :   0.3830 B(  2-Au,  4-Au) :   0.2012 B(  2-Au,  6-Au) :   0.1918
B(  2-Au, 14-Au) :   0.2018 B(  2-Au, 15-Mn) :   0.3956 B(  3-Au,  6-Au) :   0.2845
B(  3-Au,  7-Au) :   0.1060 B(  3-Au,  8-Au) :   0.2841 B(  3-Au, 12-Au) :   0.2844
B(  3-Au, 13-Au) :   0.1064 B(  4-Au,  5-Au) :   0.1623 B(  4-Au,  6-Au) :   0.2958
B(  4-Au,  7-Au) :   0.3302 B(  4-Au, 15-Mn) :   0.3567 B(  5-Au,  7-Au) :   0.3322
B(  5-Au,  8-Au) :   0.2963 B(  5-Au,  9-Au) :   0.2003 B(  5-Au, 11-Au) :   0.1614
B(  5-Au, 15-Mn) :   0.3574 B(  6-Au,  8-Au) :   0.2119 B(  6-Au, 15-Mn) :   0.3828
B(  7-Au, 11-Au) :   0.2431 B(  8-Au,  9-Au) :   0.1911 B(  8-Au, 12-Au) :   0.1296
B(  8-Au, 15-Mn) :   0.3828 B(  9-Au, 10-Au) :   0.1999 B(  9-Au, 11-Au) :   0.2093
B(  9-Au, 12-Au) :   0.1910 B(  9-Au, 15-Mn) :   0.3968 B( 10-Au, 11-Au) :   0.1608
B( 10-Au, 12-Au) :   0.2972 B( 10-Au, 13-Au) :   0.3314 B( 10-Au, 14-Au) :   0.1622
B( 10-Au, 15-Mn) :   0.3588 B( 11-Au, 13-Au) :   0.2442 B( 11-Au, 15-Mn) :   0.4059
B( 12-Au, 15-Mn) :   0.3815 B( 13-Au, 14-Au) :   0.3303 B( 14-Au, 15-Mn) :   0.3567

FINAL SINGLE POINT ENERGY     -3188.180599786543

DIPOLE MOMENT
-------------
                                X             Y             Z
Electronic contribution:      0.56626       5.40766      -0.28419
Nuclear contribution   :     -0.55372      -5.28945       0.28018
                        -----------------------------------------
Total Dipole Moment    :      0.01253       0.11820      -0.00401
                        -----------------------------------------
Magnitude (a.u.)       :      0.11893
Magnitude (Debye)      :      0.30231

Rotational constants in cm-1:     0.001090     0.000868     0.000844
Rotational constants in MHz :    32.688075    26.028798    25.287555

                             ****ORCA TERMINATED NORMALLY****
TOTAL RUN TIME: 0 days 0 hours 2 minutes 50 seconds 861 msec
