                         Program Version 5.0.3 -  RELEASE  -
|  1> !R2SCAN def2-TZVP SLOWCONV
|  2> !KDIIS
|  3>
|  4> %scf
|  5>   AutoTRAHIter 200
|  6>   maxiter 400
|  7> end
|  8>
|  9>
| 10> %pal nprocs 16 end
| 11>
| 12> %scf
| 13>   AutoTRAHIter 100
| 14>   maxiter 400
| 15> end
| 16>
| 17> *xyzfile 0 5 pbe.xyz
| 18>
| 19> $new_job
| 20>
| 21> !R2SCAN def2-TZVP SLOWCONV
| 22> !KDIIS
| 23>
| 24> %pal nprocs 16 end
| 25>
| 26> %scf
| 27>   AutoTRAHIter 100
| 28>   maxiter 400
| 29> end
| 30>
| 31> *xyzfile 0 3 pbe.xyz
| 32>
| 33>
| 34>
| 35>
| 36>
| 37>                          ****END OF INPUT****
 Total Charge           Charge          ....    0
 Multiplicity           Mult            ....    5
 Number of Electrons    NEL             ....  310
FINAL SINGLE POINT ENERGY     -3188.751252076620

CARTESIAN COORDINATES (ANGSTROEM)
---------------------------------
  Au     7.168566    9.749107    6.960127
  Au     5.239216    5.602965    7.488143
  Au     6.710263    7.238386    5.777598
  Au     6.771767    3.653084    8.748517
  Au     9.274037    7.789123    6.750063
  Au     9.730185    7.867804    9.660798
  Au     8.236985    5.273701    7.027245
  Au     9.664815   10.168954    8.118965
  Au     8.681355    5.349836    9.849407
  Au     7.589907    7.391602   11.397852
  Au     5.182435    8.365712   10.357271
  Au     7.643595    9.832505   10.005675
  Au     5.680210    5.678254   10.311512
  Au     5.276450   10.651758    8.792162
  Au     4.729415    8.289676    7.446117
  Mn     7.156796    7.382107    8.587096

 Multiplicity           Mult            ....    3
 Number of Electrons    NEL             ....  310
 Basis Dimension        Dim             ....  645

ORBITAL ENERGIES
----------------
                 SPIN UP ORBITALS
  NO   OCC          E(Eh)            E(eV)
   0   1.0000    -235.047198     -6395.9594
   1   1.0000     -27.223689      -740.7942
   2   1.0000     -23.271108      -633.2390
   3   1.0000     -23.271014      -633.2365
   4   1.0000     -23.269369      -633.1917
   5   1.0000      -4.126987      -112.3010
   6   1.0000      -4.126940      -112.2997
   7   1.0000      -4.126742      -112.2944
   8   1.0000      -4.126648      -112.2918
   9   1.0000      -4.125033      -112.2479
  10   1.0000      -4.124977      -112.2463
  11   1.0000      -4.124947      -112.2455
  12   1.0000      -4.124876      -112.2436
  13   1.0000      -4.122609      -112.1819
  14   1.0000      -4.122528      -112.1797
  15   1.0000      -4.122503      -112.1790
  16   1.0000      -4.122430      -112.1770
  17   1.0000      -4.118642      -112.0739
  18   1.0000      -4.116443      -112.0141
  19   1.0000      -4.116415      -112.0134
  20   1.0000      -3.245438       -88.3129
  21   1.0000      -2.315659       -63.0123
  22   1.0000      -2.315577       -63.0100
  23   1.0000      -2.315436       -63.0062
  24   1.0000      -2.315309       -63.0027
  25   1.0000      -2.315298       -63.0025
  26   1.0000      -2.314990       -62.9941
  27   1.0000      -2.314233       -62.9735
  28   1.0000      -2.314033       -62.9680
  29   1.0000      -2.313036       -62.9409
  30   1.0000      -2.312796       -62.9344
  31   1.0000      -2.312101       -62.9155
  32   1.0000      -2.311980       -62.9122
  33   1.0000      -2.311850       -62.9086
  34   1.0000      -2.311698       -62.9045
  35   1.0000      -2.311521       -62.8997
  36   1.0000      -2.310884       -62.8824
  37   1.0000      -2.310769       -62.8792
  38   1.0000      -2.310452       -62.8706
  39   1.0000      -2.310021       -62.8589
  40   1.0000      -2.309975       -62.8576
  41   1.0000      -2.309919       -62.8561
  42   1.0000      -2.309819       -62.8534
  43   1.0000      -2.309549       -62.8460
  44   1.0000      -2.309243       -62.8377
  45   1.0000      -2.308731       -62.8238
  46   1.0000      -2.308307       -62.8122
  47   1.0000      -2.307976       -62.8032
  48   1.0000      -2.307680       -62.7952
  49   1.0000      -2.307132       -62.7802
  50   1.0000      -2.306820       -62.7718
  51   1.0000      -2.306618       -62.7663
  52   1.0000      -2.306275       -62.7569
  53   1.0000      -2.306244       -62.7561
  54   1.0000      -2.305516       -62.7363
  55   1.0000      -2.305067       -62.7241
  56   1.0000      -2.304696       -62.7140
  57   1.0000      -2.303639       -62.6852
  58   1.0000      -2.303189       -62.6730
  59   1.0000      -2.303186       -62.6729
  60   1.0000      -2.302253       -62.6475
  61   1.0000      -2.302237       -62.6471
  62   1.0000      -2.302048       -62.6419
  63   1.0000      -2.301934       -62.6388
  64   1.0000      -2.300248       -62.5929
  65   1.0000      -2.300173       -62.5909
  66   1.0000      -2.103238       -57.2320
  67   1.0000      -2.102238       -57.2048
  68   1.0000      -2.100615       -57.1606
  69   1.0000      -0.444747       -12.1022
  70   1.0000      -0.402118       -10.9422
  71   1.0000      -0.397952       -10.8288
  72   1.0000      -0.396468       -10.7884
  73   1.0000      -0.393260       -10.7012
  74   1.0000      -0.392380       -10.6772
  75   1.0000      -0.385822       -10.4987
  76   1.0000      -0.384591       -10.4652
  77   1.0000      -0.382084       -10.3970
  78   1.0000      -0.377545       -10.2735
  79   1.0000      -0.375277       -10.2118
  80   1.0000      -0.371150       -10.0995
  81   1.0000      -0.365564        -9.9475
  82   1.0000      -0.365277        -9.9397
  83   1.0000      -0.364363        -9.9148
  84   1.0000      -0.364088        -9.9073
  85   1.0000      -0.362664        -9.8686
  86   1.0000      -0.362165        -9.8550
  87   1.0000      -0.356817        -9.7095
  88   1.0000      -0.356404        -9.6982
  89   1.0000      -0.354266        -9.6401
  90   1.0000      -0.354179        -9.6377
  91   1.0000      -0.350643        -9.5415
  92   1.0000      -0.348315        -9.4781
  93   1.0000      -0.347409        -9.4535
  94   1.0000      -0.347004        -9.4425
  95   1.0000      -0.343012        -9.3338
  96   1.0000      -0.342235        -9.3127
  97   1.0000      -0.335562        -9.1311
  98   1.0000      -0.332238        -9.0407
  99   1.0000      -0.330121        -8.9831
 100   1.0000      -0.329946        -8.9783
 101   1.0000      -0.328583        -8.9412
 102   1.0000      -0.327502        -8.9118
 103   1.0000      -0.325775        -8.8648
 104   1.0000      -0.325340        -8.8530
 105   1.0000      -0.321419        -8.7463
 106   1.0000      -0.319642        -8.6979
 107   1.0000      -0.316699        -8.6178
 108   1.0000      -0.312751        -8.5104
 109   1.0000      -0.310019        -8.4360
 110   1.0000      -0.308432        -8.3928
 111   1.0000      -0.303660        -8.2630
 112   1.0000      -0.301495        -8.2041
 113   1.0000      -0.301263        -8.1978
 114   1.0000      -0.300241        -8.1700
 115   1.0000      -0.296139        -8.0584
 116   1.0000      -0.290140        -7.8951
 117   1.0000      -0.288627        -7.8539
 118   1.0000      -0.286786        -7.8039
 119   1.0000      -0.285888        -7.7794
 120   1.0000      -0.285513        -7.7692
 121   1.0000      -0.284898        -7.7525
 122   1.0000      -0.283962        -7.7270
 123   1.0000      -0.283719        -7.7204
 124   1.0000      -0.280022        -7.6198
 125   1.0000      -0.279506        -7.6057
 126   1.0000      -0.276501        -7.5240
 127   1.0000      -0.275446        -7.4953
 128   1.0000      -0.274903        -7.4805
 129   1.0000      -0.273795        -7.4503
 130   1.0000      -0.273017        -7.4292
 131   1.0000      -0.272370        -7.4116
 132   1.0000      -0.271751        -7.3947
 133   1.0000      -0.270393        -7.3578
 134   1.0000      -0.270194        -7.3524
 135   1.0000      -0.268701        -7.3117
 136   1.0000      -0.268251        -7.2995
 137   1.0000      -0.266391        -7.2489
 138   1.0000      -0.266014        -7.2386
 139   1.0000      -0.265236        -7.2174
 140   1.0000      -0.265094        -7.2136
 141   1.0000      -0.264957        -7.2099
 142   1.0000      -0.264096        -7.1864
 143   1.0000      -0.262752        -7.1498
 144   1.0000      -0.261371        -7.1123
 145   1.0000      -0.261179        -7.1070
 146   1.0000      -0.257726        -7.0131
 147   1.0000      -0.255535        -6.9535
 148   1.0000      -0.253068        -6.8863
 149   1.0000      -0.252466        -6.8699
 150   1.0000      -0.247693        -6.7401
 151   1.0000      -0.246757        -6.7146
 152   1.0000      -0.239965        -6.5298
 153   1.0000      -0.229714        -6.2508
 154   1.0000      -0.217378        -5.9152
 155   1.0000      -0.202901        -5.5212
 156   0.0000      -0.197214        -5.3665
 157   0.0000      -0.183948        -5.0055
 158   0.0000      -0.142488        -3.8773
 159   0.0000      -0.139279        -3.7900
 160   0.0000      -0.133303        -3.6274

                 SPIN DOWN ORBITALS
  NO   OCC          E(Eh)            E(eV)
   0   1.0000    -235.046354     -6395.9365
   1   1.0000     -27.135979      -738.4075
   2   1.0000     -23.203876      -631.4096
   3   1.0000     -23.203096      -631.3883
   4   1.0000     -23.202852      -631.3817
   5   1.0000      -4.128285      -112.3363
   6   1.0000      -4.128225      -112.3347
   7   1.0000      -4.127190      -112.3065
   8   1.0000      -4.127094      -112.3039
   9   1.0000      -4.125637      -112.2643
  10   1.0000      -4.125587      -112.2629
  11   1.0000      -4.125559      -112.2622
  12   1.0000      -4.125492      -112.2603
  13   1.0000      -4.122939      -112.1909
  14   1.0000      -4.122857      -112.1886
  15   1.0000      -4.122830      -112.1879
  16   1.0000      -4.122757      -112.1859
  17   1.0000      -4.120255      -112.1178
  18   1.0000      -4.118523      -112.0707
  19   1.0000      -4.118482      -112.0696
  20   1.0000      -3.036239       -82.6203
  21   1.0000      -2.316216       -63.0274
  22   1.0000      -2.316203       -63.0271
  23   1.0000      -2.316047       -63.0228
  24   1.0000      -2.315876       -63.0182
  25   1.0000      -2.315809       -63.0164
  26   1.0000      -2.315796       -63.0160
  27   1.0000      -2.315511       -63.0083
  28   1.0000      -2.315405       -63.0054
  29   1.0000      -2.313480       -62.9530
  30   1.0000      -2.313143       -62.9438
  31   1.0000      -2.312930       -62.9380
  32   1.0000      -2.312440       -62.9247
  33   1.0000      -2.312359       -62.9225
  34   1.0000      -2.312153       -62.9169
  35   1.0000      -2.311950       -62.9114
  36   1.0000      -2.311851       -62.9087
  37   1.0000      -2.311486       -62.8987
  38   1.0000      -2.311081       -62.8877
  39   1.0000      -2.310469       -62.8710
  40   1.0000      -2.310452       -62.8706
  41   1.0000      -2.310421       -62.8698
  42   1.0000      -2.310147       -62.8623
  43   1.0000      -2.310140       -62.8621
  44   1.0000      -2.309693       -62.8499
  45   1.0000      -2.309304       -62.8393
  46   1.0000      -2.308917       -62.8288
  47   1.0000      -2.308117       -62.8070
  48   1.0000      -2.307921       -62.8017
  49   1.0000      -2.307459       -62.7892
  50   1.0000      -2.307166       -62.7812
  51   1.0000      -2.307102       -62.7794
  52   1.0000      -2.306873       -62.7732
  53   1.0000      -2.306235       -62.7559
  54   1.0000      -2.305959       -62.7483
  55   1.0000      -2.305618       -62.7390
  56   1.0000      -2.305194       -62.7275
  57   1.0000      -2.305032       -62.7231
  58   1.0000      -2.304875       -62.7188
  59   1.0000      -2.304749       -62.7154
  60   1.0000      -2.304654       -62.7128
  61   1.0000      -2.304384       -62.7055
  62   1.0000      -2.304126       -62.6985
  63   1.0000      -2.304019       -62.6955
  64   1.0000      -2.302235       -62.6470
  65   1.0000      -2.302171       -62.6453
  66   1.0000      -1.895723       -51.5852
  67   1.0000      -1.893887       -51.5353
  68   1.0000      -1.892941       -51.5095
  69   1.0000      -0.442255       -12.0344
  70   1.0000      -0.403990       -10.9931
  71   1.0000      -0.401040       -10.9129
  72   1.0000      -0.398362       -10.8400
  73   1.0000      -0.388514       -10.5720
  74   1.0000      -0.386914       -10.5285
  75   1.0000      -0.381635       -10.3848
  76   1.0000      -0.381291       -10.3755
  77   1.0000      -0.380649       -10.3580
  78   1.0000      -0.377609       -10.2753
  79   1.0000      -0.376026       -10.2322
  80   1.0000      -0.373804       -10.1717
  81   1.0000      -0.366932        -9.9847
  82   1.0000      -0.366683        -9.9779
  83   1.0000      -0.366335        -9.9685
  84   1.0000      -0.362848        -9.8736
  85   1.0000      -0.362236        -9.8570
  86   1.0000      -0.358868        -9.7653
  87   1.0000      -0.357532        -9.7289
  88   1.0000      -0.357054        -9.7159
  89   1.0000      -0.356742        -9.7074
  90   1.0000      -0.356708        -9.7065
  91   1.0000      -0.353134        -9.6093
  92   1.0000      -0.349990        -9.5237
  93   1.0000      -0.349422        -9.5082
  94   1.0000      -0.348758        -9.4902
  95   1.0000      -0.344292        -9.3686
  96   1.0000      -0.343139        -9.3373
  97   1.0000      -0.337220        -9.1762
  98   1.0000      -0.331198        -9.0123
  99   1.0000      -0.330637        -8.9971
 100   1.0000      -0.328876        -8.9492
 101   1.0000      -0.325738        -8.8638
 102   1.0000      -0.325175        -8.8485
 103   1.0000      -0.323722        -8.8089
 104   1.0000      -0.320934        -8.7330
 105   1.0000      -0.320228        -8.7139
 106   1.0000      -0.318458        -8.6657
 107   1.0000      -0.310524        -8.4498
 108   1.0000      -0.305657        -8.3174
 109   1.0000      -0.303588        -8.2611
 110   1.0000      -0.303554        -8.2601
 111   1.0000      -0.303068        -8.2469
 112   1.0000      -0.302986        -8.2447
 113   1.0000      -0.302348        -8.2273
 114   1.0000      -0.298789        -8.1305
 115   1.0000      -0.294260        -8.0072
 116   1.0000      -0.291356        -7.9282
 117   1.0000      -0.288882        -7.8609
 118   1.0000      -0.288627        -7.8539
 119   1.0000      -0.287685        -7.8283
 120   1.0000      -0.286795        -7.8041
 121   1.0000      -0.286293        -7.7904
 122   1.0000      -0.285264        -7.7624
 123   1.0000      -0.282544        -7.6884
 124   1.0000      -0.281658        -7.6643
 125   1.0000      -0.279426        -7.6036
 126   1.0000      -0.278730        -7.5846
 127   1.0000      -0.277014        -7.5379
 128   1.0000      -0.276822        -7.5327
 129   1.0000      -0.274228        -7.4621
 130   1.0000      -0.273422        -7.4402
 131   1.0000      -0.272923        -7.4266
 132   1.0000      -0.272205        -7.4071
 133   1.0000      -0.272188        -7.4066
 134   1.0000      -0.271160        -7.3786
 135   1.0000      -0.268886        -7.3167
 136   1.0000      -0.268254        -7.2996
 137   1.0000      -0.267346        -7.2749
 138   1.0000      -0.267295        -7.2735
 139   1.0000      -0.265542        -7.2258
 140   1.0000      -0.264795        -7.2054
 141   1.0000      -0.261463        -7.1148
 142   1.0000      -0.261312        -7.1107
 143   1.0000      -0.260645        -7.0925
 144   1.0000      -0.257650        -7.0110
 145   1.0000      -0.251396        -6.8408
 146   1.0000      -0.249974        -6.8021
 147   1.0000      -0.241580        -6.5737
 148   1.0000      -0.238427        -6.4879
 149   1.0000      -0.226629        -6.1669
 150   1.0000      -0.217116        -5.9080
 151   1.0000      -0.212899        -5.7933
 152   1.0000      -0.202086        -5.4990
 153   1.0000      -0.150915        -4.1066
 154   0.0000      -0.146046        -3.9741
 155   0.0000      -0.139866        -3.8059
 156   0.0000      -0.126661        -3.4466
 157   0.0000      -0.123636        -3.3643
 158   0.0000      -0.116452        -3.1688

MULLIKEN ATOMIC CHARGES AND SPIN POPULATIONS
--------------------------------------------
   0 Au:    0.006245   -0.228272
   1 Au:    0.152772   -0.045933
   2 Au:    0.264071   -0.238418
   3 Au:    0.276433   -0.238003
   4 Au:    0.146304   -0.076515
   5 Au:    0.145336   -0.076877
   6 Au:    0.152693   -0.046606
   7 Au:    0.313810   -0.197832
   8 Au:    0.154053   -0.046816
   9 Au:    0.264982   -0.237661
  10 Au:    0.145731   -0.076259
  11 Au:    0.008506   -0.228492
  12 Au:    0.154072   -0.046267
  13 Au:    0.313617   -0.200309
  14 Au:    0.146552   -0.076895
  15 Mn:   -2.645177    4.061154
Sum of atomic charges         :    0.0000000

LOEWDIN ATOMIC CHARGES AND SPIN POPULATIONS
-------------------------------------------
   0 Au:   -0.007160   -0.155449
   1 Au:    0.027667   -0.079346
   2 Au:    0.045912   -0.178304
   3 Au:    0.060632   -0.199791
   4 Au:    0.022106   -0.137562
   5 Au:    0.021910   -0.137541
   6 Au:    0.027522   -0.079689
   7 Au:    0.071784   -0.226061
   8 Au:    0.027912   -0.079856
   9 Au:    0.046344   -0.177811
  10 Au:    0.022224   -0.137089
  11 Au:   -0.006661   -0.155620
  12 Au:    0.027779   -0.079644
  13 Au:    0.071669   -0.227899
  14 Au:    0.022103   -0.137790
  15 Mn:   -0.481744    4.189450

  Mayer bond orders larger than 0.100000
B(  0-Au,  2-Au) :   0.1914 B(  0-Au,  4-Au) :   0.1432 B(  0-Au,  7-Au) :   0.2283
B(  0-Au, 11-Au) :   0.2214 B(  0-Au, 13-Au) :   0.2278 B(  0-Au, 14-Au) :   0.1430
B(  0-Au, 15-Mn) :   0.4101 B(  1-Au,  2-Au) :   0.1773 B(  1-Au,  3-Au) :   0.2679
B(  1-Au,  6-Au) :   0.1075 B(  1-Au, 12-Au) :   0.2015 B(  1-Au, 14-Au) :   0.3002
B(  1-Au, 15-Mn) :   0.3879 B(  2-Au,  4-Au) :   0.1989 B(  2-Au,  6-Au) :   0.1784
B(  2-Au, 14-Au) :   0.1995 B(  2-Au, 15-Mn) :   0.3558 B(  3-Au,  6-Au) :   0.2683
B(  3-Au,  7-Au) :   0.1054 B(  3-Au,  8-Au) :   0.2680 B(  3-Au, 12-Au) :   0.2685
B(  3-Au, 13-Au) :   0.1060 B(  4-Au,  5-Au) :   0.1418 B(  4-Au,  6-Au) :   0.2999
B(  4-Au,  7-Au) :   0.3293 B(  4-Au, 15-Mn) :   0.3412 B(  5-Au,  7-Au) :   0.3314
B(  5-Au,  8-Au) :   0.3003 B(  5-Au,  9-Au) :   0.1979 B(  5-Au, 11-Au) :   0.1423
B(  5-Au, 15-Mn) :   0.3421 B(  6-Au,  8-Au) :   0.2019 B(  6-Au, 15-Mn) :   0.3877
B(  7-Au, 11-Au) :   0.2273 B(  8-Au,  9-Au) :   0.1777 B(  8-Au, 12-Au) :   0.1070
B(  8-Au, 15-Mn) :   0.3877 B(  9-Au, 10-Au) :   0.1972 B(  9-Au, 11-Au) :   0.1926
B(  9-Au, 12-Au) :   0.1777 B(  9-Au, 15-Mn) :   0.3570 B( 10-Au, 11-Au) :   0.1418
B( 10-Au, 12-Au) :   0.3014 B( 10-Au, 13-Au) :   0.3305 B( 10-Au, 14-Au) :   0.1416
B( 10-Au, 15-Mn) :   0.3436 B( 11-Au, 13-Au) :   0.2284 B( 11-Au, 15-Mn) :   0.4087
B( 12-Au, 15-Mn) :   0.3861 B( 13-Au, 14-Au) :   0.3295 B( 14-Au, 15-Mn) :   0.3413

FINAL SINGLE POINT ENERGY     -3188.700832124664

DIPOLE MOMENT
-------------
                                X             Y             Z
Electronic contribution:      0.56827       5.42215      -0.28457
Nuclear contribution   :     -0.55372      -5.28945       0.28018
                        -----------------------------------------
Total Dipole Moment    :      0.01454       0.13270      -0.00439
                        -----------------------------------------
Magnitude (a.u.)       :      0.13356
Magnitude (Debye)      :      0.33949

Rotational constants in cm-1:     0.001090     0.000868     0.000844
Rotational constants in MHz :    32.688075    26.028798    25.287555

                             ****ORCA TERMINATED NORMALLY****
TOTAL RUN TIME: 0 days 0 hours 3 minutes 59 seconds 248 msec
