                         Program Version 5.0.3 -  RELEASE  -
|  1> !SC-NEVPT2 def2-TZVP def2-TZVP/C
|  2> !MOREAD RIJCOSX def2/J
|  3> %maxcore 4000
|  4> %moinp "casscf.gbw"
|  5> %pal nprocs 8 end
|  6>
|  7> %casscf
|  8>  mult 5,3
|  9>  bweight 1,1
| 10>  nroots 5,45
| 11>  nel 6
| 12>  norb 5
| 13>  ptsettings
| 14>   d4tpre 1e-14 # default = 1e-10
| 15>   d3tpre 1e-14
| 16>  end
| 17>  rel
| 18>    dosoc true
| 19>    gtensor true
| 20>  end
| 21> end
| 22>
| 23>
| 24> *xyzfile 0 5 pbe.xyz
| 25>
| 26>
| 27>                          ****END OF INPUT****

CARTESIAN COORDINATES (ANGSTROEM)
---------------------------------
  Au     9.843594    8.388957    9.424908
  Au     7.456289    6.893656    9.674453
  Au     7.883668    8.792490    7.429436
  Au    11.013209    7.559575    6.986573
  Au    10.586251    5.664541    9.227361
  Au     9.632383    3.867225    7.524603
  Au    10.059158    5.765706    5.279146
  Au     6.931386    6.994032    5.726031
  Au     6.504332    5.099556    7.967250
  Au     7.672787    4.269569    5.528355
  Fe     8.758568    6.329987    7.477295

 Total Charge           Charge          ....    0
 Multiplicity           Mult            ....    5
 Number of Electrons    NEL             ....  216
 Basis Dimension        Dim             ....  445

ORBITAL ENERGIES
----------------

  NO   OCC          E(Eh)            E(eV)
   0   2.0000    -261.387812     -7112.7240
   1   2.0000     -31.952885      -869.4822
   2   2.0000     -27.433230      -746.4962
   3   2.0000     -27.432401      -746.4736
   4   2.0000     -27.432312      -746.4712
   5   2.0000      -4.713459      -128.2597
   6   2.0000      -4.713447      -128.2594
   7   2.0000      -4.713386      -128.2578
   8   2.0000      -4.713382      -128.2577
   9   2.0000      -4.712974      -128.2465
  10   2.0000      -4.712959      -128.2461
  11   2.0000      -4.712900      -128.2445
  12   2.0000      -4.712895      -128.2444
  13   2.0000      -4.710839      -128.1884
  14   2.0000      -4.710830      -128.1882
  15   2.0000      -4.187072      -113.9360
  16   2.0000      -2.767879       -75.3178
  17   2.0000      -2.767466       -75.3066
  18   2.0000      -2.766450       -75.2789
  19   2.0000      -2.756325       -75.0034
  20   2.0000      -2.756025       -74.9953
  21   2.0000      -2.754751       -74.9606
  22   2.0000      -2.754677       -74.9586
  23   2.0000      -2.752408       -74.8968
  24   2.0000      -2.752080       -74.8879
  25   2.0000      -2.750972       -74.8577
  26   2.0000      -2.750825       -74.8538
  27   2.0000      -2.750783       -74.8526
  28   2.0000      -2.750415       -74.8426
  29   2.0000      -2.749788       -74.8255
  30   2.0000      -2.749641       -74.8215
  31   2.0000      -2.747721       -74.7693
  32   2.0000      -2.747665       -74.7678
  33   2.0000      -2.747043       -74.7508
  34   2.0000      -2.746936       -74.7479
  35   2.0000      -2.746667       -74.7406
  36   2.0000      -2.746276       -74.7300
  37   2.0000      -2.745928       -74.7205
  38   2.0000      -2.745384       -74.7057
  39   2.0000      -2.745172       -74.6999
  40   2.0000      -2.745050       -74.6966
  41   2.0000      -2.744812       -74.6901
  42   2.0000      -2.744632       -74.6852
  43   2.0000      -2.744400       -74.6789
  44   2.0000      -2.744185       -74.6731
  45   2.0000      -2.743345       -74.6502
  46   2.0000      -2.743221       -74.6468
  47   2.0000      -2.742695       -74.6325
  48   2.0000      -2.742269       -74.6209
  49   2.0000      -0.580748       -15.8030
  50   2.0000      -0.553030       -15.0487
  51   2.0000      -0.545958       -14.8563
  52   2.0000      -0.541035       -14.7223
  53   2.0000      -0.533955       -14.5297
  54   2.0000      -0.533828       -14.5262
  55   2.0000      -0.533014       -14.5040
  56   2.0000      -0.530430       -14.4337
  57   2.0000      -0.530001       -14.4221
  58   2.0000      -0.527980       -14.3671
  59   2.0000      -0.525635       -14.3032
  60   2.0000      -0.523137       -14.2353
  61   2.0000      -0.521234       -14.1835
  62   2.0000      -0.520385       -14.1604
  63   2.0000      -0.519560       -14.1379
  64   2.0000      -0.516393       -14.0518
  65   2.0000      -0.514049       -13.9880
  66   2.0000      -0.500763       -13.6264
  67   2.0000      -0.500528       -13.6200
  68   2.0000      -0.491256       -13.3678
  69   2.0000      -0.490218       -13.3395
  70   2.0000      -0.487317       -13.2606
  71   2.0000      -0.487216       -13.2578
  72   2.0000      -0.483773       -13.1641
  73   2.0000      -0.481567       -13.1041
  74   2.0000      -0.475029       -12.9262
  75   2.0000      -0.473027       -12.8717
  76   2.0000      -0.472790       -12.8653
  77   2.0000      -0.471816       -12.8388
  78   2.0000      -0.470846       -12.8124
  79   2.0000      -0.466151       -12.6846
  80   2.0000      -0.463321       -12.6076
  81   2.0000      -0.457273       -12.4430
  82   2.0000      -0.453916       -12.3517
  83   2.0000      -0.450654       -12.2629
  84   2.0000      -0.448520       -12.2048
  85   2.0000      -0.446679       -12.1547
  86   2.0000      -0.443236       -12.0611
  87   2.0000      -0.440703       -11.9921
  88   2.0000      -0.440110       -11.9760
  89   2.0000      -0.438859       -11.9419
  90   2.0000      -0.434584       -11.8256
  91   2.0000      -0.434270       -11.8171
  92   2.0000      -0.433447       -11.7947
  93   2.0000      -0.432667       -11.7735
  94   2.0000      -0.431757       -11.7487
  95   2.0000      -0.426425       -11.6036
  96   2.0000      -0.419553       -11.4166
  97   2.0000      -0.417664       -11.3652
  98   2.0000      -0.414330       -11.2745
  99   2.0000      -0.398279       -10.8377
 100   2.0000      -0.337867        -9.1938
 101   2.0000      -0.325699        -8.8627
 102   2.0000      -0.292583        -7.9616
 103   2.0000      -0.234559        -6.3827
 104   2.0000      -0.227164        -6.1815
 105   1.2000      -0.260413        -7.0862
 106   1.2000      -0.249477        -6.7886
 107   1.2000      -0.269133        -7.3235
 108   1.2000      -0.267198        -7.2708
 109   1.2000      -0.268278        -7.3002
 110   0.0000      -0.050898        -1.3850
 111   0.0000      -0.031275        -0.8510
 112   0.0000      -0.002832        -0.0771
 113   0.0000       0.025210         0.6860
 114   0.0000       0.030400         0.8272

MULLIKEN ATOMIC CHARGES AND SPIN DENSITIES
------------------------------------------
   0 Au:    0.027790    0.006393
   1 Au:    0.216634    0.010646
   2 Au:    0.218881    0.010615
   3 Au:    0.218189    0.010597
   4 Au:    0.216020    0.010630
   5 Au:    0.218668    0.010618
   6 Au:    0.216456    0.010640
   7 Au:    0.215830    0.010625
   8 Au:    0.217986    0.010599
   9 Au:    0.027820    0.006380
  10 Fe:   -1.794274    2.902258
Sum of atomic charges       :    0.0000000

LOEWDIN ATOMIC CHARGES AND SPIN DENSITIES
-----------------------------------------
   0 Au:    0.041813    0.008028
   1 Au:    0.021306    0.013502
   2 Au:    0.021611    0.013497
   3 Au:    0.021937    0.013466
   4 Au:    0.021671    0.013470
   5 Au:    0.021510    0.013500
   6 Au:    0.021200    0.013495
   7 Au:    0.021564    0.013465
   8 Au:    0.021839    0.013469
   9 Au:    0.041989    0.008009
  10 Fe:   -0.256440    2.876099

  Mayer bond orders larger than 0.100000
B(  0-Au,  1-Au) :   0.1582 B(  0-Au,  2-Au) :   0.1597 B(  0-Au,  3-Au) :   0.1570
B(  0-Au,  4-Au) :   0.1554 B(  0-Au,  9-Au) :   0.1023 B(  0-Au, 10-Fe) :   0.3702
B(  1-Au,  8-Au) :   0.5469 B(  1-Au, 10-Fe) :   0.4566 B(  2-Au,  7-Au) :   0.5465
B(  2-Au, 10-Fe) :   0.4559 B(  3-Au,  6-Au) :   0.5466 B(  3-Au, 10-Fe) :   0.4566
B(  4-Au,  5-Au) :   0.5467 B(  4-Au, 10-Fe) :   0.4573 B(  5-Au,  9-Au) :   0.1599
B(  5-Au, 10-Fe) :   0.4558 B(  6-Au,  9-Au) :   0.1586 B(  6-Au, 10-Fe) :   0.4566
B(  7-Au,  9-Au) :   0.1558 B(  7-Au, 10-Fe) :   0.4573 B(  8-Au,  9-Au) :   0.1572
B(  8-Au, 10-Fe) :   0.4565 B(  9-Au, 10-Fe) :   0.3695

FINAL SINGLE POINT ENERGY     -2615.498077562876

DIPOLE MOMENT
-------------
                                X             Y             Z
Electronic contribution:     -0.01003      -0.01749      -0.01818
Nuclear contribution   :      0.00993       0.01730       0.01832
                        -----------------------------------------
Total Dipole Moment    :     -0.00009      -0.00020       0.00014
                        -----------------------------------------
Magnitude (a.u.)       :      0.00026
Magnitude (Debye)      :      0.00065

Rotational constants in cm-1:     0.002107     0.001707     0.001542
Rotational constants in MHz :    63.155337    51.174972    46.214833

                             ****ORCA TERMINATED NORMALLY****
TOTAL RUN TIME: 0 days 1 hours 59 minutes 20 seconds 577 msec
