                         Program Version 5.0.3 -  RELEASE  -
|  1> !SC-NEVPT2 def2-TZVP def2-TZVP/C
|  2> !MOREAD RIJCOSX def2/J
|  3> %maxcore 4000
|  4> %moinp "casscf.gbw"
|  5> %pal nprocs 6 end
|  6>
|  7> %casscf
|  8>  mult 6,4
|  9>  bweight 1,1
| 10>  nroots 1,24
| 11>  nel 5
| 12>  norb 5
| 13>  ptsettings
| 14>   d4tpre 1e-14 # default = 1e-10
| 15>   d3tpre 1e-14
| 16>  end
| 17>  rel
| 18>    dosoc true
| 19>    gtensor true
| 20>  end
| 21> end
| 22>
| 23>
| 24> *xyzfile 0 6 pbe.xyz
| 25>
| 26>
| 27>                          ****END OF INPUT****

CARTESIAN COORDINATES (ANGSTROEM)
---------------------------------
  Au    10.351422    6.120328    6.482670
  Au     6.299229    6.109645    6.135402
  Au    10.555741    5.004578    9.047429
  Au     8.138866    4.780001    7.697212
  Au     6.103956    6.180445    8.890519
  Au     8.512822    6.522542   10.160926
  Au    10.715059    7.796461    8.847078
  Au     6.849840    8.687263    9.784962
  Au     9.372806   10.027895    8.314208
  Au     6.691152   10.930439    8.145665
  Au     7.981644    9.953747    5.935514
  Au     6.146961    8.423550    4.595859
  Au     8.837420    7.568703    4.848143
  Au     5.536884    8.559329    7.295741
  Mn     8.273713    7.621096    7.547085

 Total Charge           Charge          ....    0
 Multiplicity           Mult            ....    6
 Number of Electrons    NEL             ....  291
 Basis Dimension        Dim             ....  605

ORBITAL ENERGIES
----------------

  NO   OCC          E(Eh)            E(eV)
   0   2.0000    -240.559461     -6545.9557
   1   2.0000     -29.132822      -792.7444
   2   2.0000     -24.837911      -675.8739
   3   2.0000     -24.837755      -675.8697
   4   2.0000     -24.837660      -675.8671
   5   2.0000      -4.724165      -128.5511
   6   2.0000      -4.719946      -128.4363
   7   2.0000      -4.719769      -128.4315
   8   2.0000      -4.718436      -128.3952
   9   2.0000      -4.716077      -128.3310
  10   2.0000      -4.714426      -128.2860
  11   2.0000      -4.714343      -128.2838
  12   2.0000      -4.711156      -128.1971
  13   2.0000      -4.711069      -128.1947
  14   2.0000      -4.710031      -128.1665
  15   2.0000      -4.709961      -128.1646
  16   2.0000      -4.709065      -128.1402
  17   2.0000      -4.707448      -128.0962
  18   2.0000      -4.707347      -128.0934
  19   2.0000      -3.838205      -104.4429
  20   2.0000      -2.764195       -75.2176
  21   2.0000      -2.763387       -75.1956
  22   2.0000      -2.761341       -75.1399
  23   2.0000      -2.758987       -75.0758
  24   2.0000      -2.757778       -75.0430
  25   2.0000      -2.756988       -75.0215
  26   2.0000      -2.756510       -75.0084
  27   2.0000      -2.756110       -74.9976
  28   2.0000      -2.754079       -74.9423
  29   2.0000      -2.753799       -74.9347
  30   2.0000      -2.753690       -74.9317
  31   2.0000      -2.753139       -74.9167
  32   2.0000      -2.753056       -74.9145
  33   2.0000      -2.752906       -74.9104
  34   2.0000      -2.751726       -74.8783
  35   2.0000      -2.751040       -74.8596
  36   2.0000      -2.750636       -74.8486
  37   2.0000      -2.750368       -74.8413
  38   2.0000      -2.750339       -74.8405
  39   2.0000      -2.750311       -74.8398
  40   2.0000      -2.749803       -74.8259
  41   2.0000      -2.748219       -74.7828
  42   2.0000      -2.747504       -74.7634
  43   2.0000      -2.747394       -74.7604
  44   2.0000      -2.746785       -74.7438
  45   2.0000      -2.746584       -74.7383
  46   2.0000      -2.746346       -74.7319
  47   2.0000      -2.745992       -74.7222
  48   2.0000      -2.745611       -74.7119
  49   2.0000      -2.745512       -74.7092
  50   2.0000      -2.744675       -74.6864
  51   2.0000      -2.744445       -74.6801
  52   2.0000      -2.743818       -74.6631
  53   2.0000      -2.743515       -74.6548
  54   2.0000      -2.742917       -74.6386
  55   2.0000      -2.742519       -74.6277
  56   2.0000      -2.741763       -74.6072
  57   2.0000      -2.741567       -74.6018
  58   2.0000      -2.740332       -74.5682
  59   2.0000      -2.739282       -74.5396
  60   2.0000      -2.738909       -74.5295
  61   2.0000      -2.738420       -74.5162
  62   2.0000      -2.507073       -68.2209
  63   2.0000      -2.506202       -68.1972
  64   2.0000      -2.506195       -68.1970
  65   2.0000      -0.576018       -15.6743
  66   2.0000      -0.560665       -15.2565
  67   2.0000      -0.557585       -15.1726
  68   2.0000      -0.555727       -15.1221
  69   2.0000      -0.555582       -15.1182
  70   2.0000      -0.552535       -15.0352
  71   2.0000      -0.550240       -14.9728
  72   2.0000      -0.549176       -14.9438
  73   2.0000      -0.546990       -14.8844
  74   2.0000      -0.544387       -14.8135
  75   2.0000      -0.539275       -14.6744
  76   2.0000      -0.536892       -14.6096
  77   2.0000      -0.536194       -14.5906
  78   2.0000      -0.532729       -14.4963
  79   2.0000      -0.530832       -14.4447
  80   2.0000      -0.530615       -14.4388
  81   2.0000      -0.526286       -14.3210
  82   2.0000      -0.525475       -14.2989
  83   2.0000      -0.523771       -14.2525
  84   2.0000      -0.523408       -14.2427
  85   2.0000      -0.521097       -14.1798
  86   2.0000      -0.517921       -14.0934
  87   2.0000      -0.517387       -14.0788
  88   2.0000      -0.514227       -13.9928
  89   2.0000      -0.512254       -13.9392
  90   2.0000      -0.505779       -13.7629
  91   2.0000      -0.502779       -13.6813
  92   2.0000      -0.499550       -13.5934
  93   2.0000      -0.495789       -13.4911
  94   2.0000      -0.495453       -13.4820
  95   2.0000      -0.494179       -13.4473
  96   2.0000      -0.487619       -13.2688
  97   2.0000      -0.486017       -13.2252
  98   2.0000      -0.483599       -13.1594
  99   2.0000      -0.482238       -13.1224
 100   2.0000      -0.480931       -13.0868
 101   2.0000      -0.474404       -12.9092
 102   2.0000      -0.473324       -12.8798
 103   2.0000      -0.471862       -12.8400
 104   2.0000      -0.466835       -12.7032
 105   2.0000      -0.465379       -12.6636
 106   2.0000      -0.463262       -12.6060
 107   2.0000      -0.461227       -12.5506
 108   2.0000      -0.457526       -12.4499
 109   2.0000      -0.456520       -12.4226
 110   2.0000      -0.452464       -12.3122
 111   2.0000      -0.450942       -12.2708
 112   2.0000      -0.449834       -12.2406
 113   2.0000      -0.448948       -12.2165
 114   2.0000      -0.446918       -12.1613
 115   2.0000      -0.445095       -12.1116
 116   2.0000      -0.442575       -12.0431
 117   2.0000      -0.441344       -12.0096
 118   2.0000      -0.440079       -11.9752
 119   2.0000      -0.434924       -11.8349
 120   2.0000      -0.434475       -11.8227
 121   2.0000      -0.434200       -11.8152
 122   2.0000      -0.433733       -11.8025
 123   2.0000      -0.431575       -11.7438
 124   2.0000      -0.431491       -11.7415
 125   2.0000      -0.428130       -11.6500
 126   2.0000      -0.427765       -11.6401
 127   2.0000      -0.424899       -11.5621
 128   2.0000      -0.423305       -11.5187
 129   2.0000      -0.423194       -11.5157
 130   2.0000      -0.420347       -11.4382
 131   2.0000      -0.416207       -11.3256
 132   2.0000      -0.406824       -11.0702
 133   2.0000      -0.401306       -10.9201
 134   2.0000      -0.397307       -10.8113
 135   2.0000      -0.385863       -10.4999
 136   2.0000      -0.381105       -10.3704
 137   2.0000      -0.350548        -9.5389
 138   2.0000      -0.346353        -9.4248
 139   2.0000      -0.252534        -6.8718
 140   2.0000      -0.249459        -6.7881
 141   2.0000      -0.242105        -6.5880
 142   2.0000      -0.224357        -6.1051
 143   1.0000      -0.150254        -4.0886
 144   1.0000      -0.153967        -4.1897
 145   1.0000      -0.152591        -4.1522
 146   1.0000      -0.157749        -4.2926
 147   1.0000      -0.160344        -4.3632
 148   0.0000      -0.039508        -1.0751
 149   0.0000      -0.017988        -0.4895
 150   0.0000      -0.008141        -0.2215
 151   0.0000      -0.008010        -0.2180
 152   0.0000      -0.004162        -0.1133

MULLIKEN ATOMIC CHARGES AND SPIN DENSITIES
------------------------------------------
   0 Au:    0.117720    0.009065
   1 Au:    0.122523    0.008594
   2 Au:    0.325168    0.003806
   3 Au:    0.055808    0.007680
   4 Au:    0.318188    0.005079
   5 Au:    0.055221    0.007734
   6 Au:    0.116537    0.009145
   7 Au:    0.125026    0.008622
   8 Au:    0.142987    0.009903
   9 Au:    0.335352    0.004575
  10 Au:    0.005640    0.008109
  11 Au:    0.337019    0.004574
  12 Au:    0.140421    0.009868
  13 Au:   -0.198174    0.007646
  14 Mn:   -1.999435    3.895600
Sum of atomic charges       :    0.0000000

LOEWDIN ATOMIC CHARGES AND SPIN DENSITIES
-----------------------------------------
   0 Au:   -0.004035    0.012266
   1 Au:    0.025475    0.011089
   2 Au:    0.106758    0.004425
   3 Au:   -0.029264    0.010794
   4 Au:    0.025472    0.007978
   5 Au:   -0.028782    0.010852
   6 Au:   -0.004050    0.012355
   7 Au:    0.026464    0.011129
   8 Au:    0.027739    0.013197
   9 Au:    0.101379    0.005439
  10 Au:   -0.066141    0.011870
  11 Au:    0.102519    0.005430
  12 Au:    0.027126    0.013143
  13 Au:   -0.081340    0.010804
  14 Mn:   -0.229320    3.859228

  Mayer bond orders larger than 0.100000
B(  0-Au,  2-Au) :   0.2174 B(  0-Au,  3-Au) :   0.1390 B(  0-Au,  5-Au) :   0.1004
B(  0-Au,  6-Au) :   0.1231 B(  0-Au, 12-Au) :   0.3190 B(  0-Au, 14-Mn) :   0.4162
B(  1-Au,  3-Au) :   0.2320 B(  1-Au,  4-Au) :   0.2034 B(  1-Au, 11-Au) :   0.2076
B(  1-Au, 13-Au) :   0.2895 B(  1-Au, 14-Mn) :   0.3679 B(  2-Au,  3-Au) :   0.2462
B(  2-Au,  5-Au) :   0.2459 B(  2-Au,  6-Au) :   0.2180 B(  2-Au, 14-Mn) :   0.1065
B(  3-Au,  4-Au) :   0.2401 B(  3-Au,  5-Au) :   0.1556 B(  3-Au,  6-Au) :   0.1011
B(  3-Au, 14-Mn) :   0.3574 B(  4-Au,  5-Au) :   0.2403 B(  4-Au,  7-Au) :   0.2013
B(  4-Au, 14-Mn) :   0.3205 B(  5-Au,  6-Au) :   0.1365 B(  5-Au,  7-Au) :   0.2327
B(  5-Au, 14-Mn) :   0.3583 B(  6-Au,  8-Au) :   0.3178 B(  6-Au, 14-Mn) :   0.4174
B(  7-Au,  9-Au) :   0.2073 B(  7-Au, 13-Au) :   0.2889 B(  7-Au, 14-Mn) :   0.3672
B(  8-Au,  9-Au) :   0.2055 B(  8-Au, 10-Au) :   0.2356 B(  8-Au, 14-Mn) :   0.4327
B(  9-Au, 10-Au) :   0.2686 B(  9-Au, 13-Au) :   0.2385 B(  9-Au, 14-Mn) :   0.1343
B( 10-Au, 11-Au) :   0.2688 B( 10-Au, 12-Au) :   0.2343 B( 10-Au, 13-Au) :   0.1434
B( 10-Au, 14-Mn) :   0.2917 B( 11-Au, 12-Au) :   0.2060 B( 11-Au, 13-Au) :   0.2382
B( 11-Au, 14-Mn) :   0.1321 B( 12-Au, 14-Mn) :   0.4312 B( 13-Au, 14-Mn) :   0.3623

FINAL SINGLE POINT ENERGY     -3044.147559291024

DIPOLE MOMENT
-------------
                                X             Y             Z
Electronic contribution:     -9.96596      -0.09066       1.40139
Nuclear contribution   :      9.74624       0.07932      -1.36131
                        -----------------------------------------
Total Dipole Moment    :     -0.21972      -0.01134       0.04008
                        -----------------------------------------
Magnitude (a.u.)       :      0.22364
Magnitude (Debye)      :      0.56844

Rotational constants in cm-1:     0.001241     0.000935     0.000872
Rotational constants in MHz :    37.214731    28.044572    26.150102

                             ****ORCA TERMINATED NORMALLY****
TOTAL RUN TIME: 0 days 2 hours 11 minutes 53 seconds 194 msec
