                         Program Version 5.0.3 -  RELEASE  -
|  1> !CASSCF def2-TZVP def2-TZVP/C
|  2> !MOREAD RIJCOSX
|  3> %maxcore 6000
|  4> %moinp "pbe.qro"
|  5> %pal nprocs 2 end
|  6>
|  7> %casscf
|  8>  mult 5,3
|  9>  bweight 1,1
| 10>  nroots 5,45
| 11>  nel 6
| 12>  norb 5
| 13> end
| 14>
| 15>
| 16> *xyzfile 0 5 pbe.xyz
| 17>
| 18>
| 19>                          ****END OF INPUT****

CARTESIAN COORDINATES (ANGSTROEM)
---------------------------------
  Au     6.432031   10.517271    6.931877
  Au     8.708197    9.376141    7.788683
  Au     7.441468    5.242738    9.325941
  Au     9.962846    5.613722    9.929147
  Au     6.528749    5.304903    6.667791
  Au     6.449837    7.892472    6.890640
  Au    12.605309    6.289627    9.585721
  Au    10.825611    8.158868    8.680538
  Au    11.215166    5.562009    7.338309
  Au     9.165300    5.149558    5.754618
  Fe     8.770339    6.756194    7.732205

 Total Charge           Charge          ....    0
 Multiplicity           Mult            ....    5
 Number of Electrons    NEL             ....  216
 Basis Dimension        Dim             ....  445

ORBITAL ENERGIES
----------------

  NO   OCC          E(Eh)            E(eV)
   0   2.0000    -261.385156     -7112.6517
   1   2.0000     -31.949706      -869.3957
   2   2.0000     -27.429628      -746.3981
   3   2.0000     -27.429599      -746.3973
   4   2.0000     -27.429039      -746.3821
   5   2.0000      -4.713474      -128.2602
   6   2.0000      -4.712582      -128.2359
   7   2.0000      -4.711274      -128.2003
   8   2.0000      -4.709165      -128.1429
   9   2.0000      -4.708736      -128.1312
  10   2.0000      -4.707472      -128.0968
  11   2.0000      -4.707148      -128.0880
  12   2.0000      -4.705552      -128.0446
  13   2.0000      -4.704816      -128.0245
  14   2.0000      -4.691696      -127.6675
  15   2.0000      -4.182555      -113.8131
  16   2.0000      -2.762156       -75.1621
  17   2.0000      -2.761341       -75.1399
  18   2.0000      -2.761214       -75.1365
  19   2.0000      -2.757172       -75.0265
  20   2.0000      -2.754038       -74.9412
  21   2.0000      -2.751938       -74.8840
  22   2.0000      -2.749828       -74.8266
  23   2.0000      -2.748904       -74.8015
  24   2.0000      -2.748559       -74.7921
  25   2.0000      -2.748057       -74.7784
  26   2.0000      -2.747541       -74.7644
  27   2.0000      -2.746129       -74.7260
  28   2.0000      -2.745561       -74.7105
  29   2.0000      -2.745325       -74.7041
  30   2.0000      -2.744414       -74.6793
  31   2.0000      -2.743978       -74.6674
  32   2.0000      -2.743662       -74.6588
  33   2.0000      -2.743172       -74.6455
  34   2.0000      -2.741814       -74.6086
  35   2.0000      -2.741516       -74.6004
  36   2.0000      -2.741159       -74.5907
  37   2.0000      -2.740483       -74.5723
  38   2.0000      -2.740176       -74.5640
  39   2.0000      -2.739782       -74.5533
  40   2.0000      -2.739321       -74.5407
  41   2.0000      -2.738727       -74.5246
  42   2.0000      -2.738221       -74.5108
  43   2.0000      -2.735883       -74.4471
  44   2.0000      -2.735669       -74.4413
  45   2.0000      -2.734978       -74.4225
  46   2.0000      -2.728809       -74.2547
  47   2.0000      -2.725973       -74.1775
  48   2.0000      -2.723164       -74.1011
  49   2.0000      -0.561052       -15.2670
  50   2.0000      -0.555015       -15.1027
  51   2.0000      -0.551599       -15.0098
  52   2.0000      -0.545694       -14.8491
  53   2.0000      -0.539393       -14.6776
  54   2.0000      -0.537634       -14.6298
  55   2.0000      -0.534801       -14.5527
  56   2.0000      -0.527897       -14.3648
  57   2.0000      -0.524108       -14.2617
  58   2.0000      -0.521991       -14.2041
  59   2.0000      -0.518932       -14.1208
  60   2.0000      -0.516320       -14.0498
  61   2.0000      -0.510195       -13.8831
  62   2.0000      -0.503240       -13.6939
  63   2.0000      -0.501659       -13.6508
  64   2.0000      -0.499707       -13.5977
  65   2.0000      -0.499011       -13.5788
  66   2.0000      -0.494729       -13.4623
  67   2.0000      -0.490301       -13.3418
  68   2.0000      -0.488011       -13.2794
  69   2.0000      -0.485464       -13.2101
  70   2.0000      -0.475114       -12.9285
  71   2.0000      -0.473863       -12.8945
  72   2.0000      -0.473095       -12.8736
  73   2.0000      -0.470462       -12.8019
  74   2.0000      -0.466922       -12.7056
  75   2.0000      -0.463776       -12.6200
  76   2.0000      -0.458194       -12.4681
  77   2.0000      -0.457721       -12.4552
  78   2.0000      -0.454067       -12.3558
  79   2.0000      -0.452427       -12.3112
  80   2.0000      -0.451700       -12.2914
  81   2.0000      -0.450569       -12.2606
  82   2.0000      -0.449631       -12.2351
  83   2.0000      -0.448859       -12.2141
  84   2.0000      -0.446144       -12.1402
  85   2.0000      -0.444810       -12.1039
  86   2.0000      -0.443070       -12.0566
  87   2.0000      -0.437017       -11.8918
  88   2.0000      -0.436264       -11.8713
  89   2.0000      -0.432589       -11.7714
  90   2.0000      -0.428289       -11.6543
  91   2.0000      -0.425006       -11.5650
  92   2.0000      -0.423589       -11.5264
  93   2.0000      -0.423078       -11.5125
  94   2.0000      -0.421785       -11.4774
  95   2.0000      -0.417607       -11.3637
  96   2.0000      -0.411812       -11.2060
  97   2.0000      -0.406304       -11.0561
  98   2.0000      -0.398018       -10.8306
  99   2.0000      -0.382202       -10.4002
 100   2.0000      -0.361142        -9.8272
 101   2.0000      -0.333981        -9.0881
 102   2.0000      -0.285935        -7.7807
 103   2.0000      -0.255922        -6.9640
 104   2.0000      -0.243528        -6.6267
 105   1.2000      -0.265068        -7.2129
 106   1.2000      -0.264255        -7.1908
 107   1.2000      -0.258515        -7.0346
 108   1.2000      -0.258636        -7.0378
 109   1.2000      -0.259863        -7.0712
 110   0.0000      -0.021985        -0.5982
 111   0.0000      -0.013628        -0.3708
 112   0.0000       0.002171         0.0591
 113   0.0000       0.015913         0.4330
 114   0.0000       0.020645         0.5618

MULLIKEN ATOMIC CHARGES AND SPIN DENSITIES
------------------------------------------
   0 Au:    0.435392    0.001976
   1 Au:   -0.194446    0.008542
   2 Au:    0.223980    0.010049
   3 Au:   -0.073616    0.006777
   4 Au:    0.279484    0.005502
   5 Au:   -0.398416    0.007743
   6 Au:    0.359034    0.002562
   7 Au:    0.069804    0.008299
   8 Au:   -0.040491    0.006570
   9 Au:    0.213411    0.009887
  10 Fe:   -0.874136    2.932094
Sum of atomic charges       :    0.0000000

LOEWDIN ATOMIC CHARGES AND SPIN DENSITIES
-----------------------------------------
   0 Au:    0.124981    0.002675
   1 Au:   -0.076908    0.012202
   2 Au:    0.054081    0.013483
   3 Au:   -0.088159    0.009275
   4 Au:    0.046768    0.007387
   5 Au:   -0.134456    0.010615
   6 Au:    0.155325    0.003048
   7 Au:   -0.071427    0.011244
   8 Au:   -0.086089    0.009199
   9 Au:    0.062897    0.013304
  10 Fe:    0.012987    2.907566

  Mayer bond orders larger than 0.100000
B(  0-Au,  1-Au) :   0.3822 B(  0-Au,  5-Au) :   0.5481 B(  1-Au,  5-Au) :   0.3946
B(  1-Au,  7-Au) :   0.4660 B(  1-Au, 10-Fe) :   0.5208 B(  2-Au,  3-Au) :   0.5956
B(  2-Au, 10-Fe) :   0.4496 B(  3-Au,  6-Au) :   0.3263 B(  3-Au,  7-Au) :   0.1264
B(  3-Au,  8-Au) :   0.2132 B(  3-Au, 10-Fe) :   0.3958 B(  4-Au,  5-Au) :   0.5981
B(  4-Au, 10-Fe) :   0.3214 B(  5-Au, 10-Fe) :   0.3654 B(  6-Au,  7-Au) :   0.2901
B(  6-Au,  8-Au) :   0.3424 B(  7-Au,  8-Au) :   0.1333 B(  7-Au, 10-Fe) :   0.5054
B(  8-Au,  9-Au) :   0.5752 B(  8-Au, 10-Fe) :   0.3854 B(  9-Au, 10-Fe) :   0.4561

FINAL SINGLE POINT ENERGY     -2610.519435794758

DIPOLE MOMENT
-------------
                                X             Y             Z
Electronic contribution:      6.17343       5.48168       5.91825
Nuclear contribution   :     -6.17836      -5.85356      -5.95145
                        -----------------------------------------
Total Dipole Moment    :     -0.00492      -0.37188      -0.03320
                        -----------------------------------------
Magnitude (a.u.)       :      0.37339
Magnitude (Debye)      :      0.94909

Rotational constants in cm-1:     0.002114     0.001271     0.001021
Rotational constants in MHz :    63.362502    38.099468    30.596076

                             ****ORCA TERMINATED NORMALLY****
TOTAL RUN TIME: 0 days 0 hours 28 minutes 32 seconds 93 msec
