                         Program Version 5.0.3 -  RELEASE  -
|  1> %pal nprocs 1 end
|  2>
|  3> !PBE def2-TZVP OPT UNO
|  4> !SLOWCONV KDIIS
|  5>
|  6> %geom maxiter 300 end
|  7>
|  8> *xyzfile 0 6 2.xyz                           ****END OF INPUT****
 Total Charge           Charge          ....    0
 Multiplicity           Mult            ....    6
 Number of Electrons    NEL             ....  215
FINAL SINGLE POINT ENERGY     -2509.035701485178
FINAL SINGLE POINT ENERGY     -2509.037647497403
FINAL SINGLE POINT ENERGY     -2509.039157880923
FINAL SINGLE POINT ENERGY     -2509.040745103339
FINAL SINGLE POINT ENERGY     -2509.040958422070
FINAL SINGLE POINT ENERGY     -2509.041465944675
FINAL SINGLE POINT ENERGY     -2509.042213534451
FINAL SINGLE POINT ENERGY     -2509.042451792140
FINAL SINGLE POINT ENERGY     -2509.042545726843
FINAL SINGLE POINT ENERGY     -2509.042565744589
FINAL SINGLE POINT ENERGY     -2509.042589713420
FINAL SINGLE POINT ENERGY     -2509.042596708439
                    ***********************HURRAY********************

CARTESIAN COORDINATES (ANGSTROEM)
---------------------------------
  Au     7.632504    5.991607    5.833179
  Au     5.753582    4.082658    7.883688
  Au     7.905755    5.890448   10.772996
  Au     8.749385    4.593875    8.634896
  Au     7.908549    3.416436    6.263170
  Au     7.605926    8.236554    4.488624
  Au     5.062597    5.412661   10.055390
  Au     5.826350    7.266973   11.937912
  Au     6.209963    8.585347    9.586665
  Au     6.874283    8.619869    7.036091
  Mn     6.869316    6.394829    8.390372

 Multiplicity           Mult            ....    6
 Number of Electrons    NEL             ....  215
 Basis Dimension        Dim             ....  445

ORBITAL ENERGIES
----------------
                 SPIN UP ORBITALS
  NO   OCC          E(Eh)            E(eV)
   0   1.0000    -234.194145     -6372.7467
   1   1.0000     -26.893185      -731.8008
   2   1.0000     -23.042481      -627.0178
   3   1.0000     -23.041347      -626.9869
   4   1.0000     -23.040004      -626.9504
   5   1.0000      -4.035477      -109.8109
   6   1.0000      -4.029657      -109.6525
   7   1.0000      -4.026384      -109.5635
   8   1.0000      -4.022971      -109.4706
   9   1.0000      -4.022530      -109.4586
  10   1.0000      -4.019751      -109.3830
  11   1.0000      -4.019532      -109.3770
  12   1.0000      -4.019063      -109.3643
  13   1.0000      -4.018869      -109.3590
  14   1.0000      -4.012891      -109.1963
  15   1.0000      -3.105015       -84.4918
  16   1.0000      -2.256624       -61.4059
  17   1.0000      -2.249517       -61.2125
  18   1.0000      -2.246695       -61.1357
  19   1.0000      -2.245845       -61.1125
  20   1.0000      -2.242753       -61.0284
  21   1.0000      -2.242583       -61.0238
  22   1.0000      -2.241175       -60.9855
  23   1.0000      -2.240558       -60.9687
  24   1.0000      -2.240141       -60.9573
  25   1.0000      -2.239413       -60.9375
  26   1.0000      -2.237918       -60.8968
  27   1.0000      -2.237463       -60.8845
  28   1.0000      -2.237380       -60.8822
  29   1.0000      -2.235776       -60.8386
  30   1.0000      -2.235474       -60.8303
  31   1.0000      -2.235391       -60.8281
  32   1.0000      -2.233462       -60.7756
  33   1.0000      -2.233256       -60.7700
  34   1.0000      -2.232239       -60.7423
  35   1.0000      -2.231538       -60.7232
  36   1.0000      -2.230106       -60.6843
  37   1.0000      -2.230032       -60.6823
  38   1.0000      -2.229611       -60.6708
  39   1.0000      -2.228938       -60.6525
  40   1.0000      -2.228334       -60.6361
  41   1.0000      -2.226465       -60.5852
  42   1.0000      -2.226329       -60.5815
  43   1.0000      -2.225623       -60.5623
  44   1.0000      -2.223903       -60.5155
  45   1.0000      -2.218381       -60.3652
  46   1.0000      -2.009640       -54.6851
  47   1.0000      -2.007454       -54.6256
  48   1.0000      -2.005742       -54.5790
  49   1.0000      -0.405809       -11.0426
  50   1.0000      -0.384117       -10.4524
  51   1.0000      -0.375674       -10.2226
  52   1.0000      -0.366387        -9.9699
  53   1.0000      -0.363832        -9.9004
  54   1.0000      -0.362340        -9.8598
  55   1.0000      -0.358759        -9.7623
  56   1.0000      -0.342862        -9.3298
  57   1.0000      -0.340924        -9.2770
  58   1.0000      -0.338642        -9.2149
  59   1.0000      -0.332773        -9.0552
  60   1.0000      -0.331226        -9.0131
  61   1.0000      -0.326814        -8.8931
  62   1.0000      -0.325509        -8.8576
  63   1.0000      -0.321570        -8.7504
  64   1.0000      -0.319852        -8.7036
  65   1.0000      -0.319761        -8.7011
  66   1.0000      -0.316999        -8.6260
  67   1.0000      -0.316233        -8.6051
  68   1.0000      -0.309676        -8.4267
  69   1.0000      -0.308387        -8.3916
  70   1.0000      -0.302337        -8.2270
  71   1.0000      -0.301186        -8.1957
  72   1.0000      -0.299432        -8.1480
  73   1.0000      -0.297067        -8.0836
  74   1.0000      -0.294090        -8.0026
  75   1.0000      -0.291613        -7.9352
  76   1.0000      -0.291120        -7.9218
  77   1.0000      -0.285279        -7.7628
  78   1.0000      -0.284918        -7.7530
  79   1.0000      -0.281041        -7.6475
  80   1.0000      -0.276886        -7.5345
  81   1.0000      -0.275632        -7.5003
  82   1.0000      -0.274148        -7.4599
  83   1.0000      -0.274077        -7.4580
  84   1.0000      -0.271264        -7.3815
  85   1.0000      -0.269480        -7.3329
  86   1.0000      -0.268109        -7.2956
  87   1.0000      -0.267057        -7.2670
  88   1.0000      -0.266131        -7.2418
  89   1.0000      -0.265301        -7.2192
  90   1.0000      -0.261810        -7.1242
  91   1.0000      -0.261434        -7.1140
  92   1.0000      -0.258421        -7.0320
  93   1.0000      -0.256527        -6.9804
  94   1.0000      -0.255252        -6.9458
  95   1.0000      -0.255015        -6.9393
  96   1.0000      -0.250585        -6.8188
  97   1.0000      -0.249600        -6.7920
  98   1.0000      -0.249070        -6.7775
  99   1.0000      -0.246539        -6.7087
 100   1.0000      -0.245275        -6.6743
 101   1.0000      -0.244732        -6.6595
 102   1.0000      -0.244273        -6.6470
 103   1.0000      -0.242292        -6.5931
 104   1.0000      -0.237809        -6.4711
 105   1.0000      -0.230262        -6.2657
 106   1.0000      -0.230161        -6.2630
 107   1.0000      -0.210853        -5.7376
 108   1.0000      -0.209992        -5.7142
 109   1.0000      -0.209276        -5.6947
 110   0.0000      -0.158937        -4.3249
 111   0.0000      -0.144191        -3.9236
 112   0.0000      -0.131397        -3.5755
 113   0.0000      -0.127471        -3.4687
 114   0.0000      -0.094876        -2.5817

                 SPIN DOWN ORBITALS
  NO   OCC          E(Eh)            E(eV)
   0   1.0000    -234.193340     -6372.7248
   1   1.0000     -26.825323      -729.9542
   2   1.0000     -22.990159      -625.5940
   3   1.0000     -22.989985      -625.5893
   4   1.0000     -22.989007      -625.5627
   5   1.0000      -4.033681      -109.7621
   6   1.0000      -4.029293      -109.6426
   7   1.0000      -4.024735      -109.5186
   8   1.0000      -4.021404      -109.4280
   9   1.0000      -4.020977      -109.4163
  10   1.0000      -4.018631      -109.3525
  11   1.0000      -4.018100      -109.3381
  12   1.0000      -4.017891      -109.3324
  13   1.0000      -4.017073      -109.3101
  14   1.0000      -4.012744      -109.1923
  15   1.0000      -2.938211       -79.9528
  16   1.0000      -2.254841       -61.3573
  17   1.0000      -2.246877       -61.1406
  18   1.0000      -2.245224       -61.0957
  19   1.0000      -2.244664       -61.0804
  20   1.0000      -2.241386       -60.9912
  21   1.0000      -2.241106       -60.9836
  22   1.0000      -2.239623       -60.9432
  23   1.0000      -2.239269       -60.9336
  24   1.0000      -2.239090       -60.9287
  25   1.0000      -2.238321       -60.9078
  26   1.0000      -2.235974       -60.8439
  27   1.0000      -2.235449       -60.8296
  28   1.0000      -2.235295       -60.8255
  29   1.0000      -2.234423       -60.8017
  30   1.0000      -2.233748       -60.7834
  31   1.0000      -2.233314       -60.7716
  32   1.0000      -2.231982       -60.7353
  33   1.0000      -2.231635       -60.7259
  34   1.0000      -2.231263       -60.7158
  35   1.0000      -2.230399       -60.6922
  36   1.0000      -2.229037       -60.6552
  37   1.0000      -2.229021       -60.6547
  38   1.0000      -2.228705       -60.6461
  39   1.0000      -2.227714       -60.6192
  40   1.0000      -2.227119       -60.6030
  41   1.0000      -2.226331       -60.5815
  42   1.0000      -2.225092       -60.5478
  43   1.0000      -2.224412       -60.5293
  44   1.0000      -2.222311       -60.4722
  45   1.0000      -2.218178       -60.3597
  46   1.0000      -1.844794       -50.1994
  47   1.0000      -1.843623       -50.1675
  48   1.0000      -1.843138       -50.1543
  49   1.0000      -0.399783       -10.8787
  50   1.0000      -0.379771       -10.3341
  51   1.0000      -0.373506       -10.1636
  52   1.0000      -0.360052        -9.7975
  53   1.0000      -0.359337        -9.7780
  54   1.0000      -0.354857        -9.6561
  55   1.0000      -0.351527        -9.5655
  56   1.0000      -0.337027        -9.1710
  57   1.0000      -0.335208        -9.1215
  58   1.0000      -0.334110        -9.0916
  59   1.0000      -0.325793        -8.8653
  60   1.0000      -0.325057        -8.8452
  61   1.0000      -0.319352        -8.6900
  62   1.0000      -0.317601        -8.6424
  63   1.0000      -0.316574        -8.6144
  64   1.0000      -0.314651        -8.5621
  65   1.0000      -0.313980        -8.5438
  66   1.0000      -0.310742        -8.4557
  67   1.0000      -0.306853        -8.3499
  68   1.0000      -0.304410        -8.2834
  69   1.0000      -0.302609        -8.2344
  70   1.0000      -0.299501        -8.1498
  71   1.0000      -0.297791        -8.1033
  72   1.0000      -0.294239        -8.0067
  73   1.0000      -0.292111        -7.9488
  74   1.0000      -0.287442        -7.8217
  75   1.0000      -0.284220        -7.7340
  76   1.0000      -0.283982        -7.7275
  77   1.0000      -0.283133        -7.7044
  78   1.0000      -0.280604        -7.6356
  79   1.0000      -0.278385        -7.5752
  80   1.0000      -0.275552        -7.4981
  81   1.0000      -0.273805        -7.4506
  82   1.0000      -0.271895        -7.3987
  83   1.0000      -0.270719        -7.3666
  84   1.0000      -0.270309        -7.3555
  85   1.0000      -0.268492        -7.3060
  86   1.0000      -0.266290        -7.2461
  87   1.0000      -0.265756        -7.2316
  88   1.0000      -0.264663        -7.2018
  89   1.0000      -0.263438        -7.1685
  90   1.0000      -0.259679        -7.0662
  91   1.0000      -0.258231        -7.0268
  92   1.0000      -0.255804        -6.9608
  93   1.0000      -0.254468        -6.9244
  94   1.0000      -0.253968        -6.9108
  95   1.0000      -0.253407        -6.8955
  96   1.0000      -0.248276        -6.7559
  97   1.0000      -0.245665        -6.6849
  98   1.0000      -0.244524        -6.6538
  99   1.0000      -0.244330        -6.6486
 100   1.0000      -0.241069        -6.5598
 101   1.0000      -0.235286        -6.4025
 102   1.0000      -0.221552        -6.0287
 103   1.0000      -0.217366        -5.9148
 104   1.0000      -0.216500        -5.8913
 105   0.0000      -0.160391        -4.3644
 106   0.0000      -0.155057        -4.2193
 107   0.0000      -0.140665        -3.8277
 108   0.0000      -0.126257        -3.4356
 109   0.0000      -0.125138        -3.4052

MULLIKEN ATOMIC CHARGES AND SPIN POPULATIONS
--------------------------------------------
   0 Au:   -0.286532    0.037999
   1 Au:    0.121959    0.059764
   2 Au:    0.106602    0.067827
   3 Au:    0.126821    0.060008
   4 Au:    0.357497    0.068563
   5 Au:    0.332897    0.064975
   6 Au:    0.109584    0.067581
   7 Au:    0.275978    0.048591
   8 Au:    0.097061    0.078404
   9 Au:   -0.006115    0.036433
  10 Mn:   -1.235752    4.409856
Sum of atomic charges         :   -0.0000000

LOEWDIN ATOMIC CHARGES AND SPIN POPULATIONS
-------------------------------------------
   0 Au:   -0.069922    0.088352
   1 Au:    0.036439    0.068621
   2 Au:    0.007256    0.077333
   3 Au:    0.035698    0.069030
   4 Au:    0.088908    0.045313
   5 Au:    0.094576    0.046925
   6 Au:    0.007501    0.077186
   7 Au:    0.049914    0.040644
   8 Au:    0.024598    0.082699
   9 Au:    0.011817    0.065516
  10 Mn:   -0.286785    4.338383

  Mayer bond orders larger than 0.100000
B(  0-Au,  4-Au) :   0.5885 B(  0-Au,  5-Au) :   0.6620 B(  0-Au,  9-Au) :   0.2404
B(  0-Au, 10-Mn) :   0.3742 B(  1-Au,  4-Au) :   0.2399 B(  1-Au,  6-Au) :   0.5501
B(  1-Au, 10-Mn) :   0.6237 B(  2-Au,  3-Au) :   0.5504 B(  2-Au,  6-Au) :   0.1517
B(  2-Au,  7-Au) :   0.3426 B(  2-Au, 10-Mn) :   0.5479 B(  3-Au,  4-Au) :   0.2382
B(  3-Au, 10-Mn) :   0.6208 B(  5-Au,  9-Au) :   0.3900 B(  6-Au,  7-Au) :   0.3441
B(  6-Au, 10-Mn) :   0.5462 B(  7-Au,  8-Au) :   0.3324 B(  8-Au,  9-Au) :   0.5117
B(  8-Au, 10-Mn) :   0.6272 B(  9-Au, 10-Mn) :   0.5936

FINAL SINGLE POINT ENERGY     -2509.042599953508

DIPOLE MOMENT
-------------
                                X             Y             Z
Electronic contribution:      3.15280      -6.92351      -5.46747
Nuclear contribution   :     -3.02685       6.70707       5.11077
                        -----------------------------------------
Total Dipole Moment    :      0.12594      -0.21644      -0.35670
                        -----------------------------------------
Magnitude (a.u.)       :      0.43582
Magnitude (Debye)      :      1.10777

Rotational constants in cm-1:     0.002030     0.001357     0.000988
Rotational constants in MHz :    60.860913    40.693668    29.633436

                             ****ORCA TERMINATED NORMALLY****
TOTAL RUN TIME: 0 days 1 hours 14 minutes 11 seconds 982 msec
