                         Program Version 5.0.3 -  RELEASE  -
|  1> !RI-B2PLYP def2-TZVP def2-TZVP/C
|  2> !RIJCOSX VERYSLOWCONV
|  3>
|  4> %scf
|  5>   AutoTRAHIter 200
|  6>   maxiter 400
|  7> end
|  8>
|  9>
| 10> %pal nprocs 6 end
| 11>
| 12> *xyzfile 0 6 pbe.xyz
| 13>
| 14> $new_job
| 15>
| 16> !RI-B2PLYP def2-TZVP def2-TZVP/C
| 17> !RIJCOSX VERYSLOWCONV
| 18>
| 19> %scf
| 20>   AutoTRAHIter 200
| 21>   maxiter 400
| 22> end
| 23>
| 24>
| 25> %pal nprocs 6 end
| 26>
| 27> *xyzfile 0 4 pbe.xyz
| 28>
| 29>
| 30>
| 31>
| 32>
| 33>                          ****END OF INPUT****
 Total Charge           Charge          ....    0
 Multiplicity           Mult            ....    6
 Number of Electrons    NEL             ....  311
MP2 TOTAL ENERGY:    -3297.348280875 Eh
FINAL SINGLE POINT ENERGY     -3297.348280875178

CARTESIAN COORDINATES (ANGSTROEM)
---------------------------------
  Au     6.996652    6.242643    6.577969
  Au     6.476721    9.158562    6.198806
  Au     4.468422    7.340167    6.650590
  Au     8.855043    7.890546    5.300338
  Au     3.206193    7.333379    9.196767
  Au     9.032568   10.385194    6.457094
  Au     4.847955    9.451047    8.501224
  Au     7.203660   10.709497    8.577388
  Au     5.654646    7.574317   10.456653
  Au     5.279808    5.474222    8.595566
  Au     7.828970    6.069785    9.436645
  Au     9.918943   10.153427    9.083280
  Au     8.062392    8.719859   10.652554
  Au    10.320847    7.443085    9.544989
  Au     9.685320    5.995398    7.286583
  Fe     8.299478    8.263075    7.955072

 Multiplicity           Mult            ....    4
 Number of Electrons    NEL             ....  311
 Basis Dimension        Dim             ....  645

ORBITAL ENERGIES
----------------
                 SPIN UP ORBITALS
  NO   OCC          E(Eh)            E(eV)
   0   1.0000    -258.339987     -7029.7884
   1   1.0000     -30.898253      -840.7842
   2   1.0000     -26.607562      -724.0286
   3   1.0000     -26.604637      -723.9490
   4   1.0000     -26.577475      -723.2099
   5   1.0000      -4.408646      -119.9654
   6   1.0000      -4.408628      -119.9649
   7   1.0000      -4.407453      -119.9329
   8   1.0000      -4.401560      -119.7725
   9   1.0000      -4.401435      -119.7691
  10   1.0000      -4.401313      -119.7658
  11   1.0000      -4.399642      -119.7204
  12   1.0000      -4.399368      -119.7129
  13   1.0000      -4.397766      -119.6693
  14   1.0000      -4.397646      -119.6660
  15   1.0000      -4.388768      -119.4245
  16   1.0000      -4.388614      -119.4203
  17   1.0000      -4.386944      -119.3748
  18   1.0000      -4.386753      -119.3696
  19   1.0000      -4.386027      -119.3499
  20   1.0000      -3.910928      -106.4218
  21   1.0000      -2.642951       -71.9183
  22   1.0000      -2.637417       -71.7678
  23   1.0000      -2.579069       -70.1800
  24   1.0000      -2.529053       -68.8190
  25   1.0000      -2.528942       -68.8160
  26   1.0000      -2.527889       -68.7874
  27   1.0000      -2.526319       -68.7446
  28   1.0000      -2.526308       -68.7443
  29   1.0000      -2.524535       -68.6961
  30   1.0000      -2.524316       -68.6901
  31   1.0000      -2.523382       -68.6647
  32   1.0000      -2.523154       -68.6585
  33   1.0000      -2.522763       -68.6479
  34   1.0000      -2.522016       -68.6275
  35   1.0000      -2.521277       -68.6074
  36   1.0000      -2.520976       -68.5993
  37   1.0000      -2.519479       -68.5585
  38   1.0000      -2.519086       -68.5478
  39   1.0000      -2.518377       -68.5285
  40   1.0000      -2.517955       -68.5170
  41   1.0000      -2.517765       -68.5119
  42   1.0000      -2.517292       -68.4990
  43   1.0000      -2.517212       -68.4968
  44   1.0000      -2.516133       -68.4675
  45   1.0000      -2.516071       -68.4658
  46   1.0000      -2.515300       -68.4448
  47   1.0000      -2.515083       -68.4389
  48   1.0000      -2.513934       -68.4076
  49   1.0000      -2.513173       -68.3869
  50   1.0000      -2.512733       -68.3750
  51   1.0000      -2.512292       -68.3629
  52   1.0000      -2.511883       -68.3518
  53   1.0000      -2.511103       -68.3306
  54   1.0000      -2.509015       -68.2738
  55   1.0000      -2.508440       -68.2581
  56   1.0000      -2.507622       -68.2359
  57   1.0000      -2.507038       -68.2200
  58   1.0000      -2.507005       -68.2191
  59   1.0000      -2.505976       -68.1911
  60   1.0000      -2.505390       -68.1751
  61   1.0000      -2.503716       -68.1296
  62   1.0000      -2.503545       -68.1249
  63   1.0000      -2.502635       -68.1002
  64   1.0000      -2.502122       -68.0862
  65   1.0000      -2.501796       -68.0773
  66   1.0000      -2.501495       -68.0691
  67   1.0000      -2.501198       -68.0611
  68   1.0000      -2.499587       -68.0172
  69   1.0000      -0.567051       -15.4302
  70   1.0000      -0.564047       -15.3485
  71   1.0000      -0.539593       -14.6831
  72   1.0000      -0.539288       -14.6748
  73   1.0000      -0.525153       -14.2901
  74   1.0000      -0.484443       -13.1824
  75   1.0000      -0.473324       -12.8798
  76   1.0000      -0.472727       -12.8636
  77   1.0000      -0.469137       -12.7659
  78   1.0000      -0.467103       -12.7105
  79   1.0000      -0.466409       -12.6916
  80   1.0000      -0.463766       -12.6197
  81   1.0000      -0.458848       -12.4859
  82   1.0000      -0.458485       -12.4760
  83   1.0000      -0.456544       -12.4232
  84   1.0000      -0.456198       -12.4138
  85   1.0000      -0.452812       -12.3217
  86   1.0000      -0.452718       -12.3191
  87   1.0000      -0.448293       -12.1987
  88   1.0000      -0.447287       -12.1713
  89   1.0000      -0.447201       -12.1689
  90   1.0000      -0.441623       -12.0172
  91   1.0000      -0.439602       -11.9622
  92   1.0000      -0.438570       -11.9341
  93   1.0000      -0.437554       -11.9064
  94   1.0000      -0.434962       -11.8359
  95   1.0000      -0.432965       -11.7816
  96   1.0000      -0.432807       -11.7773
  97   1.0000      -0.429178       -11.6785
  98   1.0000      -0.424882       -11.5616
  99   1.0000      -0.424456       -11.5500
 100   1.0000      -0.423894       -11.5347
 101   1.0000      -0.422970       -11.5096
 102   1.0000      -0.418881       -11.3983
 103   1.0000      -0.416061       -11.3216
 104   1.0000      -0.415211       -11.2985
 105   1.0000      -0.411889       -11.2081
 106   1.0000      -0.409720       -11.1490
 107   1.0000      -0.401738       -10.9318
 108   1.0000      -0.399863       -10.8808
 109   1.0000      -0.396961       -10.8019
 110   1.0000      -0.395805       -10.7704
 111   1.0000      -0.394221       -10.7273
 112   1.0000      -0.393100       -10.6968
 113   1.0000      -0.387743       -10.5510
 114   1.0000      -0.386580       -10.5194
 115   1.0000      -0.384162       -10.4536
 116   1.0000      -0.380882       -10.3643
 117   1.0000      -0.379173       -10.3178
 118   1.0000      -0.377831       -10.2813
 119   1.0000      -0.376172       -10.2362
 120   1.0000      -0.375139       -10.2081
 121   1.0000      -0.371424       -10.1069
 122   1.0000      -0.370701       -10.0873
 123   1.0000      -0.369902       -10.0655
 124   1.0000      -0.369381       -10.0514
 125   1.0000      -0.367861       -10.0100
 126   1.0000      -0.366438        -9.9713
 127   1.0000      -0.365040        -9.9332
 128   1.0000      -0.364346        -9.9144
 129   1.0000      -0.364130        -9.9085
 130   1.0000      -0.362138        -9.8543
 131   1.0000      -0.360130        -9.7996
 132   1.0000      -0.360046        -9.7973
 133   1.0000      -0.356783        -9.7085
 134   1.0000      -0.355315        -9.6686
 135   1.0000      -0.350774        -9.5450
 136   1.0000      -0.350359        -9.5337
 137   1.0000      -0.348609        -9.4861
 138   1.0000      -0.346728        -9.4349
 139   1.0000      -0.345656        -9.4058
 140   1.0000      -0.342319        -9.3150
 141   1.0000      -0.341349        -9.2886
 142   1.0000      -0.338995        -9.2245
 143   1.0000      -0.335666        -9.1339
 144   1.0000      -0.335480        -9.1289
 145   1.0000      -0.331352        -9.0165
 146   1.0000      -0.331204        -9.0125
 147   1.0000      -0.329263        -8.9597
 148   1.0000      -0.325755        -8.8642
 149   1.0000      -0.321982        -8.7616
 150   1.0000      -0.312713        -8.5094
 151   1.0000      -0.310199        -8.4410
 152   1.0000      -0.307539        -8.3685
 153   1.0000      -0.245042        -6.6679
 154   1.0000      -0.234403        -6.3784
 155   1.0000      -0.230681        -6.2772
 156   1.0000      -0.213564        -5.8114
 157   0.0000      -0.126111        -3.4316
 158   0.0000      -0.079846        -2.1727
 159   0.0000      -0.079243        -2.1563
 160   0.0000      -0.074558        -2.0288
 161   0.0000      -0.065788        -1.7902

                 SPIN DOWN ORBITALS
  NO   OCC          E(Eh)            E(eV)
   0   1.0000    -258.338030     -7029.7352
   1   1.0000     -30.805804      -838.2685
   2   1.0000     -26.515071      -721.5118
   3   1.0000     -26.514252      -721.4895
   4   1.0000     -26.507085      -721.2945
   5   1.0000      -4.408603      -119.9642
   6   1.0000      -4.408558      -119.9630
   7   1.0000      -4.407320      -119.9293
   8   1.0000      -4.401606      -119.7738
   9   1.0000      -4.401434      -119.7691
  10   1.0000      -4.401341      -119.7666
  11   1.0000      -4.399173      -119.7076
  12   1.0000      -4.398904      -119.7003
  13   1.0000      -4.397526      -119.6628
  14   1.0000      -4.397404      -119.6595
  15   1.0000      -4.388647      -119.4211
  16   1.0000      -4.388488      -119.4168
  17   1.0000      -4.386970      -119.3755
  18   1.0000      -4.386780      -119.3704
  19   1.0000      -4.385974      -119.3484
  20   1.0000      -3.667546       -99.7990
  21   1.0000      -2.528157       -68.7946
  22   1.0000      -2.528097       -68.7930
  23   1.0000      -2.527185       -68.7682
  24   1.0000      -2.525611       -68.7254
  25   1.0000      -2.525482       -68.7219
  26   1.0000      -2.524301       -68.6897
  27   1.0000      -2.524149       -68.6856
  28   1.0000      -2.522723       -68.6468
  29   1.0000      -2.522400       -68.6380
  30   1.0000      -2.522250       -68.6339
  31   1.0000      -2.522097       -68.6297
  32   1.0000      -2.520354       -68.5823
  33   1.0000      -2.520280       -68.5803
  34   1.0000      -2.519333       -68.5545
  35   1.0000      -2.518475       -68.5312
  36   1.0000      -2.517790       -68.5125
  37   1.0000      -2.517419       -68.5025
  38   1.0000      -2.516864       -68.4874
  39   1.0000      -2.516563       -68.4792
  40   1.0000      -2.516403       -68.4748
  41   1.0000      -2.515782       -68.4579
  42   1.0000      -2.515670       -68.4549
  43   1.0000      -2.515237       -68.4431
  44   1.0000      -2.514913       -68.4343
  45   1.0000      -2.514087       -68.4118
  46   1.0000      -2.513204       -68.3878
  47   1.0000      -2.512659       -68.3729
  48   1.0000      -2.511788       -68.3492
  49   1.0000      -2.511368       -68.3378
  50   1.0000      -2.510234       -68.3069
  51   1.0000      -2.508882       -68.2702
  52   1.0000      -2.508412       -68.2574
  53   1.0000      -2.507578       -68.2347
  54   1.0000      -2.507072       -68.2209
  55   1.0000      -2.507017       -68.2194
  56   1.0000      -2.506021       -68.1923
  57   1.0000      -2.505458       -68.1770
  58   1.0000      -2.503662       -68.1281
  59   1.0000      -2.503647       -68.1277
  60   1.0000      -2.502670       -68.1011
  61   1.0000      -2.502161       -68.0873
  62   1.0000      -2.501838       -68.0785
  63   1.0000      -2.501500       -68.0693
  64   1.0000      -2.501211       -68.0614
  65   1.0000      -2.499642       -68.0187
  66   1.0000      -2.348582       -63.9082
  67   1.0000      -2.339383       -63.6579
  68   1.0000      -2.337934       -63.6184
  69   1.0000      -0.516637       -14.0584
  70   1.0000      -0.476843       -12.9755
  71   1.0000      -0.475477       -12.9384
  72   1.0000      -0.473769       -12.8919
  73   1.0000      -0.471641       -12.8340
  74   1.0000      -0.469701       -12.7812
  75   1.0000      -0.464822       -12.6485
  76   1.0000      -0.464250       -12.6329
  77   1.0000      -0.463919       -12.6239
  78   1.0000      -0.459940       -12.5156
  79   1.0000      -0.458337       -12.4720
  80   1.0000      -0.456718       -12.4279
  81   1.0000      -0.455772       -12.4022
  82   1.0000      -0.455356       -12.3909
  83   1.0000      -0.454096       -12.3566
  84   1.0000      -0.453986       -12.3536
  85   1.0000      -0.448007       -12.1909
  86   1.0000      -0.447606       -12.1800
  87   1.0000      -0.442189       -12.0326
  88   1.0000      -0.438995       -11.9457
  89   1.0000      -0.437868       -11.9150
  90   1.0000      -0.435914       -11.8618
  91   1.0000      -0.433678       -11.8010
  92   1.0000      -0.433406       -11.7936
  93   1.0000      -0.430370       -11.7110
  94   1.0000      -0.426576       -11.6077
  95   1.0000      -0.425470       -11.5776
  96   1.0000      -0.424142       -11.5415
  97   1.0000      -0.423709       -11.5297
  98   1.0000      -0.418467       -11.3871
  99   1.0000      -0.417227       -11.3533
 100   1.0000      -0.414277       -11.2731
 101   1.0000      -0.414120       -11.2688
 102   1.0000      -0.405687       -11.0393
 103   1.0000      -0.405385       -11.0311
 104   1.0000      -0.399932       -10.8827
 105   1.0000      -0.398725       -10.8498
 106   1.0000      -0.395831       -10.7711
 107   1.0000      -0.394248       -10.7280
 108   1.0000      -0.389089       -10.5876
 109   1.0000      -0.388841       -10.5809
 110   1.0000      -0.387820       -10.5531
 111   1.0000      -0.384144       -10.4531
 112   1.0000      -0.383754       -10.4425
 113   1.0000      -0.380999       -10.3675
 114   1.0000      -0.379632       -10.3303
 115   1.0000      -0.377449       -10.2709
 116   1.0000      -0.374554       -10.1921
 117   1.0000      -0.371635       -10.1127
 118   1.0000      -0.370764       -10.0890
 119   1.0000      -0.369536       -10.0556
 120   1.0000      -0.368915       -10.0387
 121   1.0000      -0.365574        -9.9478
 122   1.0000      -0.365499        -9.9457
 123   1.0000      -0.364366        -9.9149
 124   1.0000      -0.364114        -9.9080
 125   1.0000      -0.363087        -9.8801
 126   1.0000      -0.362470        -9.8633
 127   1.0000      -0.361804        -9.8452
 128   1.0000      -0.358548        -9.7566
 129   1.0000      -0.356504        -9.7010
 130   1.0000      -0.352912        -9.6032
 131   1.0000      -0.351987        -9.5780
 132   1.0000      -0.351136        -9.5549
 133   1.0000      -0.349458        -9.5092
 134   1.0000      -0.347211        -9.4481
 135   1.0000      -0.346265        -9.4223
 136   1.0000      -0.342548        -9.3212
 137   1.0000      -0.342223        -9.3124
 138   1.0000      -0.340137        -9.2556
 139   1.0000      -0.336526        -9.1573
 140   1.0000      -0.336355        -9.1527
 141   1.0000      -0.332052        -9.0356
 142   1.0000      -0.331045        -9.0082
 143   1.0000      -0.329696        -8.9715
 144   1.0000      -0.325649        -8.8614
 145   1.0000      -0.322815        -8.7843
 146   1.0000      -0.317991        -8.6530
 147   1.0000      -0.317378        -8.6363
 148   1.0000      -0.310762        -8.4563
 149   1.0000      -0.247674        -6.7395
 150   1.0000      -0.241350        -6.5675
 151   1.0000      -0.235151        -6.3988
 152   1.0000      -0.223661        -6.0861
 153   1.0000      -0.221656        -6.0316
 154   0.0000      -0.082955        -2.2573
 155   0.0000      -0.080448        -2.1891
 156   0.0000      -0.073254        -1.9933
 157   0.0000      -0.067690        -1.8419
 158   0.0000      -0.061693        -1.6788

MULLIKEN ATOMIC CHARGES AND SPIN POPULATIONS
--------------------------------------------
   0 Au:   -0.259679   -0.130330
   1 Au:   -0.078557   -0.102472
   2 Au:    0.266893    0.050152
   3 Au:    0.270518   -0.023363
   4 Au:    0.336994    0.008567
   5 Au:    0.326149   -0.095550
   6 Au:   -0.157425    0.022897
   7 Au:    0.088186   -0.023599
   8 Au:   -0.145521    0.023249
   9 Au:    0.273367    0.050395
  10 Au:   -0.083182   -0.104232
  11 Au:    0.311229   -0.047050
  12 Au:    0.083291   -0.027565
  13 Au:    0.325481   -0.095770
  14 Au:    0.268164   -0.020613
  15 Fe:   -1.825907    3.515285
Sum of atomic charges         :   -0.0000000

LOEWDIN ATOMIC CHARGES AND SPIN POPULATIONS
-------------------------------------------
   0 Au:   -0.058542   -0.061297
   1 Au:   -0.022947   -0.047722
   2 Au:    0.002364    0.028881
   3 Au:    0.080237   -0.084928
   4 Au:    0.094038    0.015751
   5 Au:    0.073603   -0.065957
   6 Au:   -0.060428   -0.003859
   7 Au:    0.010029   -0.050569
   8 Au:   -0.059482   -0.003614
   9 Au:    0.004256    0.029218
  10 Au:   -0.024059   -0.048272
  11 Au:    0.073059   -0.052833
  12 Au:    0.010074   -0.051397
  13 Au:    0.073827   -0.066536
  14 Au:    0.079857   -0.084482
  15 Fe:   -0.275886    3.547616

  Mayer bond orders larger than 0.100000
B(  0-Au,  1-Au) :   0.2059 B(  0-Au,  2-Au) :   0.2960 B(  0-Au,  3-Au) :   0.2323
B(  0-Au,  9-Au) :   0.2967 B(  0-Au, 10-Au) :   0.2094 B(  0-Au, 14-Au) :   0.2337
B(  0-Au, 15-Fe) :   0.4201 B(  1-Au,  2-Au) :   0.3195 B(  1-Au,  3-Au) :   0.1822
B(  1-Au,  5-Au) :   0.2062 B(  1-Au,  6-Au) :   0.2422 B(  1-Au, 15-Fe) :   0.4495
B(  2-Au,  4-Au) :   0.1732 B(  2-Au,  6-Au) :   0.2023 B(  2-Au,  9-Au) :   0.1894
B(  3-Au,  5-Au) :   0.1702 B(  3-Au, 15-Fe) :   0.4336 B(  4-Au,  6-Au) :   0.3474
B(  4-Au,  8-Au) :   0.3458 B(  4-Au,  9-Au) :   0.1698 B(  5-Au,  7-Au) :   0.1836
B(  5-Au, 11-Au) :   0.1749 B(  5-Au, 15-Fe) :   0.4113 B(  6-Au,  7-Au) :   0.4315
B(  6-Au,  8-Au) :   0.2682 B(  6-Au, 15-Fe) :   0.1463 B(  7-Au, 11-Au) :   0.1799
B(  7-Au, 15-Fe) :   0.4527 B(  8-Au,  9-Au) :   0.2023 B(  8-Au, 10-Au) :   0.2433
B(  8-Au, 12-Au) :   0.4293 B(  8-Au, 15-Fe) :   0.1438 B(  9-Au, 10-Au) :   0.3163
B( 10-Au, 12-Au) :   0.1007 B( 10-Au, 13-Au) :   0.2068 B( 10-Au, 14-Au) :   0.1828
B( 10-Au, 15-Fe) :   0.4479 B( 11-Au, 12-Au) :   0.1786 B( 11-Au, 13-Au) :   0.1765
B( 11-Au, 15-Fe) :   0.3854 B( 12-Au, 13-Au) :   0.1830 B( 12-Au, 15-Fe) :   0.4557
B( 13-Au, 14-Au) :   0.1674 B( 13-Au, 15-Fe) :   0.4109 B( 14-Au, 15-Fe) :   0.4330

MP2 TOTAL ENERGY:    -3297.358627571 Eh
FINAL SINGLE POINT ENERGY     -3297.358627570786

DIPOLE MOMENT
-------------
                                X             Y             Z
Electronic contribution:    -41.95479     -10.21220       7.92575
Nuclear contribution   :     42.44490      10.20724      -8.13105
                        -----------------------------------------
Total Dipole Moment    :      0.49010      -0.00496      -0.20530
                        -----------------------------------------
Magnitude (a.u.)       :      0.53139
Magnitude (Debye)      :      1.35068

Rotational constants in cm-1:     0.001142     0.000799     0.000798
Rotational constants in MHz :    34.233962    23.956043    23.928115

                             ****ORCA TERMINATED NORMALLY****
TOTAL RUN TIME: 0 days 1 hours 13 minutes 38 seconds 180 msec
