                         Program Version 5.0.3 -  RELEASE  -
|  1> !PBE def2-TZVP VERYSLOWCONV
|  2>
|  3> %scf
|  4>   AutoTRAHIter 200
|  5>   maxiter 400
|  6> end
|  7>
|  8>
|  9> %pal nprocs 6 end
| 10>
| 11> *xyzfile 0 6 pbe.xyz
| 12>
| 13> $new_job
| 14>
| 15> !PBE def2-TZVP VERYSLOWCONV
| 16>
| 17> %scf
| 18>   AutoTRAHIter 200
| 19>   maxiter 400
| 20> end
| 21>
| 22>
| 23> %pal nprocs 6 end
| 24>
| 25> *xyzfile 0 4 pbe.xyz
| 26>
| 27>
| 28>
| 29>
| 30>
| 31>                          ****END OF INPUT****
 Total Charge           Charge          ....    0
 Multiplicity           Mult            ....    6
 Number of Electrons    NEL             ....  311
FINAL SINGLE POINT ENERGY     -3300.910888372063

CARTESIAN COORDINATES (ANGSTROEM)
---------------------------------
  Au     6.996652    6.242643    6.577969
  Au     6.476721    9.158562    6.198806
  Au     4.468422    7.340167    6.650590
  Au     8.855043    7.890546    5.300338
  Au     3.206193    7.333379    9.196767
  Au     9.032568   10.385194    6.457094
  Au     4.847955    9.451047    8.501224
  Au     7.203660   10.709497    8.577388
  Au     5.654646    7.574317   10.456653
  Au     5.279808    5.474222    8.595566
  Au     7.828970    6.069785    9.436645
  Au     9.918943   10.153427    9.083280
  Au     8.062392    8.719859   10.652554
  Au    10.320847    7.443085    9.544989
  Au     9.685320    5.995398    7.286583
  Fe     8.299478    8.263075    7.955072

 Multiplicity           Mult            ....    4
 Number of Electrons    NEL             ....  311
 Basis Dimension        Dim             ....  645

ORBITAL ENERGIES
----------------
                 SPIN UP ORBITALS
  NO   OCC          E(Eh)            E(eV)
   0   1.0000    -254.752255     -6932.1613
   1   1.0000     -29.587502      -805.1169
   2   1.0000     -25.529602      -694.6958
   3   1.0000     -25.526897      -694.6222
   4   1.0000     -25.512673      -694.2351
   5   1.0000      -4.038319      -109.8882
   6   1.0000      -4.038308      -109.8880
   7   1.0000      -4.037453      -109.8647
   8   1.0000      -4.029449      -109.6469
   9   1.0000      -4.029395      -109.6454
  10   1.0000      -4.029265      -109.6419
  11   1.0000      -4.029160      -109.6390
  12   1.0000      -4.029044      -109.6359
  13   1.0000      -4.027019      -109.5807
  14   1.0000      -4.026887      -109.5772
  15   1.0000      -4.019577      -109.3782
  16   1.0000      -4.019415      -109.3738
  17   1.0000      -4.018628      -109.3524
  18   1.0000      -4.018456      -109.3478
  19   1.0000      -4.017825      -109.3306
  20   1.0000      -3.366155       -91.5977
  21   1.0000      -2.254435       -61.3463
  22   1.0000      -2.254365       -61.3444
  23   1.0000      -2.253964       -61.3335
  24   1.0000      -2.250908       -61.2503
  25   1.0000      -2.250875       -61.2494
  26   1.0000      -2.249207       -61.2040
  27   1.0000      -2.249122       -61.2017
  28   1.0000      -2.248349       -61.1807
  29   1.0000      -2.247778       -61.1652
  30   1.0000      -2.246783       -61.1381
  31   1.0000      -2.246463       -61.1294
  32   1.0000      -2.244830       -61.0849
  33   1.0000      -2.244769       -61.0833
  34   1.0000      -2.243971       -61.0616
  35   1.0000      -2.243880       -61.0591
  36   1.0000      -2.242984       -61.0347
  37   1.0000      -2.242845       -61.0309
  38   1.0000      -2.242534       -61.0224
  39   1.0000      -2.242135       -61.0116
  40   1.0000      -2.241937       -61.0062
  41   1.0000      -2.241102       -60.9835
  42   1.0000      -2.240542       -60.9682
  43   1.0000      -2.239616       -60.9430
  44   1.0000      -2.239464       -60.9389
  45   1.0000      -2.239346       -60.9357
  46   1.0000      -2.238715       -60.9185
  47   1.0000      -2.238120       -60.9023
  48   1.0000      -2.237313       -60.8804
  49   1.0000      -2.237094       -60.8744
  50   1.0000      -2.236908       -60.8694
  51   1.0000      -2.236088       -60.8470
  52   1.0000      -2.235957       -60.8435
  53   1.0000      -2.235586       -60.8334
  54   1.0000      -2.234702       -60.8093
  55   1.0000      -2.234125       -60.7936
  56   1.0000      -2.232921       -60.7609
  57   1.0000      -2.232024       -60.7365
  58   1.0000      -2.231445       -60.7207
  59   1.0000      -2.230656       -60.6992
  60   1.0000      -2.230132       -60.6850
  61   1.0000      -2.230028       -60.6822
  62   1.0000      -2.228905       -60.6516
  63   1.0000      -2.228305       -60.6353
  64   1.0000      -2.226891       -60.5968
  65   1.0000      -2.225374       -60.5555
  66   1.0000      -2.193379       -59.6849
  67   1.0000      -2.188340       -59.5477
  68   1.0000      -2.158432       -58.7339
  69   1.0000      -0.435007       -11.8371
  70   1.0000      -0.392026       -10.6676
  71   1.0000      -0.391806       -10.6616
  72   1.0000      -0.388522       -10.5722
  73   1.0000      -0.382762       -10.4155
  74   1.0000      -0.381735       -10.3876
  75   1.0000      -0.366230        -9.9656
  76   1.0000      -0.365380        -9.9425
  77   1.0000      -0.364186        -9.9100
  78   1.0000      -0.362390        -9.8611
  79   1.0000      -0.360632        -9.8133
  80   1.0000      -0.359678        -9.7873
  81   1.0000      -0.357165        -9.7190
  82   1.0000      -0.354909        -9.6576
  83   1.0000      -0.352770        -9.5994
  84   1.0000      -0.351525        -9.5655
  85   1.0000      -0.346861        -9.4386
  86   1.0000      -0.346496        -9.4286
  87   1.0000      -0.342418        -9.3177
  88   1.0000      -0.338313        -9.2060
  89   1.0000      -0.336767        -9.1639
  90   1.0000      -0.336695        -9.1619
  91   1.0000      -0.333008        -9.0616
  92   1.0000      -0.332637        -9.0515
  93   1.0000      -0.331991        -9.0339
  94   1.0000      -0.330455        -8.9921
  95   1.0000      -0.328986        -8.9522
  96   1.0000      -0.325346        -8.8531
  97   1.0000      -0.323825        -8.8117
  98   1.0000      -0.321404        -8.7459
  99   1.0000      -0.321035        -8.7358
 100   1.0000      -0.318614        -8.6699
 101   1.0000      -0.318352        -8.6628
 102   1.0000      -0.316397        -8.6096
 103   1.0000      -0.310604        -8.4520
 104   1.0000      -0.308167        -8.3857
 105   1.0000      -0.303838        -8.2678
 106   1.0000      -0.302929        -8.2431
 107   1.0000      -0.300926        -8.1886
 108   1.0000      -0.299767        -8.1571
 109   1.0000      -0.296751        -8.0750
 110   1.0000      -0.291717        -7.9380
 111   1.0000      -0.290537        -7.9059
 112   1.0000      -0.288924        -7.8620
 113   1.0000      -0.288874        -7.8607
 114   1.0000      -0.284617        -7.7448
 115   1.0000      -0.282585        -7.6895
 116   1.0000      -0.280538        -7.6338
 117   1.0000      -0.278091        -7.5672
 118   1.0000      -0.276768        -7.5312
 119   1.0000      -0.275973        -7.5096
 120   1.0000      -0.275717        -7.5026
 121   1.0000      -0.272811        -7.4236
 122   1.0000      -0.272457        -7.4139
 123   1.0000      -0.271514        -7.3883
 124   1.0000      -0.271239        -7.3808
 125   1.0000      -0.269721        -7.3395
 126   1.0000      -0.268615        -7.3094
 127   1.0000      -0.267917        -7.2904
 128   1.0000      -0.265904        -7.2356
 129   1.0000      -0.265290        -7.2189
 130   1.0000      -0.262939        -7.1549
 131   1.0000      -0.261172        -7.1069
 132   1.0000      -0.260735        -7.0950
 133   1.0000      -0.256670        -6.9843
 134   1.0000      -0.253800        -6.9062
 135   1.0000      -0.253246        -6.8912
 136   1.0000      -0.253184        -6.8895
 137   1.0000      -0.252435        -6.8691
 138   1.0000      -0.251325        -6.8389
 139   1.0000      -0.249770        -6.7966
 140   1.0000      -0.249662        -6.7936
 141   1.0000      -0.249216        -6.7815
 142   1.0000      -0.248461        -6.7610
 143   1.0000      -0.248158        -6.7527
 144   1.0000      -0.245947        -6.6926
 145   1.0000      -0.245893        -6.6911
 146   1.0000      -0.243331        -6.6214
 147   1.0000      -0.242057        -6.5867
 148   1.0000      -0.241179        -6.5628
 149   1.0000      -0.238484        -6.4895
 150   1.0000      -0.237672        -6.4674
 151   1.0000      -0.236030        -6.4227
 152   1.0000      -0.229226        -6.2376
 153   1.0000      -0.220993        -6.0135
 154   1.0000      -0.209584        -5.7031
 155   1.0000      -0.208325        -5.6688
 156   1.0000      -0.196191        -5.3386
 157   0.0000      -0.188381        -5.1261
 158   0.0000      -0.142093        -3.8665
 159   0.0000      -0.140074        -3.8116
 160   0.0000      -0.136752        -3.7212
 161   0.0000      -0.129139        -3.5141

                 SPIN DOWN ORBITALS
  NO   OCC          E(Eh)            E(eV)
   0   1.0000    -254.751599     -6932.1434
   1   1.0000     -29.530571      -803.5677
   2   1.0000     -25.484093      -693.4574
   3   1.0000     -25.482477      -693.4135
   4   1.0000     -25.473663      -693.1736
   5   1.0000      -4.037867      -109.8759
   6   1.0000      -4.037841      -109.8752
   7   1.0000      -4.037047      -109.8536
   8   1.0000      -4.029142      -109.6385
   9   1.0000      -4.029043      -109.6358
  10   1.0000      -4.028937      -109.6330
  11   1.0000      -4.028751      -109.6279
  12   1.0000      -4.028549      -109.6224
  13   1.0000      -4.026672      -109.5713
  14   1.0000      -4.026542      -109.5678
  15   1.0000      -4.019537      -109.3772
  16   1.0000      -4.019370      -109.3726
  17   1.0000      -4.018706      -109.3546
  18   1.0000      -4.018537      -109.3500
  19   1.0000      -4.017826      -109.3306
  20   1.0000      -3.236818       -88.0783
  21   1.0000      -2.253910       -61.3320
  22   1.0000      -2.253785       -61.3286
  23   1.0000      -2.253532       -61.3217
  24   1.0000      -2.250105       -61.2285
  25   1.0000      -2.249995       -61.2255
  26   1.0000      -2.248995       -61.1983
  27   1.0000      -2.248817       -61.1934
  28   1.0000      -2.247677       -61.1624
  29   1.0000      -2.247657       -61.1619
  30   1.0000      -2.246155       -61.1210
  31   1.0000      -2.245927       -61.1148
  32   1.0000      -2.244155       -61.0666
  33   1.0000      -2.244110       -61.0653
  34   1.0000      -2.243571       -61.0507
  35   1.0000      -2.243485       -61.0483
  36   1.0000      -2.242611       -61.0246
  37   1.0000      -2.242058       -61.0095
  38   1.0000      -2.241879       -61.0046
  39   1.0000      -2.241603       -60.9971
  40   1.0000      -2.241463       -60.9933
  41   1.0000      -2.240807       -60.9755
  42   1.0000      -2.240565       -60.9689
  43   1.0000      -2.239467       -60.9390
  44   1.0000      -2.239381       -60.9366
  45   1.0000      -2.239069       -60.9282
  46   1.0000      -2.238535       -60.9136
  47   1.0000      -2.238010       -60.8994
  48   1.0000      -2.237170       -60.8765
  49   1.0000      -2.236869       -60.8683
  50   1.0000      -2.236383       -60.8551
  51   1.0000      -2.235917       -60.8424
  52   1.0000      -2.235580       -60.8332
  53   1.0000      -2.235403       -60.8284
  54   1.0000      -2.234714       -60.8096
  55   1.0000      -2.234083       -60.7925
  56   1.0000      -2.232901       -60.7603
  57   1.0000      -2.232064       -60.7376
  58   1.0000      -2.231469       -60.7213
  59   1.0000      -2.230711       -60.7007
  60   1.0000      -2.230195       -60.6867
  61   1.0000      -2.229994       -60.6812
  62   1.0000      -2.228845       -60.6500
  63   1.0000      -2.228246       -60.6337
  64   1.0000      -2.227007       -60.5999
  65   1.0000      -2.225477       -60.5583
  66   1.0000      -2.059612       -56.0449
  67   1.0000      -2.057873       -55.9976
  68   1.0000      -2.042833       -55.5883
  69   1.0000      -0.431032       -11.7290
  70   1.0000      -0.391644       -10.6572
  71   1.0000      -0.391069       -10.6415
  72   1.0000      -0.387708       -10.5501
  73   1.0000      -0.377086       -10.2610
  74   1.0000      -0.373855       -10.1731
  75   1.0000      -0.365369        -9.9422
  76   1.0000      -0.364180        -9.9098
  77   1.0000      -0.362110        -9.8535
  78   1.0000      -0.361924        -9.8485
  79   1.0000      -0.360217        -9.8020
  80   1.0000      -0.355437        -9.6719
  81   1.0000      -0.354257        -9.6398
  82   1.0000      -0.353100        -9.6083
  83   1.0000      -0.350954        -9.5500
  84   1.0000      -0.349711        -9.5161
  85   1.0000      -0.345507        -9.4017
  86   1.0000      -0.344421        -9.3722
  87   1.0000      -0.341132        -9.2827
  88   1.0000      -0.336879        -9.1669
  89   1.0000      -0.336330        -9.1520
  90   1.0000      -0.335884        -9.1399
  91   1.0000      -0.332533        -9.0487
  92   1.0000      -0.332239        -9.0407
  93   1.0000      -0.331296        -9.0150
  94   1.0000      -0.328793        -8.9469
  95   1.0000      -0.326541        -8.8856
  96   1.0000      -0.323265        -8.7965
  97   1.0000      -0.323226        -8.7954
  98   1.0000      -0.321547        -8.7497
  99   1.0000      -0.318857        -8.6765
 100   1.0000      -0.316726        -8.6185
 101   1.0000      -0.314499        -8.5580
 102   1.0000      -0.307630        -8.3710
 103   1.0000      -0.307535        -8.3684
 104   1.0000      -0.303195        -8.2504
 105   1.0000      -0.301819        -8.2129
 106   1.0000      -0.301041        -8.1918
 107   1.0000      -0.299051        -8.1376
 108   1.0000      -0.293505        -7.9867
 109   1.0000      -0.292652        -7.9635
 110   1.0000      -0.290302        -7.8995
 111   1.0000      -0.288046        -7.8381
 112   1.0000      -0.287237        -7.8161
 113   1.0000      -0.286919        -7.8075
 114   1.0000      -0.283540        -7.7155
 115   1.0000      -0.280651        -7.6369
 116   1.0000      -0.279556        -7.6071
 117   1.0000      -0.277232        -7.5439
 118   1.0000      -0.276312        -7.5188
 119   1.0000      -0.274900        -7.4804
 120   1.0000      -0.274855        -7.4792
 121   1.0000      -0.271968        -7.4006
 122   1.0000      -0.271584        -7.3902
 123   1.0000      -0.270018        -7.3476
 124   1.0000      -0.269845        -7.3429
 125   1.0000      -0.268924        -7.3178
 126   1.0000      -0.268173        -7.2974
 127   1.0000      -0.266817        -7.2604
 128   1.0000      -0.265071        -7.2129
 129   1.0000      -0.264722        -7.2035
 130   1.0000      -0.262271        -7.1367
 131   1.0000      -0.260307        -7.0833
 132   1.0000      -0.260210        -7.0807
 133   1.0000      -0.255586        -6.9548
 134   1.0000      -0.253772        -6.9055
 135   1.0000      -0.251368        -6.8401
 136   1.0000      -0.250964        -6.8291
 137   1.0000      -0.249664        -6.7937
 138   1.0000      -0.249301        -6.7838
 139   1.0000      -0.248744        -6.7687
 140   1.0000      -0.248598        -6.7647
 141   1.0000      -0.248239        -6.7549
 142   1.0000      -0.245046        -6.6680
 143   1.0000      -0.241936        -6.5834
 144   1.0000      -0.241613        -6.5746
 145   1.0000      -0.238053        -6.4778
 146   1.0000      -0.236217        -6.4278
 147   1.0000      -0.229729        -6.2513
 148   1.0000      -0.223776        -6.0893
 149   1.0000      -0.214455        -5.8356
 150   1.0000      -0.211305        -5.7499
 151   1.0000      -0.206964        -5.6318
 152   1.0000      -0.205243        -5.5849
 153   1.0000      -0.180964        -4.9243
 154   0.0000      -0.160129        -4.3573
 155   0.0000      -0.159411        -4.3378
 156   0.0000      -0.154848        -4.2136
 157   0.0000      -0.152491        -4.1495
 158   0.0000      -0.134087        -3.6487

MULLIKEN ATOMIC CHARGES AND SPIN POPULATIONS
--------------------------------------------
   0 Au:   -0.239449   -0.056140
   1 Au:   -0.056741   -0.044310
   2 Au:    0.263340    0.051325
   3 Au:    0.325900    0.022379
   4 Au:    0.369807   -0.018846
   5 Au:    0.374616   -0.036229
   6 Au:   -0.152991    0.025432
   7 Au:    0.131457    0.033150
   8 Au:   -0.141618    0.025756
   9 Au:    0.268801    0.051547
  10 Au:   -0.061183   -0.046083
  11 Au:    0.354497   -0.013723
  12 Au:    0.126352    0.030363
  13 Au:    0.374201   -0.036165
  14 Au:    0.324566    0.024848
  15 Fe:   -2.261554    2.986696
Sum of atomic charges         :   -0.0000000

LOEWDIN ATOMIC CHARGES AND SPIN POPULATIONS
-------------------------------------------
   0 Au:   -0.022802   -0.012629
   1 Au:    0.011325   -0.004056
   2 Au:    0.002242    0.030541
   3 Au:    0.102061   -0.028217
   4 Au:    0.076405   -0.000506
   5 Au:    0.093512   -0.024634
   6 Au:   -0.045832    0.005487
   7 Au:    0.038705    0.003933
   8 Au:   -0.045325    0.005594
   9 Au:    0.003710    0.030956
  10 Au:    0.010312   -0.004793
  11 Au:    0.088095   -0.021348
  12 Au:    0.039027    0.003292
  13 Au:    0.093718   -0.024947
  14 Au:    0.101718   -0.027574
  15 Fe:   -0.546870    3.068901

  Mayer bond orders larger than 0.100000
B(  0-Au,  1-Au) :   0.2108 B(  0-Au,  2-Au) :   0.3212 B(  0-Au,  3-Au) :   0.2445
B(  0-Au,  9-Au) :   0.3215 B(  0-Au, 10-Au) :   0.2138 B(  0-Au, 14-Au) :   0.2462
B(  0-Au, 15-Fe) :   0.4649 B(  1-Au,  2-Au) :   0.3600 B(  1-Au,  3-Au) :   0.1971
B(  1-Au,  5-Au) :   0.2210 B(  1-Au,  6-Au) :   0.2633 B(  1-Au,  7-Au) :   0.1115
B(  1-Au, 15-Fe) :   0.4831 B(  2-Au,  4-Au) :   0.2163 B(  2-Au,  6-Au) :   0.2382
B(  2-Au,  9-Au) :   0.2278 B(  3-Au,  5-Au) :   0.2058 B(  3-Au, 14-Au) :   0.1222
B(  3-Au, 15-Fe) :   0.4531 B(  4-Au,  6-Au) :   0.3565 B(  4-Au,  8-Au) :   0.3555
B(  4-Au,  9-Au) :   0.2122 B(  5-Au,  7-Au) :   0.2012 B(  5-Au, 11-Au) :   0.2166
B(  5-Au, 15-Fe) :   0.4428 B(  6-Au,  7-Au) :   0.4611 B(  6-Au,  8-Au) :   0.3014
B(  6-Au, 15-Fe) :   0.1706 B(  7-Au, 11-Au) :   0.1925 B(  7-Au, 15-Fe) :   0.4841
B(  8-Au,  9-Au) :   0.2382 B(  8-Au, 10-Au) :   0.2646 B(  8-Au, 12-Au) :   0.4592
B(  8-Au, 15-Fe) :   0.1672 B(  9-Au, 10-Au) :   0.3569 B( 10-Au, 12-Au) :   0.1155
B( 10-Au, 13-Au) :   0.2215 B( 10-Au, 14-Au) :   0.1973 B( 10-Au, 15-Fe) :   0.4816
B( 11-Au, 12-Au) :   0.1908 B( 11-Au, 13-Au) :   0.2182 B( 11-Au, 15-Fe) :   0.4290
B( 12-Au, 13-Au) :   0.2005 B( 12-Au, 15-Fe) :   0.4879 B( 13-Au, 14-Au) :   0.2034
B( 13-Au, 15-Fe) :   0.4422 B( 14-Au, 15-Fe) :   0.4525

FINAL SINGLE POINT ENERGY     -3300.910344788232

DIPOLE MOMENT
-------------
                                X             Y             Z
Electronic contribution:    -42.02904     -10.22484       7.94417
Nuclear contribution   :     42.44490      10.20724      -8.13105
                        -----------------------------------------
Total Dipole Moment    :      0.41586      -0.01761      -0.18688
                        -----------------------------------------
Magnitude (a.u.)       :      0.45626
Magnitude (Debye)      :      1.15971

Rotational constants in cm-1:     0.001142     0.000799     0.000798
Rotational constants in MHz :    34.233962    23.956043    23.928115

                             ****ORCA TERMINATED NORMALLY****
TOTAL RUN TIME: 0 days 0 hours 7 minutes 12 seconds 776 msec
