                         Program Version 5.0.3 -  RELEASE  -
|  1> !R2SCAN def2-TZVP VERYSLOWCONV
|  2>
|  3> %scf
|  4>   AutoTRAHIter 200
|  5>   maxiter 400
|  6> end
|  7>
|  8> %pal nprocs 6 end
|  9>
| 10> *xyzfile 0 6 pbe.xyz
| 11>
| 12> $new_job
| 13>
| 14> !R2SCAN def2-TZVP VERYSLOWCONV
| 15> %scf
| 16>   AutoTRAHIter 200
| 17>   maxiter 400
| 18> end
| 19>
| 20>
| 21> %pal nprocs 6 end
| 22>
| 23> *xyzfile 0 4 pbe.xyz
| 24>
| 25>
| 26>
| 27>
| 28>
| 29>                          ****END OF INPUT****
 Total Charge           Charge          ....    0
 Multiplicity           Mult            ....    6
 Number of Electrons    NEL             ....  311
FINAL SINGLE POINT ENERGY     -3301.428267904954

CARTESIAN COORDINATES (ANGSTROEM)
---------------------------------
  Au     6.996652    6.242643    6.577969
  Au     6.476721    9.158562    6.198806
  Au     4.468422    7.340167    6.650590
  Au     8.855043    7.890546    5.300338
  Au     3.206193    7.333379    9.196767
  Au     9.032568   10.385194    6.457094
  Au     4.847955    9.451047    8.501224
  Au     7.203660   10.709497    8.577388
  Au     5.654646    7.574317   10.456653
  Au     5.279808    5.474222    8.595566
  Au     7.828970    6.069785    9.436645
  Au     9.918943   10.153427    9.083280
  Au     8.062392    8.719859   10.652554
  Au    10.320847    7.443085    9.544989
  Au     9.685320    5.995398    7.286583
  Fe     8.299478    8.263075    7.955072

 Multiplicity           Mult            ....    4
 Number of Electrons    NEL             ....  311
 Basis Dimension        Dim             ....  645

ORBITAL ENERGIES
----------------
                 SPIN UP ORBITALS
  NO   OCC          E(Eh)            E(eV)
   0   1.0000    -255.635053     -6956.1834
   1   1.0000     -29.931174      -814.4686
   2   1.0000     -25.769017      -701.2106
   3   1.0000     -25.765805      -701.1232
   4   1.0000     -25.749891      -700.6902
   5   1.0000      -4.129252      -112.3627
   6   1.0000      -4.129250      -112.3626
   7   1.0000      -4.128302      -112.3368
   8   1.0000      -4.120490      -112.1242
   9   1.0000      -4.120438      -112.1228
  10   1.0000      -4.120320      -112.1196
  11   1.0000      -4.120123      -112.1142
  12   1.0000      -4.120034      -112.1118
  13   1.0000      -4.118435      -112.0683
  14   1.0000      -4.118290      -112.0644
  15   1.0000      -4.109942      -111.8372
  16   1.0000      -4.109770      -111.8325
  17   1.0000      -4.108996      -111.8115
  18   1.0000      -4.108808      -111.8064
  19   1.0000      -4.108219      -111.7903
  20   1.0000      -3.511961       -95.5653
  21   1.0000      -2.318193       -63.0812
  22   1.0000      -2.318177       -63.0808
  23   1.0000      -2.317591       -63.0648
  24   1.0000      -2.314835       -62.9899
  25   1.0000      -2.314793       -62.9887
  26   1.0000      -2.313012       -62.9403
  27   1.0000      -2.312958       -62.9388
  28   1.0000      -2.312133       -62.9163
  29   1.0000      -2.311450       -62.8977
  30   1.0000      -2.310682       -62.8769
  31   1.0000      -2.310307       -62.8666
  32   1.0000      -2.308795       -62.8255
  33   1.0000      -2.308771       -62.8249
  34   1.0000      -2.307777       -62.7978
  35   1.0000      -2.307562       -62.7919
  36   1.0000      -2.306817       -62.7717
  37   1.0000      -2.306803       -62.7713
  38   1.0000      -2.306445       -62.7616
  39   1.0000      -2.306336       -62.7586
  40   1.0000      -2.305978       -62.7488
  41   1.0000      -2.304911       -62.7198
  42   1.0000      -2.304409       -62.7061
  43   1.0000      -2.303374       -62.6780
  44   1.0000      -2.303261       -62.6749
  45   1.0000      -2.303110       -62.6708
  46   1.0000      -2.302561       -62.6559
  47   1.0000      -2.301933       -62.6388
  48   1.0000      -2.301286       -62.6212
  49   1.0000      -2.301075       -62.6154
  50   1.0000      -2.300266       -62.5934
  51   1.0000      -2.299905       -62.5836
  52   1.0000      -2.298837       -62.5545
  53   1.0000      -2.298633       -62.5490
  54   1.0000      -2.297691       -62.5234
  55   1.0000      -2.297207       -62.5102
  56   1.0000      -2.295926       -62.4753
  57   1.0000      -2.295162       -62.4545
  58   1.0000      -2.294506       -62.4367
  59   1.0000      -2.293634       -62.4129
  60   1.0000      -2.293301       -62.4039
  61   1.0000      -2.293134       -62.3993
  62   1.0000      -2.292331       -62.3775
  63   1.0000      -2.292085       -62.3708
  64   1.0000      -2.291558       -62.3565
  65   1.0000      -2.290368       -62.3241
  66   1.0000      -2.288773       -62.2807
  67   1.0000      -2.286204       -62.2108
  68   1.0000      -2.252276       -61.2876
  69   1.0000      -0.441198       -12.0056
  70   1.0000      -0.398443       -10.8422
  71   1.0000      -0.398083       -10.8324
  72   1.0000      -0.394814       -10.7434
  73   1.0000      -0.394490       -10.7346
  74   1.0000      -0.394126       -10.7247
  75   1.0000      -0.375309       -10.2127
  76   1.0000      -0.375159       -10.2086
  77   1.0000      -0.373802       -10.1717
  78   1.0000      -0.371400       -10.1063
  79   1.0000      -0.370267       -10.0755
  80   1.0000      -0.368760       -10.0345
  81   1.0000      -0.367715       -10.0060
  82   1.0000      -0.364754        -9.9255
  83   1.0000      -0.363599        -9.8940
  84   1.0000      -0.361247        -9.8300
  85   1.0000      -0.356692        -9.7061
  86   1.0000      -0.356507        -9.7011
  87   1.0000      -0.352415        -9.5897
  88   1.0000      -0.347596        -9.4586
  89   1.0000      -0.346421        -9.4266
  90   1.0000      -0.345429        -9.3996
  91   1.0000      -0.342733        -9.3262
  92   1.0000      -0.342139        -9.3101
  93   1.0000      -0.341394        -9.2898
  94   1.0000      -0.341142        -9.2829
  95   1.0000      -0.337971        -9.1967
  96   1.0000      -0.334371        -9.0987
  97   1.0000      -0.333329        -9.0703
  98   1.0000      -0.330772        -9.0008
  99   1.0000      -0.330510        -8.9936
 100   1.0000      -0.329447        -8.9647
 101   1.0000      -0.327837        -8.9209
 102   1.0000      -0.325556        -8.8588
 103   1.0000      -0.321495        -8.7483
 104   1.0000      -0.319676        -8.6988
 105   1.0000      -0.314960        -8.5705
 106   1.0000      -0.311176        -8.4675
 107   1.0000      -0.310597        -8.4518
 108   1.0000      -0.308470        -8.3939
 109   1.0000      -0.306372        -8.3368
 110   1.0000      -0.301572        -8.2062
 111   1.0000      -0.299425        -8.1478
 112   1.0000      -0.298250        -8.1158
 113   1.0000      -0.297251        -8.0886
 114   1.0000      -0.293407        -7.9840
 115   1.0000      -0.292215        -7.9516
 116   1.0000      -0.289019        -7.8646
 117   1.0000      -0.286440        -7.7944
 118   1.0000      -0.285149        -7.7593
 119   1.0000      -0.284896        -7.7524
 120   1.0000      -0.284298        -7.7361
 121   1.0000      -0.282157        -7.6779
 122   1.0000      -0.281205        -7.6520
 123   1.0000      -0.281139        -7.6502
 124   1.0000      -0.279684        -7.6106
 125   1.0000      -0.277994        -7.5646
 126   1.0000      -0.277344        -7.5469
 127   1.0000      -0.276445        -7.5224
 128   1.0000      -0.275252        -7.4900
 129   1.0000      -0.273760        -7.4494
 130   1.0000      -0.271289        -7.3822
 131   1.0000      -0.270243        -7.3537
 132   1.0000      -0.269507        -7.3337
 133   1.0000      -0.265754        -7.2315
 134   1.0000      -0.265676        -7.2294
 135   1.0000      -0.265288        -7.2189
 136   1.0000      -0.263862        -7.1800
 137   1.0000      -0.262025        -7.1301
 138   1.0000      -0.260979        -7.1016
 139   1.0000      -0.258047        -7.0218
 140   1.0000      -0.257645        -7.0109
 141   1.0000      -0.257422        -7.0048
 142   1.0000      -0.256801        -6.9879
 143   1.0000      -0.255801        -6.9607
 144   1.0000      -0.255124        -6.9423
 145   1.0000      -0.254709        -6.9310
 146   1.0000      -0.252414        -6.8685
 147   1.0000      -0.251966        -6.8563
 148   1.0000      -0.248415        -6.7597
 149   1.0000      -0.248078        -6.7505
 150   1.0000      -0.244953        -6.6655
 151   1.0000      -0.242783        -6.6065
 152   1.0000      -0.235692        -6.4135
 153   1.0000      -0.223460        -6.0806
 154   1.0000      -0.212336        -5.7779
 155   1.0000      -0.210430        -5.7261
 156   1.0000      -0.198171        -5.3925
 157   0.0000      -0.186959        -5.0874
 158   0.0000      -0.139173        -3.7871
 159   0.0000      -0.136307        -3.7091
 160   0.0000      -0.132903        -3.6165
 161   0.0000      -0.124323        -3.3830

                 SPIN DOWN ORBITALS
  NO   OCC          E(Eh)            E(eV)
   0   1.0000    -255.634084     -6956.1571
   1   1.0000     -29.853795      -812.3631
   2   1.0000     -25.705978      -699.4952
   3   1.0000     -25.704488      -699.4547
   4   1.0000     -25.697179      -699.2558
   5   1.0000      -4.128919      -112.3536
   6   1.0000      -4.128900      -112.3531
   7   1.0000      -4.128038      -112.3296
   8   1.0000      -4.120279      -112.1185
   9   1.0000      -4.120210      -112.1166
  10   1.0000      -4.120024      -112.1115
  11   1.0000      -4.119823      -112.1061
  12   1.0000      -4.119597      -112.0999
  13   1.0000      -4.118135      -112.0601
  14   1.0000      -4.117989      -112.0562
  15   1.0000      -4.109878      -111.8355
  16   1.0000      -4.109700      -111.8306
  17   1.0000      -4.109109      -111.8145
  18   1.0000      -4.108926      -111.8095
  19   1.0000      -4.108255      -111.7913
  20   1.0000      -3.339285       -90.8666
  21   1.0000      -2.317523       -63.0630
  22   1.0000      -2.317403       -63.0597
  23   1.0000      -2.317070       -63.0507
  24   1.0000      -2.314040       -62.9682
  25   1.0000      -2.313903       -62.9645
  26   1.0000      -2.312948       -62.9385
  27   1.0000      -2.312777       -62.9339
  28   1.0000      -2.311545       -62.9003
  29   1.0000      -2.311473       -62.8984
  30   1.0000      -2.309978       -62.8577
  31   1.0000      -2.309796       -62.8528
  32   1.0000      -2.308095       -62.8065
  33   1.0000      -2.308041       -62.8050
  34   1.0000      -2.307416       -62.7880
  35   1.0000      -2.307188       -62.7818
  36   1.0000      -2.306403       -62.7604
  37   1.0000      -2.305929       -62.7475
  38   1.0000      -2.305765       -62.7431
  39   1.0000      -2.305679       -62.7407
  40   1.0000      -2.305369       -62.7323
  41   1.0000      -2.304731       -62.7149
  42   1.0000      -2.304457       -62.7075
  43   1.0000      -2.303265       -62.6750
  44   1.0000      -2.303153       -62.6720
  45   1.0000      -2.302935       -62.6661
  46   1.0000      -2.302401       -62.6515
  47   1.0000      -2.301832       -62.6360
  48   1.0000      -2.300920       -62.6112
  49   1.0000      -2.300575       -62.6018
  50   1.0000      -2.299942       -62.5846
  51   1.0000      -2.299565       -62.5743
  52   1.0000      -2.298880       -62.5557
  53   1.0000      -2.298630       -62.5489
  54   1.0000      -2.297720       -62.5241
  55   1.0000      -2.297202       -62.5100
  56   1.0000      -2.295950       -62.4760
  57   1.0000      -2.295238       -62.4566
  58   1.0000      -2.294575       -62.4386
  59   1.0000      -2.293738       -62.4158
  60   1.0000      -2.293402       -62.4066
  61   1.0000      -2.293144       -62.3996
  62   1.0000      -2.292045       -62.3697
  63   1.0000      -2.291513       -62.3552
  64   1.0000      -2.290524       -62.3283
  65   1.0000      -2.288909       -62.2844
  66   1.0000      -2.113801       -57.5194
  67   1.0000      -2.112120       -57.4737
  68   1.0000      -2.096609       -57.0516
  69   1.0000      -0.437922       -11.9165
  70   1.0000      -0.398370       -10.8402
  71   1.0000      -0.397583       -10.8188
  72   1.0000      -0.393932       -10.7194
  73   1.0000      -0.385596       -10.4926
  74   1.0000      -0.382438       -10.4067
  75   1.0000      -0.374174       -10.1818
  76   1.0000      -0.373393       -10.1606
  77   1.0000      -0.371226       -10.1016
  78   1.0000      -0.370001       -10.0682
  79   1.0000      -0.368214       -10.0196
  80   1.0000      -0.364530        -9.9194
  81   1.0000      -0.363666        -9.8959
  82   1.0000      -0.362201        -9.8560
  83   1.0000      -0.360458        -9.8086
  84   1.0000      -0.359254        -9.7758
  85   1.0000      -0.355035        -9.6610
  86   1.0000      -0.353935        -9.6311
  87   1.0000      -0.350136        -9.5277
  88   1.0000      -0.345908        -9.4126
  89   1.0000      -0.345717        -9.4074
  90   1.0000      -0.344742        -9.3809
  91   1.0000      -0.341754        -9.2996
  92   1.0000      -0.341647        -9.2967
  93   1.0000      -0.340212        -9.2576
  94   1.0000      -0.337818        -9.1925
  95   1.0000      -0.335539        -9.1305
  96   1.0000      -0.332733        -9.0541
  97   1.0000      -0.332457        -9.0466
  98   1.0000      -0.330433        -8.9915
  99   1.0000      -0.327828        -8.9206
 100   1.0000      -0.325872        -8.8674
 101   1.0000      -0.323469        -8.8020
 102   1.0000      -0.316473        -8.6117
 103   1.0000      -0.316237        -8.6052
 104   1.0000      -0.311569        -8.4782
 105   1.0000      -0.310445        -8.4476
 106   1.0000      -0.309620        -8.4252
 107   1.0000      -0.307663        -8.3719
 108   1.0000      -0.301835        -8.2134
 109   1.0000      -0.301245        -8.1973
 110   1.0000      -0.298990        -8.1359
 111   1.0000      -0.296259        -8.0616
 112   1.0000      -0.295679        -8.0458
 113   1.0000      -0.295268        -8.0347
 114   1.0000      -0.292404        -7.9567
 115   1.0000      -0.289362        -7.8739
 116   1.0000      -0.287976        -7.8362
 117   1.0000      -0.285286        -7.7630
 118   1.0000      -0.284655        -7.7459
 119   1.0000      -0.283145        -7.7048
 120   1.0000      -0.283034        -7.7018
 121   1.0000      -0.280137        -7.6229
 122   1.0000      -0.279780        -7.6132
 123   1.0000      -0.278342        -7.5741
 124   1.0000      -0.278289        -7.5726
 125   1.0000      -0.277194        -7.5428
 126   1.0000      -0.276853        -7.5336
 127   1.0000      -0.275196        -7.4885
 128   1.0000      -0.273376        -7.4389
 129   1.0000      -0.272492        -7.4149
 130   1.0000      -0.270177        -7.3519
 131   1.0000      -0.268340        -7.3019
 132   1.0000      -0.267991        -7.2924
 133   1.0000      -0.263614        -7.1733
 134   1.0000      -0.261662        -7.1202
 135   1.0000      -0.258568        -7.0360
 136   1.0000      -0.258353        -7.0302
 137   1.0000      -0.257617        -7.0101
 138   1.0000      -0.256448        -6.9783
 139   1.0000      -0.256184        -6.9711
 140   1.0000      -0.255720        -6.9585
 141   1.0000      -0.255390        -6.9495
 142   1.0000      -0.252455        -6.8696
 143   1.0000      -0.248782        -6.7697
 144   1.0000      -0.248553        -6.7635
 145   1.0000      -0.245039        -6.6678
 146   1.0000      -0.243042        -6.6135
 147   1.0000      -0.236089        -6.4243
 148   1.0000      -0.225852        -6.1457
 149   1.0000      -0.216798        -5.8994
 150   1.0000      -0.213248        -5.8028
 151   1.0000      -0.208128        -5.6634
 152   1.0000      -0.206058        -5.6071
 153   1.0000      -0.188619        -5.1326
 154   0.0000      -0.152605        -4.1526
 155   0.0000      -0.151455        -4.1213
 156   0.0000      -0.145703        -3.9648
 157   0.0000      -0.143604        -3.9077
 158   0.0000      -0.130693        -3.5563

MULLIKEN ATOMIC CHARGES AND SPIN POPULATIONS
--------------------------------------------
   0 Au:   -0.223144   -0.076273
   1 Au:   -0.049762   -0.060811
   2 Au:    0.246790    0.049134
   3 Au:    0.290837    0.012801
   4 Au:    0.333575   -0.013112
   5 Au:    0.343251   -0.054029
   6 Au:   -0.143605    0.023152
   7 Au:    0.111890    0.023606
   8 Au:   -0.132779    0.023480
   9 Au:    0.251749    0.049295
  10 Au:   -0.053831   -0.062738
  11 Au:    0.322526   -0.025743
  12 Au:    0.107742    0.020360
  13 Au:    0.342792   -0.053843
  14 Au:    0.289148    0.015594
  15 Fe:   -2.037181    3.129127
Sum of atomic charges         :    0.0000000

LOEWDIN ATOMIC CHARGES AND SPIN POPULATIONS
-------------------------------------------
   0 Au:   -0.027836   -0.027684
   1 Au:    0.006705   -0.016362
   2 Au:    0.001178    0.027753
   3 Au:    0.094824   -0.040586
   4 Au:    0.074713    0.001686
   5 Au:    0.087259   -0.035988
   6 Au:   -0.048381    0.001872
   7 Au:    0.031456   -0.007299
   8 Au:   -0.047817    0.001974
   9 Au:    0.002664    0.028092
  10 Au:    0.005732   -0.017192
  11 Au:    0.081384   -0.031697
  12 Au:    0.031908   -0.008056
  13 Au:    0.087457   -0.036219
  14 Au:    0.094390   -0.039864
  15 Fe:   -0.475634    3.199570

  Mayer bond orders larger than 0.100000
B(  0-Au,  1-Au) :   0.1956 B(  0-Au,  2-Au) :   0.3187 B(  0-Au,  3-Au) :   0.2321
B(  0-Au,  9-Au) :   0.3192 B(  0-Au, 10-Au) :   0.1984 B(  0-Au, 14-Au) :   0.2339
B(  0-Au, 15-Fe) :   0.4452 B(  1-Au,  2-Au) :   0.3589 B(  1-Au,  3-Au) :   0.1895
B(  1-Au,  5-Au) :   0.2091 B(  1-Au,  6-Au) :   0.2512 B(  1-Au, 15-Fe) :   0.4702
B(  2-Au,  4-Au) :   0.2014 B(  2-Au,  6-Au) :   0.2151 B(  2-Au,  9-Au) :   0.2086
B(  3-Au,  5-Au) :   0.1978 B(  3-Au, 14-Au) :   0.1049 B(  3-Au, 15-Fe) :   0.4490
B(  4-Au,  6-Au) :   0.3508 B(  4-Au,  8-Au) :   0.3497 B(  4-Au,  9-Au) :   0.1974
B(  5-Au,  7-Au) :   0.1895 B(  5-Au, 11-Au) :   0.2078 B(  5-Au, 15-Fe) :   0.4352
B(  6-Au,  7-Au) :   0.4614 B(  6-Au,  8-Au) :   0.2723 B(  6-Au, 15-Fe) :   0.1581
B(  7-Au, 11-Au) :   0.1812 B(  7-Au, 15-Fe) :   0.4714 B(  8-Au,  9-Au) :   0.2151
B(  8-Au, 10-Au) :   0.2527 B(  8-Au, 12-Au) :   0.4593 B(  8-Au, 15-Fe) :   0.1550
B(  9-Au, 10-Au) :   0.3557 B( 10-Au, 12-Au) :   0.1026 B( 10-Au, 13-Au) :   0.2096
B( 10-Au, 14-Au) :   0.1897 B( 10-Au, 15-Fe) :   0.4685 B( 11-Au, 12-Au) :   0.1795
B( 11-Au, 13-Au) :   0.2095 B( 11-Au, 15-Fe) :   0.4129 B( 12-Au, 13-Au) :   0.1890
B( 12-Au, 15-Fe) :   0.4754 B( 13-Au, 14-Au) :   0.1951 B( 13-Au, 15-Fe) :   0.4350
B( 14-Au, 15-Fe) :   0.4481

FINAL SINGLE POINT ENERGY     -3301.428719388542

DIPOLE MOMENT
-------------
                                X             Y             Z
Electronic contribution:    -42.01058     -10.23299       7.92914
Nuclear contribution   :     42.44490      10.20724      -8.13105
                        -----------------------------------------
Total Dipole Moment    :      0.43432      -0.02575      -0.20191
                        -----------------------------------------
Magnitude (a.u.)       :      0.47965
Magnitude (Debye)      :      1.21917

Rotational constants in cm-1:     0.001142     0.000799     0.000798
Rotational constants in MHz :    34.233962    23.956043    23.928115

                             ****ORCA TERMINATED NORMALLY****
TOTAL RUN TIME: 0 days 0 hours 14 minutes 56 seconds 89 msec
