                         Program Version 5.0.3 -  RELEASE  -
|  1> !RI-B2PLYP def2-TZVP def2-TZVP/C
|  2> !RIJCOSX VERYSLOWCONV
|  3>
|  4> %scf
|  5>   AutoTRAHIter 200
|  6>   maxiter 400
|  7> end
|  8>
|  9>
| 10> %pal nprocs 6 end
| 11>
| 12> *xyzfile 0 5 pbe.xyz
| 13>
| 14> $new_job
| 15>
| 16> !RI-B2PLYP def2-TZVP def2-TZVP/C
| 17> !RIJCOSX VERYSLOWCONV
| 18>
| 19> %scf
| 20>   AutoTRAHIter 200
| 21>   maxiter 400
| 22> end
| 23>
| 24>
| 25> %pal nprocs 6 end
| 26>
| 27> *xyzfile 0 3 pbe.xyz
| 28>
| 29>
| 30>
| 31>
| 32>
| 33>                          ****END OF INPUT****
 Total Charge           Charge          ....    0
 Multiplicity           Mult            ....    5
 Number of Electrons    NEL             ....  214
MP2 TOTAL ENERGY:    -2400.089800915 Eh
FINAL SINGLE POINT ENERGY     -2400.089800914773

CARTESIAN COORDINATES (ANGSTROEM)
---------------------------------
  Au     6.506410    4.936093    9.111252
  Au     5.996160    6.710457    6.967844
  Au     9.321464    4.350180    5.707781
  Au     8.664301    3.400167    8.288803
  Au     7.984312    6.705642    4.995174
  Au    10.889325    5.146047    8.336078
  Au    10.526932    6.924577    6.113651
  Au     8.144321    8.617510    7.016431
  Au     7.554875    7.515984    9.597442
  Au    10.199473    7.830657    8.731268
  Cr     8.458996    5.965908    7.633582

 Multiplicity           Mult            ....    3
 Number of Electrons    NEL             ....  214
 Basis Dimension        Dim             ....  445

ORBITAL ENERGIES
----------------
                 SPIN UP ORBITALS
  NO   OCC          E(Eh)            E(eV)
   0   1.0000    -217.710939     -5924.2158
   1   1.0000     -25.394367      -691.0159
   2   1.0000     -21.532518      -585.9296
   3   1.0000     -21.531962      -585.9145
   4   1.0000     -21.531236      -585.8947
   5   1.0000      -4.396228      -119.6274
   6   1.0000      -4.396201      -119.6267
   7   1.0000      -4.394596      -119.5830
   8   1.0000      -4.394577      -119.5825
   9   1.0000      -4.386292      -119.3571
  10   1.0000      -4.386235      -119.3555
  11   1.0000      -4.386163      -119.3536
  12   1.0000      -4.386161      -119.3535
  13   1.0000      -4.379691      -119.1774
  14   1.0000      -4.379516      -119.1727
  15   1.0000      -3.187105       -86.7255
  16   1.0000      -2.517863       -68.5145
  17   1.0000      -2.517771       -68.5120
  18   1.0000      -2.515869       -68.4603
  19   1.0000      -2.515640       -68.4540
  20   1.0000      -2.514582       -68.4252
  21   1.0000      -2.514187       -68.4145
  22   1.0000      -2.513129       -68.3857
  23   1.0000      -2.512804       -68.3769
  24   1.0000      -2.511137       -68.3315
  25   1.0000      -2.510539       -68.3152
  26   1.0000      -2.510393       -68.3113
  27   1.0000      -2.510009       -68.3008
  28   1.0000      -2.507289       -68.2268
  29   1.0000      -2.507257       -68.2259
  30   1.0000      -2.506991       -68.2187
  31   1.0000      -2.506971       -68.2182
  32   1.0000      -2.504057       -68.1388
  33   1.0000      -2.503846       -68.1331
  34   1.0000      -2.503124       -68.1135
  35   1.0000      -2.503028       -68.1108
  36   1.0000      -2.501336       -68.0648
  37   1.0000      -2.501143       -68.0596
  38   1.0000      -2.500804       -68.0503
  39   1.0000      -2.500662       -68.0465
  40   1.0000      -2.500641       -68.0459
  41   1.0000      -2.499483       -68.0144
  42   1.0000      -2.497398       -67.9576
  43   1.0000      -2.494419       -67.8766
  44   1.0000      -2.494126       -67.8686
  45   1.0000      -2.493865       -67.8615
  46   1.0000      -2.075301       -56.4718
  47   1.0000      -2.075039       -56.4647
  48   1.0000      -2.073645       -56.4267
  49   1.0000      -0.486531       -13.2392
  50   1.0000      -0.465883       -12.6773
  51   1.0000      -0.462699       -12.5907
  52   1.0000      -0.462691       -12.5905
  53   1.0000      -0.460238       -12.5237
  54   1.0000      -0.448440       -12.2027
  55   1.0000      -0.441992       -12.0272
  56   1.0000      -0.440372       -11.9831
  57   1.0000      -0.438277       -11.9261
  58   1.0000      -0.434910       -11.8345
  59   1.0000      -0.430589       -11.7169
  60   1.0000      -0.428039       -11.6475
  61   1.0000      -0.425956       -11.5908
  62   1.0000      -0.421700       -11.4750
  63   1.0000      -0.421198       -11.4614
  64   1.0000      -0.418191       -11.3795
  65   1.0000      -0.415423       -11.3042
  66   1.0000      -0.413655       -11.2561
  67   1.0000      -0.413619       -11.2551
  68   1.0000      -0.412005       -11.2112
  69   1.0000      -0.410750       -11.1771
  70   1.0000      -0.406095       -11.0504
  71   1.0000      -0.397801       -10.8247
  72   1.0000      -0.396278       -10.7833
  73   1.0000      -0.393638       -10.7114
  74   1.0000      -0.392370       -10.6769
  75   1.0000      -0.390894       -10.6368
  76   1.0000      -0.388610       -10.5746
  77   1.0000      -0.380748       -10.3607
  78   1.0000      -0.377888       -10.2829
  79   1.0000      -0.372927       -10.1479
  80   1.0000      -0.370665       -10.0863
  81   1.0000      -0.369570       -10.0565
  82   1.0000      -0.367044        -9.9878
  83   1.0000      -0.362577        -9.8662
  84   1.0000      -0.359709        -9.7882
  85   1.0000      -0.359455        -9.7813
  86   1.0000      -0.356371        -9.6973
  87   1.0000      -0.355000        -9.6600
  88   1.0000      -0.352598        -9.5947
  89   1.0000      -0.350153        -9.5281
  90   1.0000      -0.349250        -9.5036
  91   1.0000      -0.347852        -9.4655
  92   1.0000      -0.347431        -9.4541
  93   1.0000      -0.340871        -9.2756
  94   1.0000      -0.338150        -9.2015
  95   1.0000      -0.334429        -9.1003
  96   1.0000      -0.333501        -9.0750
  97   1.0000      -0.331089        -9.0094
  98   1.0000      -0.326965        -8.8972
  99   1.0000      -0.326808        -8.8929
 100   1.0000      -0.313921        -8.5422
 101   1.0000      -0.313344        -8.5265
 102   1.0000      -0.284741        -7.7482
 103   1.0000      -0.283208        -7.7065
 104   1.0000      -0.275383        -7.4936
 105   1.0000      -0.271408        -7.3854
 106   1.0000      -0.264725        -7.2035
 107   1.0000      -0.259164        -7.0522
 108   0.0000      -0.095281        -2.5927
 109   0.0000      -0.086659        -2.3581
 110   0.0000      -0.085738        -2.3330
 111   0.0000      -0.075687        -2.0595
 112   0.0000      -0.068534        -1.8649

                 SPIN DOWN ORBITALS
  NO   OCC          E(Eh)            E(eV)
   0   1.0000    -217.709611     -5924.1797
   1   1.0000     -25.323425      -689.0854
   2   1.0000     -21.469470      -584.2140
   3   1.0000     -21.465238      -584.0988
   4   1.0000     -21.464594      -584.0813
   5   1.0000      -4.395330      -119.6030
   6   1.0000      -4.395289      -119.6019
   7   1.0000      -4.394647      -119.5844
   8   1.0000      -4.394634      -119.5841
   9   1.0000      -4.386563      -119.3645
  10   1.0000      -4.386502      -119.3628
  11   1.0000      -4.386438      -119.3610
  12   1.0000      -4.386435      -119.3610
  13   1.0000      -4.379987      -119.1855
  14   1.0000      -4.379813      -119.1808
  15   1.0000      -2.965477       -80.6947
  16   1.0000      -2.516399       -68.4747
  17   1.0000      -2.516257       -68.4708
  18   1.0000      -2.515264       -68.4438
  19   1.0000      -2.514629       -68.4265
  20   1.0000      -2.512787       -68.3764
  21   1.0000      -2.512737       -68.3750
  22   1.0000      -2.512230       -68.3613
  23   1.0000      -2.512081       -68.3572
  24   1.0000      -2.510451       -68.3128
  25   1.0000      -2.509863       -68.2968
  26   1.0000      -2.509817       -68.2956
  27   1.0000      -2.509440       -68.2853
  28   1.0000      -2.505947       -68.1903
  29   1.0000      -2.505902       -68.1891
  30   1.0000      -2.505558       -68.1797
  31   1.0000      -2.505479       -68.1775
  32   1.0000      -2.503687       -68.1288
  33   1.0000      -2.503477       -68.1231
  34   1.0000      -2.503061       -68.1118
  35   1.0000      -2.502992       -68.1099
  36   1.0000      -2.500904       -68.0530
  37   1.0000      -2.500860       -68.0519
  38   1.0000      -2.500475       -68.0414
  39   1.0000      -2.500448       -68.0407
  40   1.0000      -2.499845       -68.0243
  41   1.0000      -2.498105       -67.9769
  42   1.0000      -2.497073       -67.9488
  43   1.0000      -2.494036       -67.8662
  44   1.0000      -2.493840       -67.8608
  45   1.0000      -2.493702       -67.8571
  46   1.0000      -1.826850       -49.7111
  47   1.0000      -1.815967       -49.4150
  48   1.0000      -1.815614       -49.4054
  49   1.0000      -0.480010       -13.0617
  50   1.0000      -0.456876       -12.4322
  51   1.0000      -0.455861       -12.4046
  52   1.0000      -0.455779       -12.4024
  53   1.0000      -0.451224       -12.2784
  54   1.0000      -0.445783       -12.1304
  55   1.0000      -0.442274       -12.0349
  56   1.0000      -0.440719       -11.9926
  57   1.0000      -0.440187       -11.9781
  58   1.0000      -0.432816       -11.7775
  59   1.0000      -0.430938       -11.7264
  60   1.0000      -0.428421       -11.6579
  61   1.0000      -0.424331       -11.5466
  62   1.0000      -0.422145       -11.4872
  63   1.0000      -0.421138       -11.4597
  64   1.0000      -0.416565       -11.3353
  65   1.0000      -0.416387       -11.3305
  66   1.0000      -0.415214       -11.2985
  67   1.0000      -0.413047       -11.2396
  68   1.0000      -0.411053       -11.1853
  69   1.0000      -0.407747       -11.0953
  70   1.0000      -0.407102       -11.0778
  71   1.0000      -0.396442       -10.7877
  72   1.0000      -0.394984       -10.7481
  73   1.0000      -0.392209       -10.6725
  74   1.0000      -0.387596       -10.5470
  75   1.0000      -0.384753       -10.4697
  76   1.0000      -0.384202       -10.4547
  77   1.0000      -0.381983       -10.3943
  78   1.0000      -0.378299       -10.2940
  79   1.0000      -0.371444       -10.1075
  80   1.0000      -0.370280       -10.0758
  81   1.0000      -0.369702       -10.0601
  82   1.0000      -0.367265        -9.9938
  83   1.0000      -0.361162        -9.8277
  84   1.0000      -0.360597        -9.8123
  85   1.0000      -0.358439        -9.7536
  86   1.0000      -0.357559        -9.7297
  87   1.0000      -0.356352        -9.6968
  88   1.0000      -0.354965        -9.6591
  89   1.0000      -0.351887        -9.5753
  90   1.0000      -0.350130        -9.5275
  91   1.0000      -0.348036        -9.4705
  92   1.0000      -0.347636        -9.4597
  93   1.0000      -0.340648        -9.2695
  94   1.0000      -0.337970        -9.1966
  95   1.0000      -0.336564        -9.1584
  96   1.0000      -0.336078        -9.1451
  97   1.0000      -0.332272        -9.0416
  98   1.0000      -0.327938        -8.9237
  99   1.0000      -0.326602        -8.8873
 100   1.0000      -0.303194        -8.2503
 101   1.0000      -0.295163        -8.0318
 102   1.0000      -0.280875        -7.6430
 103   1.0000      -0.209843        -5.7101
 104   1.0000      -0.207693        -5.6516
 105   1.0000      -0.197410        -5.3718
 106   0.0000      -0.090879        -2.4729
 107   0.0000      -0.086746        -2.3605
 108   0.0000      -0.049289        -1.3412
 109   0.0000      -0.039948        -1.0870
 110   0.0000      -0.000277        -0.0075

MULLIKEN ATOMIC CHARGES AND SPIN POPULATIONS
--------------------------------------------
   0 Au:    0.246944   -0.208796
   1 Au:    0.397537   -0.175655
   2 Au:    0.396614   -0.176126
   3 Au:    0.246443   -0.208691
   4 Au:    0.327420    0.009338
   5 Au:    0.399801   -0.174147
   6 Au:    0.530178   -0.166075
   7 Au:    0.530246   -0.166460
   8 Au:    0.399731   -0.174845
   9 Au:    0.326820    0.010905
  10 Cr:   -3.801735    3.430552
Sum of atomic charges         :   -0.0000000

LOEWDIN ATOMIC CHARGES AND SPIN POPULATIONS
-------------------------------------------
   0 Au:    0.105513   -0.228123
   1 Au:    0.122270   -0.167867
   2 Au:    0.122088   -0.168131
   3 Au:    0.105452   -0.228086
   4 Au:    0.121986   -0.089876
   5 Au:    0.122537   -0.167310
   6 Au:    0.072377   -0.179671
   7 Au:    0.072397   -0.179929
   8 Au:    0.122250   -0.167728
   9 Au:    0.122446   -0.088028
  10 Cr:   -1.089317    3.664747

  Mayer bond orders larger than 0.100000
B(  0-Au,  1-Au) :   0.1857 B(  0-Au,  3-Au) :   0.2768 B(  0-Au,  8-Au) :   0.1868
B(  0-Au, 10-Cr) :   0.5911 B(  1-Au,  4-Au) :   0.2493 B(  1-Au,  7-Au) :   0.1267
B(  1-Au, 10-Cr) :   0.5918 B(  2-Au,  3-Au) :   0.1861 B(  2-Au,  4-Au) :   0.2488
B(  2-Au,  6-Au) :   0.1271 B(  2-Au, 10-Cr) :   0.5919 B(  3-Au,  5-Au) :   0.1862
B(  3-Au, 10-Cr) :   0.5909 B(  4-Au,  6-Au) :   0.1820 B(  4-Au,  7-Au) :   0.1818
B(  4-Au, 10-Cr) :   0.3981 B(  5-Au,  6-Au) :   0.1278 B(  5-Au,  9-Au) :   0.2493
B(  5-Au, 10-Cr) :   0.5898 B(  6-Au,  7-Au) :   0.1010 B(  6-Au,  9-Au) :   0.1809
B(  6-Au, 10-Cr) :   0.5268 B(  7-Au,  8-Au) :   0.1282 B(  7-Au,  9-Au) :   0.1806
B(  7-Au, 10-Cr) :   0.5274 B(  8-Au,  9-Au) :   0.2482 B(  8-Au, 10-Cr) :   0.5901
B(  9-Au, 10-Cr) :   0.3995

MP2 TOTAL ENERGY:    -2400.107719598 Eh
FINAL SINGLE POINT ENERGY     -2400.107719597905

DIPOLE MOMENT
-------------
                                X             Y             Z
Electronic contribution:      4.29615       8.88646      -5.26872
Nuclear contribution   :     -4.18585      -8.66186       5.13824
                        -----------------------------------------
Total Dipole Moment    :      0.11031       0.22460      -0.13049
                        -----------------------------------------
Magnitude (a.u.)       :      0.28221
Magnitude (Debye)      :      0.71731

Rotational constants in cm-1:     0.001898     0.001827     0.001651
Rotational constants in MHz :    56.887518    54.757265    49.497106

                             ****ORCA TERMINATED NORMALLY****
TOTAL RUN TIME: 0 days 0 hours 19 minutes 46 seconds 862 msec
