                         Program Version 5.0.3 -  RELEASE  -
|  1> !PBE def2-TZVP VERYSLOWCONV
|  2>
|  3> %scf
|  4>   AutoTRAHIter 200
|  5>   maxiter 400
|  6> end
|  7>
|  8>
|  9> %pal nprocs 6 end
| 10>
| 11> *xyzfile 0 5 pbe.xyz
| 12>
| 13> $new_job
| 14>
| 15> !PBE def2-TZVP VERYSLOWCONV
| 16>
| 17> %scf
| 18>   AutoTRAHIter 200
| 19>   maxiter 400
| 20> end
| 21>
| 22>
| 23> %pal nprocs 6 end
| 24>
| 25> *xyzfile 0 3 pbe.xyz
| 26>
| 27>
| 28>
| 29>
| 30>
| 31>                          ****END OF INPUT****
 Total Charge           Charge          ....    0
 Multiplicity           Mult            ....    5
 Number of Electrons    NEL             ....  214
FINAL SINGLE POINT ENERGY     -2402.465553088771

CARTESIAN COORDINATES (ANGSTROEM)
---------------------------------
  Au     6.506410    4.936093    9.111252
  Au     5.996160    6.710457    6.967844
  Au     9.321464    4.350180    5.707781
  Au     8.664301    3.400167    8.288803
  Au     7.984312    6.705642    4.995174
  Au    10.889325    5.146047    8.336078
  Au    10.526932    6.924577    6.113651
  Au     8.144321    8.617510    7.016431
  Au     7.554875    7.515984    9.597442
  Au    10.199473    7.830657    8.731268
  Cr     8.458996    5.965908    7.633582

 Multiplicity           Mult            ....    3
 Number of Electrons    NEL             ....  214
 Basis Dimension        Dim             ....  445

ORBITAL ENERGIES
----------------
                 SPIN UP ORBITALS
  NO   OCC          E(Eh)            E(eV)
   0   1.0000    -214.500597     -5836.8580
   1   1.0000     -24.302779      -661.3122
   2   1.0000     -20.667692      -562.3965
   3   1.0000     -20.666070      -562.3524
   4   1.0000     -20.665787      -562.3447
   5   1.0000      -4.022702      -109.4633
   6   1.0000      -4.022635      -109.4615
   7   1.0000      -4.022133      -109.4478
   8   1.0000      -4.022088      -109.4466
   9   1.0000      -4.016076      -109.2830
  10   1.0000      -4.016062      -109.2826
  11   1.0000      -4.016006      -109.2811
  12   1.0000      -4.015983      -109.2804
  13   1.0000      -4.011375      -109.1551
  14   1.0000      -4.011239      -109.1514
  15   1.0000      -2.798692       -76.1563
  16   1.0000      -2.239363       -60.9362
  17   1.0000      -2.238966       -60.9254
  18   1.0000      -2.238230       -60.9053
  19   1.0000      -2.237991       -60.8988
  20   1.0000      -2.236725       -60.8644
  21   1.0000      -2.236197       -60.8500
  22   1.0000      -2.235502       -60.8311
  23   1.0000      -2.234748       -60.8106
  24   1.0000      -2.234619       -60.8071
  25   1.0000      -2.233832       -60.7857
  26   1.0000      -2.233705       -60.7822
  27   1.0000      -2.233127       -60.7665
  28   1.0000      -2.233119       -60.7663
  29   1.0000      -2.232641       -60.7532
  30   1.0000      -2.232316       -60.7444
  31   1.0000      -2.231971       -60.7350
  32   1.0000      -2.230099       -60.6841
  33   1.0000      -2.229639       -60.6716
  34   1.0000      -2.228329       -60.6359
  35   1.0000      -2.228244       -60.6336
  36   1.0000      -2.228170       -60.6316
  37   1.0000      -2.227564       -60.6151
  38   1.0000      -2.225020       -60.5459
  39   1.0000      -2.224988       -60.5450
  40   1.0000      -2.224765       -60.5389
  41   1.0000      -2.224755       -60.5387
  42   1.0000      -2.223866       -60.5145
  43   1.0000      -2.221164       -60.4410
  44   1.0000      -2.220545       -60.4241
  45   1.0000      -2.220260       -60.4163
  46   1.0000      -1.789315       -48.6897
  47   1.0000      -1.787729       -48.6466
  48   1.0000      -1.787081       -48.6289
  49   1.0000      -0.414615       -11.2822
  50   1.0000      -0.368662       -10.0318
  51   1.0000      -0.368573       -10.0294
  52   1.0000      -0.364228        -9.9112
  53   1.0000      -0.357070        -9.7164
  54   1.0000      -0.350922        -9.5491
  55   1.0000      -0.347738        -9.4624
  56   1.0000      -0.341927        -9.3043
  57   1.0000      -0.338217        -9.2034
  58   1.0000      -0.335698        -9.1348
  59   1.0000      -0.331162        -9.0114
  60   1.0000      -0.325190        -8.8489
  61   1.0000      -0.325034        -8.8446
  62   1.0000      -0.323870        -8.8129
  63   1.0000      -0.321777        -8.7560
  64   1.0000      -0.318344        -8.6626
  65   1.0000      -0.317872        -8.6497
  66   1.0000      -0.315632        -8.5888
  67   1.0000      -0.314110        -8.5474
  68   1.0000      -0.312945        -8.5157
  69   1.0000      -0.309597        -8.4246
  70   1.0000      -0.309243        -8.4149
  71   1.0000      -0.298968        -8.1353
  72   1.0000      -0.296871        -8.0783
  73   1.0000      -0.295914        -8.0522
  74   1.0000      -0.294431        -8.0119
  75   1.0000      -0.291658        -7.9364
  76   1.0000      -0.289107        -7.8670
  77   1.0000      -0.280816        -7.6414
  78   1.0000      -0.278489        -7.5781
  79   1.0000      -0.273976        -7.4553
  80   1.0000      -0.273184        -7.4337
  81   1.0000      -0.271480        -7.3874
  82   1.0000      -0.271196        -7.3796
  83   1.0000      -0.266145        -7.2422
  84   1.0000      -0.263762        -7.1773
  85   1.0000      -0.263324        -7.1654
  86   1.0000      -0.262118        -7.1326
  87   1.0000      -0.260039        -7.0760
  88   1.0000      -0.257269        -7.0006
  89   1.0000      -0.254951        -6.9376
  90   1.0000      -0.254883        -6.9357
  91   1.0000      -0.252681        -6.8758
  92   1.0000      -0.252488        -6.8705
  93   1.0000      -0.246316        -6.7026
  94   1.0000      -0.245034        -6.6677
  95   1.0000      -0.242823        -6.6076
  96   1.0000      -0.242442        -6.5972
  97   1.0000      -0.240788        -6.5522
  98   1.0000      -0.238642        -6.4938
  99   1.0000      -0.235779        -6.4159
 100   1.0000      -0.235276        -6.4022
 101   1.0000      -0.233461        -6.3528
 102   1.0000      -0.233061        -6.3419
 103   1.0000      -0.207243        -5.6394
 104   1.0000      -0.204574        -5.5668
 105   1.0000      -0.204238        -5.5576
 106   1.0000      -0.203809        -5.5459
 107   1.0000      -0.201595        -5.4857
 108   0.0000      -0.161331        -4.3900
 109   0.0000      -0.157139        -4.2760
 110   0.0000      -0.155070        -4.2197
 111   0.0000      -0.143961        -3.9174
 112   0.0000      -0.138888        -3.7793

                 SPIN DOWN ORBITALS
  NO   OCC          E(Eh)            E(eV)
   0   1.0000    -214.500190     -5836.8469
   1   1.0000     -24.260874      -660.1720
   2   1.0000     -20.637636      -561.5786
   3   1.0000     -20.634299      -561.4878
   4   1.0000     -20.631531      -561.4125
   5   1.0000      -4.022586      -109.4601
   6   1.0000      -4.022530      -109.4586
   7   1.0000      -4.021572      -109.4326
   8   1.0000      -4.021547      -109.4318
   9   1.0000      -4.015756      -109.2743
  10   1.0000      -4.015737      -109.2738
  11   1.0000      -4.015680      -109.2722
  12   1.0000      -4.015657      -109.2716
  13   1.0000      -4.011148      -109.1489
  14   1.0000      -4.011012      -109.1452
  15   1.0000      -2.685964       -73.0888
  16   1.0000      -2.238734       -60.9191
  17   1.0000      -2.238474       -60.9120
  18   1.0000      -2.237900       -60.8964
  19   1.0000      -2.237831       -60.8945
  20   1.0000      -2.235676       -60.8358
  21   1.0000      -2.235333       -60.8265
  22   1.0000      -2.235211       -60.8232
  23   1.0000      -2.234420       -60.8017
  24   1.0000      -2.234351       -60.7998
  25   1.0000      -2.233309       -60.7714
  26   1.0000      -2.233039       -60.7641
  27   1.0000      -2.232454       -60.7482
  28   1.0000      -2.232312       -60.7443
  29   1.0000      -2.232128       -60.7393
  30   1.0000      -2.232005       -60.7359
  31   1.0000      -2.231789       -60.7301
  32   1.0000      -2.229530       -60.6686
  33   1.0000      -2.229222       -60.6602
  34   1.0000      -2.228330       -60.6359
  35   1.0000      -2.228262       -60.6341
  36   1.0000      -2.227933       -60.6251
  37   1.0000      -2.227119       -60.6030
  38   1.0000      -2.224819       -60.5404
  39   1.0000      -2.224774       -60.5392
  40   1.0000      -2.224543       -60.5329
  41   1.0000      -2.224534       -60.5327
  42   1.0000      -2.224012       -60.5185
  43   1.0000      -2.221377       -60.4467
  44   1.0000      -2.220380       -60.4196
  45   1.0000      -2.220092       -60.4118
  46   1.0000      -1.684806       -45.8459
  47   1.0000      -1.677041       -45.6346
  48   1.0000      -1.669318       -45.4245
  49   1.0000      -0.408425       -11.1138
  50   1.0000      -0.366825        -9.9818
  51   1.0000      -0.364863        -9.9284
  52   1.0000      -0.359955        -9.7949
  53   1.0000      -0.354791        -9.6543
  54   1.0000      -0.348126        -9.4730
  55   1.0000      -0.347290        -9.4503
  56   1.0000      -0.339841        -9.2476
  57   1.0000      -0.336413        -9.1543
  58   1.0000      -0.335025        -9.1165
  59   1.0000      -0.330203        -8.9853
  60   1.0000      -0.325865        -8.8672
  61   1.0000      -0.324915        -8.8414
  62   1.0000      -0.321465        -8.7475
  63   1.0000      -0.321059        -8.7365
  64   1.0000      -0.318271        -8.6606
  65   1.0000      -0.317630        -8.6431
  66   1.0000      -0.314625        -8.5614
  67   1.0000      -0.313886        -8.5413
  68   1.0000      -0.313296        -8.5252
  69   1.0000      -0.310529        -8.4499
  70   1.0000      -0.306748        -8.3470
  71   1.0000      -0.299695        -8.1551
  72   1.0000      -0.295113        -8.0304
  73   1.0000      -0.294830        -8.0227
  74   1.0000      -0.293369        -7.9830
  75   1.0000      -0.289013        -7.8644
  76   1.0000      -0.288882        -7.8609
  77   1.0000      -0.281668        -7.6646
  78   1.0000      -0.279474        -7.6049
  79   1.0000      -0.273755        -7.4493
  80   1.0000      -0.272700        -7.4205
  81   1.0000      -0.272268        -7.4088
  82   1.0000      -0.271291        -7.3822
  83   1.0000      -0.265805        -7.2329
  84   1.0000      -0.265413        -7.2223
  85   1.0000      -0.264316        -7.1924
  86   1.0000      -0.262351        -7.1389
  87   1.0000      -0.260824        -7.0974
  88   1.0000      -0.258398        -7.0314
  89   1.0000      -0.256190        -6.9713
  90   1.0000      -0.255775        -6.9600
  91   1.0000      -0.253259        -6.8915
  92   1.0000      -0.253150        -6.8886
  93   1.0000      -0.246882        -6.7180
  94   1.0000      -0.245415        -6.6781
  95   1.0000      -0.243952        -6.6383
  96   1.0000      -0.243287        -6.6202
  97   1.0000      -0.241764        -6.5787
  98   1.0000      -0.239311        -6.5120
  99   1.0000      -0.237497        -6.4626
 100   1.0000      -0.236144        -6.4258
 101   1.0000      -0.235438        -6.4066
 102   1.0000      -0.233360        -6.3501
 103   1.0000      -0.191708        -5.2166
 104   1.0000      -0.190408        -5.1813
 105   1.0000      -0.182882        -4.9765
 106   0.0000      -0.157729        -4.2920
 107   0.0000      -0.150873        -4.1055
 108   0.0000      -0.112021        -3.0483
 109   0.0000      -0.111425        -3.0320
 110   0.0000      -0.109443        -2.9781

MULLIKEN ATOMIC CHARGES AND SPIN POPULATIONS
--------------------------------------------
   0 Au:    0.307658   -0.096891
   1 Au:    0.434476   -0.063411
   2 Au:    0.434283   -0.063727
   3 Au:    0.307514   -0.096828
   4 Au:    0.346559    0.001886
   5 Au:    0.435860   -0.062883
   6 Au:    0.550050   -0.082746
   7 Au:    0.550202   -0.083042
   8 Au:    0.435657   -0.063507
   9 Au:    0.345781    0.003127
  10 Cr:   -4.148040    2.608024
Sum of atomic charges         :   -0.0000000

LOEWDIN ATOMIC CHARGES AND SPIN POPULATIONS
-------------------------------------------
   0 Au:    0.121508   -0.120101
   1 Au:    0.136072   -0.077919
   2 Au:    0.135896   -0.078126
   3 Au:    0.121529   -0.120033
   4 Au:    0.117990   -0.033501
   5 Au:    0.136065   -0.077738
   6 Au:    0.084806   -0.100427
   7 Au:    0.084776   -0.100651
   8 Au:    0.135656   -0.078192
   9 Au:    0.118586   -0.032186
  10 Cr:   -1.192885    2.818873

  Mayer bond orders larger than 0.100000
B(  0-Au,  1-Au) :   0.2285 B(  0-Au,  3-Au) :   0.2980 B(  0-Au,  8-Au) :   0.2298
B(  0-Au, 10-Cr) :   0.7431 B(  1-Au,  4-Au) :   0.2888 B(  1-Au,  7-Au) :   0.1555
B(  1-Au, 10-Cr) :   0.7809 B(  2-Au,  3-Au) :   0.2290 B(  2-Au,  4-Au) :   0.2886
B(  2-Au,  6-Au) :   0.1560 B(  2-Au, 10-Cr) :   0.7805 B(  3-Au,  5-Au) :   0.2291
B(  3-Au, 10-Cr) :   0.7433 B(  4-Au,  6-Au) :   0.2292 B(  4-Au,  7-Au) :   0.2290
B(  4-Au, 10-Cr) :   0.4183 B(  5-Au,  6-Au) :   0.1570 B(  5-Au,  9-Au) :   0.2888
B(  5-Au, 10-Cr) :   0.7783 B(  6-Au,  7-Au) :   0.1185 B(  6-Au,  9-Au) :   0.2278
B(  6-Au, 10-Cr) :   0.7118 B(  7-Au,  8-Au) :   0.1577 B(  7-Au,  9-Au) :   0.2273
B(  7-Au, 10-Cr) :   0.7115 B(  8-Au,  9-Au) :   0.2879 B(  8-Au, 10-Cr) :   0.7775
B(  9-Au, 10-Cr) :   0.4205

FINAL SINGLE POINT ENERGY     -2402.485177707339

DIPOLE MOMENT
-------------
                                X             Y             Z
Electronic contribution:      4.24883       8.78971      -5.21290
Nuclear contribution   :     -4.18585      -8.66186       5.13824
                        -----------------------------------------
Total Dipole Moment    :      0.06298       0.12785      -0.07466
                        -----------------------------------------
Magnitude (a.u.)       :      0.16090
Magnitude (Debye)      :      0.40897

Rotational constants in cm-1:     0.001898     0.001827     0.001651
Rotational constants in MHz :    56.887518    54.757265    49.497106

                             ****ORCA TERMINATED NORMALLY****
TOTAL RUN TIME: 0 days 1 hours 58 minutes 4 seconds 751 msec
