                         Program Version 5.0.3 -  RELEASE  -
|  1> !R2SCAN def2-TZVP VERYSLOWCONV
|  2> !KDIIS
|  3> %scf
|  4>   AutoTRAHIter 200
|  5>   maxiter 400
|  6> end
|  7>
|  8> %pal nprocs 6 end
|  9>
| 10> *xyzfile 0 5 pbe.xyz
| 11>
| 12> $new_job
| 13>
| 14> !R2SCAN def2-TZVP VERYSLOWCONV
| 15> !KDIIS
| 16> %scf
| 17>   AutoTRAHIter 200
| 18>   maxiter 400
| 19> end
| 20>
| 21>
| 22> %pal nprocs 6 end
| 23>
| 24> *xyzfile 0 3 pbe.xyz
| 25>
| 26>
| 27>
| 28>
| 29>
| 30>                          ****END OF INPUT****
 Total Charge           Charge          ....    0
 Multiplicity           Mult            ....    5
 Number of Electrons    NEL             ....  214
FINAL SINGLE POINT ENERGY     -2402.856093900048

CARTESIAN COORDINATES (ANGSTROEM)
---------------------------------
  Au     6.506410    4.936093    9.111252
  Au     5.996160    6.710457    6.967844
  Au     9.321464    4.350180    5.707781
  Au     8.664301    3.400167    8.288803
  Au     7.984312    6.705642    4.995174
  Au    10.889325    5.146047    8.336078
  Au    10.526932    6.924577    6.113651
  Au     8.144321    8.617510    7.016431
  Au     7.554875    7.515984    9.597442
  Au    10.199473    7.830657    8.731268
  Cr     8.458996    5.965908    7.633582

 Multiplicity           Mult            ....    3
 Number of Electrons    NEL             ....  214
 Basis Dimension        Dim             ....  445

ORBITAL ENERGIES
----------------
                 SPIN UP ORBITALS
  NO   OCC          E(Eh)            E(eV)
   0   1.0000    -215.293303     -5858.4286
   1   1.0000     -24.595555      -669.2791
   2   1.0000     -20.862912      -567.7087
   3   1.0000     -20.861693      -567.6755
   4   1.0000     -20.861479      -567.6697
   5   1.0000      -4.113232      -111.9267
   6   1.0000      -4.113085      -111.9227
   7   1.0000      -4.113051      -111.9218
   8   1.0000      -4.112934      -111.9186
   9   1.0000      -4.106313      -111.7385
  10   1.0000      -4.106286      -111.7377
  11   1.0000      -4.106224      -111.7360
  12   1.0000      -4.106192      -111.7352
  13   1.0000      -4.101269      -111.6012
  14   1.0000      -4.101117      -111.5971
  15   1.0000      -2.910916       -79.2100
  16   1.0000      -2.302993       -62.6676
  17   1.0000      -2.302718       -62.6601
  18   1.0000      -2.301651       -62.6311
  19   1.0000      -2.301622       -62.6303
  20   1.0000      -2.300264       -62.5934
  21   1.0000      -2.299769       -62.5799
  22   1.0000      -2.299198       -62.5644
  23   1.0000      -2.298383       -62.5422
  24   1.0000      -2.298107       -62.5347
  25   1.0000      -2.297231       -62.5108
  26   1.0000      -2.296805       -62.4992
  27   1.0000      -2.296374       -62.4875
  28   1.0000      -2.296065       -62.4791
  29   1.0000      -2.295840       -62.4730
  30   1.0000      -2.295811       -62.4722
  31   1.0000      -2.295422       -62.4616
  32   1.0000      -2.292908       -62.3932
  33   1.0000      -2.292555       -62.3836
  34   1.0000      -2.291501       -62.3549
  35   1.0000      -2.291417       -62.3526
  36   1.0000      -2.291096       -62.3439
  37   1.0000      -2.290299       -62.3222
  38   1.0000      -2.288336       -62.2688
  39   1.0000      -2.288295       -62.2677
  40   1.0000      -2.288072       -62.2616
  41   1.0000      -2.288057       -62.2612
  42   1.0000      -2.286886       -62.2293
  43   1.0000      -2.284015       -62.1512
  44   1.0000      -2.283485       -62.1368
  45   1.0000      -2.283179       -62.1285
  46   1.0000      -1.857805       -50.5534
  47   1.0000      -1.857405       -50.5426
  48   1.0000      -1.856881       -50.5283
  49   1.0000      -0.419588       -11.4176
  50   1.0000      -0.376052       -10.2329
  51   1.0000      -0.375264       -10.2114
  52   1.0000      -0.371462       -10.1080
  53   1.0000      -0.365607        -9.9487
  54   1.0000      -0.357560        -9.7297
  55   1.0000      -0.356003        -9.6873
  56   1.0000      -0.350794        -9.5456
  57   1.0000      -0.345111        -9.3909
  58   1.0000      -0.344745        -9.3810
  59   1.0000      -0.340234        -9.2582
  60   1.0000      -0.334124        -9.0920
  61   1.0000      -0.333354        -9.0710
  62   1.0000      -0.331783        -9.0283
  63   1.0000      -0.330752        -9.0002
  64   1.0000      -0.327041        -8.8992
  65   1.0000      -0.326951        -8.8968
  66   1.0000      -0.323543        -8.8040
  67   1.0000      -0.322363        -8.7719
  68   1.0000      -0.321556        -8.7500
  69   1.0000      -0.317591        -8.6421
  70   1.0000      -0.317251        -8.6328
  71   1.0000      -0.307022        -8.3545
  72   1.0000      -0.305161        -8.3039
  73   1.0000      -0.304506        -8.2860
  74   1.0000      -0.302445        -8.2299
  75   1.0000      -0.299559        -8.1514
  76   1.0000      -0.297251        -8.0886
  77   1.0000      -0.289330        -7.8731
  78   1.0000      -0.286920        -7.8075
  79   1.0000      -0.282058        -7.6752
  80   1.0000      -0.281064        -7.6481
  81   1.0000      -0.279688        -7.6107
  82   1.0000      -0.278464        -7.5774
  83   1.0000      -0.273897        -7.4531
  84   1.0000      -0.271010        -7.3746
  85   1.0000      -0.269945        -7.3456
  86   1.0000      -0.269603        -7.3363
  87   1.0000      -0.267673        -7.2837
  88   1.0000      -0.265159        -7.2153
  89   1.0000      -0.262564        -7.1447
  90   1.0000      -0.262384        -7.1398
  91   1.0000      -0.260312        -7.0834
  92   1.0000      -0.259888        -7.0719
  93   1.0000      -0.253724        -6.9042
  94   1.0000      -0.252353        -6.8669
  95   1.0000      -0.249837        -6.7984
  96   1.0000      -0.249740        -6.7958
  97   1.0000      -0.247505        -6.7349
  98   1.0000      -0.244829        -6.6621
  99   1.0000      -0.243072        -6.6143
 100   1.0000      -0.239714        -6.5229
 101   1.0000      -0.237195        -6.4544
 102   1.0000      -0.236164        -6.4263
 103   1.0000      -0.217837        -5.9276
 104   1.0000      -0.212619        -5.7856
 105   1.0000      -0.208973        -5.6865
 106   1.0000      -0.206944        -5.6312
 107   1.0000      -0.206496        -5.6191
 108   0.0000      -0.158517        -4.3135
 109   0.0000      -0.153118        -4.1665
 110   0.0000      -0.151244        -4.1155
 111   0.0000      -0.140114        -3.8127
 112   0.0000      -0.134605        -3.6628

                 SPIN DOWN ORBITALS
  NO   OCC          E(Eh)            E(eV)
   0   1.0000    -215.292686     -5858.4118
   1   1.0000     -24.536860      -667.6819
   2   1.0000     -20.819882      -566.5378
   3   1.0000     -20.816167      -566.4367
   4   1.0000     -20.814361      -566.3876
   5   1.0000      -4.113228      -111.9266
   6   1.0000      -4.113158      -111.9247
   7   1.0000      -4.112502      -111.9069
   8   1.0000      -4.112464      -111.9058
   9   1.0000      -4.106259      -111.7370
  10   1.0000      -4.106229      -111.7362
  11   1.0000      -4.106166      -111.7345
  12   1.0000      -4.106136      -111.7336
  13   1.0000      -4.101347      -111.6033
  14   1.0000      -4.101193      -111.5991
  15   1.0000      -2.756492       -75.0080
  16   1.0000      -2.302407       -62.6517
  17   1.0000      -2.302085       -62.6429
  18   1.0000      -2.301370       -62.6235
  19   1.0000      -2.301344       -62.6228
  20   1.0000      -2.299345       -62.5684
  21   1.0000      -2.298913       -62.5566
  22   1.0000      -2.298848       -62.5548
  23   1.0000      -2.298041       -62.5329
  24   1.0000      -2.297802       -62.5264
  25   1.0000      -2.296816       -62.4995
  26   1.0000      -2.296357       -62.4870
  27   1.0000      -2.295998       -62.4773
  28   1.0000      -2.295407       -62.4612
  29   1.0000      -2.295370       -62.4602
  30   1.0000      -2.295165       -62.4546
  31   1.0000      -2.295151       -62.4542
  32   1.0000      -2.292532       -62.3830
  33   1.0000      -2.292266       -62.3757
  34   1.0000      -2.291483       -62.3544
  35   1.0000      -2.291409       -62.3524
  36   1.0000      -2.290842       -62.3370
  37   1.0000      -2.289860       -62.3103
  38   1.0000      -2.288193       -62.2649
  39   1.0000      -2.288147       -62.2636
  40   1.0000      -2.287909       -62.2572
  41   1.0000      -2.287897       -62.2569
  42   1.0000      -2.286976       -62.2318
  43   1.0000      -2.284163       -62.1552
  44   1.0000      -2.283375       -62.1338
  45   1.0000      -2.283061       -62.1253
  46   1.0000      -1.710834       -46.5542
  47   1.0000      -1.702317       -46.3224
  48   1.0000      -1.697059       -46.1793
  49   1.0000      -0.413191       -11.2435
  50   1.0000      -0.373476       -10.1628
  51   1.0000      -0.371791       -10.1169
  52   1.0000      -0.366592        -9.9755
  53   1.0000      -0.363365        -9.8877
  54   1.0000      -0.356132        -9.6908
  55   1.0000      -0.355569        -9.6755
  56   1.0000      -0.348715        -9.4890
  57   1.0000      -0.345844        -9.4109
  58   1.0000      -0.342939        -9.3319
  59   1.0000      -0.339115        -9.2278
  60   1.0000      -0.335023        -9.1164
  61   1.0000      -0.333896        -9.0858
  62   1.0000      -0.330491        -8.9931
  63   1.0000      -0.329906        -8.9772
  64   1.0000      -0.327366        -8.9081
  65   1.0000      -0.326644        -8.8884
  66   1.0000      -0.323452        -8.8016
  67   1.0000      -0.322558        -8.7772
  68   1.0000      -0.322242        -8.7686
  69   1.0000      -0.319266        -8.6877
  70   1.0000      -0.315297        -8.5797
  71   1.0000      -0.308379        -8.3914
  72   1.0000      -0.303816        -8.2673
  73   1.0000      -0.302548        -8.2327
  74   1.0000      -0.301974        -8.2171
  75   1.0000      -0.297051        -8.0832
  76   1.0000      -0.296701        -8.0736
  77   1.0000      -0.290574        -7.9069
  78   1.0000      -0.288375        -7.8471
  79   1.0000      -0.282199        -7.6790
  80   1.0000      -0.281143        -7.6503
  81   1.0000      -0.280805        -7.6411
  82   1.0000      -0.279364        -7.6019
  83   1.0000      -0.273771        -7.4497
  84   1.0000      -0.272804        -7.4234
  85   1.0000      -0.272627        -7.4186
  86   1.0000      -0.270627        -7.3641
  87   1.0000      -0.268965        -7.3189
  88   1.0000      -0.267046        -7.2667
  89   1.0000      -0.264385        -7.1943
  90   1.0000      -0.263720        -7.1762
  91   1.0000      -0.261210        -7.1079
  92   1.0000      -0.261136        -7.1059
  93   1.0000      -0.254617        -6.9285
  94   1.0000      -0.252989        -6.8842
  95   1.0000      -0.251642        -6.8475
  96   1.0000      -0.251100        -6.8328
  97   1.0000      -0.249002        -6.7757
  98   1.0000      -0.245757        -6.6874
  99   1.0000      -0.244397        -6.6504
 100   1.0000      -0.243325        -6.6212
 101   1.0000      -0.241253        -6.5648
 102   1.0000      -0.237962        -6.4753
 103   1.0000      -0.192613        -5.2413
 104   1.0000      -0.191032        -5.1983
 105   1.0000      -0.183060        -4.9813
 106   0.0000      -0.153756        -4.1839
 107   0.0000      -0.147591        -4.0162
 108   0.0000      -0.103835        -2.8255
 109   0.0000      -0.100260        -2.7282
 110   0.0000      -0.088663        -2.4127

MULLIKEN ATOMIC CHARGES AND SPIN POPULATIONS
--------------------------------------------
   0 Au:    0.270503   -0.151644
   1 Au:    0.391905   -0.111176
   2 Au:    0.391671   -0.111391
   3 Au:    0.270385   -0.151507
   4 Au:    0.330864    0.006589
   5 Au:    0.393125   -0.110295
   6 Au:    0.499614   -0.127217
   7 Au:    0.499814   -0.127660
   8 Au:    0.393118   -0.110878
   9 Au:    0.330181    0.007950
  10 Cr:   -3.771180    2.987229
Sum of atomic charges         :    0.0000000

LOEWDIN ATOMIC CHARGES AND SPIN POPULATIONS
-------------------------------------------
   0 Au:    0.114727   -0.157630
   1 Au:    0.130065   -0.107941
   2 Au:    0.129909   -0.108103
   3 Au:    0.114731   -0.157594
   4 Au:    0.117148   -0.047617
   5 Au:    0.130154   -0.107575
   6 Au:    0.080708   -0.126675
   7 Au:    0.080663   -0.126964
   8 Au:    0.129769   -0.108019
   9 Au:    0.117707   -0.046218
  10 Cr:   -1.145582    3.094337

  Mayer bond orders larger than 0.100000
B(  0-Au,  1-Au) :   0.2119 B(  0-Au,  3-Au) :   0.2807 B(  0-Au,  8-Au) :   0.2133
B(  0-Au, 10-Cr) :   0.7284 B(  1-Au,  4-Au) :   0.2824 B(  1-Au,  7-Au) :   0.1436
B(  1-Au, 10-Cr) :   0.7722 B(  2-Au,  3-Au) :   0.2125 B(  2-Au,  4-Au) :   0.2820
B(  2-Au,  6-Au) :   0.1440 B(  2-Au, 10-Cr) :   0.7718 B(  3-Au,  5-Au) :   0.2127
B(  3-Au, 10-Cr) :   0.7283 B(  4-Au,  6-Au) :   0.2248 B(  4-Au,  7-Au) :   0.2245
B(  4-Au, 10-Cr) :   0.3838 B(  5-Au,  6-Au) :   0.1451 B(  5-Au,  9-Au) :   0.2826
B(  5-Au, 10-Cr) :   0.7696 B(  6-Au,  7-Au) :   0.1112 B(  6-Au,  9-Au) :   0.2233
B(  6-Au, 10-Cr) :   0.7098 B(  7-Au,  8-Au) :   0.1458 B(  7-Au,  9-Au) :   0.2228
B(  7-Au, 10-Cr) :   0.7094 B(  8-Au,  9-Au) :   0.2815 B(  8-Au, 10-Cr) :   0.7689
B(  9-Au, 10-Cr) :   0.3857

FINAL SINGLE POINT ENERGY     -2402.873692042876

DIPOLE MOMENT
-------------
                                X             Y             Z
Electronic contribution:      4.25890       8.81011      -5.22455
Nuclear contribution   :     -4.18585      -8.66186       5.13824
                        -----------------------------------------
Total Dipole Moment    :      0.07306       0.14825      -0.08631
                        -----------------------------------------
Magnitude (a.u.)       :      0.18645
Magnitude (Debye)      :      0.47393

Rotational constants in cm-1:     0.001898     0.001827     0.001651
Rotational constants in MHz :    56.887518    54.757265    49.497106

                             ****ORCA TERMINATED NORMALLY****
TOTAL RUN TIME: 0 days 0 hours 38 minutes 51 seconds 63 msec
