                         Program Version 5.0.3 -  RELEASE  -
|  1> %pal nprocs 1 end
|  2>
|  3> !PBE def2-TZVP OPT UNO
|  4> !SLOWCONV KDIIS
|  5>
|  6> %geom maxiter 300 end
|  7>
|  8> *xyzfile 0 4 2.xyz                           ****END OF INPUT****
 Total Charge           Charge          ....    0
 Multiplicity           Mult            ....    4
 Number of Electrons    NEL             ....  215
FINAL SINGLE POINT ENERGY     -2509.021032655291
FINAL SINGLE POINT ENERGY     -2509.022756995464
FINAL SINGLE POINT ENERGY     -2509.024048565208
FINAL SINGLE POINT ENERGY     -2509.024887866842
FINAL SINGLE POINT ENERGY     -2509.025620280194
FINAL SINGLE POINT ENERGY     -2509.026186224678
FINAL SINGLE POINT ENERGY     -2509.026549684902
FINAL SINGLE POINT ENERGY     -2509.026913597834
FINAL SINGLE POINT ENERGY     -2509.027390737836
FINAL SINGLE POINT ENERGY     -2509.028008856927
FINAL SINGLE POINT ENERGY     -2509.031353434187
FINAL SINGLE POINT ENERGY     -2509.031358842873
FINAL SINGLE POINT ENERGY     -2509.031363080614
FINAL SINGLE POINT ENERGY     -2509.031369421739
FINAL SINGLE POINT ENERGY     -2509.031378088273
FINAL SINGLE POINT ENERGY     -2509.031389334640
FINAL SINGLE POINT ENERGY     -2509.031398998416
FINAL SINGLE POINT ENERGY     -2509.031402810079
FINAL SINGLE POINT ENERGY     -2509.031403805926
                    ***********************HURRAY********************

CARTESIAN COORDINATES (ANGSTROEM)
---------------------------------
  Au     7.649390    7.492100    5.040785
  Au     5.374647    8.585141    6.362137
  Au     6.287774    9.786831    8.745811
  Au     7.819984    9.993597    6.385285
  Au     9.722517    6.828016    9.026156
  Au     9.554388    4.108184    8.690628
  Au     9.107798    9.414537    8.858260
  Au     7.116159    5.329925    9.006185
  Au     5.189120    7.159444    8.816486
  Au     8.745533    5.547289    6.495066
  Mn     7.547917    7.614367    7.689538

 Multiplicity           Mult            ....    4
 Number of Electrons    NEL             ....  215
 Basis Dimension        Dim             ....  445

ORBITAL ENERGIES
----------------
                 SPIN UP ORBITALS
  NO   OCC          E(Eh)            E(eV)
   0   1.0000    -234.197372     -6372.8345
   1   1.0000     -26.894098      -731.8256
   2   1.0000     -23.043337      -627.0411
   3   1.0000     -23.043335      -627.0410
   4   1.0000     -23.041778      -626.9987
   5   1.0000      -4.022406      -109.4552
   6   1.0000      -4.022345      -109.4536
   7   1.0000      -4.022309      -109.4526
   8   1.0000      -4.020716      -109.4092
   9   1.0000      -4.020562      -109.4051
  10   1.0000      -4.020536      -109.4043
  11   1.0000      -4.019811      -109.3846
  12   1.0000      -4.019786      -109.3839
  13   1.0000      -4.019778      -109.3837
  14   1.0000      -4.018671      -109.3536
  15   1.0000      -3.099778       -84.3492
  16   1.0000      -2.241744       -61.0010
  17   1.0000      -2.241142       -60.9846
  18   1.0000      -2.241126       -60.9841
  19   1.0000      -2.238409       -60.9102
  20   1.0000      -2.238038       -60.9001
  21   1.0000      -2.236910       -60.8694
  22   1.0000      -2.236904       -60.8693
  23   1.0000      -2.236460       -60.8572
  24   1.0000      -2.236437       -60.8565
  25   1.0000      -2.235805       -60.8393
  26   1.0000      -2.235308       -60.8258
  27   1.0000      -2.235293       -60.8254
  28   1.0000      -2.234586       -60.8062
  29   1.0000      -2.234580       -60.8060
  30   1.0000      -2.234334       -60.7993
  31   1.0000      -2.233406       -60.7741
  32   1.0000      -2.232670       -60.7540
  33   1.0000      -2.232342       -60.7451
  34   1.0000      -2.232322       -60.7446
  35   1.0000      -2.231352       -60.7182
  36   1.0000      -2.230026       -60.6821
  37   1.0000      -2.230013       -60.6817
  38   1.0000      -2.229203       -60.6597
  39   1.0000      -2.229167       -60.6587
  40   1.0000      -2.228926       -60.6522
  41   1.0000      -2.228879       -60.6509
  42   1.0000      -2.228518       -60.6411
  43   1.0000      -2.228012       -60.6273
  44   1.0000      -2.227992       -60.6267
  45   1.0000      -2.227927       -60.6250
  46   1.0000      -2.003471       -54.5172
  47   1.0000      -2.003464       -54.5170
  48   1.0000      -1.999890       -54.4198
  49   1.0000      -0.413059       -11.2399
  50   1.0000      -0.382219       -10.4007
  51   1.0000      -0.363680        -9.8962
  52   1.0000      -0.363592        -9.8939
  53   1.0000      -0.361376        -9.8335
  54   1.0000      -0.359365        -9.7788
  55   1.0000      -0.359276        -9.7764
  56   1.0000      -0.354239        -9.6393
  57   1.0000      -0.338002        -9.1975
  58   1.0000      -0.336264        -9.1502
  59   1.0000      -0.336193        -9.1483
  60   1.0000      -0.328055        -8.9268
  61   1.0000      -0.327957        -8.9242
  62   1.0000      -0.326797        -8.8926
  63   1.0000      -0.320174        -8.7124
  64   1.0000      -0.320144        -8.7116
  65   1.0000      -0.317474        -8.6389
  66   1.0000      -0.317346        -8.6354
  67   1.0000      -0.314925        -8.5695
  68   1.0000      -0.314899        -8.5688
  69   1.0000      -0.313954        -8.5431
  70   1.0000      -0.313235        -8.5235
  71   1.0000      -0.301286        -8.1984
  72   1.0000      -0.301188        -8.1957
  73   1.0000      -0.298801        -8.1308
  74   1.0000      -0.289957        -7.8901
  75   1.0000      -0.286754        -7.8030
  76   1.0000      -0.286710        -7.8018
  77   1.0000      -0.284294        -7.7360
  78   1.0000      -0.279325        -7.6008
  79   1.0000      -0.279267        -7.5992
  80   1.0000      -0.275701        -7.5022
  81   1.0000      -0.275627        -7.5002
  82   1.0000      -0.273763        -7.4495
  83   1.0000      -0.273637        -7.4461
  84   1.0000      -0.273608        -7.4452
  85   1.0000      -0.267074        -7.2675
  86   1.0000      -0.267052        -7.2669
  87   1.0000      -0.266364        -7.2481
  88   1.0000      -0.262995        -7.1565
  89   1.0000      -0.260033        -7.0759
  90   1.0000      -0.259999        -7.0749
  91   1.0000      -0.256022        -6.9667
  92   1.0000      -0.256007        -6.9663
  93   1.0000      -0.255927        -6.9641
  94   1.0000      -0.253448        -6.8967
  95   1.0000      -0.250711        -6.8222
  96   1.0000      -0.248431        -6.7602
  97   1.0000      -0.248385        -6.7589
  98   1.0000      -0.242821        -6.6075
  99   1.0000      -0.242805        -6.6071
 100   1.0000      -0.237706        -6.4683
 101   1.0000      -0.237591        -6.4652
 102   1.0000      -0.237577        -6.4648
 103   1.0000      -0.235288        -6.4025
 104   1.0000      -0.230163        -6.2631
 105   1.0000      -0.230136        -6.2623
 106   1.0000      -0.226570        -6.1653
 107   1.0000      -0.226459        -6.1623
 108   1.0000      -0.200081        -5.4445
 109   0.0000      -0.169905        -4.6234
 110   0.0000      -0.169790        -4.6202
 111   0.0000      -0.132147        -3.5959
 112   0.0000      -0.130529        -3.5519
 113   0.0000      -0.130484        -3.5506

                 SPIN DOWN ORBITALS
  NO   OCC          E(Eh)            E(eV)
   0   1.0000    -234.196648     -6372.8148
   1   1.0000     -26.830785      -730.1028
   2   1.0000     -22.994720      -625.7182
   3   1.0000     -22.994716      -625.7180
   4   1.0000     -22.994715      -625.7180
   5   1.0000      -4.021851      -109.4401
   6   1.0000      -4.021786      -109.4384
   7   1.0000      -4.021751      -109.4374
   8   1.0000      -4.020717      -109.4093
   9   1.0000      -4.020565      -109.4051
  10   1.0000      -4.020541      -109.4045
  11   1.0000      -4.019369      -109.3726
  12   1.0000      -4.019216      -109.3684
  13   1.0000      -4.019189      -109.3677
  14   1.0000      -4.019181      -109.3675
  15   1.0000      -2.944736       -80.1303
  16   1.0000      -2.241210       -60.9864
  17   1.0000      -2.240301       -60.9617
  18   1.0000      -2.240289       -60.9614
  19   1.0000      -2.237655       -60.8897
  20   1.0000      -2.237515       -60.8859
  21   1.0000      -2.236475       -60.8576
  22   1.0000      -2.236464       -60.8573
  23   1.0000      -2.235583       -60.8333
  24   1.0000      -2.235555       -60.8326
  25   1.0000      -2.235100       -60.8202
  26   1.0000      -2.234590       -60.8063
  27   1.0000      -2.234571       -60.8058
  28   1.0000      -2.234030       -60.7911
  29   1.0000      -2.234015       -60.7907
  30   1.0000      -2.234002       -60.7903
  31   1.0000      -2.233741       -60.7832
  32   1.0000      -2.232704       -60.7550
  33   1.0000      -2.232290       -60.7437
  34   1.0000      -2.232269       -60.7431
  35   1.0000      -2.231074       -60.7106
  36   1.0000      -2.230082       -60.6836
  37   1.0000      -2.230069       -60.6833
  38   1.0000      -2.229814       -60.6763
  39   1.0000      -2.229775       -60.6753
  40   1.0000      -2.228864       -60.6505
  41   1.0000      -2.228813       -60.6491
  42   1.0000      -2.228319       -60.6356
  43   1.0000      -2.227658       -60.6177
  44   1.0000      -2.227635       -60.6170
  45   1.0000      -2.227601       -60.6161
  46   1.0000      -1.851613       -50.3849
  47   1.0000      -1.849388       -50.3244
  48   1.0000      -1.849376       -50.3241
  49   1.0000      -0.406383       -11.0582
  50   1.0000      -0.382800       -10.4165
  51   1.0000      -0.360268        -9.8034
  52   1.0000      -0.360164        -9.8006
  53   1.0000      -0.354887        -9.6570
  54   1.0000      -0.354799        -9.6546
  55   1.0000      -0.354729        -9.6527
  56   1.0000      -0.351341        -9.5605
  57   1.0000      -0.339705        -9.2438
  58   1.0000      -0.330348        -8.9892
  59   1.0000      -0.330268        -8.9870
  60   1.0000      -0.326270        -8.8783
  61   1.0000      -0.322602        -8.7784
  62   1.0000      -0.322574        -8.7777
  63   1.0000      -0.319156        -8.6847
  64   1.0000      -0.319063        -8.6822
  65   1.0000      -0.315055        -8.5731
  66   1.0000      -0.315022        -8.5722
  67   1.0000      -0.314968        -8.5707
  68   1.0000      -0.308965        -8.4074
  69   1.0000      -0.307785        -8.3752
  70   1.0000      -0.307657        -8.3718
  71   1.0000      -0.300913        -8.1883
  72   1.0000      -0.300809        -8.1854
  73   1.0000      -0.299324        -8.1450
  74   1.0000      -0.288986        -7.8637
  75   1.0000      -0.287175        -7.8144
  76   1.0000      -0.287138        -7.8134
  77   1.0000      -0.280426        -7.6308
  78   1.0000      -0.279434        -7.6038
  79   1.0000      -0.279388        -7.6025
  80   1.0000      -0.274393        -7.4666
  81   1.0000      -0.274314        -7.4645
  82   1.0000      -0.273505        -7.4425
  83   1.0000      -0.270672        -7.3654
  84   1.0000      -0.270651        -7.3648
  85   1.0000      -0.267972        -7.2919
  86   1.0000      -0.267963        -7.2917
  87   1.0000      -0.266947        -7.2640
  88   1.0000      -0.263578        -7.1723
  89   1.0000      -0.259750        -7.0682
  90   1.0000      -0.259718        -7.0673
  91   1.0000      -0.255885        -6.9630
  92   1.0000      -0.255864        -6.9624
  93   1.0000      -0.255282        -6.9466
  94   1.0000      -0.253246        -6.8912
  95   1.0000      -0.252700        -6.8763
  96   1.0000      -0.247949        -6.7470
  97   1.0000      -0.247915        -6.7461
  98   1.0000      -0.237903        -6.4737
  99   1.0000      -0.237856        -6.4724
 100   1.0000      -0.236547        -6.4368
 101   1.0000      -0.234900        -6.3920
 102   1.0000      -0.234786        -6.3888
 103   1.0000      -0.209270        -5.6945
 104   1.0000      -0.190415        -5.1815
 105   1.0000      -0.190340        -5.1794
 106   0.0000      -0.146948        -3.9987
 107   0.0000      -0.146905        -3.9975
 108   0.0000      -0.140378        -3.8199
 109   0.0000      -0.123133        -3.3506
 110   0.0000      -0.123106        -3.3499

MULLIKEN ATOMIC CHARGES AND SPIN POPULATIONS
--------------------------------------------
   0 Au:    0.237654    0.012921
   1 Au:    0.230686   -0.164203
   2 Au:    0.230743   -0.164451
   3 Au:    0.230502   -0.164209
   4 Au:    0.079455   -0.179602
   5 Au:    0.325442    0.032379
   6 Au:    0.237774    0.012902
   7 Au:    0.079358   -0.180079
   8 Au:    0.237740    0.012801
   9 Au:    0.080190   -0.179779
  10 Mn:   -1.969544    3.961319
Sum of atomic charges         :   -0.0000000

LOEWDIN ATOMIC CHARGES AND SPIN POPULATIONS
-------------------------------------------
   0 Au:    0.093805   -0.054789
   1 Au:    0.034340   -0.129103
   2 Au:    0.034484   -0.129255
   3 Au:    0.034197   -0.129198
   4 Au:    0.015324   -0.091053
   5 Au:    0.076926   -0.035087
   6 Au:    0.093816   -0.054849
   7 Au:    0.015316   -0.091320
   8 Au:    0.093798   -0.055051
   9 Au:    0.015266   -0.091348
  10 Mn:   -0.507273    3.861054

  Mayer bond orders larger than 0.100000
B(  0-Au,  1-Au) :   0.1809 B(  0-Au,  2-Au) :   0.1048 B(  0-Au,  3-Au) :   0.1827
B(  0-Au,  9-Au) :   0.3806 B(  0-Au, 10-Mn) :   0.5411 B(  1-Au,  2-Au) :   0.2164
B(  1-Au,  3-Au) :   0.2168 B(  1-Au,  6-Au) :   0.1048 B(  1-Au,  8-Au) :   0.1825
B(  1-Au, 10-Mn) :   0.5093 B(  2-Au,  3-Au) :   0.2166 B(  2-Au,  6-Au) :   0.1817
B(  2-Au,  8-Au) :   0.1806 B(  2-Au, 10-Mn) :   0.5100 B(  3-Au,  6-Au) :   0.1812
B(  3-Au,  8-Au) :   0.1048 B(  3-Au, 10-Mn) :   0.5084 B(  4-Au,  5-Au) :   0.3551
B(  4-Au,  6-Au) :   0.3810 B(  4-Au,  7-Au) :   0.1097 B(  4-Au,  9-Au) :   0.1111
B(  4-Au, 10-Mn) :   0.5955 B(  5-Au,  7-Au) :   0.3553 B(  5-Au,  9-Au) :   0.3543
B(  5-Au, 10-Mn) :   0.1136 B(  6-Au, 10-Mn) :   0.5415 B(  7-Au,  8-Au) :   0.3811
B(  7-Au,  9-Au) :   0.1109 B(  7-Au, 10-Mn) :   0.5949 B(  8-Au, 10-Mn) :   0.5413
B(  9-Au, 10-Mn) :   0.5955

FINAL SINGLE POINT ENERGY     -2509.031404440364

DIPOLE MOMENT
-------------
                                X             Y             Z
Electronic contribution:      3.94285      -6.87989       1.92557
Nuclear contribution   :     -3.94102       6.87638      -1.92468
                        -----------------------------------------
Total Dipole Moment    :      0.00183      -0.00352       0.00089
                        -----------------------------------------
Magnitude (a.u.)       :      0.00406
Magnitude (Debye)      :      0.01032

Rotational constants in cm-1:     0.002289     0.001360     0.001359
Rotational constants in MHz :    68.609802    40.780020    40.746700

                             ****ORCA TERMINATED NORMALLY****
TOTAL RUN TIME: 0 days 3 hours 40 minutes 10 seconds 747 msec
