                         Program Version 5.0.3 -  RELEASE  -
|  1> !SC-NEVPT2 def2-TZVP def2-TZVP/C
|  2> !MOREAD RIJCOSX def2/J
|  3> %maxcore 4000
|  4> %moinp "casscf.gbw"
|  5> %pal nprocs 6 end
|  6>
|  7> %casscf
|  8>  mult 5,3
|  9>  bweight 1,1
| 10>  nroots 5,45
| 11>  nel 6
| 12>  norb 5
| 13>  ptsettings
| 14>   d4tpre 1e-14 # default = 1e-10
| 15>   d3tpre 1e-14
| 16>  end
| 17>  rel
| 18>    dosoc true
| 19>    gtensor true
| 20>  end
| 21> end
| 22>
| 23>
| 24> *xyzfile 0 5 pbe.xyz
| 25>
| 26>
| 27>                          ****END OF INPUT****

CARTESIAN COORDINATES (ANGSTROEM)
---------------------------------
  Au     8.529058    6.915375    9.671709
  Au     8.465609    5.098995    7.410940
  Au     7.916520    6.529139    5.045373
  Au     7.635500    9.873369    6.091442
  Au     9.694720    8.628198    4.565777
  Au     9.738556    7.513219    7.137666
  Au    10.321804   10.203529    6.823403
  Au     8.351454    9.563151    8.754315
  Au     6.087105    8.350551    9.837938
  Au     4.326100    7.087755    8.006004
  Au     5.272994    9.688841    7.532837
  Au     5.208635   10.411787    4.795093
  Au     7.095101    8.727271    3.536736
  Au     5.789799    5.210814    6.346584
  Au     5.220906    7.697898    5.346475
  Au     6.228730    5.367573    9.169870
  Fe     6.978626    7.408132    7.488571

 Total Charge           Charge          ....    0
 Multiplicity           Mult            ....    5
 Number of Electrons    NEL             ....  330
 Basis Dimension        Dim             ....  685

ORBITAL ENERGIES
----------------

  NO   OCC          E(Eh)            E(eV)
   0   2.0000    -261.401055     -7113.0843
   1   2.0000     -31.962417      -869.7416
   2   2.0000     -27.443026      -746.7627
   3   2.0000     -27.442337      -746.7439
   4   2.0000     -27.442189      -746.7399
   5   2.0000      -4.725039      -128.5748
   6   2.0000      -4.720532      -128.4522
   7   2.0000      -4.719724      -128.4302
   8   2.0000      -4.715601      -128.3180
   9   2.0000      -4.715470      -128.3145
  10   2.0000      -4.714128      -128.2780
  11   2.0000      -4.713998      -128.2744
  12   2.0000      -4.713722      -128.2669
  13   2.0000      -4.713633      -128.2645
  14   2.0000      -4.713227      -128.2534
  15   2.0000      -4.713180      -128.2521
  16   2.0000      -4.712971      -128.2465
  17   2.0000      -4.712755      -128.2406
  18   2.0000      -4.711756      -128.2134
  19   2.0000      -4.711703      -128.2119
  20   2.0000      -4.710756      -128.1862
  21   2.0000      -4.196311      -114.1874
  22   2.0000      -2.776207       -75.5444
  23   2.0000      -2.775419       -75.5230
  24   2.0000      -2.775119       -75.5148
  25   2.0000      -2.763698       -75.2041
  26   2.0000      -2.762341       -75.1671
  27   2.0000      -2.759625       -75.0932
  28   2.0000      -2.759224       -75.0823
  29   2.0000      -2.758591       -75.0651
  30   2.0000      -2.757307       -75.0301
  31   2.0000      -2.756568       -75.0100
  32   2.0000      -2.756339       -75.0038
  33   2.0000      -2.756018       -74.9951
  34   2.0000      -2.755610       -74.9839
  35   2.0000      -2.754972       -74.9666
  36   2.0000      -2.752892       -74.9100
  37   2.0000      -2.752550       -74.9007
  38   2.0000      -2.752393       -74.8964
  39   2.0000      -2.752241       -74.8923
  40   2.0000      -2.751858       -74.8819
  41   2.0000      -2.751609       -74.8751
  42   2.0000      -2.751484       -74.8717
  43   2.0000      -2.750987       -74.8582
  44   2.0000      -2.750829       -74.8539
  45   2.0000      -2.750283       -74.8390
  46   2.0000      -2.750182       -74.8363
  47   2.0000      -2.749829       -74.8266
  48   2.0000      -2.749652       -74.8218
  49   2.0000      -2.749524       -74.8183
  50   2.0000      -2.749110       -74.8071
  51   2.0000      -2.748919       -74.8019
  52   2.0000      -2.748786       -74.7983
  53   2.0000      -2.748284       -74.7846
  54   2.0000      -2.748235       -74.7833
  55   2.0000      -2.748029       -74.7777
  56   2.0000      -2.747603       -74.7661
  57   2.0000      -2.747534       -74.7642
  58   2.0000      -2.746985       -74.7493
  59   2.0000      -2.746965       -74.7487
  60   2.0000      -2.746925       -74.7476
  61   2.0000      -2.746665       -74.7406
  62   2.0000      -2.746125       -74.7259
  63   2.0000      -2.745804       -74.7171
  64   2.0000      -2.745541       -74.7100
  65   2.0000      -2.745436       -74.7071
  66   2.0000      -2.745394       -74.7060
  67   2.0000      -2.745313       -74.7038
  68   2.0000      -2.744898       -74.6925
  69   2.0000      -2.744576       -74.6837
  70   2.0000      -2.744418       -74.6794
  71   2.0000      -2.743402       -74.6518
  72   2.0000      -2.743251       -74.6477
  73   2.0000      -0.596396       -16.2288
  74   2.0000      -0.573042       -15.5933
  75   2.0000      -0.561896       -15.2900
  76   2.0000      -0.559106       -15.2140
  77   2.0000      -0.557779       -15.1779
  78   2.0000      -0.553460       -15.0604
  79   2.0000      -0.552208       -15.0263
  80   2.0000      -0.552029       -15.0215
  81   2.0000      -0.551158       -14.9978
  82   2.0000      -0.548109       -14.9148
  83   2.0000      -0.546966       -14.8837
  84   2.0000      -0.546652       -14.8752
  85   2.0000      -0.544867       -14.8266
  86   2.0000      -0.542662       -14.7666
  87   2.0000      -0.542454       -14.7609
  88   2.0000      -0.539773       -14.6880
  89   2.0000      -0.538943       -14.6654
  90   2.0000      -0.538715       -14.6592
  91   2.0000      -0.535578       -14.5738
  92   2.0000      -0.535110       -14.5611
  93   2.0000      -0.533089       -14.5061
  94   2.0000      -0.530735       -14.4420
  95   2.0000      -0.527713       -14.3598
  96   2.0000      -0.523803       -14.2534
  97   2.0000      -0.522689       -14.2231
  98   2.0000      -0.522602       -14.2207
  99   2.0000      -0.516889       -14.0653
 100   2.0000      -0.515069       -14.0157
 101   2.0000      -0.512259       -13.9393
 102   2.0000      -0.508289       -13.8312
 103   2.0000      -0.507523       -13.8104
 104   2.0000      -0.503295       -13.6954
 105   2.0000      -0.500040       -13.6068
 106   2.0000      -0.497783       -13.5454
 107   2.0000      -0.492338       -13.3972
 108   2.0000      -0.490292       -13.3415
 109   2.0000      -0.490050       -13.3349
 110   2.0000      -0.484653       -13.1881
 111   2.0000      -0.482885       -13.1400
 112   2.0000      -0.480586       -13.0774
 113   2.0000      -0.475280       -12.9330
 114   2.0000      -0.472272       -12.8512
 115   2.0000      -0.469904       -12.7867
 116   2.0000      -0.469461       -12.7747
 117   2.0000      -0.466737       -12.7006
 118   2.0000      -0.464389       -12.6367
 119   2.0000      -0.464269       -12.6334
 120   2.0000      -0.460642       -12.5347
 121   2.0000      -0.460562       -12.5325
 122   2.0000      -0.458396       -12.4736
 123   2.0000      -0.455845       -12.4042
 124   2.0000      -0.454068       -12.3558
 125   2.0000      -0.452836       -12.3223
 126   2.0000      -0.450645       -12.2627
 127   2.0000      -0.450576       -12.2608
 128   2.0000      -0.448919       -12.2157
 129   2.0000      -0.447487       -12.1767
 130   2.0000      -0.447251       -12.1703
 131   2.0000      -0.446867       -12.1599
 132   2.0000      -0.445331       -12.1181
 133   2.0000      -0.442534       -12.0420
 134   2.0000      -0.441251       -12.0071
 135   2.0000      -0.441085       -12.0025
 136   2.0000      -0.439747       -11.9661
 137   2.0000      -0.437028       -11.8921
 138   2.0000      -0.436712       -11.8835
 139   2.0000      -0.435995       -11.8640
 140   2.0000      -0.430846       -11.7239
 141   2.0000      -0.426192       -11.5973
 142   2.0000      -0.424839       -11.5604
 143   2.0000      -0.424449       -11.5499
 144   2.0000      -0.423375       -11.5206
 145   2.0000      -0.423028       -11.5112
 146   2.0000      -0.418663       -11.3924
 147   2.0000      -0.416354       -11.3296
 148   2.0000      -0.411985       -11.2107
 149   2.0000      -0.410688       -11.1754
 150   2.0000      -0.405974       -11.0471
 151   2.0000      -0.403837       -10.9890
 152   2.0000      -0.401010       -10.9120
 153   2.0000      -0.390228       -10.6186
 154   2.0000      -0.387674       -10.5491
 155   2.0000      -0.375656       -10.2221
 156   2.0000      -0.356836        -9.7100
 157   2.0000      -0.278280        -7.5724
 158   2.0000      -0.251451        -6.8423
 159   2.0000      -0.242051        -6.5866
 160   2.0000      -0.229243        -6.2380
 161   2.0000      -0.213817        -5.8183
 162   1.2000      -0.272474        -7.4144
 163   1.2000      -0.273985        -7.4555
 164   1.2000      -0.275873        -7.5069
 165   1.2000      -0.269515        -7.3339
 166   1.2000      -0.272745        -7.4218
 167   0.0000      -0.037959        -1.0329
 168   0.0000      -0.014997        -0.4081
 169   0.0000      -0.014781        -0.4022
 170   0.0000      -0.010820        -0.2944
 171   0.0000      -0.004462        -0.1214

MULLIKEN ATOMIC CHARGES AND SPIN DENSITIES
------------------------------------------
   0 Au:    0.348589    0.006451
   1 Au:    0.417385    0.006054
   2 Au:   -0.247403    0.007107
   3 Au:   -1.285640    0.006463
   4 Au:    0.404705    0.002822
   5 Au:   -0.407223    0.008906
   6 Au:    0.613859    0.003037
   7 Au:    0.135952    0.006529
   8 Au:    0.437543    0.005554
   9 Au:    0.348235    0.006469
  10 Au:    0.136460    0.006557
  11 Au:    0.614117    0.003041
  12 Au:    0.403679    0.002822
  13 Au:    0.417002    0.006070
  14 Au:   -0.405874    0.008880
  15 Au:    0.173180    0.005947
  16 Fe:   -2.104564    2.907292
Sum of atomic charges       :    0.0000000

LOEWDIN ATOMIC CHARGES AND SPIN DENSITIES
-----------------------------------------
   0 Au:    0.045700    0.008424
   1 Au:    0.054893    0.008002
   2 Au:   -0.049755    0.009055
   3 Au:   -0.202371    0.008797
   4 Au:    0.067465    0.003681
   5 Au:   -0.121352    0.010269
   6 Au:    0.173092    0.004057
   7 Au:   -0.023118    0.008032
   8 Au:    0.065602    0.007758
   9 Au:    0.045985    0.008438
  10 Au:   -0.023006    0.008065
  11 Au:    0.172912    0.004060
  12 Au:    0.066709    0.003685
  13 Au:    0.054882    0.008024
  14 Au:   -0.121325    0.010249
  15 Au:    0.044084    0.007578
  16 Fe:   -0.250399    2.881827

  Mayer bond orders larger than 0.100000
B(  0-Au,  5-Au) :   0.2098 B(  0-Au,  7-Au) :   0.1760 B(  0-Au,  8-Au) :   0.1211
B(  0-Au, 15-Au) :   0.1335 B(  0-Au, 16-Fe) :   0.3432 B(  1-Au,  2-Au) :   0.1803
B(  1-Au,  5-Au) :   0.2633 B(  1-Au, 13-Au) :   0.1066 B(  1-Au, 15-Au) :   0.1796
B(  1-Au, 16-Fe) :   0.3369 B(  2-Au,  3-Au) :   0.1122 B(  2-Au,  4-Au) :   0.2738
B(  2-Au,  5-Au) :   0.1499 B(  2-Au, 12-Au) :   0.2743 B(  2-Au, 13-Au) :   0.1793
B(  2-Au, 14-Au) :   0.1481 B(  2-Au, 16-Fe) :   0.4622 B(  3-Au,  4-Au) :   0.2377
B(  3-Au,  5-Au) :   0.3135 B(  3-Au,  6-Au) :   0.2823 B(  3-Au,  7-Au) :   0.2830
B(  3-Au, 10-Au) :   0.2841 B(  3-Au, 11-Au) :   0.2825 B(  3-Au, 12-Au) :   0.2372
B(  3-Au, 14-Au) :   0.3128 B(  3-Au, 16-Fe) :   0.2148 B(  4-Au,  5-Au) :   0.2038
B(  4-Au, 12-Au) :   0.1871 B(  5-Au,  6-Au) :   0.2018 B(  5-Au,  7-Au) :   0.1178
B(  5-Au, 16-Fe) :   0.4251 B(  6-Au,  7-Au) :   0.1482 B(  7-Au,  8-Au) :   0.1880
B(  7-Au, 16-Fe) :   0.4271 B(  8-Au,  9-Au) :   0.1208 B(  8-Au, 10-Au) :   0.1878
B(  8-Au, 16-Fe) :   0.3607 B(  9-Au, 10-Au) :   0.1757 B(  9-Au, 14-Au) :   0.2093
B(  9-Au, 15-Au) :   0.1331 B(  9-Au, 16-Fe) :   0.3442 B( 10-Au, 11-Au) :   0.1481
B( 10-Au, 14-Au) :   0.1178 B( 10-Au, 16-Fe) :   0.4274 B( 11-Au, 14-Au) :   0.2024
B( 12-Au, 14-Au) :   0.2040 B( 13-Au, 14-Au) :   0.2639 B( 13-Au, 15-Au) :   0.1779
B( 13-Au, 16-Fe) :   0.3374 B( 14-Au, 16-Fe) :   0.4243 B( 15-Au, 16-Fe) :   0.3825

FINAL SINGLE POINT ENERGY     -3427.445510861012

DIPOLE MOMENT
-------------
                                X             Y             Z
Electronic contribution:     10.22304      20.47499     -23.54552
Nuclear contribution   :    -10.10566     -19.94388      23.31104
                        -----------------------------------------
Total Dipole Moment    :      0.11737       0.53110      -0.23449
                        -----------------------------------------
Magnitude (a.u.)       :      0.59231
Magnitude (Debye)      :      1.50554

Rotational constants in cm-1:     0.000965     0.000822     0.000732
Rotational constants in MHz :    28.920616    24.632285    21.932855

                             ****ORCA TERMINATED NORMALLY****
TOTAL RUN TIME: 0 days 2 hours 23 minutes 19 seconds 135 msec
