                         Program Version 5.0.3 -  RELEASE  -
|  1> !RI-B2PLYP def2-TZVP def2-TZVP/C
|  2> !RIJCOSX VERYSLOWCONV
|  3>
|  4> %scf
|  5>   AutoTRAHIter 200
|  6>   maxiter 400
|  7> end
|  8>
|  9>
| 10> %pal nprocs 6 end
| 11>
| 12> *xyzfile 0 6 pbe.xyz
| 13>
| 14> $new_job
| 15>
| 16> !RI-B2PLYP def2-TZVP def2-TZVP/C
| 17> !RIJCOSX VERYSLOWCONV
| 18>
| 19> %scf
| 20>   AutoTRAHIter 200
| 21>   maxiter 400
| 22> end
| 23>
| 24>
| 25> %pal nprocs 6 end
| 26>
| 27> *xyzfile 0 4 pbe.xyz
| 28>
| 29>
| 30>
| 31>
| 32>
| 33>                          ****END OF INPUT****
 Total Charge           Charge          ....    0
 Multiplicity           Mult            ....    6
 Number of Electrons    NEL             ....  253
MP2 TOTAL ENERGY:    -2777.864998812 Eh
FINAL SINGLE POINT ENERGY     -2777.864998811583

CARTESIAN COORDINATES (ANGSTROEM)
---------------------------------
  Au     5.897678    7.610339    6.042581
  Au     6.062699    6.185856    8.330385
  Au     5.873808    8.542046    9.944580
  Au     5.295972   10.301041    7.984259
  Au     6.540299   10.207024    5.516898
  Au     3.862505    7.900125    7.933765
  Au     7.519391   10.761860    9.600274
  Au     8.554684    7.060235    9.549140
  Au     6.566223    6.130730   11.078750
  Au    10.662822    7.233425    7.885847
  Au     8.343150    6.451051    6.665031
  Au     9.867438    9.534381    9.173805
  Mn     7.683684    8.921217    7.641063

 Multiplicity           Mult            ....    4
 Number of Electrons    NEL             ....  253
 Basis Dimension        Dim             ....  525

ORBITAL ENERGIES
----------------
                 SPIN UP ORBITALS
  NO   OCC          E(Eh)            E(eV)
   0   1.0000    -237.636327     -6466.4132
   1   1.0000     -28.138499      -765.6875
   2   1.0000     -24.057280      -654.6319
   3   1.0000     -24.055760      -654.5905
   4   1.0000     -24.055435      -654.5817
   5   1.0000      -4.410391      -120.0128
   6   1.0000      -4.410063      -120.0039
   7   1.0000      -4.409631      -119.9922
   8   1.0000      -4.405333      -119.8752
   9   1.0000      -4.402135      -119.7882
  10   1.0000      -4.400382      -119.7405
  11   1.0000      -4.399301      -119.7111
  12   1.0000      -4.399065      -119.7047
  13   1.0000      -4.392055      -119.5139
  14   1.0000      -4.384529      -119.3091
  15   1.0000      -4.383625      -119.2845
  16   1.0000      -4.382273      -119.2477
  17   1.0000      -3.616838       -98.4192
  18   1.0000      -2.533158       -68.9307
  19   1.0000      -2.531158       -68.8763
  20   1.0000      -2.529314       -68.8261
  21   1.0000      -2.528726       -68.8101
  22   1.0000      -2.527717       -68.7827
  23   1.0000      -2.526633       -68.7532
  24   1.0000      -2.526317       -68.7446
  25   1.0000      -2.525668       -68.7269
  26   1.0000      -2.525227       -68.7149
  27   1.0000      -2.523254       -68.6612
  28   1.0000      -2.523195       -68.6596
  29   1.0000      -2.522781       -68.6484
  30   1.0000      -2.521791       -68.6214
  31   1.0000      -2.520882       -68.5967
  32   1.0000      -2.520631       -68.5898
  33   1.0000      -2.518985       -68.5451
  34   1.0000      -2.518513       -68.5322
  35   1.0000      -2.516768       -68.4847
  36   1.0000      -2.516254       -68.4707
  37   1.0000      -2.515982       -68.4634
  38   1.0000      -2.515306       -68.4450
  39   1.0000      -2.514495       -68.4229
  40   1.0000      -2.513183       -68.3872
  41   1.0000      -2.512048       -68.3563
  42   1.0000      -2.511856       -68.3511
  43   1.0000      -2.506815       -68.2139
  44   1.0000      -2.505723       -68.1842
  45   1.0000      -2.502016       -68.0833
  46   1.0000      -2.501667       -68.0738
  47   1.0000      -2.501381       -68.0660
  48   1.0000      -2.501134       -68.0593
  49   1.0000      -2.500747       -68.0488
  50   1.0000      -2.499590       -68.0173
  51   1.0000      -2.498982       -68.0007
  52   1.0000      -2.497538       -67.9615
  53   1.0000      -2.496486       -67.9328
  54   1.0000      -2.419880       -65.8483
  55   1.0000      -2.417591       -65.7860
  56   1.0000      -2.417206       -65.7755
  57   1.0000      -0.522173       -14.2091
  58   1.0000      -0.520253       -14.1568
  59   1.0000      -0.516503       -14.0548
  60   1.0000      -0.514118       -13.9899
  61   1.0000      -0.513518       -13.9735
  62   1.0000      -0.496162       -13.5012
  63   1.0000      -0.480819       -13.0838
  64   1.0000      -0.470626       -12.8064
  65   1.0000      -0.466911       -12.7053
  66   1.0000      -0.464317       -12.6347
  67   1.0000      -0.461607       -12.5610
  68   1.0000      -0.458945       -12.4885
  69   1.0000      -0.453666       -12.3449
  70   1.0000      -0.450409       -12.2562
  71   1.0000      -0.448986       -12.2175
  72   1.0000      -0.445409       -12.1202
  73   1.0000      -0.443747       -12.0750
  74   1.0000      -0.442265       -12.0347
  75   1.0000      -0.439419       -11.9572
  76   1.0000      -0.438339       -11.9278
  77   1.0000      -0.434686       -11.8284
  78   1.0000      -0.432767       -11.7762
  79   1.0000      -0.430936       -11.7264
  80   1.0000      -0.428301       -11.6547
  81   1.0000      -0.420906       -11.4534
  82   1.0000      -0.419432       -11.4133
  83   1.0000      -0.414424       -11.2771
  84   1.0000      -0.413530       -11.2527
  85   1.0000      -0.411711       -11.2032
  86   1.0000      -0.408417       -11.1136
  87   1.0000      -0.405386       -11.0311
  88   1.0000      -0.402625       -10.9560
  89   1.0000      -0.396532       -10.7902
  90   1.0000      -0.391700       -10.6587
  91   1.0000      -0.389798       -10.6070
  92   1.0000      -0.384569       -10.4647
  93   1.0000      -0.383882       -10.4460
  94   1.0000      -0.382423       -10.4063
  95   1.0000      -0.380718       -10.3599
  96   1.0000      -0.379026       -10.3138
  97   1.0000      -0.378476       -10.2989
  98   1.0000      -0.376642       -10.2490
  99   1.0000      -0.373005       -10.1500
 100   1.0000      -0.371536       -10.1100
 101   1.0000      -0.370889       -10.0924
 102   1.0000      -0.368215       -10.0196
 103   1.0000      -0.367330        -9.9956
 104   1.0000      -0.366823        -9.9817
 105   1.0000      -0.365252        -9.9390
 106   1.0000      -0.363504        -9.8915
 107   1.0000      -0.362238        -9.8570
 108   1.0000      -0.360541        -9.8108
 109   1.0000      -0.359590        -9.7849
 110   1.0000      -0.357152        -9.7186
 111   1.0000      -0.354939        -9.6584
 112   1.0000      -0.353518        -9.6197
 113   1.0000      -0.350840        -9.5468
 114   1.0000      -0.348574        -9.4852
 115   1.0000      -0.346978        -9.4417
 116   1.0000      -0.346125        -9.4186
 117   1.0000      -0.343318        -9.3422
 118   1.0000      -0.340951        -9.2778
 119   1.0000      -0.334053        -9.0900
 120   1.0000      -0.328209        -8.9310
 121   1.0000      -0.320918        -8.7326
 122   1.0000      -0.319266        -8.6877
 123   1.0000      -0.317826        -8.6485
 124   1.0000      -0.299319        -8.1449
 125   1.0000      -0.293797        -7.9946
 126   1.0000      -0.238893        -6.5006
 127   1.0000      -0.220068        -5.9884
 128   0.0000      -0.128639        -3.5004
 129   0.0000      -0.088446        -2.4067
 130   0.0000      -0.079211        -2.1554
 131   0.0000      -0.077453        -2.1076
 132   0.0000      -0.055915        -1.5215

                 SPIN DOWN ORBITALS
  NO   OCC          E(Eh)            E(eV)
   0   1.0000    -237.634324     -6466.3587
   1   1.0000     -28.036841      -762.9212
   2   1.0000     -23.963463      -652.0790
   3   1.0000     -23.962585      -652.0551
   4   1.0000     -23.962528      -652.0535
   5   1.0000      -4.410038      -120.0032
   6   1.0000      -4.409913      -119.9998
   7   1.0000      -4.409619      -119.9918
   8   1.0000      -4.405553      -119.8812
   9   1.0000      -4.402091      -119.7870
  10   1.0000      -4.402008      -119.7847
  11   1.0000      -4.401419      -119.7687
  12   1.0000      -4.399060      -119.7045
  13   1.0000      -4.391124      -119.4885
  14   1.0000      -4.387416      -119.3877
  15   1.0000      -4.384667      -119.3129
  16   1.0000      -4.384042      -119.2959
  17   1.0000      -3.330812       -90.6360
  18   1.0000      -2.532784       -68.9206
  19   1.0000      -2.530601       -68.8611
  20   1.0000      -2.528313       -68.7989
  21   1.0000      -2.527981       -68.7899
  22   1.0000      -2.527390       -68.7738
  23   1.0000      -2.526159       -68.7403
  24   1.0000      -2.525730       -68.7286
  25   1.0000      -2.525120       -68.7120
  26   1.0000      -2.524914       -68.7064
  27   1.0000      -2.524102       -68.6843
  28   1.0000      -2.523097       -68.6570
  29   1.0000      -2.523016       -68.6547
  30   1.0000      -2.522765       -68.6479
  31   1.0000      -2.521733       -68.6198
  32   1.0000      -2.520027       -68.5734
  33   1.0000      -2.519766       -68.5663
  34   1.0000      -2.517652       -68.5088
  35   1.0000      -2.517389       -68.5016
  36   1.0000      -2.516588       -68.4798
  37   1.0000      -2.516204       -68.4694
  38   1.0000      -2.515431       -68.4484
  39   1.0000      -2.514510       -68.4233
  40   1.0000      -2.513829       -68.4048
  41   1.0000      -2.512504       -68.3687
  42   1.0000      -2.509910       -68.2981
  43   1.0000      -2.506246       -68.1984
  44   1.0000      -2.506149       -68.1958
  45   1.0000      -2.504764       -68.1581
  46   1.0000      -2.504259       -68.1443
  47   1.0000      -2.503432       -68.1219
  48   1.0000      -2.503092       -68.1126
  49   1.0000      -2.502034       -68.0838
  50   1.0000      -2.500573       -68.0440
  51   1.0000      -2.500154       -68.0326
  52   1.0000      -2.499040       -68.0023
  53   1.0000      -2.497929       -67.9721
  54   1.0000      -2.092135       -56.9299
  55   1.0000      -2.090566       -56.8872
  56   1.0000      -2.089644       -56.8621
  57   1.0000      -0.500265       -13.6129
  58   1.0000      -0.485512       -13.2115
  59   1.0000      -0.479846       -13.0573
  60   1.0000      -0.473207       -12.8766
  61   1.0000      -0.471683       -12.8351
  62   1.0000      -0.466904       -12.7051
  63   1.0000      -0.465407       -12.6644
  64   1.0000      -0.458686       -12.4815
  65   1.0000      -0.456314       -12.4169
  66   1.0000      -0.454656       -12.3718
  67   1.0000      -0.452939       -12.3251
  68   1.0000      -0.451005       -12.2725
  69   1.0000      -0.448476       -12.2037
  70   1.0000      -0.445635       -12.1263
  71   1.0000      -0.442982       -12.0542
  72   1.0000      -0.439928       -11.9710
  73   1.0000      -0.438515       -11.9326
  74   1.0000      -0.436632       -11.8814
  75   1.0000      -0.434498       -11.8233
  76   1.0000      -0.426187       -11.5971
  77   1.0000      -0.423558       -11.5256
  78   1.0000      -0.421205       -11.4616
  79   1.0000      -0.417855       -11.3704
  80   1.0000      -0.414226       -11.2717
  81   1.0000      -0.412435       -11.2229
  82   1.0000      -0.407452       -11.0873
  83   1.0000      -0.405882       -11.0446
  84   1.0000      -0.401889       -10.9360
  85   1.0000      -0.398465       -10.8428
  86   1.0000      -0.394363       -10.7312
  87   1.0000      -0.392674       -10.6852
  88   1.0000      -0.388829       -10.5806
  89   1.0000      -0.386174       -10.5083
  90   1.0000      -0.382685       -10.4134
  91   1.0000      -0.381724       -10.3873
  92   1.0000      -0.379980       -10.3398
  93   1.0000      -0.379090       -10.3156
  94   1.0000      -0.377729       -10.2785
  95   1.0000      -0.376276       -10.2390
  96   1.0000      -0.373922       -10.1749
  97   1.0000      -0.372833       -10.1453
  98   1.0000      -0.370228       -10.0744
  99   1.0000      -0.368171       -10.0184
 100   1.0000      -0.367192        -9.9918
 101   1.0000      -0.366004        -9.9595
 102   1.0000      -0.364667        -9.9231
 103   1.0000      -0.363337        -9.8869
 104   1.0000      -0.362178        -9.8554
 105   1.0000      -0.359274        -9.7763
 106   1.0000      -0.357026        -9.7152
 107   1.0000      -0.355825        -9.6825
 108   1.0000      -0.353621        -9.6225
 109   1.0000      -0.352067        -9.5802
 110   1.0000      -0.349748        -9.5171
 111   1.0000      -0.347680        -9.4609
 112   1.0000      -0.345328        -9.3968
 113   1.0000      -0.342828        -9.3288
 114   1.0000      -0.339463        -9.2372
 115   1.0000      -0.335662        -9.1338
 116   1.0000      -0.328995        -8.9524
 117   1.0000      -0.324725        -8.8362
 118   1.0000      -0.320891        -8.7319
 119   1.0000      -0.311596        -8.4790
 120   1.0000      -0.305906        -8.3241
 121   1.0000      -0.247130        -6.7248
 122   1.0000      -0.232876        -6.3369
 123   1.0000      -0.228173        -6.2089
 124   1.0000      -0.171473        -4.6660
 125   0.0000      -0.095838        -2.6079
 126   0.0000      -0.081488        -2.2174
 127   0.0000      -0.066284        -1.8037
 128   0.0000      -0.061273        -1.6673
 129   0.0000      -0.046038        -1.2528

MULLIKEN ATOMIC CHARGES AND SPIN POPULATIONS
--------------------------------------------
   0 Au:    0.147004   -0.083506
   1 Au:   -0.045397   -0.035625
   2 Au:   -0.207893   -0.087172
   3 Au:    0.226234   -0.076545
   4 Au:    0.156812    0.028698
   5 Au:    0.143759   -0.050926
   6 Au:    0.111739   -0.065760
   7 Au:   -0.712003    0.016938
   8 Au:    0.477856   -0.342001
   9 Au:    0.313139   -0.314981
  10 Au:    0.048638   -0.290196
  11 Au:    0.245087   -0.392305
  12 Mn:   -0.904975    4.693383
Sum of atomic charges         :    0.0000000

LOEWDIN ATOMIC CHARGES AND SPIN POPULATIONS
-------------------------------------------
   0 Au:   -0.042642   -0.051883
   1 Au:   -0.077018   -0.077023
   2 Au:   -0.103036   -0.095837
   3 Au:   -0.036685   -0.048785
   4 Au:    0.093711    0.010143
   5 Au:    0.078345   -0.076069
   6 Au:    0.079730   -0.155376
   7 Au:   -0.155544   -0.102403
   8 Au:    0.102438   -0.235377
   9 Au:    0.039347   -0.296492
  10 Au:    0.012208   -0.202566
  11 Au:    0.030177   -0.261257
  12 Mn:   -0.021030    4.592926

  Mayer bond orders larger than 0.100000
B(  0-Au,  1-Au) :   0.3763 B(  0-Au,  3-Au) :   0.1031 B(  0-Au,  4-Au) :   0.2164
B(  0-Au,  5-Au) :   0.2562 B(  0-Au, 10-Au) :   0.2427 B(  0-Au, 12-Mn) :   0.4511
B(  1-Au,  2-Au) :   0.2952 B(  1-Au,  5-Au) :   0.2284 B(  1-Au,  7-Au) :   0.2801
B(  1-Au,  8-Au) :   0.2342 B(  1-Au, 10-Au) :   0.2663 B(  1-Au, 12-Mn) :   0.1576
B(  2-Au,  3-Au) :   0.3549 B(  2-Au,  5-Au) :   0.2518 B(  2-Au,  6-Au) :   0.3116
B(  2-Au,  7-Au) :   0.2559 B(  2-Au,  8-Au) :   0.3275 B(  2-Au, 12-Mn) :   0.2508
B(  3-Au,  4-Au) :   0.2153 B(  3-Au,  5-Au) :   0.3182 B(  3-Au,  6-Au) :   0.1444
B(  3-Au, 12-Mn) :   0.3434 B(  4-Au, 12-Mn) :   0.5321 B(  6-Au, 11-Au) :   0.2694
B(  6-Au, 12-Mn) :   0.5218 B(  7-Au,  8-Au) :   0.3170 B(  7-Au,  9-Au) :   0.3664
B(  7-Au, 11-Au) :   0.2053 B(  7-Au, 12-Mn) :   0.5264 B(  9-Au, 10-Au) :   0.3314
B(  9-Au, 11-Au) :   0.2315 B(  9-Au, 12-Mn) :   0.1045 B( 10-Au, 12-Mn) :   0.4214
B( 11-Au, 12-Mn) :   0.3757

MP2 TOTAL ENERGY:    -2777.825843168 Eh
FINAL SINGLE POINT ENERGY     -2777.825843167671

DIPOLE MOMENT
-------------
                                X             Y             Z
Electronic contribution:    -21.82907     -27.29006      24.15332
Nuclear contribution   :     21.70079      27.70071     -24.29308
                        -----------------------------------------
Total Dipole Moment    :     -0.12828       0.41065      -0.13976
                        -----------------------------------------
Magnitude (a.u.)       :      0.45235
Magnitude (Debye)      :      1.14978

Rotational constants in cm-1:     0.001439     0.001195     0.001106
Rotational constants in MHz :    43.135283    35.817868    33.169216

                             ****ORCA TERMINATED NORMALLY****
TOTAL RUN TIME: 0 days 0 hours 38 minutes 13 seconds 536 msec
