                         Program Version 5.0.3 -  RELEASE  -
|  1> !PBE def2-TZVP VERYSLOWCONV
|  2> !KDIIS
|  3>
|  4> %scf
|  5>   AutoTRAHIter 200
|  6>   maxiter 400
|  7> end
|  8>
|  9>
| 10> %pal nprocs 6 end
| 11>
| 12> *xyzfile 0 6 pbe.xyz
| 13>
| 14> $new_job
| 15>
| 16> !PBE def2-TZVP VERYSLOWCONV
| 17> !KDIIS
| 18>
| 19> %scf
| 20>   AutoTRAHIter 200
| 21>   maxiter 400
| 22> end
| 23>
| 24>
| 25> %pal nprocs 6 end
| 26>
| 27> *xyzfile 0 4 pbe.xyz
| 28>
| 29>
| 30>
| 31>
| 32>
| 33>                          ****END OF INPUT****
 Total Charge           Charge          ....    0
 Multiplicity           Mult            ....    6
 Number of Electrons    NEL             ....  253
FINAL SINGLE POINT ENERGY     -2780.694169257609

CARTESIAN COORDINATES (ANGSTROEM)
---------------------------------
  Au     5.897678    7.610339    6.042581
  Au     6.062699    6.185856    8.330385
  Au     5.873808    8.542046    9.944580
  Au     5.295972   10.301041    7.984259
  Au     6.540299   10.207024    5.516898
  Au     3.862505    7.900125    7.933765
  Au     7.519391   10.761860    9.600274
  Au     8.554684    7.060235    9.549140
  Au     6.566223    6.130730   11.078750
  Au    10.662822    7.233425    7.885847
  Au     8.343150    6.451051    6.665031
  Au     9.867438    9.534381    9.173805
  Mn     7.683684    8.921217    7.641063

 Multiplicity           Mult            ....    4
 Number of Electrons    NEL             ....  253
 Basis Dimension        Dim             ....  525

ORBITAL ENERGIES
----------------
                 SPIN UP ORBITALS
  NO   OCC          E(Eh)            E(eV)
   0   1.0000    -234.202667     -6372.9786
   1   1.0000     -26.895209      -731.8558
   2   1.0000     -23.046810      -627.1356
   3   1.0000     -23.043012      -627.0322
   4   1.0000     -23.041711      -626.9968
   5   1.0000      -4.035057      -109.7995
   6   1.0000      -4.032726      -109.7361
   7   1.0000      -4.030915      -109.6868
   8   1.0000      -4.030254      -109.6688
   9   1.0000      -4.030172      -109.6665
  10   1.0000      -4.028256      -109.6144
  11   1.0000      -4.026888      -109.5772
  12   1.0000      -4.023770      -109.4924
  13   1.0000      -4.018988      -109.3622
  14   1.0000      -4.017952      -109.3340
  15   1.0000      -4.011509      -109.1587
  16   1.0000      -4.011079      -109.1470
  17   1.0000      -3.104625       -84.4811
  18   1.0000      -2.253474       -61.3201
  19   1.0000      -2.250513       -61.2396
  20   1.0000      -2.247625       -61.1610
  21   1.0000      -2.247037       -61.1450
  22   1.0000      -2.246746       -61.1371
  23   1.0000      -2.245412       -61.1008
  24   1.0000      -2.245319       -61.0982
  25   1.0000      -2.244966       -61.0886
  26   1.0000      -2.244660       -61.0803
  27   1.0000      -2.243748       -61.0555
  28   1.0000      -2.243410       -61.0463
  29   1.0000      -2.242567       -61.0233
  30   1.0000      -2.242282       -61.0156
  31   1.0000      -2.242083       -61.0102
  32   1.0000      -2.241517       -60.9948
  33   1.0000      -2.241169       -60.9853
  34   1.0000      -2.240551       -60.9685
  35   1.0000      -2.239676       -60.9447
  36   1.0000      -2.239055       -60.9278
  37   1.0000      -2.238812       -60.9212
  38   1.0000      -2.238467       -60.9118
  39   1.0000      -2.238145       -60.9030
  40   1.0000      -2.235750       -60.8379
  41   1.0000      -2.234893       -60.8145
  42   1.0000      -2.233530       -60.7775
  43   1.0000      -2.232138       -60.7396
  44   1.0000      -2.230926       -60.7066
  45   1.0000      -2.230310       -60.6898
  46   1.0000      -2.228661       -60.6449
  47   1.0000      -2.228058       -60.6285
  48   1.0000      -2.226424       -60.5841
  49   1.0000      -2.225352       -60.5549
  50   1.0000      -2.224436       -60.5300
  51   1.0000      -2.222449       -60.4759
  52   1.0000      -2.222297       -60.4718
  53   1.0000      -2.221704       -60.4556
  54   1.0000      -2.013826       -54.7990
  55   1.0000      -2.005462       -54.5714
  56   1.0000      -2.002597       -54.4934
  57   1.0000      -0.423089       -11.5129
  58   1.0000      -0.390402       -10.6234
  59   1.0000      -0.383658       -10.4399
  60   1.0000      -0.381667       -10.3857
  61   1.0000      -0.369058       -10.0426
  62   1.0000      -0.364195        -9.9102
  63   1.0000      -0.360849        -9.8192
  64   1.0000      -0.357970        -9.7409
  65   1.0000      -0.355807        -9.6820
  66   1.0000      -0.350433        -9.5358
  67   1.0000      -0.349256        -9.5037
  68   1.0000      -0.346605        -9.4316
  69   1.0000      -0.343184        -9.3385
  70   1.0000      -0.339637        -9.2420
  71   1.0000      -0.338964        -9.2237
  72   1.0000      -0.335642        -9.1333
  73   1.0000      -0.333366        -9.0714
  74   1.0000      -0.331356        -9.0167
  75   1.0000      -0.330219        -8.9857
  76   1.0000      -0.327895        -8.9225
  77   1.0000      -0.319177        -8.6852
  78   1.0000      -0.317555        -8.6411
  79   1.0000      -0.316604        -8.6152
  80   1.0000      -0.313400        -8.5281
  81   1.0000      -0.312711        -8.5093
  82   1.0000      -0.310444        -8.4476
  83   1.0000      -0.307910        -8.3786
  84   1.0000      -0.303448        -8.2572
  85   1.0000      -0.301734        -8.2106
  86   1.0000      -0.299477        -8.1492
  87   1.0000      -0.297337        -8.0909
  88   1.0000      -0.294891        -8.0244
  89   1.0000      -0.289930        -7.8894
  90   1.0000      -0.288021        -7.8374
  91   1.0000      -0.285959        -7.7813
  92   1.0000      -0.283002        -7.7009
  93   1.0000      -0.280560        -7.6344
  94   1.0000      -0.279609        -7.6086
  95   1.0000      -0.277780        -7.5588
  96   1.0000      -0.276262        -7.5175
  97   1.0000      -0.275385        -7.4936
  98   1.0000      -0.274161        -7.4603
  99   1.0000      -0.271628        -7.3914
 100   1.0000      -0.271432        -7.3860
 101   1.0000      -0.268939        -7.3182
 102   1.0000      -0.268203        -7.2982
 103   1.0000      -0.266845        -7.2612
 104   1.0000      -0.264951        -7.2097
 105   1.0000      -0.263826        -7.1791
 106   1.0000      -0.263076        -7.1587
 107   1.0000      -0.259997        -7.0749
 108   1.0000      -0.258009        -7.0208
 109   1.0000      -0.256831        -6.9887
 110   1.0000      -0.255818        -6.9611
 111   1.0000      -0.254156        -6.9159
 112   1.0000      -0.253123        -6.8878
 113   1.0000      -0.251635        -6.8473
 114   1.0000      -0.250014        -6.8032
 115   1.0000      -0.249097        -6.7783
 116   1.0000      -0.247639        -6.7386
 117   1.0000      -0.246800        -6.7158
 118   1.0000      -0.246329        -6.7030
 119   1.0000      -0.243954        -6.6383
 120   1.0000      -0.242411        -6.5963
 121   1.0000      -0.237989        -6.4760
 122   1.0000      -0.237600        -6.4654
 123   1.0000      -0.236989        -6.4488
 124   1.0000      -0.233035        -6.3412
 125   1.0000      -0.229215        -6.2373
 126   1.0000      -0.209160        -5.6915
 127   1.0000      -0.197117        -5.3638
 128   0.0000      -0.189855        -5.1662
 129   0.0000      -0.151611        -4.1256
 130   0.0000      -0.147449        -4.0123
 131   0.0000      -0.139217        -3.7883
 132   0.0000      -0.124392        -3.3849

                 SPIN DOWN ORBITALS
  NO   OCC          E(Eh)            E(eV)
   0   1.0000    -234.201951     -6372.9591
   1   1.0000     -26.829867      -730.0778
   2   1.0000     -22.995736      -625.7458
   3   1.0000     -22.994116      -625.7017
   4   1.0000     -22.992832      -625.6668
   5   1.0000      -4.035643      -109.8154
   6   1.0000      -4.032705      -109.7355
   7   1.0000      -4.030623      -109.6788
   8   1.0000      -4.029992      -109.6616
   9   1.0000      -4.029939      -109.6602
  10   1.0000      -4.028805      -109.6294
  11   1.0000      -4.026786      -109.5744
  12   1.0000      -4.023631      -109.4886
  13   1.0000      -4.019868      -109.3862
  14   1.0000      -4.019273      -109.3700
  15   1.0000      -4.011945      -109.1706
  16   1.0000      -4.011281      -109.1525
  17   1.0000      -2.943776       -80.1042
  18   1.0000      -2.254426       -61.3460
  19   1.0000      -2.250612       -61.2423
  20   1.0000      -2.247471       -61.1568
  21   1.0000      -2.247124       -61.1474
  22   1.0000      -2.246355       -61.1264
  23   1.0000      -2.245435       -61.1014
  24   1.0000      -2.245058       -61.0911
  25   1.0000      -2.244918       -61.0873
  26   1.0000      -2.244458       -61.0748
  27   1.0000      -2.244268       -61.0696
  28   1.0000      -2.243299       -61.0433
  29   1.0000      -2.242663       -61.0260
  30   1.0000      -2.242413       -61.0191
  31   1.0000      -2.241492       -60.9941
  32   1.0000      -2.241449       -60.9929
  33   1.0000      -2.240955       -60.9795
  34   1.0000      -2.240662       -60.9715
  35   1.0000      -2.239872       -60.9500
  36   1.0000      -2.239050       -60.9277
  37   1.0000      -2.238773       -60.9201
  38   1.0000      -2.238504       -60.9128
  39   1.0000      -2.237952       -60.8978
  40   1.0000      -2.236769       -60.8656
  41   1.0000      -2.234988       -60.8171
  42   1.0000      -2.234743       -60.8105
  43   1.0000      -2.232665       -60.7539
  44   1.0000      -2.232141       -60.7397
  45   1.0000      -2.231135       -60.7123
  46   1.0000      -2.229650       -60.6719
  47   1.0000      -2.227422       -60.6112
  48   1.0000      -2.227387       -60.6103
  49   1.0000      -2.226659       -60.5905
  50   1.0000      -2.225252       -60.5522
  51   1.0000      -2.223156       -60.4951
  52   1.0000      -2.222667       -60.4818
  53   1.0000      -2.221233       -60.4428
  54   1.0000      -1.851334       -50.3774
  55   1.0000      -1.849823       -50.3362
  56   1.0000      -1.846790       -50.2537
  57   1.0000      -0.420390       -11.4394
  58   1.0000      -0.390325       -10.6213
  59   1.0000      -0.381959       -10.3936
  60   1.0000      -0.378644       -10.3034
  61   1.0000      -0.367344        -9.9959
  62   1.0000      -0.362578        -9.8663
  63   1.0000      -0.360387        -9.8066
  64   1.0000      -0.356301        -9.6954
  65   1.0000      -0.354236        -9.6393
  66   1.0000      -0.350123        -9.5273
  67   1.0000      -0.348761        -9.4903
  68   1.0000      -0.346454        -9.4275
  69   1.0000      -0.342770        -9.3272
  70   1.0000      -0.339438        -9.2366
  71   1.0000      -0.335989        -9.1427
  72   1.0000      -0.333009        -9.0616
  73   1.0000      -0.332468        -9.0469
  74   1.0000      -0.330600        -8.9961
  75   1.0000      -0.329451        -8.9648
  76   1.0000      -0.326015        -8.8713
  77   1.0000      -0.319694        -8.6993
  78   1.0000      -0.317932        -8.6514
  79   1.0000      -0.316343        -8.6081
  80   1.0000      -0.313390        -8.5278
  81   1.0000      -0.309617        -8.4251
  82   1.0000      -0.306933        -8.3521
  83   1.0000      -0.304504        -8.2860
  84   1.0000      -0.301825        -8.2131
  85   1.0000      -0.299524        -8.1505
  86   1.0000      -0.296968        -8.0809
  87   1.0000      -0.294244        -8.0068
  88   1.0000      -0.292150        -7.9498
  89   1.0000      -0.288198        -7.8423
  90   1.0000      -0.284025        -7.7287
  91   1.0000      -0.283338        -7.7100
  92   1.0000      -0.280626        -7.6362
  93   1.0000      -0.280389        -7.6298
  94   1.0000      -0.279437        -7.6039
  95   1.0000      -0.278138        -7.5685
  96   1.0000      -0.276951        -7.5362
  97   1.0000      -0.275318        -7.4918
  98   1.0000      -0.274469        -7.4687
  99   1.0000      -0.271524        -7.3886
 100   1.0000      -0.269575        -7.3355
 101   1.0000      -0.268663        -7.3107
 102   1.0000      -0.268486        -7.3059
 103   1.0000      -0.267114        -7.2686
 104   1.0000      -0.264922        -7.2089
 105   1.0000      -0.263501        -7.1702
 106   1.0000      -0.261653        -7.1199
 107   1.0000      -0.260744        -7.0952
 108   1.0000      -0.257730        -7.0132
 109   1.0000      -0.256072        -6.9681
 110   1.0000      -0.255604        -6.9553
 111   1.0000      -0.252999        -6.8844
 112   1.0000      -0.251322        -6.8388
 113   1.0000      -0.249976        -6.8022
 114   1.0000      -0.249200        -6.7811
 115   1.0000      -0.247464        -6.7338
 116   1.0000      -0.245815        -6.6890
 117   1.0000      -0.244039        -6.6406
 118   1.0000      -0.240351        -6.5403
 119   1.0000      -0.236673        -6.4402
 120   1.0000      -0.231801        -6.3076
 121   1.0000      -0.214755        -5.8438
 122   1.0000      -0.207659        -5.6507
 123   1.0000      -0.204920        -5.5761
 124   1.0000      -0.159856        -4.3499
 125   0.0000      -0.158315        -4.3080
 126   0.0000      -0.145290        -3.9536
 127   0.0000      -0.139484        -3.7956
 128   0.0000      -0.130087        -3.5399
 129   0.0000      -0.127134        -3.4595

MULLIKEN ATOMIC CHARGES AND SPIN POPULATIONS
--------------------------------------------
   0 Au:    0.105317   -0.100678
   1 Au:   -0.127218   -0.096586
   2 Au:   -0.279658   -0.194851
   3 Au:    0.172632   -0.108266
   4 Au:    0.263323    0.013798
   5 Au:    0.192725   -0.046252
   6 Au:    0.208992   -0.005933
   7 Au:   -0.549487   -0.056253
   8 Au:    0.533864   -0.084305
   9 Au:    0.331156   -0.135448
  10 Au:    0.131108   -0.170698
  11 Au:    0.257552   -0.225621
  12 Mn:   -1.240305    4.211093
Sum of atomic charges         :   -0.0000000

LOEWDIN ATOMIC CHARGES AND SPIN POPULATIONS
-------------------------------------------
   0 Au:   -0.035577   -0.069760
   1 Au:   -0.074495   -0.077090
   2 Au:   -0.099384   -0.118301
   3 Au:   -0.028897   -0.068169
   4 Au:    0.104746   -0.032953
   5 Au:    0.083030   -0.066567
   6 Au:    0.106385   -0.083060
   7 Au:   -0.116607   -0.059701
   8 Au:    0.143505   -0.101362
   9 Au:    0.066112   -0.169127
  10 Au:    0.046934   -0.136379
  11 Au:    0.076039   -0.122647
  12 Mn:   -0.271793    4.105115

  Mayer bond orders larger than 0.100000
B(  0-Au,  1-Au) :   0.3584 B(  0-Au,  3-Au) :   0.1064 B(  0-Au,  4-Au) :   0.2789
B(  0-Au,  5-Au) :   0.2875 B(  0-Au, 10-Au) :   0.2776 B(  0-Au, 12-Mn) :   0.5497
B(  1-Au,  2-Au) :   0.2525 B(  1-Au,  5-Au) :   0.2707 B(  1-Au,  7-Au) :   0.3586
B(  1-Au,  8-Au) :   0.2054 B(  1-Au, 10-Au) :   0.2676 B(  1-Au, 12-Mn) :   0.1923
B(  2-Au,  3-Au) :   0.3106 B(  2-Au,  5-Au) :   0.2840 B(  2-Au,  6-Au) :   0.2945
B(  2-Au,  7-Au) :   0.1787 B(  2-Au,  8-Au) :   0.3730 B(  2-Au, 12-Mn) :   0.3693
B(  3-Au,  4-Au) :   0.2642 B(  3-Au,  5-Au) :   0.3379 B(  3-Au,  6-Au) :   0.1840
B(  3-Au, 12-Mn) :   0.4430 B(  4-Au, 12-Mn) :   0.5230 B(  6-Au, 11-Au) :   0.3071
B(  6-Au, 12-Mn) :   0.5176 B(  7-Au,  8-Au) :   0.4688 B(  7-Au,  9-Au) :   0.4752
B(  7-Au, 10-Au) :   0.1320 B(  7-Au, 11-Au) :   0.2155 B(  7-Au, 12-Mn) :   0.5192
B(  9-Au, 10-Au) :   0.3069 B(  9-Au, 11-Au) :   0.2801 B(  9-Au, 12-Mn) :   0.1375
B( 10-Au, 12-Mn) :   0.4800 B( 11-Au, 12-Mn) :   0.4665

FINAL SINGLE POINT ENERGY     -2780.664410184191

DIPOLE MOMENT
-------------
                                X             Y             Z
Electronic contribution:    -21.54616     -27.68314      24.54822
Nuclear contribution   :     21.70079      27.70071     -24.29308
                        -----------------------------------------
Total Dipole Moment    :      0.15463       0.01757       0.25514
                        -----------------------------------------
Magnitude (a.u.)       :      0.29886
Magnitude (Debye)      :      0.75964

Rotational constants in cm-1:     0.001439     0.001195     0.001106
Rotational constants in MHz :    43.135283    35.817868    33.169216

                             ****ORCA TERMINATED NORMALLY****
TOTAL RUN TIME: 0 days 0 hours 7 minutes 32 seconds 991 msec
