                         Program Version 5.0.3 -  RELEASE  -
|  1> !R2SCAN def2-TZVP VERYSLOWCONV
|  2> !KDIIS
|  3> %scf
|  4>   AutoTRAHIter 200
|  5>   maxiter 400
|  6> end
|  7>
|  8> %pal nprocs 6 end
|  9>
| 10> *xyzfile 0 6 pbe.xyz
| 11>
| 12> $new_job
| 13>
| 14> !R2SCAN def2-TZVP VERYSLOWCONV
| 15> !KDIIS
| 16> %scf
| 17>   AutoTRAHIter 200
| 18>   maxiter 400
| 19> end
| 20>
| 21>
| 22> %pal nprocs 6 end
| 23>
| 24> *xyzfile 0 4 pbe.xyz
| 25>
| 26>
| 27>
| 28>
| 29>
| 30>                          ****END OF INPUT****
 Total Charge           Charge          ....    0
 Multiplicity           Mult            ....    6
 Number of Electrons    NEL             ....  253
FINAL SINGLE POINT ENERGY     -2781.148105381612

CARTESIAN COORDINATES (ANGSTROEM)
---------------------------------
  Au     5.897678    7.610339    6.042581
  Au     6.062699    6.185856    8.330385
  Au     5.873808    8.542046    9.944580
  Au     5.295972   10.301041    7.984259
  Au     6.540299   10.207024    5.516898
  Au     3.862505    7.900125    7.933765
  Au     7.519391   10.761860    9.600274
  Au     8.554684    7.060235    9.549140
  Au     6.566223    6.130730   11.078750
  Au    10.662822    7.233425    7.885847
  Au     8.343150    6.451051    6.665031
  Au     9.867438    9.534381    9.173805
  Mn     7.683684    8.921217    7.641063

 Multiplicity           Mult            ....    4
 Number of Electrons    NEL             ....  253
 Basis Dimension        Dim             ....  525

ORBITAL ENERGIES
----------------
                 SPIN UP ORBITALS
  NO   OCC          E(Eh)            E(eV)
   0   1.0000    -235.049397     -6396.0193
   1   1.0000     -27.226931      -740.8825
   2   1.0000     -23.275898      -633.3694
   3   1.0000     -23.272765      -633.2841
   4   1.0000     -23.272198      -633.2687
   5   1.0000      -4.124436      -112.2316
   6   1.0000      -4.124234      -112.2261
   7   1.0000      -4.123229      -112.1988
   8   1.0000      -4.122840      -112.1882
   9   1.0000      -4.121478      -112.1511
  10   1.0000      -4.120057      -112.1124
  11   1.0000      -4.119431      -112.0954
  12   1.0000      -4.114834      -111.9703
  13   1.0000      -4.108232      -111.7907
  14   1.0000      -4.107734      -111.7771
  15   1.0000      -4.104905      -111.7001
  16   1.0000      -4.102310      -111.6295
  17   1.0000      -3.249632       -88.4270
  18   1.0000      -2.315397       -63.0051
  19   1.0000      -2.314871       -62.9908
  20   1.0000      -2.312059       -62.9143
  21   1.0000      -2.311442       -62.8975
  22   1.0000      -2.310553       -62.8733
  23   1.0000      -2.310355       -62.8680
  24   1.0000      -2.309979       -62.8577
  25   1.0000      -2.309654       -62.8489
  26   1.0000      -2.309321       -62.8398
  27   1.0000      -2.308240       -62.8104
  28   1.0000      -2.307802       -62.7985
  29   1.0000      -2.307268       -62.7839
  30   1.0000      -2.306938       -62.7750
  31   1.0000      -2.306522       -62.7637
  32   1.0000      -2.306197       -62.7548
  33   1.0000      -2.305806       -62.7442
  34   1.0000      -2.304872       -62.7188
  35   1.0000      -2.304585       -62.7109
  36   1.0000      -2.303215       -62.6737
  37   1.0000      -2.303099       -62.6705
  38   1.0000      -2.302768       -62.6615
  39   1.0000      -2.301870       -62.6371
  40   1.0000      -2.300878       -62.6101
  41   1.0000      -2.297356       -62.5142
  42   1.0000      -2.296046       -62.4786
  43   1.0000      -2.295517       -62.4642
  44   1.0000      -2.294106       -62.4258
  45   1.0000      -2.293449       -62.4079
  46   1.0000      -2.292083       -62.3708
  47   1.0000      -2.290833       -62.3367
  48   1.0000      -2.289265       -62.2941
  49   1.0000      -2.289152       -62.2910
  50   1.0000      -2.288435       -62.2715
  51   1.0000      -2.288359       -62.2694
  52   1.0000      -2.287534       -62.2470
  53   1.0000      -2.286471       -62.2180
  54   1.0000      -2.111207       -57.4489
  55   1.0000      -2.104396       -57.2635
  56   1.0000      -2.102875       -57.2221
  57   1.0000      -0.428727       -11.6663
  58   1.0000      -0.397383       -10.8133
  59   1.0000      -0.392982       -10.6936
  60   1.0000      -0.390731       -10.6323
  61   1.0000      -0.379920       -10.3381
  62   1.0000      -0.375453       -10.2166
  63   1.0000      -0.370622       -10.0851
  64   1.0000      -0.368592       -10.0299
  65   1.0000      -0.366840        -9.9822
  66   1.0000      -0.360682        -9.8147
  67   1.0000      -0.359556        -9.7840
  68   1.0000      -0.356775        -9.7083
  69   1.0000      -0.353884        -9.6297
  70   1.0000      -0.351735        -9.5712
  71   1.0000      -0.349722        -9.5164
  72   1.0000      -0.347133        -9.4460
  73   1.0000      -0.344553        -9.3758
  74   1.0000      -0.342413        -9.3175
  75   1.0000      -0.340002        -9.2519
  76   1.0000      -0.338235        -9.2038
  77   1.0000      -0.330155        -8.9840
  78   1.0000      -0.328158        -8.9296
  79   1.0000      -0.326864        -8.8944
  80   1.0000      -0.325614        -8.8604
  81   1.0000      -0.324123        -8.8198
  82   1.0000      -0.318877        -8.6771
  83   1.0000      -0.317795        -8.6476
  84   1.0000      -0.314130        -8.5479
  85   1.0000      -0.311999        -8.4899
  86   1.0000      -0.310198        -8.4409
  87   1.0000      -0.308228        -8.3873
  88   1.0000      -0.306576        -8.3424
  89   1.0000      -0.300846        -8.1864
  90   1.0000      -0.298582        -8.1248
  91   1.0000      -0.296291        -8.0625
  92   1.0000      -0.291532        -7.9330
  93   1.0000      -0.290888        -7.9155
  94   1.0000      -0.289026        -7.8648
  95   1.0000      -0.286733        -7.8024
  96   1.0000      -0.285842        -7.7782
  97   1.0000      -0.285338        -7.7644
  98   1.0000      -0.284350        -7.7376
  99   1.0000      -0.282194        -7.6789
 100   1.0000      -0.281541        -7.6611
 101   1.0000      -0.279013        -7.5923
 102   1.0000      -0.277713        -7.5569
 103   1.0000      -0.276327        -7.5192
 104   1.0000      -0.275215        -7.4890
 105   1.0000      -0.274954        -7.4819
 106   1.0000      -0.273695        -7.4476
 107   1.0000      -0.271964        -7.4005
 108   1.0000      -0.268496        -7.3061
 109   1.0000      -0.267792        -7.2870
 110   1.0000      -0.267103        -7.2682
 111   1.0000      -0.265462        -7.2236
 112   1.0000      -0.262631        -7.1466
 113   1.0000      -0.261826        -7.1246
 114   1.0000      -0.259631        -7.0649
 115   1.0000      -0.258633        -7.0378
 116   1.0000      -0.257585        -7.0092
 117   1.0000      -0.255817        -6.9611
 118   1.0000      -0.254597        -6.9279
 119   1.0000      -0.253169        -6.8891
 120   1.0000      -0.252084        -6.8595
 121   1.0000      -0.249797        -6.7973
 122   1.0000      -0.245188        -6.6719
 123   1.0000      -0.243607        -6.6289
 124   1.0000      -0.240564        -6.5461
 125   1.0000      -0.236739        -6.4420
 126   1.0000      -0.212604        -5.7852
 127   1.0000      -0.199980        -5.4417
 128   0.0000      -0.189069        -5.1448
 129   0.0000      -0.147708        -4.0193
 130   0.0000      -0.142065        -3.8658
 131   0.0000      -0.135803        -3.6954
 132   0.0000      -0.119911        -3.2629

                 SPIN DOWN ORBITALS
  NO   OCC          E(Eh)            E(eV)
   0   1.0000    -235.048392     -6395.9919
   1   1.0000     -27.138505      -738.4763
   2   1.0000     -23.206723      -631.4870
   3   1.0000     -23.205634      -631.4574
   4   1.0000     -23.205077      -631.4423
   5   1.0000      -4.125801      -112.2688
   6   1.0000      -4.124377      -112.2300
   7   1.0000      -4.122981      -112.1920
   8   1.0000      -4.122623      -112.1823
   9   1.0000      -4.121668      -112.1563
  10   1.0000      -4.120196      -112.1162
  11   1.0000      -4.119958      -112.1097
  12   1.0000      -4.114769      -111.9686
  13   1.0000      -4.109775      -111.8327
  14   1.0000      -4.109515      -111.8256
  15   1.0000      -4.104593      -111.6917
  16   1.0000      -4.103353      -111.6579
  17   1.0000      -3.038038       -82.6692
  18   1.0000      -2.317189       -63.0539
  19   1.0000      -2.315149       -62.9984
  20   1.0000      -2.312140       -62.9165
  21   1.0000      -2.311176       -62.8903
  22   1.0000      -2.310387       -62.8688
  23   1.0000      -2.309946       -62.8568
  24   1.0000      -2.309903       -62.8557
  25   1.0000      -2.309675       -62.8495
  26   1.0000      -2.309419       -62.8425
  27   1.0000      -2.307856       -62.7999
  28   1.0000      -2.307579       -62.7924
  29   1.0000      -2.307444       -62.7888
  30   1.0000      -2.307008       -62.7769
  31   1.0000      -2.306887       -62.7736
  32   1.0000      -2.306229       -62.7557
  33   1.0000      -2.306024       -62.7501
  34   1.0000      -2.305317       -62.7309
  35   1.0000      -2.305078       -62.7244
  36   1.0000      -2.303529       -62.6822
  37   1.0000      -2.302886       -62.6647
  38   1.0000      -2.302734       -62.6606
  39   1.0000      -2.301572       -62.6290
  40   1.0000      -2.300639       -62.6036
  41   1.0000      -2.298972       -62.5582
  42   1.0000      -2.298066       -62.5336
  43   1.0000      -2.296182       -62.4823
  44   1.0000      -2.295540       -62.4648
  45   1.0000      -2.293289       -62.4036
  46   1.0000      -2.293140       -62.3995
  47   1.0000      -2.292132       -62.3721
  48   1.0000      -2.291043       -62.3425
  49   1.0000      -2.290687       -62.3328
  50   1.0000      -2.289328       -62.2958
  51   1.0000      -2.288596       -62.2759
  52   1.0000      -2.287276       -62.2400
  53   1.0000      -2.287027       -62.2332
  54   1.0000      -1.897042       -51.6211
  55   1.0000      -1.895762       -51.5863
  56   1.0000      -1.894365       -51.5483
  57   1.0000      -0.426715       -11.6115
  58   1.0000      -0.397969       -10.8293
  59   1.0000      -0.390569       -10.6279
  60   1.0000      -0.386954       -10.5296
  61   1.0000      -0.376699       -10.2505
  62   1.0000      -0.371656       -10.1133
  63   1.0000      -0.370034       -10.0691
  64   1.0000      -0.366495        -9.9728
  65   1.0000      -0.364393        -9.9156
  66   1.0000      -0.359944        -9.7946
  67   1.0000      -0.359090        -9.7713
  68   1.0000      -0.356300        -9.6954
  69   1.0000      -0.352595        -9.5946
  70   1.0000      -0.349430        -9.5085
  71   1.0000      -0.346662        -9.4332
  72   1.0000      -0.343145        -9.3374
  73   1.0000      -0.343045        -9.3347
  74   1.0000      -0.341624        -9.2961
  75   1.0000      -0.339834        -9.2474
  76   1.0000      -0.335525        -9.1301
  77   1.0000      -0.329389        -8.9631
  78   1.0000      -0.327893        -8.9224
  79   1.0000      -0.325642        -8.8612
  80   1.0000      -0.322315        -8.7706
  81   1.0000      -0.319606        -8.6969
  82   1.0000      -0.316370        -8.6089
  83   1.0000      -0.313726        -8.5369
  84   1.0000      -0.311033        -8.4636
  85   1.0000      -0.308895        -8.4054
  86   1.0000      -0.306362        -8.3365
  87   1.0000      -0.303871        -8.2687
  88   1.0000      -0.301147        -8.1946
  89   1.0000      -0.297208        -8.0874
  90   1.0000      -0.292995        -7.9728
  91   1.0000      -0.292236        -7.9522
  92   1.0000      -0.289845        -7.8871
  93   1.0000      -0.289232        -7.8704
  94   1.0000      -0.288429        -7.8486
  95   1.0000      -0.287125        -7.8131
  96   1.0000      -0.286394        -7.7932
  97   1.0000      -0.284587        -7.7440
  98   1.0000      -0.283761        -7.7215
  99   1.0000      -0.280493        -7.6326
 100   1.0000      -0.278672        -7.5831
 101   1.0000      -0.277877        -7.5614
 102   1.0000      -0.277009        -7.5378
 103   1.0000      -0.275669        -7.5013
 104   1.0000      -0.274310        -7.4643
 105   1.0000      -0.272299        -7.4096
 106   1.0000      -0.270523        -7.3613
 107   1.0000      -0.269399        -7.3307
 108   1.0000      -0.266746        -7.2585
 109   1.0000      -0.264726        -7.2036
 110   1.0000      -0.263826        -7.1791
 111   1.0000      -0.261200        -7.1076
 112   1.0000      -0.259776        -7.0689
 113   1.0000      -0.257969        -7.0197
 114   1.0000      -0.257102        -6.9961
 115   1.0000      -0.255817        -6.9611
 116   1.0000      -0.253573        -6.9001
 117   1.0000      -0.251111        -6.8331
 118   1.0000      -0.247408        -6.7323
 119   1.0000      -0.243773        -6.6334
 120   1.0000      -0.239248        -6.5103
 121   1.0000      -0.218389        -5.9427
 122   1.0000      -0.209943        -5.7129
 123   1.0000      -0.207611        -5.6494
 124   1.0000      -0.158645        -4.3169
 125   0.0000      -0.155551        -4.2328
 126   0.0000      -0.140589        -3.8256
 127   0.0000      -0.131895        -3.5890
 128   0.0000      -0.122148        -3.3238
 129   0.0000      -0.114441        -3.1141

MULLIKEN ATOMIC CHARGES AND SPIN POPULATIONS
--------------------------------------------
   0 Au:    0.114448   -0.102984
   1 Au:   -0.100291   -0.080430
   2 Au:   -0.244058   -0.215337
   3 Au:    0.166843   -0.118866
   4 Au:    0.217983    0.022331
   5 Au:    0.160281   -0.052509
   6 Au:    0.176591    0.012466
   7 Au:   -0.554444   -0.044850
   8 Au:    0.495183   -0.157810
   9 Au:    0.296318   -0.208206
  10 Au:    0.115359   -0.201864
  11 Au:    0.251723   -0.267829
  12 Mn:   -1.095934    4.415887
Sum of atomic charges         :   -0.0000000

LOEWDIN ATOMIC CHARGES AND SPIN POPULATIONS
-------------------------------------------
   0 Au:   -0.037829   -0.071487
   1 Au:   -0.071050   -0.077848
   2 Au:   -0.104585   -0.137731
   3 Au:   -0.031545   -0.070651
   4 Au:    0.094791   -0.026120
   5 Au:    0.079586   -0.072615
   6 Au:    0.102084   -0.081559
   7 Au:   -0.123722   -0.082837
   8 Au:    0.127538   -0.150163
   9 Au:    0.052988   -0.223353
  10 Au:    0.034566   -0.160344
  11 Au:    0.069066   -0.150789
  12 Mn:   -0.191890    4.305498

  Mayer bond orders larger than 0.100000
B(  0-Au,  1-Au) :   0.3584 B(  0-Au,  4-Au) :   0.2662 B(  0-Au,  5-Au) :   0.2758
B(  0-Au, 10-Au) :   0.2833 B(  0-Au, 12-Mn) :   0.5141 B(  1-Au,  2-Au) :   0.2184
B(  1-Au,  5-Au) :   0.2498 B(  1-Au,  7-Au) :   0.3622 B(  1-Au,  8-Au) :   0.1891
B(  1-Au, 10-Au) :   0.2515 B(  1-Au, 12-Mn) :   0.1672 B(  2-Au,  3-Au) :   0.2996
B(  2-Au,  5-Au) :   0.2768 B(  2-Au,  6-Au) :   0.2930 B(  2-Au,  7-Au) :   0.1475
B(  2-Au,  8-Au) :   0.4090 B(  2-Au, 12-Mn) :   0.3054 B(  3-Au,  4-Au) :   0.2470
B(  3-Au,  5-Au) :   0.3314 B(  3-Au,  6-Au) :   0.1638 B(  3-Au, 12-Mn) :   0.4095
B(  4-Au, 12-Mn) :   0.5301 B(  6-Au, 11-Au) :   0.2940 B(  6-Au, 12-Mn) :   0.5276
B(  7-Au,  8-Au) :   0.4263 B(  7-Au,  9-Au) :   0.4394 B(  7-Au, 11-Au) :   0.1862
B(  7-Au, 12-Mn) :   0.5075 B(  9-Au, 10-Au) :   0.3045 B(  9-Au, 11-Au) :   0.2734
B(  9-Au, 12-Mn) :   0.1199 B( 10-Au, 12-Mn) :   0.4723 B( 11-Au, 12-Mn) :   0.4509

FINAL SINGLE POINT ENERGY     -2781.114888987503

DIPOLE MOMENT
-------------
                                X             Y             Z
Electronic contribution:    -21.59239     -27.58395      24.46623
Nuclear contribution   :     21.70079      27.70071     -24.29308
                        -----------------------------------------
Total Dipole Moment    :      0.10840       0.11676       0.17315
                        -----------------------------------------
Magnitude (a.u.)       :      0.23530
Magnitude (Debye)      :      0.59808

Rotational constants in cm-1:     0.001439     0.001195     0.001106
Rotational constants in MHz :    43.135283    35.817868    33.169216

                             ****ORCA TERMINATED NORMALLY****
TOTAL RUN TIME: 0 days 0 hours 12 minutes 8 seconds 188 msec
