                         Program Version 5.0.3 -  RELEASE  -
|  1> !RI-B2PLYP def2-TZVP def2-TZVP/C
|  2> !RIJCOSX VERYSLOWCONV
|  3>
|  4> %scf
|  5>   AutoTRAHIter 200
|  6>   maxiter 400
|  7> end
|  8>
|  9>
| 10> %pal nprocs 6 end
| 11>
| 12> *xyzfile 0 6 pbe.xyz
| 13>
| 14> $new_job
| 15>
| 16> !RI-B2PLYP def2-TZVP def2-TZVP/C
| 17> !RIJCOSX VERYSLOWCONV
| 18>
| 19> %scf
| 20>   AutoTRAHIter 200
| 21>   maxiter 400
| 22> end
| 23>
| 24>
| 25> %pal nprocs 6 end
| 26>
| 27> *xyzfile 0 4 pbe.xyz
| 28>
| 29>
| 30>
| 31>
| 32>
| 33>                          ****END OF INPUT****
 Total Charge           Charge          ....    0
 Multiplicity           Mult            ....    6
 Number of Electrons    NEL             ....  291
MP2 TOTAL ENERGY:    -3049.081469741 Eh
FINAL SINGLE POINT ENERGY     -3049.081469741478

CARTESIAN COORDINATES (ANGSTROEM)
---------------------------------
  Au     7.006202    5.381086    7.248390
  Au     4.645554    6.801607    7.084974
  Au     6.026167    7.316273    9.420751
  Au     6.281735    6.387141    4.794885
  Au     6.484743    8.887791    6.081730
  Au     4.716496    9.409068    8.220544
  Au     9.733695    5.603970    7.107576
  Au     8.766473    7.480575    5.097846
  Au    10.913205    8.111596    6.778954
  Au     8.984397   10.094054    6.141909
  Au     8.259390    5.783542    9.625493
  Au     8.225429    8.573902   10.472234
  Au     9.996786    9.905275    8.782721
  Au     7.270551   10.373440    8.377773
  Mn     8.375766    7.854361    7.843372

 Multiplicity           Mult            ....    4
 Number of Electrons    NEL             ....  291
 Basis Dimension        Dim             ....  605

ORBITAL ENERGIES
----------------
                 SPIN UP ORBITALS
  NO   OCC          E(Eh)            E(eV)
   0   1.0000    -237.628841     -6466.2095
   1   1.0000     -28.129732      -765.4489
   2   1.0000     -24.048191      -654.3845
   3   1.0000     -24.047241      -654.3587
   4   1.0000     -24.047215      -654.3580
   5   1.0000      -4.409785      -119.9964
   6   1.0000      -4.403894      -119.8360
   7   1.0000      -4.402473      -119.7974
   8   1.0000      -4.402112      -119.7876
   9   1.0000      -4.399825      -119.7253
  10   1.0000      -4.399412      -119.7141
  11   1.0000      -4.399054      -119.7043
  12   1.0000      -4.395945      -119.6197
  13   1.0000      -4.395790      -119.6155
  14   1.0000      -4.395581      -119.6099
  15   1.0000      -4.395321      -119.6028
  16   1.0000      -4.391427      -119.4968
  17   1.0000      -4.391110      -119.4882
  18   1.0000      -4.390701      -119.4771
  19   1.0000      -3.608311       -98.1871
  20   1.0000      -2.529628       -68.8347
  21   1.0000      -2.527232       -68.7695
  22   1.0000      -2.525718       -68.7283
  23   1.0000      -2.524374       -68.6917
  24   1.0000      -2.523556       -68.6695
  25   1.0000      -2.522879       -68.6510
  26   1.0000      -2.521792       -68.6215
  27   1.0000      -2.521302       -68.6081
  28   1.0000      -2.520814       -68.5948
  29   1.0000      -2.520300       -68.5809
  30   1.0000      -2.519994       -68.5725
  31   1.0000      -2.519465       -68.5581
  32   1.0000      -2.518577       -68.5340
  33   1.0000      -2.517458       -68.5035
  34   1.0000      -2.517019       -68.4916
  35   1.0000      -2.516980       -68.4905
  36   1.0000      -2.516510       -68.4777
  37   1.0000      -2.516076       -68.4659
  38   1.0000      -2.515709       -68.4559
  39   1.0000      -2.515521       -68.4508
  40   1.0000      -2.515349       -68.4461
  41   1.0000      -2.514950       -68.4353
  42   1.0000      -2.514840       -68.4323
  43   1.0000      -2.513751       -68.4026
  44   1.0000      -2.513693       -68.4011
  45   1.0000      -2.513368       -68.3922
  46   1.0000      -2.512352       -68.3646
  47   1.0000      -2.511293       -68.3358
  48   1.0000      -2.510839       -68.3234
  49   1.0000      -2.510075       -68.3026
  50   1.0000      -2.509757       -68.2939
  51   1.0000      -2.509625       -68.2904
  52   1.0000      -2.509553       -68.2884
  53   1.0000      -2.509352       -68.2829
  54   1.0000      -2.509093       -68.2759
  55   1.0000      -2.509015       -68.2738
  56   1.0000      -2.508784       -68.2675
  57   1.0000      -2.507262       -68.2261
  58   1.0000      -2.507032       -68.2198
  59   1.0000      -2.506484       -68.2049
  60   1.0000      -2.506112       -68.1948
  61   1.0000      -2.505250       -68.1713
  62   1.0000      -2.410787       -65.6008
  63   1.0000      -2.409785       -65.5736
  64   1.0000      -2.409651       -65.5699
  65   1.0000      -0.522635       -14.2216
  66   1.0000      -0.521809       -14.1991
  67   1.0000      -0.515842       -14.0368
  68   1.0000      -0.515018       -14.0144
  69   1.0000      -0.513300       -13.9676
  70   1.0000      -0.498633       -13.5685
  71   1.0000      -0.470915       -12.8142
  72   1.0000      -0.467423       -12.7192
  73   1.0000      -0.465897       -12.6777
  74   1.0000      -0.464351       -12.6356
  75   1.0000      -0.463046       -12.6001
  76   1.0000      -0.460996       -12.5443
  77   1.0000      -0.459130       -12.4936
  78   1.0000      -0.455600       -12.3975
  79   1.0000      -0.453081       -12.3290
  80   1.0000      -0.452970       -12.3259
  81   1.0000      -0.449967       -12.2442
  82   1.0000      -0.449485       -12.2311
  83   1.0000      -0.447303       -12.1717
  84   1.0000      -0.445548       -12.1240
  85   1.0000      -0.441176       -12.0050
  86   1.0000      -0.440601       -11.9894
  87   1.0000      -0.438928       -11.9439
  88   1.0000      -0.437158       -11.8957
  89   1.0000      -0.434716       -11.8292
  90   1.0000      -0.431444       -11.7402
  91   1.0000      -0.425612       -11.5815
  92   1.0000      -0.424344       -11.5470
  93   1.0000      -0.423608       -11.5270
  94   1.0000      -0.422308       -11.4916
  95   1.0000      -0.419248       -11.4083
  96   1.0000      -0.417323       -11.3559
  97   1.0000      -0.414933       -11.2909
  98   1.0000      -0.411470       -11.1967
  99   1.0000      -0.410074       -11.1587
 100   1.0000      -0.405934       -11.0460
 101   1.0000      -0.403310       -10.9746
 102   1.0000      -0.397926       -10.8281
 103   1.0000      -0.393957       -10.7201
 104   1.0000      -0.391045       -10.6409
 105   1.0000      -0.387753       -10.5513
 106   1.0000      -0.387203       -10.5363
 107   1.0000      -0.387172       -10.5355
 108   1.0000      -0.380540       -10.3550
 109   1.0000      -0.379283       -10.3208
 110   1.0000      -0.377009       -10.2589
 111   1.0000      -0.375708       -10.2235
 112   1.0000      -0.374189       -10.1822
 113   1.0000      -0.373347       -10.1593
 114   1.0000      -0.372292       -10.1306
 115   1.0000      -0.371466       -10.1081
 116   1.0000      -0.367958       -10.0126
 117   1.0000      -0.366402        -9.9703
 118   1.0000      -0.366118        -9.9626
 119   1.0000      -0.364977        -9.9315
 120   1.0000      -0.362258        -9.8575
 121   1.0000      -0.361812        -9.8454
 122   1.0000      -0.361536        -9.8379
 123   1.0000      -0.360542        -9.8109
 124   1.0000      -0.358388        -9.7522
 125   1.0000      -0.357018        -9.7149
 126   1.0000      -0.356221        -9.6933
 127   1.0000      -0.354895        -9.6572
 128   1.0000      -0.353892        -9.6299
 129   1.0000      -0.350551        -9.5390
 130   1.0000      -0.348925        -9.4947
 131   1.0000      -0.346478        -9.4282
 132   1.0000      -0.346095        -9.4177
 133   1.0000      -0.343919        -9.3585
 134   1.0000      -0.343064        -9.3352
 135   1.0000      -0.342717        -9.3258
 136   1.0000      -0.333178        -9.0662
 137   1.0000      -0.331805        -9.0289
 138   1.0000      -0.328129        -8.9289
 139   1.0000      -0.327883        -8.9221
 140   1.0000      -0.320164        -8.7121
 141   1.0000      -0.312311        -8.4984
 142   1.0000      -0.311185        -8.4678
 143   1.0000      -0.305259        -8.3065
 144   1.0000      -0.239446        -6.5157
 145   1.0000      -0.227346        -6.1864
 146   1.0000      -0.211225        -5.7477
 147   0.0000      -0.136103        -3.7036
 148   0.0000      -0.100375        -2.7313
 149   0.0000      -0.084015        -2.2862
 150   0.0000      -0.072703        -1.9783
 151   0.0000      -0.062170        -1.6917

                 SPIN DOWN ORBITALS
  NO   OCC          E(Eh)            E(eV)
   0   1.0000    -237.626826     -6466.1547
   1   1.0000     -28.028526      -762.6950
   2   1.0000     -23.954849      -651.8446
   3   1.0000     -23.954506      -651.8352
   4   1.0000     -23.954496      -651.8350
   5   1.0000      -4.410284      -120.0099
   6   1.0000      -4.404817      -119.8612
   7   1.0000      -4.402754      -119.8050
   8   1.0000      -4.402315      -119.7931
   9   1.0000      -4.400233      -119.7364
  10   1.0000      -4.399900      -119.7274
  11   1.0000      -4.399233      -119.7092
  12   1.0000      -4.395794      -119.6156
  13   1.0000      -4.395576      -119.6097
  14   1.0000      -4.395313      -119.6026
  15   1.0000      -4.395133      -119.5976
  16   1.0000      -4.392516      -119.5264
  17   1.0000      -4.392207      -119.5180
  18   1.0000      -4.391715      -119.5046
  19   1.0000      -3.323820       -90.4457
  20   1.0000      -2.528926       -68.8156
  21   1.0000      -2.528081       -68.7926
  22   1.0000      -2.524959       -68.7076
  23   1.0000      -2.524044       -68.6827
  24   1.0000      -2.523616       -68.6711
  25   1.0000      -2.522866       -68.6507
  26   1.0000      -2.521549       -68.6148
  27   1.0000      -2.521274       -68.6074
  28   1.0000      -2.521132       -68.6035
  29   1.0000      -2.520413       -68.5839
  30   1.0000      -2.519575       -68.5611
  31   1.0000      -2.518951       -68.5442
  32   1.0000      -2.518488       -68.5315
  33   1.0000      -2.517513       -68.5050
  34   1.0000      -2.517220       -68.4970
  35   1.0000      -2.517088       -68.4934
  36   1.0000      -2.516187       -68.4689
  37   1.0000      -2.515708       -68.4559
  38   1.0000      -2.515369       -68.4467
  39   1.0000      -2.514873       -68.4332
  40   1.0000      -2.514512       -68.4233
  41   1.0000      -2.514416       -68.4207
  42   1.0000      -2.514229       -68.4157
  43   1.0000      -2.514002       -68.4095
  44   1.0000      -2.513428       -68.3938
  45   1.0000      -2.513156       -68.3865
  46   1.0000      -2.512321       -68.3637
  47   1.0000      -2.511426       -68.3394
  48   1.0000      -2.510958       -68.3266
  49   1.0000      -2.510705       -68.3197
  50   1.0000      -2.509878       -68.2973
  51   1.0000      -2.509874       -68.2972
  52   1.0000      -2.509527       -68.2877
  53   1.0000      -2.509387       -68.2839
  54   1.0000      -2.509341       -68.2826
  55   1.0000      -2.508915       -68.2711
  56   1.0000      -2.508646       -68.2637
  57   1.0000      -2.508440       -68.2581
  58   1.0000      -2.508311       -68.2546
  59   1.0000      -2.507980       -68.2456
  60   1.0000      -2.507472       -68.2318
  61   1.0000      -2.506981       -68.2184
  62   1.0000      -2.084689       -56.7273
  63   1.0000      -2.084508       -56.7223
  64   1.0000      -2.084130       -56.7121
  65   1.0000      -0.508023       -13.8240
  66   1.0000      -0.475976       -12.9520
  67   1.0000      -0.473648       -12.8886
  68   1.0000      -0.472661       -12.8618
  69   1.0000      -0.470490       -12.8027
  70   1.0000      -0.470300       -12.7975
  71   1.0000      -0.463925       -12.6240
  72   1.0000      -0.463776       -12.6200
  73   1.0000      -0.461357       -12.5542
  74   1.0000      -0.460504       -12.5309
  75   1.0000      -0.459706       -12.5092
  76   1.0000      -0.457312       -12.4441
  77   1.0000      -0.454978       -12.3806
  78   1.0000      -0.454275       -12.3615
  79   1.0000      -0.453296       -12.3348
  80   1.0000      -0.451177       -12.2771
  81   1.0000      -0.448847       -12.2137
  82   1.0000      -0.444213       -12.0877
  83   1.0000      -0.442211       -12.0332
  84   1.0000      -0.440368       -11.9830
  85   1.0000      -0.437048       -11.8927
  86   1.0000      -0.429385       -11.6842
  87   1.0000      -0.428656       -11.6643
  88   1.0000      -0.427864       -11.6428
  89   1.0000      -0.426193       -11.5973
  90   1.0000      -0.425604       -11.5813
  91   1.0000      -0.419466       -11.4143
  92   1.0000      -0.417630       -11.3643
  93   1.0000      -0.415722       -11.3124
  94   1.0000      -0.413803       -11.2602
  95   1.0000      -0.411139       -11.1877
  96   1.0000      -0.409089       -11.1319
  97   1.0000      -0.403351       -10.9757
  98   1.0000      -0.400677       -10.9030
  99   1.0000      -0.395601       -10.7648
 100   1.0000      -0.393623       -10.7110
 101   1.0000      -0.391359       -10.6494
 102   1.0000      -0.390528       -10.6268
 103   1.0000      -0.387416       -10.5421
 104   1.0000      -0.385008       -10.4766
 105   1.0000      -0.380267       -10.3476
 106   1.0000      -0.380094       -10.3429
 107   1.0000      -0.377164       -10.2631
 108   1.0000      -0.376045       -10.2327
 109   1.0000      -0.374921       -10.2021
 110   1.0000      -0.373195       -10.1552
 111   1.0000      -0.372788       -10.1441
 112   1.0000      -0.370652       -10.0859
 113   1.0000      -0.369120       -10.0443
 114   1.0000      -0.368793       -10.0354
 115   1.0000      -0.367622       -10.0035
 116   1.0000      -0.364502        -9.9186
 117   1.0000      -0.363252        -9.8846
 118   1.0000      -0.362772        -9.8715
 119   1.0000      -0.361981        -9.8500
 120   1.0000      -0.360725        -9.8158
 121   1.0000      -0.357686        -9.7331
 122   1.0000      -0.357481        -9.7276
 123   1.0000      -0.356142        -9.6911
 124   1.0000      -0.353338        -9.6148
 125   1.0000      -0.351525        -9.5655
 126   1.0000      -0.350030        -9.5248
 127   1.0000      -0.347589        -9.4584
 128   1.0000      -0.345671        -9.4062
 129   1.0000      -0.345023        -9.3885
 130   1.0000      -0.344380        -9.3711
 131   1.0000      -0.335255        -9.1228
 132   1.0000      -0.333468        -9.0741
 133   1.0000      -0.332134        -9.0378
 134   1.0000      -0.330657        -8.9976
 135   1.0000      -0.326386        -8.8814
 136   1.0000      -0.321785        -8.7562
 137   1.0000      -0.317107        -8.6289
 138   1.0000      -0.311437        -8.4746
 139   1.0000      -0.249772        -6.7966
 140   1.0000      -0.237081        -6.4513
 141   1.0000      -0.228537        -6.2188
 142   1.0000      -0.224795        -6.1170
 143   1.0000      -0.187134        -5.0922
 144   0.0000      -0.087839        -2.3902
 145   0.0000      -0.076829        -2.0906
 146   0.0000      -0.072746        -1.9795
 147   0.0000      -0.055014        -1.4970
 148   0.0000      -0.044538        -1.2119

MULLIKEN ATOMIC CHARGES AND SPIN POPULATIONS
--------------------------------------------
   0 Au:   -0.210460   -0.081389
   1 Au:    0.209992    0.007827
   2 Au:   -0.206969   -0.097387
   3 Au:    0.345505   -0.046559
   4 Au:   -0.381382   -0.207130
   5 Au:    0.349889   -0.046781
   6 Au:    0.311705   -0.144756
   7 Au:    0.004435   -0.094749
   8 Au:    0.265257   -0.024143
   9 Au:    0.366046   -0.253898
  10 Au:    0.376125   -0.252477
  11 Au:    0.300366   -0.124947
  12 Au:    0.266965   -0.025504
  13 Au:    0.007152   -0.104592
  14 Mn:   -2.004627    4.496484
Sum of atomic charges         :   -0.0000000

LOEWDIN ATOMIC CHARGES AND SPIN POPULATIONS
-------------------------------------------
   0 Au:   -0.069353   -0.086646
   1 Au:    0.012279   -0.069494
   2 Au:   -0.069475   -0.090180
   3 Au:    0.094676   -0.086529
   4 Au:   -0.081266   -0.127189
   5 Au:    0.097686   -0.088273
   6 Au:    0.066441   -0.133474
   7 Au:   -0.018477   -0.101081
   8 Au:    0.052610   -0.092545
   9 Au:    0.052126   -0.123342
  10 Au:    0.079957   -0.183271
  11 Au:    0.065247   -0.128602
  12 Au:    0.051249   -0.092075
  13 Au:   -0.018680   -0.102737
  14 Mn:   -0.315020    4.505439

  Mayer bond orders larger than 0.100000
B(  0-Au,  1-Au) :   0.2804 B(  0-Au,  2-Au) :   0.1136 B(  0-Au,  3-Au) :   0.2467
B(  0-Au,  6-Au) :   0.2649 B(  0-Au,  7-Au) :   0.1130 B(  0-Au, 10-Au) :   0.2051
B(  0-Au, 14-Mn) :   0.4047 B(  1-Au,  2-Au) :   0.2776 B(  1-Au,  3-Au) :   0.2027
B(  1-Au,  4-Au) :   0.2073 B(  1-Au,  5-Au) :   0.2016 B(  2-Au,  5-Au) :   0.2573
B(  2-Au, 10-Au) :   0.1994 B(  2-Au, 11-Au) :   0.2689 B(  2-Au, 13-Au) :   0.1153
B(  2-Au, 14-Mn) :   0.4053 B(  3-Au,  4-Au) :   0.2994 B(  3-Au,  7-Au) :   0.2744
B(  4-Au,  5-Au) :   0.2951 B(  4-Au,  7-Au) :   0.1997 B(  4-Au,  9-Au) :   0.2162
B(  4-Au, 13-Au) :   0.2061 B(  4-Au, 14-Mn) :   0.3747 B(  5-Au, 13-Au) :   0.2714
B(  6-Au,  8-Au) :   0.1635 B(  6-Au, 10-Au) :   0.1425 B(  6-Au, 14-Mn) :   0.4520
B(  7-Au,  8-Au) :   0.2219 B(  7-Au,  9-Au) :   0.1627 B(  7-Au, 14-Mn) :   0.4307
B(  8-Au,  9-Au) :   0.1272 B(  8-Au, 12-Au) :   0.1748 B(  8-Au, 14-Mn) :   0.4107
B(  9-Au, 12-Au) :   0.1338 B(  9-Au, 13-Au) :   0.1708 B(  9-Au, 14-Mn) :   0.3387
B( 10-Au, 11-Au) :   0.1425 B( 10-Au, 14-Mn) :   0.4041 B( 11-Au, 12-Au) :   0.1610
B( 11-Au, 14-Mn) :   0.4574 B( 12-Au, 13-Au) :   0.2251 B( 12-Au, 14-Mn) :   0.4041
B( 13-Au, 14-Mn) :   0.4267

MP2 TOTAL ENERGY:    -3049.057114765 Eh
FINAL SINGLE POINT ENERGY     -3049.057114764501

DIPOLE MOMENT
-------------
                                X             Y             Z
Electronic contribution:    -25.95779       0.54855     -12.05952
Nuclear contribution   :     25.94152      -0.38655      11.91869
                        -----------------------------------------
Total Dipole Moment    :     -0.01627       0.16199      -0.14083
                        -----------------------------------------
Magnitude (a.u.)       :      0.21527
Magnitude (Debye)      :      0.54716

Rotational constants in cm-1:     0.001136     0.001034     0.000930
Rotational constants in MHz :    34.062748    30.998246    27.876844

                             ****ORCA TERMINATED NORMALLY****
TOTAL RUN TIME: 0 days 0 hours 52 minutes 37 seconds 741 msec
