                         Program Version 5.0.3 -  RELEASE  -
|  1> !PBE def2-TZVP VERYSLOWCONV
|  2> !KDIIS
|  3>
|  4> %scf
|  5>   AutoTRAHIter 200
|  6>   maxiter 400
|  7> end
|  8>
|  9>
| 10> %pal nprocs 6 end
| 11>
| 12> *xyzfile 0 6 pbe.xyz
| 13>
| 14> $new_job
| 15>
| 16> !PBE def2-TZVP VERYSLOWCONV
| 17> !KDIIS
| 18>
| 19> %scf
| 20>   AutoTRAHIter 200
| 21>   maxiter 400
| 22> end
| 23>
| 24>
| 25> %pal nprocs 6 end
| 26>
| 27> *xyzfile 0 4 pbe.xyz
| 28>
| 29>
| 30>
| 31>
| 32>
| 33>                          ****END OF INPUT****
 Total Charge           Charge          ....    0
 Multiplicity           Mult            ....    6
 Number of Electrons    NEL             ....  291
FINAL SINGLE POINT ENERGY     -3052.377499836800

CARTESIAN COORDINATES (ANGSTROEM)
---------------------------------
  Au     7.006202    5.381086    7.248390
  Au     4.645554    6.801607    7.084974
  Au     6.026167    7.316273    9.420751
  Au     6.281735    6.387141    4.794885
  Au     6.484743    8.887791    6.081730
  Au     4.716496    9.409068    8.220544
  Au     9.733695    5.603970    7.107576
  Au     8.766473    7.480575    5.097846
  Au    10.913205    8.111596    6.778954
  Au     8.984397   10.094054    6.141909
  Au     8.259390    5.783542    9.625493
  Au     8.225429    8.573902   10.472234
  Au     9.996786    9.905275    8.782721
  Au     7.270551   10.373440    8.377773
  Mn     8.375766    7.854361    7.843372

 Multiplicity           Mult            ....    4
 Number of Electrons    NEL             ....  291
 Basis Dimension        Dim             ....  605

ORBITAL ENERGIES
----------------
                 SPIN UP ORBITALS
  NO   OCC          E(Eh)            E(eV)
   0   1.0000    -234.206667     -6373.0874
   1   1.0000     -26.900177      -731.9910
   2   1.0000     -23.049165      -627.1997
   3   1.0000     -23.048751      -627.1884
   4   1.0000     -23.048369      -627.1780
   5   1.0000      -4.038694      -109.8984
   6   1.0000      -4.034234      -109.7771
   7   1.0000      -4.033858      -109.7669
   8   1.0000      -4.033556      -109.7586
   9   1.0000      -4.033434      -109.7553
  10   1.0000      -4.029124      -109.6380
  11   1.0000      -4.026286      -109.5608
  12   1.0000      -4.025251      -109.5326
  13   1.0000      -4.025119      -109.5290
  14   1.0000      -4.025065      -109.5276
  15   1.0000      -4.024947      -109.5244
  16   1.0000      -4.021553      -109.4320
  17   1.0000      -4.021341      -109.4263
  18   1.0000      -4.018804      -109.3572
  19   1.0000      -3.109023       -84.6008
  20   1.0000      -2.253625       -61.3242
  21   1.0000      -2.252480       -61.2931
  22   1.0000      -2.251703       -61.2720
  23   1.0000      -2.251093       -61.2554
  24   1.0000      -2.249392       -61.2091
  25   1.0000      -2.249270       -61.2058
  26   1.0000      -2.248900       -61.1957
  27   1.0000      -2.246766       -61.1376
  28   1.0000      -2.246531       -61.1312
  29   1.0000      -2.246514       -61.1308
  30   1.0000      -2.245134       -61.0932
  31   1.0000      -2.244966       -61.0886
  32   1.0000      -2.244582       -61.0782
  33   1.0000      -2.243857       -61.0585
  34   1.0000      -2.243822       -61.0575
  35   1.0000      -2.243721       -61.0548
  36   1.0000      -2.241972       -61.0072
  37   1.0000      -2.241059       -60.9823
  38   1.0000      -2.240839       -60.9763
  39   1.0000      -2.240530       -60.9679
  40   1.0000      -2.239764       -60.9471
  41   1.0000      -2.239708       -60.9456
  42   1.0000      -2.239453       -60.9386
  43   1.0000      -2.238913       -60.9239
  44   1.0000      -2.238779       -60.9203
  45   1.0000      -2.238112       -60.9021
  46   1.0000      -2.238019       -60.8996
  47   1.0000      -2.237766       -60.8927
  48   1.0000      -2.236376       -60.8549
  49   1.0000      -2.236068       -60.8465
  50   1.0000      -2.235354       -60.8271
  51   1.0000      -2.235258       -60.8245
  52   1.0000      -2.235173       -60.8221
  53   1.0000      -2.234981       -60.8169
  54   1.0000      -2.234741       -60.8104
  55   1.0000      -2.234284       -60.7980
  56   1.0000      -2.234097       -60.7929
  57   1.0000      -2.233510       -60.7769
  58   1.0000      -2.232474       -60.7487
  59   1.0000      -2.232090       -60.7383
  60   1.0000      -2.231577       -60.7243
  61   1.0000      -2.228681       -60.6455
  62   1.0000      -2.012883       -54.7733
  63   1.0000      -2.011425       -54.7337
  64   1.0000      -2.010502       -54.7085
  65   1.0000      -0.434425       -11.8213
  66   1.0000      -0.393162       -10.6985
  67   1.0000      -0.387883       -10.5548
  68   1.0000      -0.386072       -10.5055
  69   1.0000      -0.380911       -10.3651
  70   1.0000      -0.374799       -10.1988
  71   1.0000      -0.368499       -10.0274
  72   1.0000      -0.366582        -9.9752
  73   1.0000      -0.364394        -9.9157
  74   1.0000      -0.362259        -9.8576
  75   1.0000      -0.360316        -9.8047
  76   1.0000      -0.354608        -9.6494
  77   1.0000      -0.354497        -9.6464
  78   1.0000      -0.352817        -9.6006
  79   1.0000      -0.349438        -9.5087
  80   1.0000      -0.349343        -9.5061
  81   1.0000      -0.346169        -9.4197
  82   1.0000      -0.344345        -9.3701
  83   1.0000      -0.340747        -9.2722
  84   1.0000      -0.338900        -9.2219
  85   1.0000      -0.335629        -9.1329
  86   1.0000      -0.334340        -9.0978
  87   1.0000      -0.329691        -8.9714
  88   1.0000      -0.327006        -8.8983
  89   1.0000      -0.325787        -8.8651
  90   1.0000      -0.324733        -8.8364
  91   1.0000      -0.324430        -8.8282
  92   1.0000      -0.318319        -8.6619
  93   1.0000      -0.318179        -8.6581
  94   1.0000      -0.316887        -8.6229
  95   1.0000      -0.313459        -8.5297
  96   1.0000      -0.309760        -8.4290
  97   1.0000      -0.306255        -8.3336
  98   1.0000      -0.305641        -8.3169
  99   1.0000      -0.305090        -8.3019
 100   1.0000      -0.302649        -8.2355
 101   1.0000      -0.297512        -8.0957
 102   1.0000      -0.296886        -8.0787
 103   1.0000      -0.291898        -7.9430
 104   1.0000      -0.290232        -7.8976
 105   1.0000      -0.289447        -7.8763
 106   1.0000      -0.287347        -7.8191
 107   1.0000      -0.286936        -7.8079
 108   1.0000      -0.283379        -7.7111
 109   1.0000      -0.282614        -7.6903
 110   1.0000      -0.278512        -7.5787
 111   1.0000      -0.277621        -7.5544
 112   1.0000      -0.277285        -7.5453
 113   1.0000      -0.274875        -7.4797
 114   1.0000      -0.272057        -7.4031
 115   1.0000      -0.272025        -7.4022
 116   1.0000      -0.271622        -7.3912
 117   1.0000      -0.270746        -7.3674
 118   1.0000      -0.270390        -7.3577
 119   1.0000      -0.269167        -7.3244
 120   1.0000      -0.268068        -7.2945
 121   1.0000      -0.264954        -7.2098
 122   1.0000      -0.263971        -7.1830
 123   1.0000      -0.261503        -7.1159
 124   1.0000      -0.258715        -7.0400
 125   1.0000      -0.257488        -7.0066
 126   1.0000      -0.256600        -6.9824
 127   1.0000      -0.255510        -6.9528
 128   1.0000      -0.254778        -6.9329
 129   1.0000      -0.253500        -6.8981
 130   1.0000      -0.252009        -6.8575
 131   1.0000      -0.251592        -6.8462
 132   1.0000      -0.249771        -6.7966
 133   1.0000      -0.248630        -6.7656
 134   1.0000      -0.248456        -6.7608
 135   1.0000      -0.247556        -6.7364
 136   1.0000      -0.245638        -6.6841
 137   1.0000      -0.244454        -6.6519
 138   1.0000      -0.244206        -6.6452
 139   1.0000      -0.243124        -6.6157
 140   1.0000      -0.242472        -6.5980
 141   1.0000      -0.240772        -6.5517
 142   1.0000      -0.240543        -6.5455
 143   1.0000      -0.228643        -6.2217
 144   1.0000      -0.215276        -5.8580
 145   1.0000      -0.206041        -5.6067
 146   1.0000      -0.195762        -5.3269
 147   0.0000      -0.193963        -5.2780
 148   0.0000      -0.167687        -4.5630
 149   0.0000      -0.147642        -4.0176
 150   0.0000      -0.135411        -3.6847
 151   0.0000      -0.130675        -3.5558

                 SPIN DOWN ORBITALS
  NO   OCC          E(Eh)            E(eV)
   0   1.0000    -234.205972     -6373.0685
   1   1.0000     -26.834715      -730.2097
   2   1.0000     -22.999631      -625.8518
   3   1.0000     -22.999406      -625.8457
   4   1.0000     -22.998122      -625.8107
   5   1.0000      -4.038244      -109.8862
   6   1.0000      -4.034562      -109.7860
   7   1.0000      -4.034190      -109.7759
   8   1.0000      -4.033494      -109.7570
   9   1.0000      -4.033359      -109.7533
  10   1.0000      -4.029235      -109.6410
  11   1.0000      -4.026345      -109.5624
  12   1.0000      -4.024969      -109.5250
  13   1.0000      -4.024861      -109.5220
  14   1.0000      -4.024797      -109.5203
  15   1.0000      -4.024680      -109.5171
  16   1.0000      -4.022726      -109.4639
  17   1.0000      -4.022519      -109.4583
  18   1.0000      -4.019197      -109.3679
  19   1.0000      -2.948498       -80.2327
  20   1.0000      -2.252962       -61.3062
  21   1.0000      -2.252287       -61.2879
  22   1.0000      -2.252261       -61.2871
  23   1.0000      -2.251695       -61.2717
  24   1.0000      -2.249222       -61.2044
  25   1.0000      -2.249076       -61.2005
  26   1.0000      -2.248287       -61.1790
  27   1.0000      -2.247082       -61.1462
  28   1.0000      -2.246413       -61.1280
  29   1.0000      -2.246203       -61.1223
  30   1.0000      -2.245736       -61.1096
  31   1.0000      -2.244801       -61.0842
  32   1.0000      -2.244400       -61.0732
  33   1.0000      -2.244021       -61.0629
  34   1.0000      -2.243933       -61.0605
  35   1.0000      -2.243913       -61.0600
  36   1.0000      -2.242389       -61.0185
  37   1.0000      -2.240514       -60.9675
  38   1.0000      -2.240292       -60.9614
  39   1.0000      -2.240094       -60.9560
  40   1.0000      -2.239687       -60.9450
  41   1.0000      -2.239366       -60.9362
  42   1.0000      -2.239191       -60.9315
  43   1.0000      -2.238984       -60.9259
  44   1.0000      -2.238475       -60.9120
  45   1.0000      -2.237912       -60.8967
  46   1.0000      -2.237739       -60.8920
  47   1.0000      -2.237605       -60.8883
  48   1.0000      -2.236877       -60.8685
  49   1.0000      -2.236383       -60.8551
  50   1.0000      -2.236149       -60.8487
  51   1.0000      -2.236058       -60.8462
  52   1.0000      -2.235931       -60.8428
  53   1.0000      -2.235317       -60.8261
  54   1.0000      -2.235290       -60.8253
  55   1.0000      -2.234522       -60.8044
  56   1.0000      -2.234097       -60.7929
  57   1.0000      -2.233927       -60.7883
  58   1.0000      -2.233889       -60.7872
  59   1.0000      -2.233011       -60.7633
  60   1.0000      -2.231960       -60.7347
  61   1.0000      -2.229565       -60.6696
  62   1.0000      -1.855640       -50.4945
  63   1.0000      -1.855234       -50.4835
  64   1.0000      -1.851168       -50.3728
  65   1.0000      -0.429117       -11.6769
  66   1.0000      -0.393398       -10.7049
  67   1.0000      -0.386560       -10.5188
  68   1.0000      -0.385811       -10.4984
  69   1.0000      -0.376566       -10.2469
  70   1.0000      -0.370367       -10.0782
  71   1.0000      -0.366224        -9.9655
  72   1.0000      -0.362954        -9.8765
  73   1.0000      -0.361885        -9.8474
  74   1.0000      -0.359926        -9.7941
  75   1.0000      -0.359602        -9.7853
  76   1.0000      -0.354179        -9.6377
  77   1.0000      -0.352933        -9.6038
  78   1.0000      -0.352506        -9.5922
  79   1.0000      -0.349919        -9.5218
  80   1.0000      -0.349664        -9.5149
  81   1.0000      -0.345057        -9.3895
  82   1.0000      -0.344474        -9.3736
  83   1.0000      -0.341193        -9.2843
  84   1.0000      -0.339980        -9.2513
  85   1.0000      -0.335317        -9.1244
  86   1.0000      -0.332840        -9.0570
  87   1.0000      -0.328028        -8.9261
  88   1.0000      -0.327214        -8.9039
  89   1.0000      -0.325810        -8.8657
  90   1.0000      -0.324688        -8.8352
  91   1.0000      -0.320542        -8.7224
  92   1.0000      -0.318334        -8.6623
  93   1.0000      -0.316253        -8.6057
  94   1.0000      -0.313905        -8.5418
  95   1.0000      -0.310577        -8.4512
  96   1.0000      -0.308032        -8.3820
  97   1.0000      -0.305588        -8.3155
  98   1.0000      -0.304389        -8.2828
  99   1.0000      -0.298693        -8.1278
 100   1.0000      -0.297118        -8.0850
 101   1.0000      -0.296386        -8.0651
 102   1.0000      -0.294496        -8.0136
 103   1.0000      -0.290221        -7.8973
 104   1.0000      -0.289760        -7.8848
 105   1.0000      -0.286997        -7.8096
 106   1.0000      -0.285134        -7.7589
 107   1.0000      -0.284632        -7.7452
 108   1.0000      -0.281767        -7.6673
 109   1.0000      -0.280710        -7.6385
 110   1.0000      -0.279133        -7.5956
 111   1.0000      -0.277911        -7.5623
 112   1.0000      -0.277646        -7.5551
 113   1.0000      -0.274017        -7.4564
 114   1.0000      -0.272542        -7.4163
 115   1.0000      -0.271675        -7.3926
 116   1.0000      -0.271639        -7.3917
 117   1.0000      -0.270708        -7.3663
 118   1.0000      -0.270355        -7.3567
 119   1.0000      -0.269553        -7.3349
 120   1.0000      -0.268035        -7.2936
 121   1.0000      -0.264730        -7.2037
 122   1.0000      -0.264324        -7.1926
 123   1.0000      -0.262320        -7.1381
 124   1.0000      -0.259479        -7.0608
 125   1.0000      -0.258191        -7.0257
 126   1.0000      -0.256876        -6.9899
 127   1.0000      -0.256396        -6.9769
 128   1.0000      -0.255461        -6.9514
 129   1.0000      -0.252755        -6.8778
 130   1.0000      -0.252024        -6.8579
 131   1.0000      -0.250968        -6.8292
 132   1.0000      -0.249566        -6.7910
 133   1.0000      -0.248688        -6.7671
 134   1.0000      -0.245306        -6.6751
 135   1.0000      -0.243819        -6.6347
 136   1.0000      -0.243502        -6.6260
 137   1.0000      -0.242491        -6.5985
 138   1.0000      -0.231306        -6.2942
 139   1.0000      -0.221763        -6.0345
 140   1.0000      -0.212990        -5.7957
 141   1.0000      -0.210038        -5.7154
 142   1.0000      -0.206125        -5.6089
 143   1.0000      -0.178332        -4.8527
 144   0.0000      -0.149604        -4.0709
 145   0.0000      -0.146603        -3.9893
 146   0.0000      -0.142078        -3.8661
 147   0.0000      -0.134231        -3.6526
 148   0.0000      -0.132150        -3.5960

MULLIKEN ATOMIC CHARGES AND SPIN POPULATIONS
--------------------------------------------
   0 Au:   -0.120730   -0.165372
   1 Au:    0.223473    0.022945
   2 Au:   -0.125324   -0.168002
   3 Au:    0.335225   -0.022000
   4 Au:   -0.354584   -0.127809
   5 Au:    0.340651   -0.022573
   6 Au:    0.314339   -0.055974
   7 Au:    0.100197   -0.141988
   8 Au:    0.349314   -0.013071
   9 Au:    0.245421    0.014425
  10 Au:    0.360772   -0.126744
  11 Au:    0.313265   -0.049609
  12 Au:    0.348228   -0.014404
  13 Au:    0.096962   -0.145073
  14 Mn:   -2.427208    4.015249
Sum of atomic charges         :   -0.0000000

LOEWDIN ATOMIC CHARGES AND SPIN POPULATIONS
-------------------------------------------
   0 Au:   -0.034848   -0.091788
   1 Au:   -0.002761   -0.028039
   2 Au:   -0.035538   -0.091587
   3 Au:    0.086127   -0.077629
   4 Au:   -0.044297   -0.067947
   5 Au:    0.088110   -0.078046
   6 Au:    0.086452   -0.090355
   7 Au:    0.003909   -0.076182
   8 Au:    0.065785   -0.040240
   9 Au:    0.052991   -0.033723
  10 Au:    0.109182   -0.154573
  11 Au:    0.085858   -0.087447
  12 Au:    0.064227   -0.041133
  13 Au:    0.003932   -0.077687
  14 Mn:   -0.529128    4.036375

  Mayer bond orders larger than 0.100000
B(  0-Au,  1-Au) :   0.3139 B(  0-Au,  2-Au) :   0.1945 B(  0-Au,  3-Au) :   0.2882
B(  0-Au,  6-Au) :   0.1975 B(  0-Au,  7-Au) :   0.1258 B(  0-Au, 10-Au) :   0.2811
B(  0-Au, 14-Mn) :   0.4229 B(  1-Au,  2-Au) :   0.3110 B(  1-Au,  3-Au) :   0.2195
B(  1-Au,  4-Au) :   0.2152 B(  1-Au,  5-Au) :   0.2190 B(  2-Au,  5-Au) :   0.2935
B(  2-Au, 10-Au) :   0.2815 B(  2-Au, 11-Au) :   0.1956 B(  2-Au, 13-Au) :   0.1299
B(  2-Au, 14-Mn) :   0.4278 B(  3-Au,  4-Au) :   0.3112 B(  3-Au,  7-Au) :   0.3445
B(  4-Au,  5-Au) :   0.3073 B(  4-Au,  7-Au) :   0.1860 B(  4-Au,  9-Au) :   0.2916
B(  4-Au, 13-Au) :   0.1917 B(  4-Au, 14-Mn) :   0.4390 B(  5-Au, 13-Au) :   0.3448
B(  6-Au,  7-Au) :   0.1744 B(  6-Au,  8-Au) :   0.2333 B(  6-Au, 10-Au) :   0.1068
B(  6-Au, 14-Mn) :   0.5073 B(  7-Au,  8-Au) :   0.2098 B(  7-Au,  9-Au) :   0.1721
B(  7-Au, 14-Mn) :   0.4299 B(  8-Au,  9-Au) :   0.1558 B(  8-Au, 12-Au) :   0.2287
B(  8-Au, 14-Mn) :   0.4245 B(  9-Au, 12-Au) :   0.1597 B(  9-Au, 13-Au) :   0.1713
B(  9-Au, 14-Mn) :   0.4239 B( 10-Au, 11-Au) :   0.1078 B( 10-Au, 14-Mn) :   0.4470
B( 11-Au, 12-Au) :   0.2348 B( 11-Au, 13-Au) :   0.1706 B( 11-Au, 14-Mn) :   0.5070
B( 12-Au, 13-Au) :   0.2154 B( 12-Au, 14-Mn) :   0.4183 B( 13-Au, 14-Mn) :   0.4276

FINAL SINGLE POINT ENERGY     -3052.360867837320

DIPOLE MOMENT
-------------
                                X             Y             Z
Electronic contribution:    -26.00720       0.42603     -11.97798
Nuclear contribution   :     25.94152      -0.38655      11.91869
                        -----------------------------------------
Total Dipole Moment    :     -0.06568       0.03947      -0.05929
                        -----------------------------------------
Magnitude (a.u.)       :      0.09689
Magnitude (Debye)      :      0.24626

Rotational constants in cm-1:     0.001136     0.001034     0.000930
Rotational constants in MHz :    34.062748    30.998246    27.876844

                             ****ORCA TERMINATED NORMALLY****
TOTAL RUN TIME: 0 days 0 hours 7 minutes 34 seconds 240 msec
