                         Program Version 5.0.3 -  RELEASE  -
|  1> !R2SCAN def2-TZVP VERYSLOWCONV
|  2> !KDIIS
|  3> %scf
|  4>   AutoTRAHIter 200
|  5>   maxiter 400
|  6> end
|  7>
|  8> %pal nprocs 6 end
|  9>
| 10> *xyzfile 0 6 pbe.xyz
| 11>
| 12> $new_job
| 13>
| 14> !R2SCAN def2-TZVP VERYSLOWCONV
| 15> !KDIIS
| 16> %scf
| 17>   AutoTRAHIter 200
| 18>   maxiter 400
| 19> end
| 20>
| 21>
| 22> %pal nprocs 6 end
| 23>
| 24> *xyzfile 0 4 pbe.xyz
| 25>
| 26>
| 27>
| 28>
| 29>
| 30>                          ****END OF INPUT****
 Total Charge           Charge          ....    0
 Multiplicity           Mult            ....    6
 Number of Electrons    NEL             ....  291
FINAL SINGLE POINT ENERGY     -3052.878287370831

CARTESIAN COORDINATES (ANGSTROEM)
---------------------------------
  Au     7.006202    5.381086    7.248390
  Au     4.645554    6.801607    7.084974
  Au     6.026167    7.316273    9.420751
  Au     6.281735    6.387141    4.794885
  Au     6.484743    8.887791    6.081730
  Au     4.716496    9.409068    8.220544
  Au     9.733695    5.603970    7.107576
  Au     8.766473    7.480575    5.097846
  Au    10.913205    8.111596    6.778954
  Au     8.984397   10.094054    6.141909
  Au     8.259390    5.783542    9.625493
  Au     8.225429    8.573902   10.472234
  Au     9.996786    9.905275    8.782721
  Au     7.270551   10.373440    8.377773
  Mn     8.375766    7.854361    7.843372

 Multiplicity           Mult            ....    4
 Number of Electrons    NEL             ....  291
 Basis Dimension        Dim             ....  605

ORBITAL ENERGIES
----------------
                 SPIN UP ORBITALS
  NO   OCC          E(Eh)            E(eV)
   0   1.0000    -235.049498     -6396.0220
   1   1.0000     -27.226817      -740.8794
   2   1.0000     -23.274248      -633.3245
   3   1.0000     -23.273355      -633.3002
   4   1.0000     -23.273199      -633.2959
   5   1.0000      -4.129721      -112.3754
   6   1.0000      -4.125149      -112.2510
   7   1.0000      -4.124739      -112.2399
   8   1.0000      -4.124512      -112.2337
   9   1.0000      -4.124362      -112.2296
  10   1.0000      -4.120955      -112.1369
  11   1.0000      -4.117114      -112.0324
  12   1.0000      -4.116642      -112.0195
  13   1.0000      -4.116405      -112.0131
  14   1.0000      -4.116268      -112.0094
  15   1.0000      -4.116075      -112.0041
  16   1.0000      -4.112145      -111.8972
  17   1.0000      -4.111898      -111.8904
  18   1.0000      -4.108905      -111.8090
  19   1.0000      -3.248729       -88.4024
  20   1.0000      -2.317588       -63.0648
  21   1.0000      -2.316239       -63.0281
  22   1.0000      -2.315400       -63.0052
  23   1.0000      -2.314678       -62.9856
  24   1.0000      -2.313186       -62.9450
  25   1.0000      -2.313047       -62.9412
  26   1.0000      -2.312862       -62.9362
  27   1.0000      -2.310700       -62.8773
  28   1.0000      -2.310476       -62.8712
  29   1.0000      -2.310405       -62.8693
  30   1.0000      -2.309067       -62.8329
  31   1.0000      -2.308892       -62.8281
  32   1.0000      -2.308575       -62.8195
  33   1.0000      -2.308215       -62.8097
  34   1.0000      -2.307769       -62.7976
  35   1.0000      -2.307669       -62.7949
  36   1.0000      -2.306320       -62.7582
  37   1.0000      -2.305233       -62.7286
  38   1.0000      -2.304972       -62.7215
  39   1.0000      -2.304519       -62.7092
  40   1.0000      -2.303889       -62.6920
  41   1.0000      -2.303515       -62.6818
  42   1.0000      -2.303407       -62.6789
  43   1.0000      -2.303197       -62.6732
  44   1.0000      -2.302702       -62.6597
  45   1.0000      -2.301855       -62.6367
  46   1.0000      -2.301697       -62.6324
  47   1.0000      -2.301618       -62.6302
  48   1.0000      -2.300079       -62.5883
  49   1.0000      -2.299222       -62.5650
  50   1.0000      -2.299129       -62.5625
  51   1.0000      -2.299040       -62.5601
  52   1.0000      -2.298575       -62.5474
  53   1.0000      -2.298463       -62.5444
  54   1.0000      -2.298334       -62.5409
  55   1.0000      -2.298245       -62.5384
  56   1.0000      -2.297985       -62.5314
  57   1.0000      -2.296424       -62.4889
  58   1.0000      -2.295701       -62.4692
  59   1.0000      -2.295198       -62.4555
  60   1.0000      -2.294433       -62.4347
  61   1.0000      -2.291591       -62.3574
  62   1.0000      -2.106715       -57.3266
  63   1.0000      -2.104726       -57.2725
  64   1.0000      -2.104408       -57.2638
  65   1.0000      -0.440409       -11.9841
  66   1.0000      -0.399362       -10.8672
  67   1.0000      -0.395093       -10.7510
  68   1.0000      -0.392409       -10.6780
  69   1.0000      -0.391539       -10.6543
  70   1.0000      -0.386174       -10.5083
  71   1.0000      -0.378949       -10.3117
  72   1.0000      -0.377789       -10.2802
  73   1.0000      -0.373767       -10.1707
  74   1.0000      -0.372362       -10.1325
  75   1.0000      -0.369527       -10.0553
  76   1.0000      -0.364472        -9.9178
  77   1.0000      -0.364061        -9.9066
  78   1.0000      -0.362311        -9.8590
  79   1.0000      -0.359096        -9.7715
  80   1.0000      -0.358926        -9.7669
  81   1.0000      -0.356168        -9.6918
  82   1.0000      -0.353493        -9.6190
  83   1.0000      -0.350366        -9.5339
  84   1.0000      -0.348171        -9.4742
  85   1.0000      -0.346135        -9.4188
  86   1.0000      -0.343833        -9.3562
  87   1.0000      -0.339520        -9.2388
  88   1.0000      -0.337041        -9.1714
  89   1.0000      -0.336394        -9.1538
  90   1.0000      -0.335338        -9.1250
  91   1.0000      -0.334087        -9.0910
  92   1.0000      -0.330541        -8.9945
  93   1.0000      -0.327091        -8.9006
  94   1.0000      -0.325759        -8.8644
  95   1.0000      -0.322365        -8.7720
  96   1.0000      -0.319598        -8.6967
  97   1.0000      -0.317701        -8.6451
  98   1.0000      -0.316344        -8.6082
  99   1.0000      -0.314344        -8.5537
 100   1.0000      -0.313403        -8.5281
 101   1.0000      -0.307611        -8.3705
 102   1.0000      -0.306235        -8.3331
 103   1.0000      -0.301676        -8.2090
 104   1.0000      -0.298964        -8.1352
 105   1.0000      -0.298460        -8.1215
 106   1.0000      -0.297683        -8.1004
 107   1.0000      -0.296799        -8.0763
 108   1.0000      -0.292235        -7.9521
 109   1.0000      -0.291123        -7.9219
 110   1.0000      -0.287349        -7.8192
 111   1.0000      -0.286336        -7.7916
 112   1.0000      -0.285736        -7.7753
 113   1.0000      -0.283878        -7.7247
 114   1.0000      -0.281485        -7.6596
 115   1.0000      -0.280905        -7.6438
 116   1.0000      -0.280070        -7.6211
 117   1.0000      -0.279183        -7.5969
 118   1.0000      -0.278644        -7.5823
 119   1.0000      -0.277461        -7.5501
 120   1.0000      -0.277057        -7.5391
 121   1.0000      -0.273573        -7.4443
 122   1.0000      -0.272312        -7.4100
 123   1.0000      -0.269890        -7.3441
 124   1.0000      -0.268702        -7.3118
 125   1.0000      -0.266127        -7.2417
 126   1.0000      -0.265615        -7.2278
 127   1.0000      -0.265530        -7.2254
 128   1.0000      -0.263782        -7.1779
 129   1.0000      -0.263398        -7.1674
 130   1.0000      -0.262988        -7.1563
 131   1.0000      -0.261893        -7.1265
 132   1.0000      -0.259960        -7.0739
 133   1.0000      -0.259346        -7.0572
 134   1.0000      -0.258112        -7.0236
 135   1.0000      -0.257451        -7.0056
 136   1.0000      -0.254868        -6.9353
 137   1.0000      -0.254068        -6.9135
 138   1.0000      -0.253835        -6.9072
 139   1.0000      -0.251228        -6.8363
 140   1.0000      -0.250409        -6.8140
 141   1.0000      -0.247866        -6.7448
 142   1.0000      -0.247519        -6.7353
 143   1.0000      -0.235204        -6.4002
 144   1.0000      -0.218393        -5.9428
 145   1.0000      -0.208064        -5.6617
 146   1.0000      -0.197313        -5.3692
 147   0.0000      -0.193566        -5.2672
 148   0.0000      -0.164372        -4.4728
 149   0.0000      -0.143508        -3.9050
 150   0.0000      -0.131408        -3.5758
 151   0.0000      -0.127147        -3.4598

                 SPIN DOWN ORBITALS
  NO   OCC          E(Eh)            E(eV)
   0   1.0000    -235.048494     -6395.9947
   1   1.0000     -27.138887      -738.4867
   2   1.0000     -23.206442      -631.4794
   3   1.0000     -23.206292      -631.4753
   4   1.0000     -23.205726      -631.4599
   5   1.0000      -4.129506      -112.3696
   6   1.0000      -4.125842      -112.2699
   7   1.0000      -4.125434      -112.2588
   8   1.0000      -4.124647      -112.2374
   9   1.0000      -4.124476      -112.2327
  10   1.0000      -4.121414      -112.1494
  11   1.0000      -4.117249      -112.0361
  12   1.0000      -4.116447      -112.0142
  13   1.0000      -4.116193      -112.0073
  14   1.0000      -4.116117      -112.0052
  15   1.0000      -4.115946      -112.0006
  16   1.0000      -4.113522      -111.9346
  17   1.0000      -4.113281      -111.9281
  18   1.0000      -4.109298      -111.8197
  19   1.0000      -3.038954       -82.6941
  20   1.0000      -2.316866       -63.0451
  21   1.0000      -2.316335       -63.0307
  22   1.0000      -2.316224       -63.0277
  23   1.0000      -2.315634       -63.0116
  24   1.0000      -2.312943       -62.9384
  25   1.0000      -2.312769       -62.9336
  26   1.0000      -2.312311       -62.9212
  27   1.0000      -2.311175       -62.8903
  28   1.0000      -2.310398       -62.8691
  29   1.0000      -2.310143       -62.8622
  30   1.0000      -2.309709       -62.8504
  31   1.0000      -2.309021       -62.8316
  32   1.0000      -2.308678       -62.8223
  33   1.0000      -2.308482       -62.8170
  34   1.0000      -2.308091       -62.8064
  35   1.0000      -2.307967       -62.8030
  36   1.0000      -2.306991       -62.7764
  37   1.0000      -2.304724       -62.7147
  38   1.0000      -2.304447       -62.7072
  39   1.0000      -2.304086       -62.6974
  40   1.0000      -2.303681       -62.6863
  41   1.0000      -2.303374       -62.6780
  42   1.0000      -2.303068       -62.6697
  43   1.0000      -2.302867       -62.6642
  44   1.0000      -2.302817       -62.6628
  45   1.0000      -2.301775       -62.6345
  46   1.0000      -2.301592       -62.6295
  47   1.0000      -2.301391       -62.6240
  48   1.0000      -2.300403       -62.5971
  49   1.0000      -2.299970       -62.5854
  50   1.0000      -2.299898       -62.5834
  51   1.0000      -2.299621       -62.5759
  52   1.0000      -2.299444       -62.5711
  53   1.0000      -2.299146       -62.5629
  54   1.0000      -2.299081       -62.5612
  55   1.0000      -2.298325       -62.5406
  56   1.0000      -2.298055       -62.5333
  57   1.0000      -2.297873       -62.5283
  58   1.0000      -2.297439       -62.5165
  59   1.0000      -2.296017       -62.4778
  60   1.0000      -2.294855       -62.4462
  61   1.0000      -2.292520       -62.3826
  62   1.0000      -1.897845       -51.6430
  63   1.0000      -1.897545       -51.6348
  64   1.0000      -1.895062       -51.5673
  65   1.0000      -0.435487       -11.8502
  66   1.0000      -0.400482       -10.8977
  67   1.0000      -0.393563       -10.7094
  68   1.0000      -0.392881       -10.6908
  69   1.0000      -0.385008       -10.4766
  70   1.0000      -0.379333       -10.3222
  71   1.0000      -0.375251       -10.2111
  72   1.0000      -0.371618       -10.1122
  73   1.0000      -0.371128       -10.0989
  74   1.0000      -0.369462       -10.0536
  75   1.0000      -0.368744       -10.0340
  76   1.0000      -0.364044        -9.9061
  77   1.0000      -0.362196        -9.8559
  78   1.0000      -0.362011        -9.8508
  79   1.0000      -0.359624        -9.7859
  80   1.0000      -0.359460        -9.7814
  81   1.0000      -0.354832        -9.6555
  82   1.0000      -0.353986        -9.6324
  83   1.0000      -0.350954        -9.5499
  84   1.0000      -0.349839        -9.5196
  85   1.0000      -0.345125        -9.3913
  86   1.0000      -0.341984        -9.3059
  87   1.0000      -0.338009        -9.1977
  88   1.0000      -0.336712        -9.1624
  89   1.0000      -0.335130        -9.1194
  90   1.0000      -0.334371        -9.0987
  91   1.0000      -0.329636        -8.9698
  92   1.0000      -0.327419        -8.9095
  93   1.0000      -0.325695        -8.8626
  94   1.0000      -0.323123        -8.7926
  95   1.0000      -0.320002        -8.7077
  96   1.0000      -0.316896        -8.6232
  97   1.0000      -0.314416        -8.5557
  98   1.0000      -0.313276        -8.5247
  99   1.0000      -0.307576        -8.3696
 100   1.0000      -0.306076        -8.3288
 101   1.0000      -0.305355        -8.3091
 102   1.0000      -0.303453        -8.2574
 103   1.0000      -0.299317        -8.1448
 104   1.0000      -0.298590        -8.1251
 105   1.0000      -0.295338        -8.0366
 106   1.0000      -0.294057        -8.0017
 107   1.0000      -0.293146        -7.9769
 108   1.0000      -0.290361        -7.9011
 109   1.0000      -0.289542        -7.8788
 110   1.0000      -0.288035        -7.8378
 111   1.0000      -0.286855        -7.8057
 112   1.0000      -0.286427        -7.7941
 113   1.0000      -0.282451        -7.6859
 114   1.0000      -0.281202        -7.6519
 115   1.0000      -0.280342        -7.6285
 116   1.0000      -0.279903        -7.6166
 117   1.0000      -0.279108        -7.5949
 118   1.0000      -0.278946        -7.5905
 119   1.0000      -0.277724        -7.5572
 120   1.0000      -0.276848        -7.5334
 121   1.0000      -0.273177        -7.4335
 122   1.0000      -0.272127        -7.4050
 123   1.0000      -0.271065        -7.3760
 124   1.0000      -0.268020        -7.2932
 125   1.0000      -0.266333        -7.2473
 126   1.0000      -0.264986        -7.2106
 127   1.0000      -0.264537        -7.1984
 128   1.0000      -0.263636        -7.1739
 129   1.0000      -0.260222        -7.0810
 130   1.0000      -0.260172        -7.0796
 131   1.0000      -0.258515        -7.0345
 132   1.0000      -0.256541        -6.9808
 133   1.0000      -0.255880        -6.9629
 134   1.0000      -0.252593        -6.8734
 135   1.0000      -0.251036        -6.8310
 136   1.0000      -0.250688        -6.8216
 137   1.0000      -0.249789        -6.7971
 138   1.0000      -0.237860        -6.4725
 139   1.0000      -0.224791        -6.1169
 140   1.0000      -0.215021        -5.8510
 141   1.0000      -0.212079        -5.7710
 142   1.0000      -0.207158        -5.6370
 143   1.0000      -0.177879        -4.8403
 144   0.0000      -0.144788        -3.9399
 145   0.0000      -0.140628        -3.8267
 146   0.0000      -0.135225        -3.6797
 147   0.0000      -0.123566        -3.3624
 148   0.0000      -0.116665        -3.1746

MULLIKEN ATOMIC CHARGES AND SPIN POPULATIONS
--------------------------------------------
   0 Au:   -0.109713   -0.184935
   1 Au:    0.197867    0.026525
   2 Au:   -0.112986   -0.188908
   3 Au:    0.306142   -0.023161
   4 Au:   -0.325715   -0.158008
   5 Au:    0.311786   -0.024162
   6 Au:    0.281562   -0.075936
   7 Au:    0.094110   -0.166842
   8 Au:    0.316363   -0.023349
   9 Au:    0.215974    0.014272
  10 Au:    0.326198   -0.161455
  11 Au:    0.278474   -0.066197
  12 Au:    0.315898   -0.024042
  13 Au:    0.092189   -0.171578
  14 Mn:   -2.188150    4.227777
Sum of atomic charges         :   -0.0000000

LOEWDIN ATOMIC CHARGES AND SPIN POPULATIONS
-------------------------------------------
   0 Au:   -0.038720   -0.107422
   1 Au:   -0.007755   -0.031848
   2 Au:   -0.039366   -0.107458
   3 Au:    0.082520   -0.084293
   4 Au:   -0.048937   -0.087223
   5 Au:    0.084741   -0.085081
   6 Au:    0.079272   -0.106584
   7 Au:   -0.000633   -0.089978
   8 Au:    0.058464   -0.049817
   9 Au:    0.046784   -0.040695
  10 Au:    0.102314   -0.181036
  11 Au:    0.078314   -0.102588
  12 Au:    0.056912   -0.050143
  13 Au:   -0.000420   -0.091868
  14 Mn:   -0.453491    4.216032

  Mayer bond orders larger than 0.100000
B(  0-Au,  1-Au) :   0.3038 B(  0-Au,  2-Au) :   0.1856 B(  0-Au,  3-Au) :   0.2798
B(  0-Au,  6-Au) :   0.1827 B(  0-Au,  7-Au) :   0.1105 B(  0-Au, 10-Au) :   0.2693
B(  0-Au, 14-Mn) :   0.3983 B(  1-Au,  2-Au) :   0.3004 B(  1-Au,  3-Au) :   0.2055
B(  1-Au,  4-Au) :   0.2018 B(  1-Au,  5-Au) :   0.2048 B(  2-Au,  5-Au) :   0.2865
B(  2-Au, 10-Au) :   0.2683 B(  2-Au, 11-Au) :   0.1813 B(  2-Au, 13-Au) :   0.1151
B(  2-Au, 14-Mn) :   0.4032 B(  3-Au,  4-Au) :   0.3024 B(  3-Au,  7-Au) :   0.3395
B(  4-Au,  5-Au) :   0.2985 B(  4-Au,  7-Au) :   0.1704 B(  4-Au,  9-Au) :   0.2878
B(  4-Au, 13-Au) :   0.1762 B(  4-Au, 14-Mn) :   0.4177 B(  5-Au, 13-Au) :   0.3391
B(  6-Au,  7-Au) :   0.1682 B(  6-Au,  8-Au) :   0.2295 B(  6-Au, 14-Mn) :   0.4996
B(  7-Au,  8-Au) :   0.1949 B(  7-Au,  9-Au) :   0.1559 B(  7-Au, 14-Mn) :   0.4137
B(  8-Au,  9-Au) :   0.1390 B(  8-Au, 12-Au) :   0.2235 B(  8-Au, 14-Mn) :   0.4181
B(  9-Au, 12-Au) :   0.1436 B(  9-Au, 13-Au) :   0.1562 B(  9-Au, 14-Mn) :   0.4163
B( 10-Au, 14-Mn) :   0.4454 B( 11-Au, 12-Au) :   0.2302 B( 11-Au, 13-Au) :   0.1638
B( 11-Au, 14-Mn) :   0.5008 B( 12-Au, 13-Au) :   0.2002 B( 12-Au, 14-Mn) :   0.4113
B( 13-Au, 14-Mn) :   0.4108

FINAL SINGLE POINT ENERGY     -3052.858947639058

DIPOLE MOMENT
-------------
                                X             Y             Z
Electronic contribution:    -25.98566       0.42664     -11.96838
Nuclear contribution   :     25.94152      -0.38655      11.91869
                        -----------------------------------------
Total Dipole Moment    :     -0.04414       0.04008      -0.04969
                        -----------------------------------------
Magnitude (a.u.)       :      0.07762
Magnitude (Debye)      :      0.19729

Rotational constants in cm-1:     0.001136     0.001034     0.000930
Rotational constants in MHz :    34.062748    30.998246    27.876844

                             ****ORCA TERMINATED NORMALLY****
TOTAL RUN TIME: 0 days 0 hours 10 minutes 37 seconds 730 msec
