                         Program Version 5.0.3 -  RELEASE  -
|  1> !RI-B2PLYP def2-TZVP def2-TZVP/C
|  2> !RIJCOSX VERYSLOWCONV
|  3>
|  4> %scf
|  5>   AutoTRAHIter 200
|  6>   maxiter 400
|  7> end
|  8>
|  9>
| 10> %pal nprocs 6 end
| 11>
| 12> *xyzfile 0 6 pbe.xyz
| 13>
| 14> $new_job
| 15>
| 16> !RI-B2PLYP def2-TZVP def2-TZVP/C
| 17> !RIJCOSX VERYSLOWCONV
| 18>
| 19> %scf
| 20>   AutoTRAHIter 200
| 21>   maxiter 400
| 22> end
| 23>
| 24>
| 25> %pal nprocs 6 end
| 26>
| 27> *xyzfile 0 4 pbe.xyz
| 28>
| 29>
| 30>
| 31>
| 32>
| 33>                          ****END OF INPUT****
 Total Charge           Charge          ....    0
 Multiplicity           Mult            ....    6
 Number of Electrons    NEL             ....  329
MP2 TOTAL ENERGY:    -3320.282948245 Eh
FINAL SINGLE POINT ENERGY     -3320.282948244631

CARTESIAN COORDINATES (ANGSTROEM)
---------------------------------
  Au     4.264621    5.552259    6.848960
  Au     8.015262    9.862266    7.969594
  Au     9.723380    9.107442    5.846305
  Au     4.656485    7.895376    8.509740
  Au     5.989329   10.072230    9.948679
  Au     6.140165    6.143541    4.841868
  Au     7.050532    8.749463    5.457020
  Au     4.385024    8.124637    5.720842
  Au     5.368732   10.223154    7.208894
  Au     9.539022    7.627135    8.279984
  Au     5.867558    7.505934   11.024300
  Au     7.892467    6.004408    9.862039
  Au     8.721921    6.475980    5.756566
  Au     5.195456    5.322627    9.418857
  Au     9.598401    4.880657    7.974562
  Au     6.943108    4.981530    7.256653
  Mn     8.168444    8.637665   10.313475

 Multiplicity           Mult            ....    4
 Number of Electrons    NEL             ....  329
 Basis Dimension        Dim             ....  685

ORBITAL ENERGIES
----------------
                 SPIN UP ORBITALS
  NO   OCC          E(Eh)            E(eV)
   0   1.0000    -237.639762     -6466.5067
   1   1.0000     -28.146223      -765.8977
   2   1.0000     -24.063839      -654.8103
   3   1.0000     -24.063272      -654.7949
   4   1.0000     -24.062873      -654.7841
   5   1.0000      -4.409838      -119.9978
   6   1.0000      -4.407831      -119.9432
   7   1.0000      -4.407483      -119.9337
   8   1.0000      -4.406461      -119.9059
   9   1.0000      -4.401714      -119.7767
  10   1.0000      -4.398518      -119.6897
  11   1.0000      -4.398298      -119.6838
  12   1.0000      -4.395447      -119.6062
  13   1.0000      -4.394791      -119.5883
  14   1.0000      -4.393852      -119.5628
  15   1.0000      -4.392755      -119.5329
  16   1.0000      -4.392422      -119.5239
  17   1.0000      -4.390607      -119.4745
  18   1.0000      -4.389065      -119.4325
  19   1.0000      -4.388744      -119.4238
  20   1.0000      -4.386666      -119.3672
  21   1.0000      -3.625039       -98.6423
  22   1.0000      -2.531274       -68.8795
  23   1.0000      -2.529665       -68.8357
  24   1.0000      -2.528689       -68.8091
  25   1.0000      -2.527429       -68.7748
  26   1.0000      -2.526719       -68.7555
  27   1.0000      -2.526283       -68.7437
  28   1.0000      -2.524709       -68.7008
  29   1.0000      -2.522885       -68.6512
  30   1.0000      -2.522468       -68.6398
  31   1.0000      -2.521731       -68.6198
  32   1.0000      -2.520973       -68.5992
  33   1.0000      -2.520544       -68.5875
  34   1.0000      -2.520180       -68.5776
  35   1.0000      -2.518902       -68.5428
  36   1.0000      -2.518581       -68.5341
  37   1.0000      -2.517454       -68.5034
  38   1.0000      -2.517123       -68.4944
  39   1.0000      -2.516450       -68.4761
  40   1.0000      -2.516005       -68.4640
  41   1.0000      -2.515533       -68.4511
  42   1.0000      -2.514990       -68.4364
  43   1.0000      -2.514790       -68.4309
  44   1.0000      -2.514171       -68.4141
  45   1.0000      -2.513984       -68.4090
  46   1.0000      -2.513798       -68.4039
  47   1.0000      -2.511851       -68.3509
  48   1.0000      -2.511186       -68.3328
  49   1.0000      -2.511127       -68.3312
  50   1.0000      -2.510716       -68.3201
  51   1.0000      -2.510587       -68.3165
  52   1.0000      -2.509662       -68.2914
  53   1.0000      -2.509075       -68.2754
  54   1.0000      -2.508925       -68.2713
  55   1.0000      -2.508690       -68.2649
  56   1.0000      -2.508596       -68.2624
  57   1.0000      -2.508164       -68.2506
  58   1.0000      -2.507682       -68.2375
  59   1.0000      -2.507528       -68.2333
  60   1.0000      -2.506723       -68.2114
  61   1.0000      -2.506034       -68.1927
  62   1.0000      -2.505562       -68.1798
  63   1.0000      -2.505169       -68.1691
  64   1.0000      -2.504858       -68.1606
  65   1.0000      -2.504626       -68.1543
  66   1.0000      -2.503611       -68.1267
  67   1.0000      -2.503434       -68.1219
  68   1.0000      -2.503133       -68.1137
  69   1.0000      -2.502129       -68.0864
  70   1.0000      -2.426415       -66.0261
  71   1.0000      -2.425271       -65.9950
  72   1.0000      -2.424363       -65.9703
  73   1.0000      -0.520775       -14.1710
  74   1.0000      -0.520120       -14.1532
  75   1.0000      -0.518450       -14.1077
  76   1.0000      -0.517723       -14.0880
  77   1.0000      -0.512412       -13.9434
  78   1.0000      -0.480208       -13.0671
  79   1.0000      -0.475111       -12.9284
  80   1.0000      -0.471338       -12.8257
  81   1.0000      -0.470639       -12.8067
  82   1.0000      -0.467456       -12.7201
  83   1.0000      -0.463531       -12.6133
  84   1.0000      -0.461518       -12.5586
  85   1.0000      -0.460444       -12.5293
  86   1.0000      -0.459475       -12.5029
  87   1.0000      -0.458315       -12.4714
  88   1.0000      -0.457101       -12.4384
  89   1.0000      -0.455430       -12.3929
  90   1.0000      -0.454688       -12.3727
  91   1.0000      -0.453247       -12.3335
  92   1.0000      -0.451614       -12.2891
  93   1.0000      -0.449523       -12.2321
  94   1.0000      -0.448996       -12.2178
  95   1.0000      -0.447859       -12.1869
  96   1.0000      -0.443182       -12.0596
  97   1.0000      -0.441635       -12.0175
  98   1.0000      -0.440501       -11.9866
  99   1.0000      -0.438042       -11.9197
 100   1.0000      -0.437374       -11.9016
 101   1.0000      -0.434727       -11.8295
 102   1.0000      -0.433658       -11.8004
 103   1.0000      -0.431598       -11.7444
 104   1.0000      -0.426369       -11.6021
 105   1.0000      -0.425278       -11.5724
 106   1.0000      -0.422698       -11.5022
 107   1.0000      -0.420309       -11.4372
 108   1.0000      -0.415319       -11.3014
 109   1.0000      -0.412208       -11.2168
 110   1.0000      -0.408623       -11.1192
 111   1.0000      -0.407954       -11.1010
 112   1.0000      -0.405201       -11.0261
 113   1.0000      -0.403959       -10.9923
 114   1.0000      -0.400449       -10.8968
 115   1.0000      -0.397659       -10.8208
 116   1.0000      -0.397252       -10.8098
 117   1.0000      -0.394370       -10.7314
 118   1.0000      -0.393613       -10.7108
 119   1.0000      -0.390143       -10.6163
 120   1.0000      -0.387276       -10.5383
 121   1.0000      -0.385838       -10.4992
 122   1.0000      -0.383920       -10.4470
 123   1.0000      -0.381965       -10.3938
 124   1.0000      -0.380482       -10.3534
 125   1.0000      -0.379348       -10.3226
 126   1.0000      -0.377972       -10.2851
 127   1.0000      -0.375223       -10.2103
 128   1.0000      -0.374019       -10.1776
 129   1.0000      -0.372274       -10.1301
 130   1.0000      -0.369288       -10.0488
 131   1.0000      -0.368828       -10.0363
 132   1.0000      -0.366735        -9.9794
 133   1.0000      -0.365488        -9.9454
 134   1.0000      -0.365099        -9.9348
 135   1.0000      -0.361761        -9.8440
 136   1.0000      -0.359999        -9.7961
 137   1.0000      -0.359647        -9.7865
 138   1.0000      -0.357138        -9.7182
 139   1.0000      -0.355803        -9.6819
 140   1.0000      -0.355074        -9.6620
 141   1.0000      -0.352994        -9.6055
 142   1.0000      -0.352060        -9.5800
 143   1.0000      -0.350241        -9.5306
 144   1.0000      -0.348799        -9.4913
 145   1.0000      -0.348068        -9.4714
 146   1.0000      -0.347299        -9.4505
 147   1.0000      -0.344470        -9.3735
 148   1.0000      -0.343461        -9.3460
 149   1.0000      -0.340324        -9.2607
 150   1.0000      -0.339253        -9.2315
 151   1.0000      -0.337761        -9.1909
 152   1.0000      -0.333078        -9.0635
 153   1.0000      -0.330495        -8.9932
 154   1.0000      -0.328338        -8.9345
 155   1.0000      -0.324389        -8.8271
 156   1.0000      -0.323515        -8.8033
 157   1.0000      -0.322909        -8.7868
 158   1.0000      -0.319442        -8.6925
 159   1.0000      -0.317653        -8.6438
 160   1.0000      -0.314258        -8.5514
 161   1.0000      -0.312521        -8.5041
 162   1.0000      -0.261369        -7.1122
 163   1.0000      -0.237772        -6.4701
 164   1.0000      -0.235619        -6.4115
 165   1.0000      -0.231440        -6.2978
 166   0.0000      -0.132234        -3.5983
 167   0.0000      -0.093357        -2.5404
 168   0.0000      -0.075871        -2.0646
 169   0.0000      -0.072228        -1.9654
 170   0.0000      -0.070323        -1.9136

                 SPIN DOWN ORBITALS
  NO   OCC          E(Eh)            E(eV)
   0   1.0000    -237.637531     -6466.4460
   1   1.0000     -28.043648      -763.1065
   2   1.0000     -23.969569      -652.2451
   3   1.0000     -23.969195      -652.2349
   4   1.0000     -23.969129      -652.2332
   5   1.0000      -4.409277      -119.9825
   6   1.0000      -4.407329      -119.9295
   7   1.0000      -4.407279      -119.9282
   8   1.0000      -4.405529      -119.8805
   9   1.0000      -4.401112      -119.7603
  10   1.0000      -4.399585      -119.7188
  11   1.0000      -4.399257      -119.7099
  12   1.0000      -4.396971      -119.6477
  13   1.0000      -4.396159      -119.6256
  14   1.0000      -4.394336      -119.5760
  15   1.0000      -4.394140      -119.5706
  16   1.0000      -4.393236      -119.5460
  17   1.0000      -4.392978      -119.5390
  18   1.0000      -4.390882      -119.4820
  19   1.0000      -4.390024      -119.4586
  20   1.0000      -4.386774      -119.3702
  21   1.0000      -3.336136       -90.7809
  22   1.0000      -2.529737       -68.8376
  23   1.0000      -2.528542       -68.8051
  24   1.0000      -2.527378       -68.7734
  25   1.0000      -2.526535       -68.7505
  26   1.0000      -2.525378       -68.7190
  27   1.0000      -2.524554       -68.6966
  28   1.0000      -2.523990       -68.6813
  29   1.0000      -2.521930       -68.6252
  30   1.0000      -2.521471       -68.6127
  31   1.0000      -2.521147       -68.6039
  32   1.0000      -2.520207       -68.5783
  33   1.0000      -2.520022       -68.5733
  34   1.0000      -2.519886       -68.5696
  35   1.0000      -2.519620       -68.5623
  36   1.0000      -2.519341       -68.5548
  37   1.0000      -2.519042       -68.5466
  38   1.0000      -2.517776       -68.5122
  39   1.0000      -2.517619       -68.5079
  40   1.0000      -2.517116       -68.4942
  41   1.0000      -2.516033       -68.4647
  42   1.0000      -2.515854       -68.4599
  43   1.0000      -2.515365       -68.4465
  44   1.0000      -2.514805       -68.4313
  45   1.0000      -2.514592       -68.4255
  46   1.0000      -2.514407       -68.4205
  47   1.0000      -2.512949       -68.3808
  48   1.0000      -2.512604       -68.3714
  49   1.0000      -2.512352       -68.3646
  50   1.0000      -2.511951       -68.3537
  51   1.0000      -2.511427       -68.3394
  52   1.0000      -2.511188       -68.3329
  53   1.0000      -2.510693       -68.3194
  54   1.0000      -2.510479       -68.3136
  55   1.0000      -2.509805       -68.2953
  56   1.0000      -2.509253       -68.2802
  57   1.0000      -2.508929       -68.2714
  58   1.0000      -2.508695       -68.2651
  59   1.0000      -2.508467       -68.2589
  60   1.0000      -2.507874       -68.2427
  61   1.0000      -2.507136       -68.2226
  62   1.0000      -2.506972       -68.2182
  63   1.0000      -2.506941       -68.2173
  64   1.0000      -2.505645       -68.1821
  65   1.0000      -2.505578       -68.1802
  66   1.0000      -2.504801       -68.1591
  67   1.0000      -2.503769       -68.1310
  68   1.0000      -2.503156       -68.1143
  69   1.0000      -2.502419       -68.0943
  70   1.0000      -2.096907       -57.0597
  71   1.0000      -2.093846       -56.9765
  72   1.0000      -2.093723       -56.9731
  73   1.0000      -0.486807       -13.2467
  74   1.0000      -0.475817       -12.9476
  75   1.0000      -0.474851       -12.9214
  76   1.0000      -0.473220       -12.8770
  77   1.0000      -0.469886       -12.7863
  78   1.0000      -0.467981       -12.7344
  79   1.0000      -0.466696       -12.6994
  80   1.0000      -0.464783       -12.6474
  81   1.0000      -0.462283       -12.5793
  82   1.0000      -0.461001       -12.5445
  83   1.0000      -0.460573       -12.5328
  84   1.0000      -0.459546       -12.5049
  85   1.0000      -0.458046       -12.4641
  86   1.0000      -0.455538       -12.3958
  87   1.0000      -0.454425       -12.3655
  88   1.0000      -0.453028       -12.3275
  89   1.0000      -0.451049       -12.2737
  90   1.0000      -0.450317       -12.2537
  91   1.0000      -0.447242       -12.1701
  92   1.0000      -0.446099       -12.1390
  93   1.0000      -0.444569       -12.0973
  94   1.0000      -0.441677       -12.0187
  95   1.0000      -0.440240       -11.9795
  96   1.0000      -0.438909       -11.9433
  97   1.0000      -0.437321       -11.9001
  98   1.0000      -0.436138       -11.8679
  99   1.0000      -0.431788       -11.7496
 100   1.0000      -0.429079       -11.6758
 101   1.0000      -0.428681       -11.6650
 102   1.0000      -0.424179       -11.5425
 103   1.0000      -0.421657       -11.4739
 104   1.0000      -0.417937       -11.3726
 105   1.0000      -0.412610       -11.2277
 106   1.0000      -0.410524       -11.1709
 107   1.0000      -0.407361       -11.0849
 108   1.0000      -0.406002       -11.0479
 109   1.0000      -0.403419       -10.9776
 110   1.0000      -0.401596       -10.9280
 111   1.0000      -0.399797       -10.8790
 112   1.0000      -0.399145       -10.8613
 113   1.0000      -0.396153       -10.7799
 114   1.0000      -0.392427       -10.6785
 115   1.0000      -0.389818       -10.6075
 116   1.0000      -0.389351       -10.5948
 117   1.0000      -0.387850       -10.5539
 118   1.0000      -0.383928       -10.4472
 119   1.0000      -0.383734       -10.4419
 120   1.0000      -0.381912       -10.3924
 121   1.0000      -0.380801       -10.3621
 122   1.0000      -0.377675       -10.2771
 123   1.0000      -0.376800       -10.2533
 124   1.0000      -0.376312       -10.2400
 125   1.0000      -0.372865       -10.1462
 126   1.0000      -0.372229       -10.1289
 127   1.0000      -0.370022       -10.0688
 128   1.0000      -0.369634       -10.0583
 129   1.0000      -0.368599       -10.0301
 130   1.0000      -0.363962        -9.9039
 131   1.0000      -0.363051        -9.8791
 132   1.0000      -0.361663        -9.8414
 133   1.0000      -0.359070        -9.7708
 134   1.0000      -0.358059        -9.7433
 135   1.0000      -0.357015        -9.7149
 136   1.0000      -0.354776        -9.6540
 137   1.0000      -0.353704        -9.6248
 138   1.0000      -0.352581        -9.5942
 139   1.0000      -0.352054        -9.5799
 140   1.0000      -0.350319        -9.5327
 141   1.0000      -0.348380        -9.4799
 142   1.0000      -0.346094        -9.4177
 143   1.0000      -0.344733        -9.3807
 144   1.0000      -0.342779        -9.3275
 145   1.0000      -0.340649        -9.2695
 146   1.0000      -0.339256        -9.2316
 147   1.0000      -0.337558        -9.1854
 148   1.0000      -0.333473        -9.0743
 149   1.0000      -0.332263        -9.0413
 150   1.0000      -0.328457        -8.9378
 151   1.0000      -0.328056        -8.9269
 152   1.0000      -0.325864        -8.8672
 153   1.0000      -0.324688        -8.8352
 154   1.0000      -0.322647        -8.7797
 155   1.0000      -0.320012        -8.7080
 156   1.0000      -0.316072        -8.6007
 157   1.0000      -0.268260        -7.2997
 158   1.0000      -0.250254        -6.8098
 159   1.0000      -0.240990        -6.5577
 160   1.0000      -0.234705        -6.3866
 161   1.0000      -0.216681        -5.8962
 162   1.0000      -0.169262        -4.6058
 163   0.0000      -0.081713        -2.2235
 164   0.0000      -0.080670        -2.1951
 165   0.0000      -0.078226        -2.1286
 166   0.0000      -0.069296        -1.8856
 167   0.0000      -0.066627        -1.8130

MULLIKEN ATOMIC CHARGES AND SPIN POPULATIONS
--------------------------------------------
   0 Au:    0.266166   -0.214487
   1 Au:   -0.274043   -0.094292
   2 Au:    0.419488   -0.309830
   3 Au:   -0.903019   -0.284838
   4 Au:    0.276657   -0.166983
   5 Au:    0.231248   -0.015751
   6 Au:   -0.442528   -0.033567
   7 Au:    0.259731   -0.127170
   8 Au:    0.146146   -0.048660
   9 Au:   -0.213991   -0.158419
  10 Au:    0.313094   -0.044705
  11 Au:   -0.191485   -0.119370
  12 Au:   -0.035677   -0.050827
  13 Au:    0.144239   -0.050902
  14 Au:    0.444586   -0.243745
  15 Au:   -0.597417   -0.023853
  16 Mn:    0.156804    4.987398
Sum of atomic charges         :   -0.0000000

LOEWDIN ATOMIC CHARGES AND SPIN POPULATIONS
-------------------------------------------
   0 Au:    0.010651   -0.174779
   1 Au:   -0.108247   -0.073619
   2 Au:    0.105327   -0.212986
   3 Au:   -0.117712   -0.163513
   4 Au:   -0.031983   -0.142557
   5 Au:    0.027632   -0.052246
   6 Au:   -0.097438   -0.088833
   7 Au:    0.014102   -0.128722
   8 Au:    0.043890   -0.097857
   9 Au:   -0.116635   -0.077024
  10 Au:   -0.021009   -0.077964
  11 Au:   -0.103942   -0.068414
  12 Au:   -0.060964   -0.078558
  13 Au:    0.040357   -0.100657
  14 Au:    0.115032   -0.178639
  15 Au:   -0.104865   -0.086401
  16 Mn:    0.405806    4.802769

  Mayer bond orders larger than 0.100000
B(  0-Au,  3-Au) :   0.1946 B(  0-Au,  5-Au) :   0.1799 B(  0-Au,  7-Au) :   0.2468
B(  0-Au, 13-Au) :   0.2784 B(  0-Au, 15-Au) :   0.3314 B(  1-Au,  2-Au) :   0.2373
B(  1-Au,  4-Au) :   0.2128 B(  1-Au,  6-Au) :   0.3513 B(  1-Au,  8-Au) :   0.2591
B(  1-Au,  9-Au) :   0.2597 B(  1-Au, 16-Mn) :   0.4147 B(  2-Au,  6-Au) :   0.3355
B(  2-Au,  9-Au) :   0.1632 B(  2-Au, 12-Au) :   0.1450 B(  3-Au,  4-Au) :   0.2012
B(  3-Au,  7-Au) :   0.2638 B(  3-Au,  8-Au) :   0.3800 B(  3-Au, 10-Au) :   0.2872
B(  3-Au, 13-Au) :   0.3673 B(  3-Au, 15-Au) :   0.1062 B(  4-Au,  8-Au) :   0.2209
B(  4-Au, 10-Au) :   0.2255 B(  4-Au, 16-Mn) :   0.4027 B(  5-Au,  6-Au) :   0.2397
B(  5-Au,  7-Au) :   0.2033 B(  5-Au, 12-Au) :   0.3109 B(  5-Au, 15-Au) :   0.2832
B(  6-Au,  7-Au) :   0.3518 B(  6-Au,  8-Au) :   0.2465 B(  6-Au, 12-Au) :   0.2933
B(  7-Au,  8-Au) :   0.2561 B(  9-Au, 11-Au) :   0.2012 B(  9-Au, 12-Au) :   0.2393
B(  9-Au, 14-Au) :   0.2153 B(  9-Au, 15-Au) :   0.1120 B(  9-Au, 16-Mn) :   0.4779
B( 10-Au, 11-Au) :   0.2648 B( 10-Au, 13-Au) :   0.2235 B( 10-Au, 16-Mn) :   0.3587
B( 11-Au, 13-Au) :   0.2371 B( 11-Au, 14-Au) :   0.2761 B( 11-Au, 15-Au) :   0.3311
B( 11-Au, 16-Mn) :   0.3998 B( 12-Au, 14-Au) :   0.1182 B( 12-Au, 15-Au) :   0.3491
B( 13-Au, 15-Au) :   0.2733 B( 14-Au, 15-Au) :   0.3004

MP2 TOTAL ENERGY:    -3320.243398009 Eh
FINAL SINGLE POINT ENERGY     -3320.243398008894

DIPOLE MOMENT
-------------
                                X             Y             Z
Electronic contribution:    -48.28473     -44.71718     -97.74240
Nuclear contribution   :     48.81068      44.99236      98.54399
                        -----------------------------------------
Total Dipole Moment    :      0.52595       0.27518       0.80159
                        -----------------------------------------
Magnitude (a.u.)       :      0.99744
Magnitude (Debye)      :      2.53530

Rotational constants in cm-1:     0.000850     0.000804     0.000787
Rotational constants in MHz :    25.493195    24.088324    23.595007

                             ****ORCA TERMINATED NORMALLY****
TOTAL RUN TIME: 0 days 1 hours 27 minutes 23 seconds 771 msec
