                         Program Version 5.0.3 -  RELEASE  -
|  1> !PBE def2-TZVP VERYSLOWCONV
|  2> !KDIIS
|  3>
|  4> %scf
|  5>   AutoTRAHIter 200
|  6>   maxiter 400
|  7> end
|  8>
|  9>
| 10> %pal nprocs 6 end
| 11>
| 12> *xyzfile 0 6 pbe.xyz
| 13>
| 14> $new_job
| 15>
| 16> !PBE def2-TZVP VERYSLOWCONV
| 17> !KDIIS
| 18>
| 19> %scf
| 20>   AutoTRAHIter 200
| 21>   maxiter 400
| 22> end
| 23>
| 24>
| 25> %pal nprocs 6 end
| 26>
| 27> *xyzfile 0 4 pbe.xyz
| 28>
| 29>
| 30>
| 31>
| 32>
| 33>                          ****END OF INPUT****
 Total Charge           Charge          ....    0
 Multiplicity           Mult            ....    6
 Number of Electrons    NEL             ....  329
FINAL SINGLE POINT ENERGY     -3324.036015121677

CARTESIAN COORDINATES (ANGSTROEM)
---------------------------------
  Au     4.264621    5.552259    6.848960
  Au     8.015262    9.862266    7.969594
  Au     9.723380    9.107442    5.846305
  Au     4.656485    7.895376    8.509740
  Au     5.989329   10.072230    9.948679
  Au     6.140165    6.143541    4.841868
  Au     7.050532    8.749463    5.457020
  Au     4.385024    8.124637    5.720842
  Au     5.368732   10.223154    7.208894
  Au     9.539022    7.627135    8.279984
  Au     5.867558    7.505934   11.024300
  Au     7.892467    6.004408    9.862039
  Au     8.721921    6.475980    5.756566
  Au     5.195456    5.322627    9.418857
  Au     9.598401    4.880657    7.974562
  Au     6.943108    4.981530    7.256653
  Mn     8.168444    8.637665   10.313475

 Multiplicity           Mult            ....    4
 Number of Electrons    NEL             ....  329
 Basis Dimension        Dim             ....  685

ORBITAL ENERGIES
----------------
                 SPIN UP ORBITALS
  NO   OCC          E(Eh)            E(eV)
   0   1.0000    -234.209170     -6373.1555
   1   1.0000     -26.905012      -732.1226
   2   1.0000     -23.055534      -627.3730
   3   1.0000     -23.053193      -627.3093
   4   1.0000     -23.051013      -627.2500
   5   1.0000      -4.037864      -109.8759
   6   1.0000      -4.037460      -109.8649
   7   1.0000      -4.036923      -109.8503
   8   1.0000      -4.035617      -109.8147
   9   1.0000      -4.031177      -109.6939
  10   1.0000      -4.029661      -109.6527
  11   1.0000      -4.029087      -109.6370
  12   1.0000      -4.026082      -109.5553
  13   1.0000      -4.025739      -109.5459
  14   1.0000      -4.024542      -109.5134
  15   1.0000      -4.024403      -109.5096
  16   1.0000      -4.023768      -109.4923
  17   1.0000      -4.022629      -109.4613
  18   1.0000      -4.021425      -109.4285
  19   1.0000      -4.020930      -109.4151
  20   1.0000      -4.018182      -109.3403
  21   1.0000      -3.117102       -84.8207
  22   1.0000      -2.255500       -61.3753
  23   1.0000      -2.254718       -61.3540
  24   1.0000      -2.254007       -61.3347
  25   1.0000      -2.253098       -61.3099
  26   1.0000      -2.251902       -61.2774
  27   1.0000      -2.251736       -61.2729
  28   1.0000      -2.250180       -61.2305
  29   1.0000      -2.249214       -61.2042
  30   1.0000      -2.247663       -61.1620
  31   1.0000      -2.246473       -61.1296
  32   1.0000      -2.245359       -61.0993
  33   1.0000      -2.245156       -61.0938
  34   1.0000      -2.244163       -61.0668
  35   1.0000      -2.244044       -61.0635
  36   1.0000      -2.243489       -61.0484
  37   1.0000      -2.243396       -61.0459
  38   1.0000      -2.243362       -61.0450
  39   1.0000      -2.242792       -61.0295
  40   1.0000      -2.242269       -61.0152
  41   1.0000      -2.241971       -61.0071
  42   1.0000      -2.241412       -60.9919
  43   1.0000      -2.240597       -60.9697
  44   1.0000      -2.240260       -60.9606
  45   1.0000      -2.239971       -60.9527
  46   1.0000      -2.239640       -60.9437
  47   1.0000      -2.239462       -60.9389
  48   1.0000      -2.238996       -60.9262
  49   1.0000      -2.238838       -60.9219
  50   1.0000      -2.238550       -60.9140
  51   1.0000      -2.237749       -60.8922
  52   1.0000      -2.237552       -60.8869
  53   1.0000      -2.237422       -60.8833
  54   1.0000      -2.236582       -60.8605
  55   1.0000      -2.236408       -60.8558
  56   1.0000      -2.235543       -60.8322
  57   1.0000      -2.235484       -60.8306
  58   1.0000      -2.235225       -60.8236
  59   1.0000      -2.234364       -60.8001
  60   1.0000      -2.233033       -60.7639
  61   1.0000      -2.232614       -60.7525
  62   1.0000      -2.232464       -60.7484
  63   1.0000      -2.232054       -60.7373
  64   1.0000      -2.231962       -60.7348
  65   1.0000      -2.231728       -60.7284
  66   1.0000      -2.231203       -60.7141
  67   1.0000      -2.230823       -60.7038
  68   1.0000      -2.228276       -60.6345
  69   1.0000      -2.228185       -60.6320
  70   1.0000      -2.024859       -55.0992
  71   1.0000      -2.019668       -54.9580
  72   1.0000      -2.014779       -54.8249
  73   1.0000      -0.417345       -11.3565
  74   1.0000      -0.390283       -10.6201
  75   1.0000      -0.389140       -10.5890
  76   1.0000      -0.386670       -10.5218
  77   1.0000      -0.372139       -10.1264
  78   1.0000      -0.371719       -10.1150
  79   1.0000      -0.369454       -10.0533
  80   1.0000      -0.369019       -10.0415
  81   1.0000      -0.365281        -9.9398
  82   1.0000      -0.362263        -9.8577
  83   1.0000      -0.362037        -9.8515
  84   1.0000      -0.360024        -9.7967
  85   1.0000      -0.359643        -9.7864
  86   1.0000      -0.357970        -9.7409
  87   1.0000      -0.356412        -9.6985
  88   1.0000      -0.352048        -9.5797
  89   1.0000      -0.349590        -9.5128
  90   1.0000      -0.349231        -9.5030
  91   1.0000      -0.348010        -9.4698
  92   1.0000      -0.347104        -9.4452
  93   1.0000      -0.345876        -9.4118
  94   1.0000      -0.342545        -9.3211
  95   1.0000      -0.340269        -9.2592
  96   1.0000      -0.337401        -9.1812
  97   1.0000      -0.336997        -9.1702
  98   1.0000      -0.333657        -9.0793
  99   1.0000      -0.333268        -9.0687
 100   1.0000      -0.330897        -9.0042
 101   1.0000      -0.329361        -8.9624
 102   1.0000      -0.327418        -8.9095
 103   1.0000      -0.323692        -8.8081
 104   1.0000      -0.321427        -8.7465
 105   1.0000      -0.316952        -8.6247
 106   1.0000      -0.315510        -8.5855
 107   1.0000      -0.311742        -8.4829
 108   1.0000      -0.308960        -8.4072
 109   1.0000      -0.308745        -8.4014
 110   1.0000      -0.306955        -8.3527
 111   1.0000      -0.304522        -8.2865
 112   1.0000      -0.303673        -8.2634
 113   1.0000      -0.301467        -8.2033
 114   1.0000      -0.300954        -8.1894
 115   1.0000      -0.298078        -8.1111
 116   1.0000      -0.293501        -7.9866
 117   1.0000      -0.292559        -7.9609
 118   1.0000      -0.292068        -7.9476
 119   1.0000      -0.288882        -7.8609
 120   1.0000      -0.288408        -7.8480
 121   1.0000      -0.286388        -7.7930
 122   1.0000      -0.285498        -7.7688
 123   1.0000      -0.283246        -7.7075
 124   1.0000      -0.281768        -7.6673
 125   1.0000      -0.280120        -7.6224
 126   1.0000      -0.278200        -7.5702
 127   1.0000      -0.276599        -7.5267
 128   1.0000      -0.275539        -7.4978
 129   1.0000      -0.273735        -7.4487
 130   1.0000      -0.270317        -7.3557
 131   1.0000      -0.269800        -7.3416
 132   1.0000      -0.268362        -7.3025
 133   1.0000      -0.267350        -7.2750
 134   1.0000      -0.265598        -7.2273
 135   1.0000      -0.265297        -7.2191
 136   1.0000      -0.262553        -7.1444
 137   1.0000      -0.262370        -7.1395
 138   1.0000      -0.262068        -7.1312
 139   1.0000      -0.261534        -7.1167
 140   1.0000      -0.260509        -7.0888
 141   1.0000      -0.259017        -7.0482
 142   1.0000      -0.257691        -7.0121
 143   1.0000      -0.256764        -6.9869
 144   1.0000      -0.255469        -6.9517
 145   1.0000      -0.255378        -6.9492
 146   1.0000      -0.254195        -6.9170
 147   1.0000      -0.252250        -6.8641
 148   1.0000      -0.251943        -6.8557
 149   1.0000      -0.250519        -6.8170
 150   1.0000      -0.248735        -6.7684
 151   1.0000      -0.248626        -6.7655
 152   1.0000      -0.247516        -6.7353
 153   1.0000      -0.247180        -6.7261
 154   1.0000      -0.244917        -6.6645
 155   1.0000      -0.243731        -6.6322
 156   1.0000      -0.243115        -6.6155
 157   1.0000      -0.240409        -6.5419
 158   1.0000      -0.239081        -6.5057
 159   1.0000      -0.237003        -6.4492
 160   1.0000      -0.235765        -6.4155
 161   1.0000      -0.232568        -6.3285
 162   1.0000      -0.227871        -6.2007
 163   1.0000      -0.215503        -5.8641
 164   1.0000      -0.212983        -5.7956
 165   1.0000      -0.209981        -5.7139
 166   0.0000      -0.193029        -5.2526
 167   0.0000      -0.156169        -4.2496
 168   0.0000      -0.139281        -3.7900
 169   0.0000      -0.133883        -3.6431
 170   0.0000      -0.132947        -3.6177

                 SPIN DOWN ORBITALS
  NO   OCC          E(Eh)            E(eV)
   0   1.0000    -234.208344     -6373.1330
   1   1.0000     -26.837194      -730.2772
   2   1.0000     -23.002879      -625.9402
   3   1.0000     -23.001631      -625.9062
   4   1.0000     -23.000687      -625.8805
   5   1.0000      -4.037123      -109.8557
   6   1.0000      -4.036618      -109.8420
   7   1.0000      -4.036167      -109.8297
   8   1.0000      -4.035141      -109.8018
   9   1.0000      -4.030672      -109.6802
  10   1.0000      -4.030522      -109.6761
  11   1.0000      -4.030067      -109.6637
  12   1.0000      -4.027079      -109.5824
  13   1.0000      -4.026299      -109.5612
  14   1.0000      -4.025470      -109.5386
  15   1.0000      -4.025391      -109.5364
  16   1.0000      -4.024136      -109.5023
  17   1.0000      -4.023565      -109.4868
  18   1.0000      -4.022641      -109.4616
  19   1.0000      -4.022047      -109.4455
  20   1.0000      -4.018415      -109.3466
  21   1.0000      -2.949384       -80.2568
  22   1.0000      -2.254430       -61.3461
  23   1.0000      -2.253742       -61.3274
  24   1.0000      -2.252949       -61.3059
  25   1.0000      -2.251811       -61.2749
  26   1.0000      -2.251080       -61.2550
  27   1.0000      -2.250811       -61.2477
  28   1.0000      -2.249764       -61.2192
  29   1.0000      -2.248574       -61.1868
  30   1.0000      -2.247015       -61.1444
  31   1.0000      -2.246368       -61.1268
  32   1.0000      -2.246137       -61.1205
  33   1.0000      -2.245479       -61.1026
  34   1.0000      -2.245159       -61.0939
  35   1.0000      -2.244632       -61.0795
  36   1.0000      -2.244258       -61.0694
  37   1.0000      -2.243786       -61.0565
  38   1.0000      -2.243453       -61.0475
  39   1.0000      -2.242984       -61.0347
  40   1.0000      -2.242535       -61.0225
  41   1.0000      -2.242241       -61.0145
  42   1.0000      -2.241920       -61.0057
  43   1.0000      -2.241131       -60.9843
  44   1.0000      -2.240887       -60.9776
  45   1.0000      -2.240651       -60.9712
  46   1.0000      -2.240325       -60.9623
  47   1.0000      -2.240065       -60.9553
  48   1.0000      -2.239860       -60.9497
  49   1.0000      -2.239579       -60.9420
  50   1.0000      -2.239299       -60.9344
  51   1.0000      -2.238736       -60.9191
  52   1.0000      -2.238543       -60.9138
  53   1.0000      -2.238399       -60.9099
  54   1.0000      -2.237824       -60.8943
  55   1.0000      -2.237715       -60.8913
  56   1.0000      -2.236893       -60.8689
  57   1.0000      -2.236528       -60.8590
  58   1.0000      -2.235762       -60.8382
  59   1.0000      -2.235363       -60.8273
  60   1.0000      -2.234277       -60.7978
  61   1.0000      -2.233450       -60.7753
  62   1.0000      -2.233119       -60.7663
  63   1.0000      -2.232668       -60.7540
  64   1.0000      -2.232558       -60.7510
  65   1.0000      -2.232246       -60.7425
  66   1.0000      -2.231538       -60.7232
  67   1.0000      -2.231244       -60.7152
  68   1.0000      -2.229000       -60.6542
  69   1.0000      -2.228501       -60.6406
  70   1.0000      -1.856169       -50.5089
  71   1.0000      -1.854870       -50.4736
  72   1.0000      -1.853700       -50.4417
  73   1.0000      -0.417888       -11.3713
  74   1.0000      -0.391339       -10.6489
  75   1.0000      -0.390647       -10.6300
  76   1.0000      -0.386491       -10.5170
  77   1.0000      -0.371879       -10.1193
  78   1.0000      -0.369116       -10.0442
  79   1.0000      -0.368646       -10.0314
  80   1.0000      -0.367794       -10.0082
  81   1.0000      -0.364937        -9.9304
  82   1.0000      -0.362915        -9.8754
  83   1.0000      -0.360778        -9.8173
  84   1.0000      -0.360653        -9.8139
  85   1.0000      -0.360044        -9.7973
  86   1.0000      -0.356450        -9.6995
  87   1.0000      -0.354917        -9.6578
  88   1.0000      -0.352393        -9.5891
  89   1.0000      -0.349778        -9.5180
  90   1.0000      -0.347268        -9.4496
  91   1.0000      -0.346763        -9.4359
  92   1.0000      -0.345315        -9.3965
  93   1.0000      -0.342647        -9.3239
  94   1.0000      -0.339992        -9.2516
  95   1.0000      -0.339289        -9.2325
  96   1.0000      -0.337131        -9.1738
  97   1.0000      -0.336280        -9.1507
  98   1.0000      -0.334286        -9.0964
  99   1.0000      -0.331662        -9.0250
 100   1.0000      -0.329864        -8.9761
 101   1.0000      -0.328297        -8.9334
 102   1.0000      -0.326990        -8.8979
 103   1.0000      -0.323788        -8.8107
 104   1.0000      -0.320578        -8.7234
 105   1.0000      -0.315064        -8.5733
 106   1.0000      -0.312504        -8.5037
 107   1.0000      -0.310427        -8.4471
 108   1.0000      -0.309120        -8.4116
 109   1.0000      -0.307605        -8.3704
 110   1.0000      -0.305253        -8.3064
 111   1.0000      -0.303230        -8.2513
 112   1.0000      -0.301480        -8.2037
 113   1.0000      -0.298447        -8.1211
 114   1.0000      -0.296782        -8.0758
 115   1.0000      -0.294610        -8.0168
 116   1.0000      -0.292570        -7.9612
 117   1.0000      -0.292000        -7.9457
 118   1.0000      -0.289987        -7.8909
 119   1.0000      -0.288542        -7.8516
 120   1.0000      -0.287043        -7.8108
 121   1.0000      -0.286798        -7.8042
 122   1.0000      -0.284988        -7.7549
 123   1.0000      -0.283396        -7.7116
 124   1.0000      -0.280667        -7.6373
 125   1.0000      -0.280220        -7.6252
 126   1.0000      -0.277749        -7.5579
 127   1.0000      -0.276400        -7.5212
 128   1.0000      -0.274894        -7.4803
 129   1.0000      -0.273232        -7.4350
 130   1.0000      -0.270917        -7.3720
 131   1.0000      -0.268371        -7.3028
 132   1.0000      -0.267618        -7.2823
 133   1.0000      -0.264686        -7.2025
 134   1.0000      -0.264141        -7.1877
 135   1.0000      -0.263553        -7.1716
 136   1.0000      -0.262518        -7.1435
 137   1.0000      -0.261665        -7.1203
 138   1.0000      -0.260799        -7.0967
 139   1.0000      -0.258902        -7.0451
 140   1.0000      -0.257554        -7.0084
 141   1.0000      -0.256554        -6.9812
 142   1.0000      -0.255247        -6.9456
 143   1.0000      -0.253659        -6.9024
 144   1.0000      -0.253311        -6.8929
 145   1.0000      -0.252585        -6.8732
 146   1.0000      -0.250579        -6.8186
 147   1.0000      -0.250068        -6.8047
 148   1.0000      -0.248459        -6.7609
 149   1.0000      -0.247030        -6.7220
 150   1.0000      -0.246483        -6.7071
 151   1.0000      -0.245595        -6.6830
 152   1.0000      -0.244390        -6.6502
 153   1.0000      -0.241345        -6.5673
 154   1.0000      -0.239615        -6.5203
 155   1.0000      -0.238598        -6.4926
 156   1.0000      -0.236470        -6.4347
 157   1.0000      -0.229827        -6.2539
 158   1.0000      -0.217052        -5.9063
 159   1.0000      -0.212775        -5.7899
 160   1.0000      -0.211284        -5.7493
 161   1.0000      -0.199262        -5.4222
 162   1.0000      -0.163376        -4.4457
 163   0.0000      -0.155901        -4.2423
 164   0.0000      -0.154476        -4.2035
 165   0.0000      -0.144696        -3.9374
 166   0.0000      -0.138875        -3.7790
 167   0.0000      -0.135402        -3.6845

MULLIKEN ATOMIC CHARGES AND SPIN POPULATIONS
--------------------------------------------
   0 Au:    0.310263   -0.150825
   1 Au:   -0.282951   -0.091615
   2 Au:    0.475717   -0.238727
   3 Au:   -0.999190   -0.251862
   4 Au:    0.339914   -0.116778
   5 Au:    0.252536   -0.030204
   6 Au:   -0.499444   -0.077147
   7 Au:    0.300038   -0.075135
   8 Au:    0.196183   -0.067143
   9 Au:   -0.228663   -0.105346
  10 Au:    0.357590   -0.003959
  11 Au:   -0.190129   -0.075519
  12 Au:   -0.050755   -0.068069
  13 Au:    0.190659   -0.068549
  14 Au:    0.504878   -0.171788
  15 Au:   -0.656900   -0.067962
  16 Mn:   -0.019746    4.660627
Sum of atomic charges         :    0.0000000

LOEWDIN ATOMIC CHARGES AND SPIN POPULATIONS
-------------------------------------------
   0 Au:    0.017772   -0.147193
   1 Au:   -0.065296   -0.040552
   2 Au:    0.102435   -0.194491
   3 Au:   -0.109756   -0.140775
   4 Au:    0.017722   -0.091311
   5 Au:    0.024321   -0.044843
   6 Au:   -0.095381   -0.095763
   7 Au:    0.020452   -0.098219
   8 Au:    0.037849   -0.104434
   9 Au:   -0.074769   -0.031626
  10 Au:    0.027071   -0.014963
  11 Au:   -0.060064   -0.018409
  12 Au:   -0.061782   -0.072296
  13 Au:    0.033429   -0.101376
  14 Au:    0.109863   -0.156853
  15 Au:   -0.098773   -0.085760
  16 Mn:    0.174909    4.438863

  Mayer bond orders larger than 0.100000
B(  0-Au,  3-Au) :   0.2461 B(  0-Au,  5-Au) :   0.2178 B(  0-Au,  7-Au) :   0.2498
B(  0-Au, 13-Au) :   0.3240 B(  0-Au, 15-Au) :   0.3620 B(  1-Au,  2-Au) :   0.2611
B(  1-Au,  4-Au) :   0.2113 B(  1-Au,  6-Au) :   0.3591 B(  1-Au,  8-Au) :   0.2864
B(  1-Au,  9-Au) :   0.2550 B(  1-Au, 16-Mn) :   0.4913 B(  2-Au,  6-Au) :   0.3925
B(  2-Au,  9-Au) :   0.1858 B(  2-Au, 12-Au) :   0.1721 B(  3-Au,  4-Au) :   0.2382
B(  3-Au,  6-Au) :   0.1096 B(  3-Au,  7-Au) :   0.3319 B(  3-Au,  8-Au) :   0.4055
B(  3-Au, 10-Au) :   0.3429 B(  3-Au, 13-Au) :   0.3840 B(  3-Au, 15-Au) :   0.1296
B(  3-Au, 16-Mn) :   0.1064 B(  4-Au,  8-Au) :   0.2612 B(  4-Au, 10-Au) :   0.2349
B(  4-Au, 16-Mn) :   0.4801 B(  5-Au,  6-Au) :   0.2725 B(  5-Au,  7-Au) :   0.2373
B(  5-Au, 12-Au) :   0.3318 B(  5-Au, 15-Au) :   0.3145 B(  6-Au,  7-Au) :   0.3884
B(  6-Au,  8-Au) :   0.2530 B(  6-Au, 12-Au) :   0.3015 B(  7-Au,  8-Au) :   0.2954
B(  9-Au, 11-Au) :   0.2063 B(  9-Au, 12-Au) :   0.2788 B(  9-Au, 14-Au) :   0.2395
B(  9-Au, 15-Au) :   0.1201 B(  9-Au, 16-Mn) :   0.4898 B( 10-Au, 11-Au) :   0.2661
B( 10-Au, 13-Au) :   0.2659 B( 10-Au, 16-Mn) :   0.4060 B( 11-Au, 13-Au) :   0.2615
B( 11-Au, 14-Au) :   0.3007 B( 11-Au, 15-Au) :   0.3485 B( 11-Au, 16-Mn) :   0.4730
B( 12-Au, 14-Au) :   0.1469 B( 12-Au, 15-Au) :   0.3758 B( 13-Au, 15-Au) :   0.2798
B( 14-Au, 15-Au) :   0.3357

FINAL SINGLE POINT ENERGY     -3324.006296445721

DIPOLE MOMENT
-------------
                                X             Y             Z
Electronic contribution:    -48.34814     -44.78105     -97.77989
Nuclear contribution   :     48.81068      44.99236      98.54399
                        -----------------------------------------
Total Dipole Moment    :      0.46254       0.21131       0.76410
                        -----------------------------------------
Magnitude (a.u.)       :      0.91785
Magnitude (Debye)      :      2.33298

Rotational constants in cm-1:     0.000850     0.000804     0.000787
Rotational constants in MHz :    25.493195    24.088324    23.595007

                             ****ORCA TERMINATED NORMALLY****
TOTAL RUN TIME: 0 days 0 hours 10 minutes 27 seconds 592 msec
