                         Program Version 5.0.3 -  RELEASE  -
|  1> !R2SCAN def2-TZVP VERYSLOWCONV
|  2> !KDIIS
|  3> %scf
|  4>   AutoTRAHIter 200
|  5>   maxiter 400
|  6> end
|  7>
|  8> %pal nprocs 6 end
|  9>
| 10> *xyzfile 0 6 pbe.xyz
| 11>
| 12> $new_job
| 13>
| 14> !R2SCAN def2-TZVP VERYSLOWCONV
| 15> !KDIIS
| 16> %scf
| 17>   AutoTRAHIter 200
| 18>   maxiter 400
| 19> end
| 20>
| 21>
| 22> %pal nprocs 6 end
| 23>
| 24> *xyzfile 0 4 pbe.xyz
| 25>
| 26>
| 27>
| 28>
| 29>
| 30>                          ****END OF INPUT****
 Total Charge           Charge          ....    0
 Multiplicity           Mult            ....    6
 Number of Electrons    NEL             ....  329
FINAL SINGLE POINT ENERGY     -3324.586734130612

CARTESIAN COORDINATES (ANGSTROEM)
---------------------------------
  Au     4.264621    5.552259    6.848960
  Au     8.015262    9.862266    7.969594
  Au     9.723380    9.107442    5.846305
  Au     4.656485    7.895376    8.509740
  Au     5.989329   10.072230    9.948679
  Au     6.140165    6.143541    4.841868
  Au     7.050532    8.749463    5.457020
  Au     4.385024    8.124637    5.720842
  Au     5.368732   10.223154    7.208894
  Au     9.539022    7.627135    8.279984
  Au     5.867558    7.505934   11.024300
  Au     7.892467    6.004408    9.862039
  Au     8.721921    6.475980    5.756566
  Au     5.195456    5.322627    9.418857
  Au     9.598401    4.880657    7.974562
  Au     6.943108    4.981530    7.256653
  Mn     8.168444    8.637665   10.313475

 Multiplicity           Mult            ....    4
 Number of Electrons    NEL             ....  329
 Basis Dimension        Dim             ....  685

ORBITAL ENERGIES
----------------
                 SPIN UP ORBITALS
  NO   OCC          E(Eh)            E(eV)
   0   1.0000    -235.057965     -6396.2524
   1   1.0000     -27.240195      -741.2434
   2   1.0000     -23.287767      -633.6924
   3   1.0000     -23.286428      -633.6559
   4   1.0000     -23.285195      -633.6224
   5   1.0000      -4.129762      -112.3765
   6   1.0000      -4.128884      -112.3526
   7   1.0000      -4.128524      -112.3429
   8   1.0000      -4.127336      -112.3105
   9   1.0000      -4.122788      -112.1868
  10   1.0000      -4.120407      -112.1220
  11   1.0000      -4.120088      -112.1133
  12   1.0000      -4.116584      -112.0180
  13   1.0000      -4.115916      -111.9998
  14   1.0000      -4.115236      -111.9813
  15   1.0000      -4.114833      -111.9703
  16   1.0000      -4.114222      -111.9537
  17   1.0000      -4.112308      -111.9016
  18   1.0000      -4.111667      -111.8842
  19   1.0000      -4.110853      -111.8620
  20   1.0000      -4.108236      -111.7908
  21   1.0000      -3.264783       -88.8393
  22   1.0000      -2.320142       -63.1343
  23   1.0000      -2.318850       -63.0991
  24   1.0000      -2.318386       -63.0865
  25   1.0000      -2.317455       -63.0612
  26   1.0000      -2.316288       -63.0294
  27   1.0000      -2.315925       -63.0195
  28   1.0000      -2.314363       -62.9770
  29   1.0000      -2.313470       -62.9527
  30   1.0000      -2.312133       -62.9163
  31   1.0000      -2.310764       -62.8791
  32   1.0000      -2.309081       -62.8333
  33   1.0000      -2.308783       -62.8252
  34   1.0000      -2.308654       -62.8217
  35   1.0000      -2.308060       -62.8055
  36   1.0000      -2.307367       -62.7867
  37   1.0000      -2.307243       -62.7833
  38   1.0000      -2.306873       -62.7732
  39   1.0000      -2.306722       -62.7691
  40   1.0000      -2.306309       -62.7579
  41   1.0000      -2.305771       -62.7432
  42   1.0000      -2.304741       -62.7152
  43   1.0000      -2.304133       -62.6987
  44   1.0000      -2.303681       -62.6863
  45   1.0000      -2.303517       -62.6819
  46   1.0000      -2.303366       -62.6778
  47   1.0000      -2.302773       -62.6616
  48   1.0000      -2.302146       -62.6446
  49   1.0000      -2.301880       -62.6373
  50   1.0000      -2.301646       -62.6310
  51   1.0000      -2.300910       -62.6109
  52   1.0000      -2.300439       -62.5981
  53   1.0000      -2.300065       -62.5880
  54   1.0000      -2.299674       -62.5773
  55   1.0000      -2.299277       -62.5665
  56   1.0000      -2.298561       -62.5470
  57   1.0000      -2.298011       -62.5321
  58   1.0000      -2.297992       -62.5315
  59   1.0000      -2.297243       -62.5112
  60   1.0000      -2.296659       -62.4953
  61   1.0000      -2.295747       -62.4705
  62   1.0000      -2.295269       -62.4574
  63   1.0000      -2.295040       -62.4512
  64   1.0000      -2.294919       -62.4479
  65   1.0000      -2.294695       -62.4418
  66   1.0000      -2.294545       -62.4377
  67   1.0000      -2.293919       -62.4207
  68   1.0000      -2.291892       -62.3655
  69   1.0000      -2.291352       -62.3508
  70   1.0000      -2.124497       -57.8105
  71   1.0000      -2.120862       -57.7116
  72   1.0000      -2.118008       -57.6339
  73   1.0000      -0.422106       -11.4861
  74   1.0000      -0.396071       -10.7776
  75   1.0000      -0.394653       -10.7391
  76   1.0000      -0.392783       -10.6882
  77   1.0000      -0.383077       -10.4241
  78   1.0000      -0.382101       -10.3975
  79   1.0000      -0.379908       -10.3378
  80   1.0000      -0.378661       -10.3039
  81   1.0000      -0.375867       -10.2278
  82   1.0000      -0.372443       -10.1347
  83   1.0000      -0.370350       -10.0777
  84   1.0000      -0.369731       -10.0609
  85   1.0000      -0.369381       -10.0514
  86   1.0000      -0.367466        -9.9992
  87   1.0000      -0.366676        -9.9778
  88   1.0000      -0.363003        -9.8778
  89   1.0000      -0.360079        -9.7983
  90   1.0000      -0.359337        -9.7781
  91   1.0000      -0.358657        -9.7596
  92   1.0000      -0.358075        -9.7437
  93   1.0000      -0.355913        -9.6849
  94   1.0000      -0.353807        -9.6276
  95   1.0000      -0.350335        -9.5331
  96   1.0000      -0.347438        -9.4543
  97   1.0000      -0.346389        -9.4257
  98   1.0000      -0.343559        -9.3487
  99   1.0000      -0.342648        -9.3239
 100   1.0000      -0.341435        -9.2909
 101   1.0000      -0.338908        -9.2222
 102   1.0000      -0.336444        -9.1551
 103   1.0000      -0.333123        -9.0647
 104   1.0000      -0.330920        -9.0048
 105   1.0000      -0.330715        -8.9992
 106   1.0000      -0.327854        -8.9214
 107   1.0000      -0.322070        -8.7640
 108   1.0000      -0.319552        -8.6954
 109   1.0000      -0.318588        -8.6692
 110   1.0000      -0.316049        -8.6001
 111   1.0000      -0.315866        -8.5952
 112   1.0000      -0.313568        -8.5326
 113   1.0000      -0.312115        -8.4931
 114   1.0000      -0.310612        -8.4522
 115   1.0000      -0.307966        -8.3802
 116   1.0000      -0.304593        -8.2884
 117   1.0000      -0.301738        -8.2107
 118   1.0000      -0.300749        -8.1838
 119   1.0000      -0.298557        -8.1242
 120   1.0000      -0.297189        -8.0869
 121   1.0000      -0.296212        -8.0603
 122   1.0000      -0.295426        -8.0389
 123   1.0000      -0.293068        -7.9748
 124   1.0000      -0.291705        -7.9377
 125   1.0000      -0.290013        -7.8916
 126   1.0000      -0.288639        -7.8543
 127   1.0000      -0.286481        -7.7955
 128   1.0000      -0.285250        -7.7621
 129   1.0000      -0.284550        -7.7430
 130   1.0000      -0.283991        -7.7278
 131   1.0000      -0.282239        -7.6801
 132   1.0000      -0.279088        -7.5944
 133   1.0000      -0.277594        -7.5537
 134   1.0000      -0.275068        -7.4850
 135   1.0000      -0.274761        -7.4766
 136   1.0000      -0.273744        -7.4490
 137   1.0000      -0.272462        -7.4141
 138   1.0000      -0.270757        -7.3677
 139   1.0000      -0.270419        -7.3585
 140   1.0000      -0.269731        -7.3398
 141   1.0000      -0.268890        -7.3169
 142   1.0000      -0.267381        -7.2758
 143   1.0000      -0.265936        -7.2365
 144   1.0000      -0.263940        -7.1822
 145   1.0000      -0.263503        -7.1703
 146   1.0000      -0.262306        -7.1377
 147   1.0000      -0.260755        -7.0955
 148   1.0000      -0.259838        -7.0706
 149   1.0000      -0.258528        -7.0349
 150   1.0000      -0.257475        -7.0063
 151   1.0000      -0.256600        -6.9824
 152   1.0000      -0.255599        -6.9552
 153   1.0000      -0.254418        -6.9231
 154   1.0000      -0.252157        -6.8615
 155   1.0000      -0.250613        -6.8195
 156   1.0000      -0.250091        -6.8053
 157   1.0000      -0.248009        -6.7487
 158   1.0000      -0.246140        -6.6978
 159   1.0000      -0.243709        -6.6317
 160   1.0000      -0.242362        -6.5950
 161   1.0000      -0.238699        -6.4953
 162   1.0000      -0.231815        -6.3080
 163   1.0000      -0.217563        -5.9202
 164   1.0000      -0.214812        -5.8453
 165   1.0000      -0.212109        -5.7718
 166   0.0000      -0.191097        -5.2000
 167   0.0000      -0.152294        -4.1441
 168   0.0000      -0.135940        -3.6991
 169   0.0000      -0.130598        -3.5538
 170   0.0000      -0.129591        -3.5264

                 SPIN DOWN ORBITALS
  NO   OCC          E(Eh)            E(eV)
   0   1.0000    -235.056868     -6396.2226
   1   1.0000     -27.149563      -738.7772
   2   1.0000     -23.217361      -631.7765
   3   1.0000     -23.217027      -631.7674
   4   1.0000     -23.216516      -631.7535
   5   1.0000      -4.129132      -112.3594
   6   1.0000      -4.128130      -112.3321
   7   1.0000      -4.127723      -112.3211
   8   1.0000      -4.127028      -112.3021
   9   1.0000      -4.122274      -112.1728
  10   1.0000      -4.121385      -112.1486
  11   1.0000      -4.121195      -112.1434
  12   1.0000      -4.117857      -112.0526
  13   1.0000      -4.116597      -112.0183
  14   1.0000      -4.116349      -112.0116
  15   1.0000      -4.116105      -112.0049
  16   1.0000      -4.114670      -111.9659
  17   1.0000      -4.113473      -111.9333
  18   1.0000      -4.113347      -111.9299
  19   1.0000      -4.112361      -111.9030
  20   1.0000      -4.108484      -111.7975
  21   1.0000      -3.047268       -82.9204
  22   1.0000      -2.318861       -63.0994
  23   1.0000      -2.317938       -63.0743
  24   1.0000      -2.317255       -63.0557
  25   1.0000      -2.315987       -63.0212
  26   1.0000      -2.315489       -63.0077
  27   1.0000      -2.314985       -62.9939
  28   1.0000      -2.313951       -62.9658
  29   1.0000      -2.312637       -62.9300
  30   1.0000      -2.311146       -62.8895
  31   1.0000      -2.310182       -62.8633
  32   1.0000      -2.309891       -62.8553
  33   1.0000      -2.309367       -62.8411
  34   1.0000      -2.308832       -62.8265
  35   1.0000      -2.308442       -62.8159
  36   1.0000      -2.308229       -62.8101
  37   1.0000      -2.307784       -62.7980
  38   1.0000      -2.307720       -62.7962
  39   1.0000      -2.307225       -62.7828
  40   1.0000      -2.306672       -62.7677
  41   1.0000      -2.306230       -62.7557
  42   1.0000      -2.305879       -62.7461
  43   1.0000      -2.304761       -62.7157
  44   1.0000      -2.304476       -62.7080
  45   1.0000      -2.304153       -62.6992
  46   1.0000      -2.303799       -62.6896
  47   1.0000      -2.303692       -62.6866
  48   1.0000      -2.303304       -62.6761
  49   1.0000      -2.303141       -62.6716
  50   1.0000      -2.302501       -62.6542
  51   1.0000      -2.301998       -62.6405
  52   1.0000      -2.301903       -62.6380
  53   1.0000      -2.301265       -62.6206
  54   1.0000      -2.301084       -62.6157
  55   1.0000      -2.300727       -62.6060
  56   1.0000      -2.299865       -62.5825
  57   1.0000      -2.299306       -62.5673
  58   1.0000      -2.299166       -62.5635
  59   1.0000      -2.298438       -62.5437
  60   1.0000      -2.297465       -62.5172
  61   1.0000      -2.297058       -62.5061
  62   1.0000      -2.296187       -62.4824
  63   1.0000      -2.295857       -62.4734
  64   1.0000      -2.295649       -62.4678
  65   1.0000      -2.295279       -62.4577
  66   1.0000      -2.295272       -62.4575
  67   1.0000      -2.294219       -62.4289
  68   1.0000      -2.292899       -62.3930
  69   1.0000      -2.291612       -62.3579
  70   1.0000      -1.906202       -51.8704
  71   1.0000      -1.903713       -51.8027
  72   1.0000      -1.903443       -51.7953
  73   1.0000      -0.423379       -11.5207
  74   1.0000      -0.397301       -10.8111
  75   1.0000      -0.396612       -10.7924
  76   1.0000      -0.393413       -10.7053
  77   1.0000      -0.380547       -10.3552
  78   1.0000      -0.378320       -10.2946
  79   1.0000      -0.377988       -10.2856
  80   1.0000      -0.377188       -10.2638
  81   1.0000      -0.373429       -10.1615
  82   1.0000      -0.371712       -10.1148
  83   1.0000      -0.369955       -10.0670
  84   1.0000      -0.369403       -10.0520
  85   1.0000      -0.369014       -10.0414
  86   1.0000      -0.365861        -9.9556
  87   1.0000      -0.364501        -9.9186
  88   1.0000      -0.361532        -9.8378
  89   1.0000      -0.359196        -9.7742
  90   1.0000      -0.356712        -9.7066
  91   1.0000      -0.356202        -9.6927
  92   1.0000      -0.354937        -9.6583
  93   1.0000      -0.352278        -9.5860
  94   1.0000      -0.349436        -9.5086
  95   1.0000      -0.348699        -9.4886
  96   1.0000      -0.346610        -9.4317
  97   1.0000      -0.345656        -9.4058
  98   1.0000      -0.343740        -9.3536
  99   1.0000      -0.341223        -9.2852
 100   1.0000      -0.338900        -9.2219
 101   1.0000      -0.337346        -9.1796
 102   1.0000      -0.336334        -9.1521
 103   1.0000      -0.333054        -9.0629
 104   1.0000      -0.329347        -8.9620
 105   1.0000      -0.324293        -8.8244
 106   1.0000      -0.321245        -8.7415
 107   1.0000      -0.319039        -8.6815
 108   1.0000      -0.317853        -8.6492
 109   1.0000      -0.316302        -8.6070
 110   1.0000      -0.314000        -8.5444
 111   1.0000      -0.311847        -8.4858
 112   1.0000      -0.310435        -8.4474
 113   1.0000      -0.307532        -8.3684
 114   1.0000      -0.305687        -8.3182
 115   1.0000      -0.303037        -8.2461
 116   1.0000      -0.301577        -8.2063
 117   1.0000      -0.300960        -8.1895
 118   1.0000      -0.298267        -8.1163
 119   1.0000      -0.297066        -8.0836
 120   1.0000      -0.295729        -8.0472
 121   1.0000      -0.295092        -8.0299
 122   1.0000      -0.293476        -7.9859
 123   1.0000      -0.291681        -7.9371
 124   1.0000      -0.288958        -7.8629
 125   1.0000      -0.288786        -7.8583
 126   1.0000      -0.286626        -7.7995
 127   1.0000      -0.285050        -7.7566
 128   1.0000      -0.283622        -7.7177
 129   1.0000      -0.281919        -7.6714
 130   1.0000      -0.279146        -7.5960
 131   1.0000      -0.277430        -7.5493
 132   1.0000      -0.276190        -7.5155
 133   1.0000      -0.273054        -7.4302
 134   1.0000      -0.272510        -7.4154
 135   1.0000      -0.271941        -7.3999
 136   1.0000      -0.270566        -7.3625
 137   1.0000      -0.269762        -7.3406
 138   1.0000      -0.269143        -7.3238
 139   1.0000      -0.267048        -7.2667
 140   1.0000      -0.265605        -7.2275
 141   1.0000      -0.264515        -7.1978
 142   1.0000      -0.263132        -7.1602
 143   1.0000      -0.261639        -7.1196
 144   1.0000      -0.261026        -7.1029
 145   1.0000      -0.260483        -7.0881
 146   1.0000      -0.258271        -7.0279
 147   1.0000      -0.257649        -7.0110
 148   1.0000      -0.256051        -6.9675
 149   1.0000      -0.254490        -6.9250
 150   1.0000      -0.253865        -6.9080
 151   1.0000      -0.252625        -6.8743
 152   1.0000      -0.251340        -6.8393
 153   1.0000      -0.248247        -6.7551
 154   1.0000      -0.246195        -6.6993
 155   1.0000      -0.245136        -6.6705
 156   1.0000      -0.242392        -6.5958
 157   1.0000      -0.234912        -6.3923
 158   1.0000      -0.220713        -6.0059
 159   1.0000      -0.216106        -5.8805
 160   1.0000      -0.213779        -5.8172
 161   1.0000      -0.200601        -5.4586
 162   1.0000      -0.162835        -4.4310
 163   0.0000      -0.149515        -4.0685
 164   0.0000      -0.148314        -4.0358
 165   0.0000      -0.140319        -3.8183
 166   0.0000      -0.130491        -3.5508
 167   0.0000      -0.126904        -3.4532

MULLIKEN ATOMIC CHARGES AND SPIN POPULATIONS
--------------------------------------------
   0 Au:    0.281589   -0.183525
   1 Au:   -0.277098   -0.083124
   2 Au:    0.436924   -0.293650
   3 Au:   -0.940095   -0.260508
   4 Au:    0.297988   -0.146007
   5 Au:    0.238883   -0.028336
   6 Au:   -0.460646   -0.057764
   7 Au:    0.279035   -0.090010
   8 Au:    0.184394   -0.063217
   9 Au:   -0.224753   -0.117594
  10 Au:    0.328898   -0.004498
  11 Au:   -0.194157   -0.085941
  12 Au:   -0.052138   -0.062449
  13 Au:    0.180861   -0.065090
  14 Au:    0.471052   -0.209483
  15 Au:   -0.613909   -0.051408
  16 Mn:    0.063172    4.802605
Sum of atomic charges         :   -0.0000000

LOEWDIN ATOMIC CHARGES AND SPIN POPULATIONS
-------------------------------------------
   0 Au:    0.012156   -0.163322
   1 Au:   -0.074046   -0.049631
   2 Au:    0.093695   -0.219447
   3 Au:   -0.108826   -0.149561
   4 Au:    0.000820   -0.109531
   5 Au:    0.023752   -0.048518
   6 Au:   -0.091564   -0.093539
   7 Au:    0.017631   -0.107309
   8 Au:    0.038305   -0.102906
   9 Au:   -0.082735   -0.045351
  10 Au:    0.014267   -0.025119
  11 Au:   -0.070163   -0.031634
  12 Au:   -0.061254   -0.074737
  13 Au:    0.033910   -0.101695
  14 Au:    0.104769   -0.173189
  15 Au:   -0.095996   -0.087105
  16 Mn:    0.245280    4.582594

  Mayer bond orders larger than 0.100000
B(  0-Au,  3-Au) :   0.2200 B(  0-Au,  5-Au) :   0.2003 B(  0-Au,  7-Au) :   0.2472
B(  0-Au, 13-Au) :   0.3091 B(  0-Au, 15-Au) :   0.3494 B(  1-Au,  2-Au) :   0.2434
B(  1-Au,  4-Au) :   0.2055 B(  1-Au,  6-Au) :   0.3312 B(  1-Au,  8-Au) :   0.2653
B(  1-Au,  9-Au) :   0.2665 B(  1-Au, 16-Mn) :   0.4809 B(  2-Au,  6-Au) :   0.3831
B(  2-Au,  9-Au) :   0.1685 B(  2-Au, 12-Au) :   0.1556 B(  3-Au,  4-Au) :   0.2061
B(  3-Au,  6-Au) :   0.1026 B(  3-Au,  7-Au) :   0.3040 B(  3-Au,  8-Au) :   0.3965
B(  3-Au, 10-Au) :   0.3173 B(  3-Au, 13-Au) :   0.3742 B(  3-Au, 15-Au) :   0.1210
B(  4-Au,  8-Au) :   0.2390 B(  4-Au, 10-Au) :   0.2278 B(  4-Au, 16-Mn) :   0.4702
B(  5-Au,  6-Au) :   0.2622 B(  5-Au,  7-Au) :   0.2232 B(  5-Au, 12-Au) :   0.3209
B(  5-Au, 15-Au) :   0.3067 B(  6-Au,  7-Au) :   0.3812 B(  6-Au,  8-Au) :   0.2446
B(  6-Au, 12-Au) :   0.2935 B(  7-Au,  8-Au) :   0.2798 B(  9-Au, 11-Au) :   0.2037
B(  9-Au, 12-Au) :   0.2510 B(  9-Au, 14-Au) :   0.2238 B(  9-Au, 15-Au) :   0.1044
B(  9-Au, 16-Mn) :   0.5021 B( 10-Au, 11-Au) :   0.2693 B( 10-Au, 13-Au) :   0.2466
B( 10-Au, 16-Mn) :   0.4001 B( 11-Au, 13-Au) :   0.2392 B( 11-Au, 14-Au) :   0.2958
B( 11-Au, 15-Au) :   0.3181 B( 11-Au, 16-Mn) :   0.4614 B( 12-Au, 14-Au) :   0.1320
B( 12-Au, 15-Au) :   0.3742 B( 13-Au, 15-Au) :   0.2714 B( 14-Au, 15-Au) :   0.3220

FINAL SINGLE POINT ENERGY     -3324.555502510912

DIPOLE MOMENT
-------------
                                X             Y             Z
Electronic contribution:    -48.32904     -44.75252     -97.71916
Nuclear contribution   :     48.81068      44.99236      98.54399
                        -----------------------------------------
Total Dipole Moment    :      0.48164       0.23984       0.82483
                        -----------------------------------------
Magnitude (a.u.)       :      0.98480
Magnitude (Debye)      :      2.50317

Rotational constants in cm-1:     0.000850     0.000804     0.000787
Rotational constants in MHz :    25.493195    24.088324    23.595007

                             ****ORCA TERMINATED NORMALLY****
TOTAL RUN TIME: 0 days 0 hours 18 minutes 8 seconds 322 msec
