                         Program Version 5.0.3 -  RELEASE  -
|  1> %pal nprocs 1 end
|  2>
|  3> !PBE def2-TZVP OPT UNO
|  4> !SLOWCONV KDIIS
|  5>
|  6> %geom maxiter 300 end
|  7>
|  8> *xyzfile 0 5 4.xyz                           ****END OF INPUT****
 Total Charge           Charge          ....    0
 Multiplicity           Mult            ....    5
 Number of Electrons    NEL             ....  254
FINAL SINGLE POINT ENERGY     -2893.391548132228
FINAL SINGLE POINT ENERGY     -2893.392692516242
FINAL SINGLE POINT ENERGY     -2893.393534837354
FINAL SINGLE POINT ENERGY     -2893.393925150488
FINAL SINGLE POINT ENERGY     -2893.394126597209
FINAL SINGLE POINT ENERGY     -2893.394360974527
FINAL SINGLE POINT ENERGY     -2893.394519475005
FINAL SINGLE POINT ENERGY     -2893.394598490913
FINAL SINGLE POINT ENERGY     -2893.394650132871
FINAL SINGLE POINT ENERGY     -2893.394677537092
FINAL SINGLE POINT ENERGY     -2893.394697469389
FINAL SINGLE POINT ENERGY     -2893.394704589514
FINAL SINGLE POINT ENERGY     -2893.394707851507
FINAL SINGLE POINT ENERGY     -2893.394709496593
FINAL SINGLE POINT ENERGY     -2893.394710975583
FINAL SINGLE POINT ENERGY     -2893.394711755436
                    ***********************HURRAY********************

CARTESIAN COORDINATES (ANGSTROEM)
---------------------------------
  Au     4.858170    6.854493    8.286055
  Au     7.727527    5.172268    5.072792
  Au     6.739657    4.933071    7.650574
  Au     7.670544    7.363650    9.072722
  Au     9.311776    6.232915    7.201409
  Au     8.892768    7.842343    4.983910
  Au     6.208530    9.453851    8.234679
  Au     4.800359   11.024137    6.520992
  Au     3.307671    9.092769    8.043439
  Au     4.375302    8.247261    5.692336
  Au     6.169700    7.158663    4.019742
  Au     6.889212    9.711962    5.345188
  Fe     6.843050    7.337333    6.565930

 Multiplicity           Mult            ....    5
 Number of Electrons    NEL             ....  254
 Basis Dimension        Dim             ....  525

ORBITAL ENERGIES
----------------
                 SPIN UP ORBITALS
  NO   OCC          E(Eh)            E(eV)
   0   1.0000    -254.772531     -6932.7130
   1   1.0000     -29.614744      -805.8581
   2   1.0000     -25.550980      -695.2775
   3   1.0000     -25.549771      -695.2446
   4   1.0000     -25.548103      -695.1992
   5   1.0000      -4.031633      -109.7063
   6   1.0000      -4.031622      -109.7060
   7   1.0000      -4.028682      -109.6260
   8   1.0000      -4.028619      -109.6243
   9   1.0000      -4.028460      -109.6200
  10   1.0000      -4.028345      -109.6169
  11   1.0000      -4.024946      -109.5244
  12   1.0000      -4.024879      -109.5225
  13   1.0000      -4.017604      -109.3246
  14   1.0000      -4.017397      -109.3189
  15   1.0000      -4.016387      -109.2915
  16   1.0000      -4.016310      -109.2894
  17   1.0000      -3.393127       -92.3317
  18   1.0000      -2.249234       -61.2048
  19   1.0000      -2.249204       -61.2039
  20   1.0000      -2.248010       -61.1715
  21   1.0000      -2.247841       -61.1669
  22   1.0000      -2.245718       -61.1091
  23   1.0000      -2.245609       -61.1061
  24   1.0000      -2.244485       -61.0755
  25   1.0000      -2.244444       -61.0744
  26   1.0000      -2.241869       -61.0044
  27   1.0000      -2.241840       -61.0036
  28   1.0000      -2.241262       -60.9879
  29   1.0000      -2.241218       -60.9867
  30   1.0000      -2.240722       -60.9731
  31   1.0000      -2.240541       -60.9682
  32   1.0000      -2.239798       -60.9480
  33   1.0000      -2.239579       -60.9420
  34   1.0000      -2.238485       -60.9123
  35   1.0000      -2.238434       -60.9109
  36   1.0000      -2.237544       -60.8867
  37   1.0000      -2.237525       -60.8861
  38   1.0000      -2.236799       -60.8664
  39   1.0000      -2.236597       -60.8609
  40   1.0000      -2.234027       -60.7910
  41   1.0000      -2.233930       -60.7883
  42   1.0000      -2.232293       -60.7438
  43   1.0000      -2.231890       -60.7328
  44   1.0000      -2.231841       -60.7315
  45   1.0000      -2.231442       -60.7206
  46   1.0000      -2.231206       -60.7142
  47   1.0000      -2.230571       -60.6969
  48   1.0000      -2.230363       -60.6913
  49   1.0000      -2.228621       -60.6439
  50   1.0000      -2.227717       -60.6193
  51   1.0000      -2.226853       -60.5958
  52   1.0000      -2.226459       -60.5850
  53   1.0000      -2.226212       -60.5783
  54   1.0000      -2.208884       -60.1068
  55   1.0000      -2.207076       -60.0576
  56   1.0000      -2.202977       -59.9460
  57   1.0000      -0.431689       -11.7469
  58   1.0000      -0.391854       -10.6629
  59   1.0000      -0.383222       -10.4280
  60   1.0000      -0.380220       -10.3463
  61   1.0000      -0.377830       -10.2813
  62   1.0000      -0.372253       -10.1295
  63   1.0000      -0.368482       -10.0269
  64   1.0000      -0.361909        -9.8480
  65   1.0000      -0.355659        -9.6780
  66   1.0000      -0.355039        -9.6611
  67   1.0000      -0.349291        -9.5047
  68   1.0000      -0.348764        -9.4903
  69   1.0000      -0.347158        -9.4467
  70   1.0000      -0.344434        -9.3725
  71   1.0000      -0.339425        -9.2362
  72   1.0000      -0.338063        -9.1992
  73   1.0000      -0.334179        -9.0935
  74   1.0000      -0.332422        -9.0457
  75   1.0000      -0.329933        -8.9779
  76   1.0000      -0.326626        -8.8879
  77   1.0000      -0.326316        -8.8795
  78   1.0000      -0.322798        -8.7838
  79   1.0000      -0.319993        -8.7075
  80   1.0000      -0.319232        -8.6867
  81   1.0000      -0.317450        -8.6383
  82   1.0000      -0.317278        -8.6336
  83   1.0000      -0.312127        -8.4934
  84   1.0000      -0.311230        -8.4690
  85   1.0000      -0.306006        -8.3268
  86   1.0000      -0.302650        -8.2355
  87   1.0000      -0.296501        -8.0682
  88   1.0000      -0.294905        -8.0248
  89   1.0000      -0.294709        -8.0194
  90   1.0000      -0.290240        -7.8978
  91   1.0000      -0.287491        -7.8230
  92   1.0000      -0.286820        -7.8048
  93   1.0000      -0.285784        -7.7766
  94   1.0000      -0.285086        -7.7576
  95   1.0000      -0.282495        -7.6871
  96   1.0000      -0.278805        -7.5867
  97   1.0000      -0.276590        -7.5264
  98   1.0000      -0.275322        -7.4919
  99   1.0000      -0.274670        -7.4741
 100   1.0000      -0.272654        -7.4193
 101   1.0000      -0.271783        -7.3956
 102   1.0000      -0.268660        -7.3106
 103   1.0000      -0.266608        -7.2548
 104   1.0000      -0.266034        -7.2392
 105   1.0000      -0.264946        -7.2096
 106   1.0000      -0.263899        -7.1811
 107   1.0000      -0.262948        -7.1552
 108   1.0000      -0.260701        -7.0940
 109   1.0000      -0.260150        -7.0790
 110   1.0000      -0.258981        -7.0472
 111   1.0000      -0.257196        -6.9986
 112   1.0000      -0.255961        -6.9650
 113   1.0000      -0.254580        -6.9275
 114   1.0000      -0.251164        -6.8345
 115   1.0000      -0.251118        -6.8333
 116   1.0000      -0.249183        -6.7806
 117   1.0000      -0.249104        -6.7785
 118   1.0000      -0.248256        -6.7554
 119   1.0000      -0.246444        -6.7061
 120   1.0000      -0.244628        -6.6567
 121   1.0000      -0.242101        -6.5879
 122   1.0000      -0.240957        -6.5568
 123   1.0000      -0.240396        -6.5415
 124   1.0000      -0.234039        -6.3685
 125   1.0000      -0.225574        -6.1382
 126   1.0000      -0.212794        -5.7904
 127   1.0000      -0.201757        -5.4901
 128   1.0000      -0.181977        -4.9518
 129   0.0000      -0.178170        -4.8483
 130   0.0000      -0.150492        -4.0951
 131   0.0000      -0.130320        -3.5462
 132   0.0000      -0.122175        -3.3246
 133   0.0000      -0.114709        -3.1214

                 SPIN DOWN ORBITALS
  NO   OCC          E(Eh)            E(eV)
   0   1.0000    -254.771798     -6932.6931
   1   1.0000     -29.554070      -804.2071
   2   1.0000     -25.505285      -694.0341
   3   1.0000     -25.503135      -693.9756
   4   1.0000     -25.502947      -693.9705
   5   1.0000      -4.030806      -109.6838
   6   1.0000      -4.030797      -109.6836
   7   1.0000      -4.028045      -109.6087
   8   1.0000      -4.028034      -109.6084
   9   1.0000      -4.027463      -109.5928
  10   1.0000      -4.027293      -109.5882
  11   1.0000      -4.024115      -109.5017
  12   1.0000      -4.024049      -109.4999
  13   1.0000      -4.017172      -109.3128
  14   1.0000      -4.016966      -109.3072
  15   1.0000      -4.015906      -109.2784
  16   1.0000      -4.015829      -109.2763
  17   1.0000      -3.256366       -88.6102
  18   1.0000      -2.248137       -61.1749
  19   1.0000      -2.248082       -61.1734
  20   1.0000      -2.246924       -61.1419
  21   1.0000      -2.246779       -61.1380
  22   1.0000      -2.244503       -61.0760
  23   1.0000      -2.244395       -61.0731
  24   1.0000      -2.243296       -61.0432
  25   1.0000      -2.243245       -61.0418
  26   1.0000      -2.241073       -60.9827
  27   1.0000      -2.241032       -60.9816
  28   1.0000      -2.239972       -60.9528
  29   1.0000      -2.239904       -60.9509
  30   1.0000      -2.239563       -60.9416
  31   1.0000      -2.239466       -60.9390
  32   1.0000      -2.239045       -60.9275
  33   1.0000      -2.238775       -60.9202
  34   1.0000      -2.237768       -60.8928
  35   1.0000      -2.237684       -60.8905
  36   1.0000      -2.237248       -60.8786
  37   1.0000      -2.237194       -60.8771
  38   1.0000      -2.236001       -60.8447
  39   1.0000      -2.235786       -60.8388
  40   1.0000      -2.233382       -60.7734
  41   1.0000      -2.233253       -60.7699
  42   1.0000      -2.231365       -60.7185
  43   1.0000      -2.231311       -60.7170
  44   1.0000      -2.231295       -60.7166
  45   1.0000      -2.230918       -60.7064
  46   1.0000      -2.230706       -60.7006
  47   1.0000      -2.229960       -60.6803
  48   1.0000      -2.229877       -60.6780
  49   1.0000      -2.228143       -60.6309
  50   1.0000      -2.227583       -60.6156
  51   1.0000      -2.226715       -60.5920
  52   1.0000      -2.225921       -60.5704
  53   1.0000      -2.225674       -60.5637
  54   1.0000      -2.075128       -56.4671
  55   1.0000      -2.071527       -56.3691
  56   1.0000      -2.070872       -56.3513
  57   1.0000      -0.425439       -11.5768
  58   1.0000      -0.389223       -10.5913
  59   1.0000      -0.381128       -10.3710
  60   1.0000      -0.372480       -10.1357
  61   1.0000      -0.368325       -10.0226
  62   1.0000      -0.363548        -9.8926
  63   1.0000      -0.363416        -9.8891
  64   1.0000      -0.356912        -9.7121
  65   1.0000      -0.348997        -9.4967
  66   1.0000      -0.347521        -9.4565
  67   1.0000      -0.345168        -9.3925
  68   1.0000      -0.344524        -9.3750
  69   1.0000      -0.341605        -9.2955
  70   1.0000      -0.336828        -9.1656
  71   1.0000      -0.335643        -9.1333
  72   1.0000      -0.332983        -9.0609
  73   1.0000      -0.330991        -9.0067
  74   1.0000      -0.326652        -8.8886
  75   1.0000      -0.325278        -8.8513
  76   1.0000      -0.324593        -8.8326
  77   1.0000      -0.321497        -8.7484
  78   1.0000      -0.318141        -8.6571
  79   1.0000      -0.317543        -8.6408
  80   1.0000      -0.317374        -8.6362
  81   1.0000      -0.316067        -8.6006
  82   1.0000      -0.311918        -8.4877
  83   1.0000      -0.309134        -8.4120
  84   1.0000      -0.307086        -8.3562
  85   1.0000      -0.298773        -8.1300
  86   1.0000      -0.298268        -8.1163
  87   1.0000      -0.292438        -7.9576
  88   1.0000      -0.291345        -7.9279
  89   1.0000      -0.288986        -7.8637
  90   1.0000      -0.287827        -7.8322
  91   1.0000      -0.284308        -7.7364
  92   1.0000      -0.283993        -7.7279
  93   1.0000      -0.281161        -7.6508
  94   1.0000      -0.279939        -7.6175
  95   1.0000      -0.275774        -7.5042
  96   1.0000      -0.274145        -7.4599
  97   1.0000      -0.273406        -7.4397
  98   1.0000      -0.272241        -7.4080
  99   1.0000      -0.270403        -7.3580
 100   1.0000      -0.269421        -7.3313
 101   1.0000      -0.267348        -7.2749
 102   1.0000      -0.265350        -7.2205
 103   1.0000      -0.264282        -7.1915
 104   1.0000      -0.263253        -7.1635
 105   1.0000      -0.261048        -7.1035
 106   1.0000      -0.260188        -7.0801
 107   1.0000      -0.258527        -7.0349
 108   1.0000      -0.256577        -6.9818
 109   1.0000      -0.256201        -6.9716
 110   1.0000      -0.254951        -6.9376
 111   1.0000      -0.251254        -6.8370
 112   1.0000      -0.250211        -6.8086
 113   1.0000      -0.248204        -6.7540
 114   1.0000      -0.248026        -6.7491
 115   1.0000      -0.246125        -6.6974
 116   1.0000      -0.241703        -6.5771
 117   1.0000      -0.241573        -6.5735
 118   1.0000      -0.240272        -6.5381
 119   1.0000      -0.234125        -6.3709
 120   1.0000      -0.224851        -6.1185
 121   1.0000      -0.215996        -5.8775
 122   1.0000      -0.207072        -5.6347
 123   1.0000      -0.204478        -5.5641
 124   1.0000      -0.199292        -5.4230
 125   0.0000      -0.172235        -4.6868
 126   0.0000      -0.167832        -4.5669
 127   0.0000      -0.167054        -4.5458
 128   0.0000      -0.161163        -4.3855
 129   0.0000      -0.159441        -4.3386

MULLIKEN ATOMIC CHARGES AND SPIN POPULATIONS
--------------------------------------------
   0 Au:    0.035019   -0.003068
   1 Au:    0.214225    0.134683
   2 Au:    0.290852    0.032478
   3 Au:    0.324581   -0.009866
   4 Au:    0.213416    0.136603
   5 Au:    0.290854    0.031967
   6 Au:   -0.066080    0.152450
   7 Au:    0.324370    0.115413
   8 Au:    0.323992    0.114965
   9 Au:   -0.066849    0.156229
  10 Au:    0.324897   -0.011049
  11 Au:    0.035720   -0.003225
  12 Fe:   -2.244997    3.152420
Sum of atomic charges         :   -0.0000000

LOEWDIN ATOMIC CHARGES AND SPIN POPULATIONS
-------------------------------------------
   0 Au:    0.041314    0.022093
   1 Au:    0.021231    0.086980
   2 Au:    0.080582    0.029185
   3 Au:    0.105404    0.017163
   4 Au:    0.020753    0.088429
   5 Au:    0.081071    0.028532
   6 Au:   -0.025747    0.100874
   7 Au:    0.048319    0.113716
   8 Au:    0.048318    0.113317
   9 Au:   -0.026504    0.102851
  10 Au:    0.105884    0.016785
  11 Au:    0.041038    0.022378
  12 Fe:   -0.541663    3.257698

  Mayer bond orders larger than 0.100000
B(  0-Au,  2-Au) :   0.2335 B(  0-Au,  3-Au) :   0.1280 B(  0-Au,  6-Au) :   0.1702
B(  0-Au,  8-Au) :   0.3924 B(  0-Au,  9-Au) :   0.1702 B(  0-Au, 12-Fe) :   0.5937
B(  1-Au,  2-Au) :   0.2567 B(  1-Au,  4-Au) :   0.1559 B(  1-Au,  5-Au) :   0.1395
B(  1-Au, 10-Au) :   0.2597 B(  1-Au, 12-Fe) :   0.4981 B(  2-Au,  4-Au) :   0.1385
B(  2-Au,  5-Au) :   0.1312 B(  2-Au, 12-Fe) :   0.5438 B(  3-Au,  4-Au) :   0.2623
B(  3-Au,  6-Au) :   0.3376 B(  3-Au, 12-Fe) :   0.5610 B(  4-Au,  5-Au) :   0.2555
B(  4-Au, 12-Fe) :   0.4968 B(  5-Au, 11-Au) :   0.2327 B(  5-Au, 12-Fe) :   0.5448
B(  6-Au,  7-Au) :   0.3863 B(  6-Au,  8-Au) :   0.1986 B(  6-Au,  9-Au) :   0.1141
B(  6-Au, 11-Au) :   0.1724 B(  6-Au, 12-Fe) :   0.4880 B(  7-Au,  8-Au) :   0.1807
B(  7-Au,  9-Au) :   0.1988 B(  7-Au, 11-Au) :   0.3929 B(  8-Au,  9-Au) :   0.3868
B(  9-Au, 10-Au) :   0.3396 B(  9-Au, 11-Au) :   0.1690 B(  9-Au, 12-Fe) :   0.4870
B( 10-Au, 11-Au) :   0.1284 B( 10-Au, 12-Fe) :   0.5617 B( 11-Au, 12-Fe) :   0.5932

FINAL SINGLE POINT ENERGY     -2893.394712025387

DIPOLE MOMENT
-------------
                                X             Y             Z
Electronic contribution:    -16.47818      16.07748       4.25060
Nuclear contribution   :     16.37982     -15.98028      -4.22601
                        -----------------------------------------
Total Dipole Moment    :     -0.09837       0.09720       0.02459
                        -----------------------------------------
Magnitude (a.u.)       :      0.14046
Magnitude (Debye)      :      0.35701

Rotational constants in cm-1:     0.001770     0.001155     0.001000
Rotational constants in MHz :    53.068073    34.613079    29.974178

                             ****ORCA TERMINATED NORMALLY****
TOTAL RUN TIME: 0 days 1 hours 45 minutes 42 seconds 355 msec
