                         Program Version 5.0.3 -  RELEASE  -
|  1> %pal nprocs 1 end
|  2>
|  3> !PBE def2-TZVP OPT UNO
|  4> !SLOWCONV
|  5>
|  6> *xyzfile 0 4 7.xyz                           ****END OF INPUT****
 Total Charge           Charge          ....    0
 Multiplicity           Mult            ....    4
 Number of Electrons    NEL             ....  311
FINAL SINGLE POINT ENERGY     -3300.887353272819
FINAL SINGLE POINT ENERGY     -3300.891031459810
FINAL SINGLE POINT ENERGY     -3300.892777389096
FINAL SINGLE POINT ENERGY     -3300.893724356617
FINAL SINGLE POINT ENERGY     -3300.894531506425
FINAL SINGLE POINT ENERGY     -3300.895300020802
FINAL SINGLE POINT ENERGY     -3300.896009307247
FINAL SINGLE POINT ENERGY     -3300.896719255886
FINAL SINGLE POINT ENERGY     -3300.897268205723
FINAL SINGLE POINT ENERGY     -3300.897636311790
FINAL SINGLE POINT ENERGY     -3300.907492996162
FINAL SINGLE POINT ENERGY     -3300.907501374025
FINAL SINGLE POINT ENERGY     -3300.907507839764
FINAL SINGLE POINT ENERGY     -3300.907513991297
FINAL SINGLE POINT ENERGY     -3300.907519145116
FINAL SINGLE POINT ENERGY     -3300.907524023801
FINAL SINGLE POINT ENERGY     -3300.907528352492
FINAL SINGLE POINT ENERGY     -3300.907532139869
FINAL SINGLE POINT ENERGY     -3300.907535146727
                    ***********************HURRAY********************

CARTESIAN COORDINATES (ANGSTROEM)
---------------------------------
  Au     9.008404    6.003368    7.920060
  Au     8.260090    7.398036    5.364309
  Au    10.390419    8.203781    6.953415
  Au     9.796912    8.067039    9.652722
  Au     8.757146   10.143917    5.754094
  Au     9.614356   10.517052    8.384497
  Au     6.228847    8.884586    6.470322
  Au     7.009356   11.212209    7.700055
  Au     6.200476    6.124717    6.628288
  Au     5.093892    9.647782    8.881187
  Au     7.734573    9.831351   10.296801
  Au     4.593452    6.879630    8.808399
  Au     8.028927    6.513044   11.038622
  Au     6.696135    5.027495    9.138358
  Au     5.740893    8.058148   11.095395
  Fe     7.147711    7.707082    8.778595

 Multiplicity           Mult            ....    4
 Number of Electrons    NEL             ....  311
 Basis Dimension        Dim             ....  645

ORBITAL ENERGIES
----------------
                 SPIN UP ORBITALS
  NO   OCC          E(Eh)            E(eV)
   0   1.0000    -254.754182     -6932.2137
   1   1.0000     -29.589040      -805.1587
   2   1.0000     -25.531977      -694.7604
   3   1.0000     -25.528550      -694.6672
   4   1.0000     -25.513072      -694.2460
   5   1.0000      -4.036524      -109.8394
   6   1.0000      -4.035983      -109.8247
   7   1.0000      -4.035135      -109.8016
   8   1.0000      -4.035045      -109.7992
   9   1.0000      -4.033253      -109.7504
  10   1.0000      -4.032612      -109.7330
  11   1.0000      -4.030753      -109.6824
  12   1.0000      -4.030741      -109.6821
  13   1.0000      -4.029281      -109.6423
  14   1.0000      -4.028739      -109.6276
  15   1.0000      -4.022455      -109.4566
  16   1.0000      -4.022174      -109.4489
  17   1.0000      -4.021636      -109.4343
  18   1.0000      -4.021413      -109.4282
  19   1.0000      -4.014555      -109.2416
  20   1.0000      -3.368838       -91.6707
  21   1.0000      -2.252612       -61.2967
  22   1.0000      -2.252008       -61.2803
  23   1.0000      -2.250803       -61.2475
  24   1.0000      -2.250680       -61.2441
  25   1.0000      -2.250422       -61.2371
  26   1.0000      -2.250105       -61.2285
  27   1.0000      -2.249942       -61.2240
  28   1.0000      -2.248810       -61.1932
  29   1.0000      -2.248445       -61.1833
  30   1.0000      -2.247863       -61.1674
  31   1.0000      -2.247367       -61.1540
  32   1.0000      -2.246100       -61.1195
  33   1.0000      -2.245798       -61.1113
  34   1.0000      -2.245606       -61.1061
  35   1.0000      -2.245428       -61.1012
  36   1.0000      -2.245063       -61.0913
  37   1.0000      -2.244809       -61.0844
  38   1.0000      -2.244528       -61.0767
  39   1.0000      -2.244137       -61.0661
  40   1.0000      -2.243834       -61.0578
  41   1.0000      -2.243685       -61.0538
  42   1.0000      -2.243258       -61.0422
  43   1.0000      -2.243038       -61.0362
  44   1.0000      -2.242593       -61.0240
  45   1.0000      -2.242089       -61.0103
  46   1.0000      -2.241805       -61.0026
  47   1.0000      -2.240958       -60.9796
  48   1.0000      -2.240836       -60.9762
  49   1.0000      -2.239255       -60.9332
  50   1.0000      -2.238645       -60.9166
  51   1.0000      -2.238357       -60.9088
  52   1.0000      -2.238247       -60.9058
  53   1.0000      -2.237068       -60.8737
  54   1.0000      -2.236396       -60.8554
  55   1.0000      -2.236158       -60.8490
  56   1.0000      -2.235860       -60.8408
  57   1.0000      -2.235597       -60.8337
  58   1.0000      -2.235365       -60.8274
  59   1.0000      -2.232247       -60.7425
  60   1.0000      -2.231880       -60.7326
  61   1.0000      -2.230645       -60.6989
  62   1.0000      -2.230047       -60.6827
  63   1.0000      -2.229154       -60.6584
  64   1.0000      -2.227766       -60.6206
  65   1.0000      -2.224121       -60.5214
  66   1.0000      -2.197845       -59.8064
  67   1.0000      -2.190867       -59.6165
  68   1.0000      -2.159544       -58.7642
  69   1.0000      -0.433809       -11.8045
  70   1.0000      -0.389797       -10.6069
  71   1.0000      -0.387968       -10.5572
  72   1.0000      -0.387664       -10.5489
  73   1.0000      -0.376272       -10.2389
  74   1.0000      -0.372798       -10.1444
  75   1.0000      -0.372310       -10.1311
  76   1.0000      -0.371333       -10.1045
  77   1.0000      -0.366553        -9.9744
  78   1.0000      -0.361580        -9.8391
  79   1.0000      -0.359966        -9.7952
  80   1.0000      -0.358509        -9.7555
  81   1.0000      -0.358016        -9.7421
  82   1.0000      -0.356768        -9.7082
  83   1.0000      -0.355211        -9.6658
  84   1.0000      -0.351666        -9.5693
  85   1.0000      -0.351372        -9.5613
  86   1.0000      -0.348348        -9.4790
  87   1.0000      -0.348172        -9.4743
  88   1.0000      -0.344675        -9.3791
  89   1.0000      -0.343797        -9.3552
  90   1.0000      -0.342081        -9.3085
  91   1.0000      -0.339594        -9.2408
  92   1.0000      -0.338679        -9.2159
  93   1.0000      -0.334939        -9.1142
  94   1.0000      -0.334225        -9.0947
  95   1.0000      -0.332626        -9.0512
  96   1.0000      -0.331093        -9.0095
  97   1.0000      -0.327017        -8.8986
  98   1.0000      -0.326428        -8.8826
  99   1.0000      -0.323753        -8.8098
 100   1.0000      -0.321452        -8.7471
 101   1.0000      -0.317873        -8.6498
 102   1.0000      -0.316229        -8.6050
 103   1.0000      -0.314930        -8.5697
 104   1.0000      -0.311922        -8.4878
 105   1.0000      -0.309294        -8.4163
 106   1.0000      -0.308312        -8.3896
 107   1.0000      -0.302843        -8.2408
 108   1.0000      -0.302421        -8.2293
 109   1.0000      -0.298500        -8.1226
 110   1.0000      -0.295425        -8.0389
 111   1.0000      -0.295296        -8.0354
 112   1.0000      -0.289760        -7.8848
 113   1.0000      -0.288570        -7.8524
 114   1.0000      -0.288430        -7.8486
 115   1.0000      -0.285571        -7.7708
 116   1.0000      -0.284569        -7.7435
 117   1.0000      -0.282780        -7.6948
 118   1.0000      -0.277894        -7.5619
 119   1.0000      -0.277134        -7.5412
 120   1.0000      -0.275375        -7.4933
 121   1.0000      -0.274464        -7.4686
 122   1.0000      -0.271901        -7.3988
 123   1.0000      -0.269372        -7.3300
 124   1.0000      -0.268170        -7.2973
 125   1.0000      -0.267025        -7.2661
 126   1.0000      -0.266238        -7.2447
 127   1.0000      -0.264865        -7.2074
 128   1.0000      -0.263586        -7.1725
 129   1.0000      -0.262823        -7.1518
 130   1.0000      -0.260433        -7.0867
 131   1.0000      -0.259772        -7.0688
 132   1.0000      -0.258124        -7.0239
 133   1.0000      -0.257729        -7.0132
 134   1.0000      -0.257365        -7.0033
 135   1.0000      -0.257026        -6.9940
 136   1.0000      -0.255266        -6.9462
 137   1.0000      -0.255048        -6.9402
 138   1.0000      -0.254323        -6.9205
 139   1.0000      -0.253132        -6.8881
 140   1.0000      -0.251957        -6.8561
 141   1.0000      -0.251639        -6.8474
 142   1.0000      -0.249352        -6.7852
 143   1.0000      -0.248890        -6.7726
 144   1.0000      -0.247322        -6.7300
 145   1.0000      -0.246301        -6.7022
 146   1.0000      -0.245308        -6.6752
 147   1.0000      -0.242024        -6.5858
 148   1.0000      -0.241443        -6.5700
 149   1.0000      -0.239922        -6.5286
 150   1.0000      -0.238623        -6.4933
 151   1.0000      -0.235251        -6.4015
 152   1.0000      -0.233619        -6.3571
 153   1.0000      -0.216380        -5.8880
 154   1.0000      -0.212438        -5.7807
 155   1.0000      -0.209887        -5.7113
 156   1.0000      -0.203260        -5.5310
 157   0.0000      -0.189772        -5.1640
 158   0.0000      -0.143725        -3.9110
 159   0.0000      -0.140227        -3.8158
 160   0.0000      -0.135052        -3.6749
 161   0.0000      -0.126838        -3.4514

                 SPIN DOWN ORBITALS
  NO   OCC          E(Eh)            E(eV)
   0   1.0000    -254.753522     -6932.1957
   1   1.0000     -29.531459      -803.5919
   2   1.0000     -25.485676      -693.5005
   3   1.0000     -25.483491      -693.4410
   4   1.0000     -25.474031      -693.1836
   5   1.0000      -4.036422      -109.8366
   6   1.0000      -4.035734      -109.8179
   7   1.0000      -4.034418      -109.7821
   8   1.0000      -4.034282      -109.7784
   9   1.0000      -4.033037      -109.7445
  10   1.0000      -4.032399      -109.7272
  11   1.0000      -4.030649      -109.6795
  12   1.0000      -4.030596      -109.6781
  13   1.0000      -4.029172      -109.6393
  14   1.0000      -4.028243      -109.6141
  15   1.0000      -4.022804      -109.4661
  16   1.0000      -4.022540      -109.4589
  17   1.0000      -4.021670      -109.4352
  18   1.0000      -4.021470      -109.4298
  19   1.0000      -4.014572      -109.2421
  20   1.0000      -3.237734       -88.1032
  21   1.0000      -2.252442       -61.2921
  22   1.0000      -2.252030       -61.2808
  23   1.0000      -2.250165       -61.2301
  24   1.0000      -2.249757       -61.2190
  25   1.0000      -2.249655       -61.2162
  26   1.0000      -2.249599       -61.2147
  27   1.0000      -2.249205       -61.2040
  28   1.0000      -2.248289       -61.1791
  29   1.0000      -2.247959       -61.1701
  30   1.0000      -2.247068       -61.1458
  31   1.0000      -2.246907       -61.1414
  32   1.0000      -2.245731       -61.1094
  33   1.0000      -2.245567       -61.1050
  34   1.0000      -2.245340       -61.0988
  35   1.0000      -2.244970       -61.0887
  36   1.0000      -2.244847       -61.0854
  37   1.0000      -2.244638       -61.0797
  38   1.0000      -2.244366       -61.0723
  39   1.0000      -2.243763       -61.0559
  40   1.0000      -2.243478       -61.0481
  41   1.0000      -2.243069       -61.0370
  42   1.0000      -2.242949       -61.0338
  43   1.0000      -2.242828       -61.0304
  44   1.0000      -2.242569       -61.0234
  45   1.0000      -2.242119       -61.0112
  46   1.0000      -2.241421       -60.9922
  47   1.0000      -2.240718       -60.9730
  48   1.0000      -2.240612       -60.9701
  49   1.0000      -2.239344       -60.9356
  50   1.0000      -2.238791       -60.9206
  51   1.0000      -2.238508       -60.9129
  52   1.0000      -2.238115       -60.9022
  53   1.0000      -2.237166       -60.8764
  54   1.0000      -2.236565       -60.8600
  55   1.0000      -2.236433       -60.8564
  56   1.0000      -2.236197       -60.8500
  57   1.0000      -2.236077       -60.8468
  58   1.0000      -2.235576       -60.8331
  59   1.0000      -2.232500       -60.7494
  60   1.0000      -2.232161       -60.7402
  61   1.0000      -2.230740       -60.7015
  62   1.0000      -2.230068       -60.6832
  63   1.0000      -2.229135       -60.6579
  64   1.0000      -2.227787       -60.6212
  65   1.0000      -2.224202       -60.5236
  66   1.0000      -2.061381       -56.0930
  67   1.0000      -2.058207       -56.0067
  68   1.0000      -2.043586       -55.6088
  69   1.0000      -0.429827       -11.6962
  70   1.0000      -0.389343       -10.5946
  71   1.0000      -0.387684       -10.5494
  72   1.0000      -0.386447       -10.5158
  73   1.0000      -0.369104       -10.0438
  74   1.0000      -0.368700       -10.0328
  75   1.0000      -0.366238        -9.9658
  76   1.0000      -0.365617        -9.9490
  77   1.0000      -0.364780        -9.9262
  78   1.0000      -0.359885        -9.7930
  79   1.0000      -0.359256        -9.7758
  80   1.0000      -0.357031        -9.7153
  81   1.0000      -0.356344        -9.6966
  82   1.0000      -0.355849        -9.6831
  83   1.0000      -0.354612        -9.6495
  84   1.0000      -0.350737        -9.5441
  85   1.0000      -0.350503        -9.5377
  86   1.0000      -0.347856        -9.4656
  87   1.0000      -0.345735        -9.4079
  88   1.0000      -0.344132        -9.3643
  89   1.0000      -0.343208        -9.3392
  90   1.0000      -0.342571        -9.3218
  91   1.0000      -0.338934        -9.2229
  92   1.0000      -0.338362        -9.2073
  93   1.0000      -0.334588        -9.1046
  94   1.0000      -0.333204        -9.0669
  95   1.0000      -0.332133        -9.0378
  96   1.0000      -0.330075        -8.9818
  97   1.0000      -0.325292        -8.8517
  98   1.0000      -0.324986        -8.8433
  99   1.0000      -0.322669        -8.7803
 100   1.0000      -0.320977        -8.7342
 101   1.0000      -0.316640        -8.6162
 102   1.0000      -0.311853        -8.4859
 103   1.0000      -0.309381        -8.4187
 104   1.0000      -0.308378        -8.3914
 105   1.0000      -0.304521        -8.2864
 106   1.0000      -0.303535        -8.2596
 107   1.0000      -0.299523        -8.1504
 108   1.0000      -0.295598        -8.0436
 109   1.0000      -0.295002        -8.0274
 110   1.0000      -0.293661        -7.9909
 111   1.0000      -0.291215        -7.9244
 112   1.0000      -0.289513        -7.8780
 113   1.0000      -0.287836        -7.8324
 114   1.0000      -0.285413        -7.7665
 115   1.0000      -0.284338        -7.7372
 116   1.0000      -0.281906        -7.6710
 117   1.0000      -0.281132        -7.6500
 118   1.0000      -0.277879        -7.5615
 119   1.0000      -0.276119        -7.5136
 120   1.0000      -0.274224        -7.4620
 121   1.0000      -0.272070        -7.4034
 122   1.0000      -0.270346        -7.3565
 123   1.0000      -0.268989        -7.3196
 124   1.0000      -0.266733        -7.2582
 125   1.0000      -0.266392        -7.2489
 126   1.0000      -0.265150        -7.2151
 127   1.0000      -0.264927        -7.2090
 128   1.0000      -0.263178        -7.1614
 129   1.0000      -0.261051        -7.1036
 130   1.0000      -0.259166        -7.0523
 131   1.0000      -0.258234        -7.0269
 132   1.0000      -0.257580        -7.0091
 133   1.0000      -0.257076        -6.9954
 134   1.0000      -0.256632        -6.9833
 135   1.0000      -0.254938        -6.9372
 136   1.0000      -0.253820        -6.9068
 137   1.0000      -0.253523        -6.8987
 138   1.0000      -0.250629        -6.8200
 139   1.0000      -0.249351        -6.7852
 140   1.0000      -0.248054        -6.7499
 141   1.0000      -0.247332        -6.7302
 142   1.0000      -0.245859        -6.6902
 143   1.0000      -0.244135        -6.6433
 144   1.0000      -0.242668        -6.6033
 145   1.0000      -0.240563        -6.5461
 146   1.0000      -0.238997        -6.5034
 147   1.0000      -0.234061        -6.3691
 148   1.0000      -0.220718        -6.0060
 149   1.0000      -0.217666        -5.9230
 150   1.0000      -0.215680        -5.8690
 151   1.0000      -0.212368        -5.7788
 152   1.0000      -0.204961        -5.5773
 153   1.0000      -0.176979        -4.8159
 154   0.0000      -0.162855        -4.4315
 155   0.0000      -0.162497        -4.4218
 156   0.0000      -0.153819        -4.1856
 157   0.0000      -0.150416        -4.0930
 158   0.0000      -0.139397        -3.7932

MULLIKEN ATOMIC CHARGES AND SPIN POPULATIONS
--------------------------------------------
   0 Au:    0.060599    0.014629
   1 Au:    0.112744   -0.004448
   2 Au:    0.144434    0.046495
   3 Au:    0.058291   -0.084085
   4 Au:    0.143362   -0.025685
   5 Au:    0.134057    0.045961
   6 Au:   -0.123894   -0.082854
   7 Au:    0.132477   -0.000270
   8 Au:    0.164385    0.031265
   9 Au:    0.157753    0.031368
  10 Au:    0.051605    0.002432
  11 Au:    0.282613    0.012649
  12 Au:    0.345025   -0.021452
  13 Au:    0.334274   -0.008716
  14 Au:    0.339422   -0.000811
  15 Fe:   -2.337148    3.043522
Sum of atomic charges         :    0.0000000

LOEWDIN ATOMIC CHARGES AND SPIN POPULATIONS
-------------------------------------------
   0 Au:    0.048325    0.001404
   1 Au:    0.015062   -0.017665
   2 Au:   -0.007905    0.016209
   3 Au:    0.015940   -0.023978
   4 Au:   -0.005377   -0.007925
   5 Au:   -0.010537    0.015303
   6 Au:   -0.003732   -0.017084
   7 Au:    0.020374   -0.018214
   8 Au:    0.046324   -0.010334
   9 Au:    0.044385   -0.010558
  10 Au:    0.045599   -0.001909
  11 Au:    0.068816    0.004852
  12 Au:    0.095945   -0.026865
  13 Au:    0.078262   -0.018831
  14 Au:    0.080404   -0.014021
  15 Fe:   -0.531885    3.129616

  Mayer bond orders larger than 0.100000
B(  0-Au,  1-Au) :   0.1547 B(  0-Au,  2-Au) :   0.3357 B(  0-Au,  3-Au) :   0.1988
B(  0-Au, 13-Au) :   0.2519 B(  0-Au, 15-Fe) :   0.5649 B(  1-Au,  2-Au) :   0.2594
B(  1-Au,  4-Au) :   0.2987 B(  1-Au,  6-Au) :   0.3376 B(  1-Au,  8-Au) :   0.3399
B(  1-Au, 15-Fe) :   0.1871 B(  2-Au,  3-Au) :   0.2720 B(  2-Au,  4-Au) :   0.2638
B(  2-Au,  5-Au) :   0.2560 B(  2-Au, 15-Fe) :   0.1313 B(  3-Au,  5-Au) :   0.2750
B(  3-Au, 10-Au) :   0.2106 B(  3-Au, 12-Au) :   0.2803 B(  3-Au, 15-Fe) :   0.4387
B(  4-Au,  5-Au) :   0.2742 B(  4-Au,  6-Au) :   0.2441 B(  4-Au,  7-Au) :   0.2886
B(  5-Au,  7-Au) :   0.2604 B(  5-Au, 10-Au) :   0.3343 B(  5-Au, 15-Fe) :   0.1238
B(  6-Au,  7-Au) :   0.3451 B(  6-Au,  8-Au) :   0.2525 B(  6-Au,  9-Au) :   0.2374
B(  6-Au, 15-Fe) :   0.4409 B(  7-Au,  9-Au) :   0.3423 B(  7-Au, 10-Au) :   0.1495
B(  7-Au, 15-Fe) :   0.1701 B(  8-Au, 11-Au) :   0.2212 B(  8-Au, 13-Au) :   0.1921
B(  8-Au, 15-Fe) :   0.3996 B(  9-Au, 10-Au) :   0.1035 B(  9-Au, 11-Au) :   0.2238
B(  9-Au, 14-Au) :   0.1818 B(  9-Au, 15-Fe) :   0.4024 B( 10-Au, 14-Au) :   0.2522
B( 10-Au, 15-Fe) :   0.5594 B( 11-Au, 13-Au) :   0.1887 B( 11-Au, 14-Au) :   0.1867
B( 11-Au, 15-Fe) :   0.4913 B( 12-Au, 13-Au) :   0.2556 B( 12-Au, 14-Au) :   0.2577
B( 12-Au, 15-Fe) :   0.4226 B( 13-Au, 15-Fe) :   0.4078 B( 14-Au, 15-Fe) :   0.4118

FINAL SINGLE POINT ENERGY     -3300.907536046849

DIPOLE MOMENT
-------------
                                X             Y             Z
Electronic contribution:     14.87215      17.27763     -18.96257
Nuclear contribution   :    -15.13427     -17.60063      19.35020
                        -----------------------------------------
Total Dipole Moment    :     -0.26212      -0.32300       0.38763
                        -----------------------------------------
Magnitude (a.u.)       :      0.56859
Magnitude (Debye)      :      1.44524

Rotational constants in cm-1:     0.001087     0.000888     0.000841
Rotational constants in MHz :    32.576835    26.627459    25.223761

                             ****ORCA TERMINATED NORMALLY****
TOTAL RUN TIME: 0 days 11 hours 29 minutes 41 seconds 660 msec
