                         Program Version 5.0.3 -  RELEASE  -
|  1> %pal nprocs 1 end
|  2>
|  3> !PBE def2-TZVP OPT UNO
|  4> !SLOWCONV KDIIS
|  5>
|  6> %geom maxiter 300 end
|  7>
|  8> *xyzfile 0 5 5.xyz                           ****END OF INPUT****
 Total Charge           Charge          ....    0
 Multiplicity           Mult            ....    5
 Number of Electrons    NEL             ....  252
FINAL SINGLE POINT ENERGY     -2674.137851273980
FINAL SINGLE POINT ENERGY     -2674.140163367969
FINAL SINGLE POINT ENERGY     -2674.143070139798
FINAL SINGLE POINT ENERGY     -2674.145621212706
FINAL SINGLE POINT ENERGY     -2674.147202280813
FINAL SINGLE POINT ENERGY     -2674.147869257056
FINAL SINGLE POINT ENERGY     -2674.148857973125
FINAL SINGLE POINT ENERGY     -2674.149395313602
FINAL SINGLE POINT ENERGY     -2674.149729289005
FINAL SINGLE POINT ENERGY     -2674.150103058811
FINAL SINGLE POINT ENERGY     -2674.150401695206
FINAL SINGLE POINT ENERGY     -2674.150747330440
FINAL SINGLE POINT ENERGY     -2674.151103804480
FINAL SINGLE POINT ENERGY     -2674.151283736546
FINAL SINGLE POINT ENERGY     -2674.151345748766
FINAL SINGLE POINT ENERGY     -2674.151365376565
FINAL SINGLE POINT ENERGY     -2674.151381598967
FINAL SINGLE POINT ENERGY     -2674.151388037169
                    ***********************HURRAY********************

CARTESIAN COORDINATES (ANGSTROEM)
---------------------------------
  Au     8.927113    9.180075   10.251674
  Au     5.091502    6.822100    7.538902
  Au     8.018615   10.415969    8.108595
  Au     5.746851   11.352951    6.868888
  Au     5.327791    9.415713    8.804123
  Au     5.529876    7.082348   10.254737
  Au     7.120861    5.126562    9.009050
  Au     9.546235    5.992843    7.877292
  Au     8.274844   10.674215    5.382788
  Au     7.358846    6.197017    6.201614
  Au     9.308435    8.337351    6.452471
  Au     6.360487    8.768804    6.045314
  Cr     7.559899    7.729535    8.559987

 Multiplicity           Mult            ....    5
 Number of Electrons    NEL             ....  252
 Basis Dimension        Dim             ....  525

ORBITAL ENERGIES
----------------
                 SPIN UP ORBITALS
  NO   OCC          E(Eh)            E(eV)
   0   1.0000    -214.482311     -5836.3604
   1   1.0000     -24.282907      -660.7715
   2   1.0000     -20.647715      -561.8529
   3   1.0000     -20.647532      -561.8479
   4   1.0000     -20.642722      -561.7170
   5   1.0000      -4.032938      -109.7418
   6   1.0000      -4.032100      -109.7190
   7   1.0000      -4.029881      -109.6586
   8   1.0000      -4.029683      -109.6532
   9   1.0000      -4.022741      -109.4643
  10   1.0000      -4.022741      -109.4643
  11   1.0000      -4.021557      -109.4321
  12   1.0000      -4.021415      -109.4283
  13   1.0000      -4.017506      -109.3219
  14   1.0000      -4.017281      -109.3158
  15   1.0000      -4.013859      -109.2227
  16   1.0000      -4.012328      -109.1810
  17   1.0000      -2.789962       -75.9187
  18   1.0000      -2.251049       -61.2541
  19   1.0000      -2.250648       -61.2433
  20   1.0000      -2.246517       -61.1308
  21   1.0000      -2.245631       -61.1067
  22   1.0000      -2.244162       -61.0668
  23   1.0000      -2.243626       -61.0522
  24   1.0000      -2.243252       -61.0420
  25   1.0000      -2.243154       -61.0393
  26   1.0000      -2.243086       -61.0375
  27   1.0000      -2.241910       -61.0055
  28   1.0000      -2.241313       -60.9892
  29   1.0000      -2.240166       -60.9580
  30   1.0000      -2.239811       -60.9484
  31   1.0000      -2.239531       -60.9407
  32   1.0000      -2.236818       -60.8669
  33   1.0000      -2.236685       -60.8633
  34   1.0000      -2.235761       -60.8382
  35   1.0000      -2.235669       -60.8356
  36   1.0000      -2.233472       -60.7759
  37   1.0000      -2.233330       -60.7720
  38   1.0000      -2.232658       -60.7537
  39   1.0000      -2.232324       -60.7446
  40   1.0000      -2.232200       -60.7413
  41   1.0000      -2.232066       -60.7376
  42   1.0000      -2.231984       -60.7354
  43   1.0000      -2.231771       -60.7296
  44   1.0000      -2.231701       -60.7277
  45   1.0000      -2.229430       -60.6659
  46   1.0000      -2.229262       -60.6613
  47   1.0000      -2.228993       -60.6540
  48   1.0000      -2.228716       -60.6464
  49   1.0000      -2.227859       -60.6231
  50   1.0000      -2.226319       -60.5812
  51   1.0000      -2.225542       -60.5601
  52   1.0000      -2.223436       -60.5028
  53   1.0000      -2.217688       -60.3463
  54   1.0000      -1.782347       -48.5001
  55   1.0000      -1.781621       -48.4804
  56   1.0000      -1.775526       -48.3145
  57   1.0000      -0.423466       -11.5231
  58   1.0000      -0.391379       -10.6500
  59   1.0000      -0.379196       -10.3184
  60   1.0000      -0.378759       -10.3065
  61   1.0000      -0.368872       -10.0375
  62   1.0000      -0.365829        -9.9547
  63   1.0000      -0.361545        -9.8381
  64   1.0000      -0.356927        -9.7125
  65   1.0000      -0.352570        -9.5939
  66   1.0000      -0.348676        -9.4879
  67   1.0000      -0.344875        -9.3845
  68   1.0000      -0.342679        -9.3248
  69   1.0000      -0.340150        -9.2560
  70   1.0000      -0.339187        -9.2298
  71   1.0000      -0.337384        -9.1807
  72   1.0000      -0.331220        -9.0130
  73   1.0000      -0.330457        -8.9922
  74   1.0000      -0.327548        -8.9130
  75   1.0000      -0.322968        -8.7884
  76   1.0000      -0.320451        -8.7199
  77   1.0000      -0.319031        -8.6813
  78   1.0000      -0.315925        -8.5968
  79   1.0000      -0.315766        -8.5924
  80   1.0000      -0.311192        -8.4680
  81   1.0000      -0.304705        -8.2914
  82   1.0000      -0.303363        -8.2549
  83   1.0000      -0.302628        -8.2349
  84   1.0000      -0.296340        -8.0638
  85   1.0000      -0.295847        -8.0504
  86   1.0000      -0.294206        -8.0057
  87   1.0000      -0.290972        -7.9177
  88   1.0000      -0.288038        -7.8379
  89   1.0000      -0.281284        -7.6541
  90   1.0000      -0.281138        -7.6502
  91   1.0000      -0.280971        -7.6456
  92   1.0000      -0.280161        -7.6236
  93   1.0000      -0.277297        -7.5456
  94   1.0000      -0.276030        -7.5112
  95   1.0000      -0.275965        -7.5094
  96   1.0000      -0.274263        -7.4631
  97   1.0000      -0.274035        -7.4569
  98   1.0000      -0.271983        -7.4010
  99   1.0000      -0.271075        -7.3763
 100   1.0000      -0.268960        -7.3188
 101   1.0000      -0.268509        -7.3065
 102   1.0000      -0.266750        -7.2586
 103   1.0000      -0.265513        -7.2250
 104   1.0000      -0.265441        -7.2230
 105   1.0000      -0.264484        -7.1970
 106   1.0000      -0.261790        -7.1237
 107   1.0000      -0.261347        -7.1116
 108   1.0000      -0.259089        -7.0502
 109   1.0000      -0.256370        -6.9762
 110   1.0000      -0.254589        -6.9277
 111   1.0000      -0.252684        -6.8759
 112   1.0000      -0.249944        -6.8013
 113   1.0000      -0.249819        -6.7979
 114   1.0000      -0.247397        -6.7320
 115   1.0000      -0.244456        -6.6520
 116   1.0000      -0.242958        -6.6112
 117   1.0000      -0.241810        -6.5800
 118   1.0000      -0.237247        -6.4558
 119   1.0000      -0.236795        -6.4435
 120   1.0000      -0.235128        -6.3982
 121   1.0000      -0.218339        -5.9413
 122   1.0000      -0.213512        -5.8099
 123   1.0000      -0.210528        -5.7287
 124   1.0000      -0.206112        -5.6086
 125   1.0000      -0.201125        -5.4729
 126   1.0000      -0.185159        -5.0384
 127   1.0000      -0.184074        -5.0089
 128   0.0000      -0.164606        -4.4792
 129   0.0000      -0.151683        -4.1275
 130   0.0000      -0.143575        -3.9069
 131   0.0000      -0.138084        -3.7574
 132   0.0000      -0.127123        -3.4592

                 SPIN DOWN ORBITALS
  NO   OCC          E(Eh)            E(eV)
   0   1.0000    -214.481865     -5836.3483
   1   1.0000     -24.234750      -659.4611
   2   1.0000     -20.612444      -560.8931
   3   1.0000     -20.612316      -560.8896
   4   1.0000     -20.602822      -560.6313
   5   1.0000      -4.032120      -109.7196
   6   1.0000      -4.030687      -109.6806
   7   1.0000      -4.029337      -109.6438
   8   1.0000      -4.029137      -109.6384
   9   1.0000      -4.021916      -109.4419
  10   1.0000      -4.021911      -109.4418
  11   1.0000      -4.020774      -109.4108
  12   1.0000      -4.020638      -109.4071
  13   1.0000      -4.017196      -109.3135
  14   1.0000      -4.016977      -109.3075
  15   1.0000      -4.012933      -109.1975
  16   1.0000      -4.010764      -109.1384
  17   1.0000      -2.659609       -72.3716
  18   1.0000      -2.250077       -61.2277
  19   1.0000      -2.248871       -61.1949
  20   1.0000      -2.245841       -61.1124
  21   1.0000      -2.245030       -61.0904
  22   1.0000      -2.243038       -61.0362
  23   1.0000      -2.242698       -61.0269
  24   1.0000      -2.242556       -61.0230
  25   1.0000      -2.242369       -61.0180
  26   1.0000      -2.241649       -60.9984
  27   1.0000      -2.241028       -60.9815
  28   1.0000      -2.240848       -60.9766
  29   1.0000      -2.239565       -60.9417
  30   1.0000      -2.238873       -60.9228
  31   1.0000      -2.238692       -60.9179
  32   1.0000      -2.235793       -60.8390
  33   1.0000      -2.235667       -60.8356
  34   1.0000      -2.234650       -60.8079
  35   1.0000      -2.234574       -60.8059
  36   1.0000      -2.232811       -60.7579
  37   1.0000      -2.232666       -60.7539
  38   1.0000      -2.232035       -60.7368
  39   1.0000      -2.231797       -60.7303
  40   1.0000      -2.231390       -60.7192
  41   1.0000      -2.231304       -60.7169
  42   1.0000      -2.231055       -60.7101
  43   1.0000      -2.230956       -60.7074
  44   1.0000      -2.230243       -60.6880
  45   1.0000      -2.228934       -60.6524
  46   1.0000      -2.228684       -60.6456
  47   1.0000      -2.228466       -60.6396
  48   1.0000      -2.228048       -60.6283
  49   1.0000      -2.227637       -60.6171
  50   1.0000      -2.225428       -60.5570
  51   1.0000      -2.223748       -60.5113
  52   1.0000      -2.222744       -60.4839
  53   1.0000      -2.216526       -60.3147
  54   1.0000      -1.658794       -45.1381
  55   1.0000      -1.658299       -45.1246
  56   1.0000      -1.636826       -44.5403
  57   1.0000      -0.418248       -11.3811
  58   1.0000      -0.388074       -10.5600
  59   1.0000      -0.376545       -10.2463
  60   1.0000      -0.375821       -10.2266
  61   1.0000      -0.365599        -9.9485
  62   1.0000      -0.363765        -9.8986
  63   1.0000      -0.358173        -9.7464
  64   1.0000      -0.354902        -9.6574
  65   1.0000      -0.349759        -9.5174
  66   1.0000      -0.347621        -9.4593
  67   1.0000      -0.343019        -9.3340
  68   1.0000      -0.341302        -9.2873
  69   1.0000      -0.337655        -9.1881
  70   1.0000      -0.337377        -9.1805
  71   1.0000      -0.336117        -9.1462
  72   1.0000      -0.328961        -8.9515
  73   1.0000      -0.328464        -8.9380
  74   1.0000      -0.325412        -8.8549
  75   1.0000      -0.321504        -8.7486
  76   1.0000      -0.317943        -8.6517
  77   1.0000      -0.317823        -8.6484
  78   1.0000      -0.314986        -8.5712
  79   1.0000      -0.312738        -8.5100
  80   1.0000      -0.306865        -8.3502
  81   1.0000      -0.302583        -8.2337
  82   1.0000      -0.300559        -8.1786
  83   1.0000      -0.298084        -8.1113
  84   1.0000      -0.293798        -7.9947
  85   1.0000      -0.293414        -7.9842
  86   1.0000      -0.289920        -7.8891
  87   1.0000      -0.288214        -7.8427
  88   1.0000      -0.286507        -7.7962
  89   1.0000      -0.280609        -7.6358
  90   1.0000      -0.280416        -7.6305
  91   1.0000      -0.280005        -7.6193
  92   1.0000      -0.277879        -7.5615
  93   1.0000      -0.275567        -7.4986
  94   1.0000      -0.275144        -7.4871
  95   1.0000      -0.275025        -7.4838
  96   1.0000      -0.273289        -7.4366
  97   1.0000      -0.272927        -7.4267
  98   1.0000      -0.271295        -7.3823
  99   1.0000      -0.270479        -7.3601
 100   1.0000      -0.267937        -7.2909
 101   1.0000      -0.267803        -7.2873
 102   1.0000      -0.265713        -7.2304
 103   1.0000      -0.264836        -7.2066
 104   1.0000      -0.264302        -7.1920
 105   1.0000      -0.264004        -7.1839
 106   1.0000      -0.261047        -7.1034
 107   1.0000      -0.260413        -7.0862
 108   1.0000      -0.258323        -7.0293
 109   1.0000      -0.255147        -6.9429
 110   1.0000      -0.253867        -6.9081
 111   1.0000      -0.252130        -6.8608
 112   1.0000      -0.248962        -6.7746
 113   1.0000      -0.247969        -6.7476
 114   1.0000      -0.246652        -6.7118
 115   1.0000      -0.243505        -6.6261
 116   1.0000      -0.242082        -6.5874
 117   1.0000      -0.241200        -6.5634
 118   1.0000      -0.235946        -6.4204
 119   1.0000      -0.235542        -6.4094
 120   1.0000      -0.234143        -6.3713
 121   1.0000      -0.211862        -5.7651
 122   1.0000      -0.205891        -5.6026
 123   1.0000      -0.199808        -5.4371
 124   0.0000      -0.156723        -4.2647
 125   0.0000      -0.152166        -4.1407
 126   0.0000      -0.143580        -3.9070
 127   0.0000      -0.134707        -3.6656
 128   0.0000      -0.119477        -3.2511

MULLIKEN ATOMIC CHARGES AND SPIN POPULATIONS
--------------------------------------------
   0 Au:    0.135378    0.045363
   1 Au:    0.476915    0.015524
   2 Au:   -0.003625    0.016774
   3 Au:    0.409499    0.128497
   4 Au:    0.075419   -0.017513
   5 Au:    0.378741    0.031155
   6 Au:    0.419859    0.029697
   7 Au:    0.376913    0.030527
   8 Au:    0.412383    0.129227
   9 Au:    0.485890    0.014820
  10 Au:    0.073867   -0.016933
  11 Au:   -0.237966   -0.018932
  12 Cr:   -3.003273    3.611795
Sum of atomic charges         :   -0.0000000

LOEWDIN ATOMIC CHARGES AND SPIN POPULATIONS
-------------------------------------------
   0 Au:    0.218119    0.049768
   1 Au:    0.094427   -0.003003
   2 Au:   -0.057247    0.051832
   3 Au:    0.100873    0.084312
   4 Au:    0.050927    0.012731
   5 Au:    0.150938    0.018213
   6 Au:    0.086213    0.022971
   7 Au:    0.151409    0.017728
   8 Au:    0.101499    0.084823
   9 Au:    0.094137   -0.003645
  10 Au:    0.051556    0.013073
  11 Au:   -0.040336    0.030347
  12 Cr:   -1.002515    3.620850

  Mayer bond orders larger than 0.100000
B(  0-Au,  2-Au) :   0.5972 B(  0-Au, 12-Cr) :   0.7530 B(  1-Au,  4-Au) :   0.2372
B(  1-Au,  5-Au) :   0.2918 B(  1-Au,  9-Au) :   0.1908 B(  1-Au, 11-Au) :   0.3180
B(  1-Au, 12-Cr) :   0.4676 B(  2-Au,  3-Au) :   0.3237 B(  2-Au,  4-Au) :   0.1308
B(  2-Au,  8-Au) :   0.3256 B(  2-Au, 10-Au) :   0.1313 B(  2-Au, 11-Au) :   0.2359
B(  2-Au, 12-Cr) :   0.4512 B(  3-Au,  4-Au) :   0.3727 B(  3-Au, 11-Au) :   0.3061
B(  3-Au, 12-Cr) :   0.1463 B(  4-Au,  5-Au) :   0.3119 B(  4-Au, 11-Au) :   0.1913
B(  4-Au, 12-Cr) :   0.6547 B(  5-Au,  6-Au) :   0.2825 B(  5-Au, 12-Cr) :   0.5215
B(  6-Au,  7-Au) :   0.2802 B(  6-Au, 12-Cr) :   0.6420 B(  7-Au,  9-Au) :   0.2918
B(  7-Au, 10-Au) :   0.3166 B(  7-Au, 12-Cr) :   0.5188 B(  8-Au, 10-Au) :   0.3717
B(  8-Au, 11-Au) :   0.3062 B(  8-Au, 12-Cr) :   0.1463 B(  9-Au, 10-Au) :   0.2320
B(  9-Au, 11-Au) :   0.3170 B(  9-Au, 12-Cr) :   0.4739 B( 10-Au, 11-Au) :   0.1915
B( 10-Au, 12-Cr) :   0.6564 B( 11-Au, 12-Cr) :   0.4324

FINAL SINGLE POINT ENERGY     -2674.151391270894

DIPOLE MOMENT
-------------
                                X             Y             Z
Electronic contribution:    -11.99195      19.27491     -28.95935
Nuclear contribution   :     12.01470     -19.33991      29.03065
                        -----------------------------------------
Total Dipole Moment    :      0.02275      -0.06500       0.07130
                        -----------------------------------------
Magnitude (a.u.)       :      0.09913
Magnitude (Debye)      :      0.25196

Rotational constants in cm-1:     0.001603     0.001195     0.001068
Rotational constants in MHz :    48.050915    35.826158    32.028244

                             ****ORCA TERMINATED NORMALLY****
TOTAL RUN TIME: 0 days 2 hours 46 minutes 28 seconds 634 msec
