                         Program Version 5.0.3 -  RELEASE  -
|  1> !SC-NEVPT2 def2-TZVP def2-TZVP/C
|  2> !MOREAD RIJCOSX def2/J
|  3> %maxcore 4000
|  4> %moinp "casscf.gbw"
|  5> %pal nprocs 8 end
|  6>
|  7> %casscf
|  8>  mult 5,3
|  9>  bweight 1,1
| 10>  nroots 5,45
| 11>  nel 6
| 12>  norb 5
| 13>  ptsettings
| 14>   d4tpre 1e-14 # default = 1e-10
| 15>   d3tpre 1e-14
| 16>  end
| 17>  rel
| 18>    dosoc true
| 19>    gtensor true
| 20>  end
| 21> end
| 22>
| 23>
| 24> *xyzfile 0 5 pbe.xyz
| 25>
| 26>
| 27>                          ****END OF INPUT****

CARTESIAN COORDINATES (ANGSTROEM)
---------------------------------
  Au     6.989877    6.828196    7.636510
  Au     8.527556    4.771606    8.084420
  Au    10.162749    2.638091    8.111101
  Au     8.353427    8.042387    5.220853
  Au     6.022225    9.061814    6.371986
  Au     8.334218    9.430548    7.747540
  Au    10.687750    6.821280    5.077246
  Au    11.184208    4.826437    7.053060
  Au    12.376678    7.184855    7.373716
  Au    10.783326    9.033607    8.632733
  Fe     9.616086    7.066753    7.400963

 Total Charge           Charge          ....    0
 Multiplicity           Mult            ....    5
 Number of Electrons    NEL             ....  216
 Basis Dimension        Dim             ....  445

ORBITAL ENERGIES
----------------

  NO   OCC          E(Eh)            E(eV)
   0   2.0000    -261.386049     -7112.6760
   1   2.0000     -31.950915      -869.4286
   2   2.0000     -27.430876      -746.4321
   3   2.0000     -27.430753      -746.4287
   4   2.0000     -27.430185      -746.4133
   5   2.0000      -4.719445      -128.4226
   6   2.0000      -4.713855      -128.2705
   7   2.0000      -4.713749      -128.2676
   8   2.0000      -4.712592      -128.2361
   9   2.0000      -4.710214      -128.1714
  10   2.0000      -4.707038      -128.0850
  11   2.0000      -4.705960      -128.0557
  12   2.0000      -4.705035      -128.0305
  13   2.0000      -4.703783      -127.9964
  14   2.0000      -4.688177      -127.5718
  15   2.0000      -4.183954      -113.8512
  16   2.0000      -2.764702       -75.2314
  17   2.0000      -2.762949       -75.1837
  18   2.0000      -2.762314       -75.1664
  19   2.0000      -2.760324       -75.1122
  20   2.0000      -2.756950       -75.0204
  21   2.0000      -2.755937       -74.9929
  22   2.0000      -2.752503       -74.8994
  23   2.0000      -2.751420       -74.8700
  24   2.0000      -2.750650       -74.8490
  25   2.0000      -2.750016       -74.8317
  26   2.0000      -2.749615       -74.8208
  27   2.0000      -2.749168       -74.8087
  28   2.0000      -2.747973       -74.7762
  29   2.0000      -2.747489       -74.7630
  30   2.0000      -2.745596       -74.7115
  31   2.0000      -2.745049       -74.6966
  32   2.0000      -2.744568       -74.6835
  33   2.0000      -2.744070       -74.6699
  34   2.0000      -2.743791       -74.6624
  35   2.0000      -2.742918       -74.6386
  36   2.0000      -2.741711       -74.6058
  37   2.0000      -2.740829       -74.5817
  38   2.0000      -2.740685       -74.5778
  39   2.0000      -2.739905       -74.5566
  40   2.0000      -2.739125       -74.5354
  41   2.0000      -2.739027       -74.5327
  42   2.0000      -2.737830       -74.5001
  43   2.0000      -2.735752       -74.4436
  44   2.0000      -2.734996       -74.4230
  45   2.0000      -2.733821       -74.3910
  46   2.0000      -2.725548       -74.1659
  47   2.0000      -2.722615       -74.0861
  48   2.0000      -2.719705       -74.0069
  49   2.0000      -0.564858       -15.3706
  50   2.0000      -0.559903       -15.2357
  51   2.0000      -0.551858       -15.0168
  52   2.0000      -0.545850       -14.8533
  53   2.0000      -0.545233       -14.8366
  54   2.0000      -0.536829       -14.6079
  55   2.0000      -0.532444       -14.4885
  56   2.0000      -0.528805       -14.3895
  57   2.0000      -0.527222       -14.3464
  58   2.0000      -0.526264       -14.3204
  59   2.0000      -0.517481       -14.0814
  60   2.0000      -0.516697       -14.0600
  61   2.0000      -0.513661       -13.9774
  62   2.0000      -0.508422       -13.8349
  63   2.0000      -0.505584       -13.7576
  64   2.0000      -0.502973       -13.6866
  65   2.0000      -0.498483       -13.5644
  66   2.0000      -0.496176       -13.5016
  67   2.0000      -0.495550       -13.4846
  68   2.0000      -0.492422       -13.3995
  69   2.0000      -0.484677       -13.1887
  70   2.0000      -0.479720       -13.0538
  71   2.0000      -0.473687       -12.8897
  72   2.0000      -0.471658       -12.8345
  73   2.0000      -0.469609       -12.7787
  74   2.0000      -0.468418       -12.7463
  75   2.0000      -0.465611       -12.6699
  76   2.0000      -0.459643       -12.5075
  77   2.0000      -0.458754       -12.4833
  78   2.0000      -0.457575       -12.4512
  79   2.0000      -0.453711       -12.3461
  80   2.0000      -0.451651       -12.2900
  81   2.0000      -0.451432       -12.2841
  82   2.0000      -0.449428       -12.2296
  83   2.0000      -0.448517       -12.2048
  84   2.0000      -0.447156       -12.1677
  85   2.0000      -0.445434       -12.1209
  86   2.0000      -0.442118       -12.0307
  87   2.0000      -0.439135       -11.9495
  88   2.0000      -0.436024       -11.8648
  89   2.0000      -0.434129       -11.8132
  90   2.0000      -0.429637       -11.6910
  91   2.0000      -0.429468       -11.6864
  92   2.0000      -0.427046       -11.6205
  93   2.0000      -0.423346       -11.5198
  94   2.0000      -0.419331       -11.4106
  95   2.0000      -0.413503       -11.2520
  96   2.0000      -0.408970       -11.1286
  97   2.0000      -0.403733       -10.9861
  98   2.0000      -0.399578       -10.8731
  99   2.0000      -0.383753       -10.4425
 100   2.0000      -0.361451        -9.8356
 101   2.0000      -0.330933        -9.0051
 102   2.0000      -0.291293        -7.9265
 103   2.0000      -0.253070        -6.8864
 104   2.0000      -0.236906        -6.4465
 105   1.2000      -0.263941        -7.1822
 106   1.2000      -0.257785        -7.0147
 107   1.2000      -0.261652        -7.1199
 108   1.2000      -0.262675        -7.1478
 109   1.2000      -0.266367        -7.2482
 110   0.0000      -0.033337        -0.9072
 111   0.0000      -0.006385        -0.1737
 112   0.0000       0.002913         0.0793
 113   0.0000       0.011385         0.3098
 114   0.0000       0.021981         0.5981

MULLIKEN ATOMIC CHARGES AND SPIN DENSITIES
------------------------------------------
   0 Au:    0.121189    0.008596
   1 Au:   -0.248744    0.008873
   2 Au:    0.373547    0.002118
   3 Au:   -0.094341    0.008036
   4 Au:    0.348377    0.002670
   5 Au:   -0.004638    0.006883
   6 Au:    0.254680    0.009483
   7 Au:   -0.248318    0.006737
   8 Au:    0.218765    0.006761
   9 Au:    0.190984    0.009480
  10 Fe:   -0.911500    2.930362
Sum of atomic charges       :    0.0000000

LOEWDIN ATOMIC CHARGES AND SPIN DENSITIES
-----------------------------------------
   0 Au:   -0.065725    0.011798
   1 Au:   -0.081882    0.012325
   2 Au:    0.118219    0.002694
   3 Au:   -0.071460    0.010375
   4 Au:    0.141931    0.003227
   5 Au:   -0.071968    0.009781
   6 Au:    0.036910    0.012915
   7 Au:   -0.150830    0.009299
   8 Au:    0.053230    0.008999
   9 Au:    0.088927    0.013040
  10 Fe:    0.002648    2.905548

  Mayer bond orders larger than 0.100000
B(  0-Au,  1-Au) :   0.4617 B(  0-Au,  3-Au) :   0.1065 B(  0-Au,  4-Au) :   0.2633
B(  0-Au,  5-Au) :   0.1500 B(  0-Au, 10-Fe) :   0.4500 B(  1-Au,  2-Au) :   0.4332
B(  1-Au,  7-Au) :   0.3786 B(  1-Au, 10-Fe) :   0.5836 B(  2-Au,  7-Au) :   0.5476
B(  3-Au,  4-Au) :   0.2790 B(  3-Au,  5-Au) :   0.2371 B(  3-Au,  6-Au) :   0.5594
B(  3-Au, 10-Fe) :   0.4122 B(  4-Au,  5-Au) :   0.4056 B(  5-Au,  9-Au) :   0.5183
B(  5-Au, 10-Fe) :   0.3719 B(  6-Au, 10-Fe) :   0.4519 B(  7-Au,  8-Au) :   0.4907
B(  7-Au, 10-Fe) :   0.3082 B(  8-Au, 10-Fe) :   0.4013 B(  9-Au, 10-Fe) :   0.4854

FINAL SINGLE POINT ENERGY     -2615.546136067515

DIPOLE MOMENT
-------------
                                X             Y             Z
Electronic contribution:    -10.15231      -7.21234     -10.20436
Nuclear contribution   :     10.37419       7.68436      10.22883
                        -----------------------------------------
Total Dipole Moment    :      0.22189       0.47202       0.02448
                        -----------------------------------------
Magnitude (a.u.)       :      0.52214
Magnitude (Debye)      :      1.32719

Rotational constants in cm-1:     0.002153     0.001288     0.001054
Rotational constants in MHz :    64.540103    38.613376    31.598429

                             ****ORCA TERMINATED NORMALLY****
TOTAL RUN TIME: 0 days 2 hours 17 minutes 42 seconds 295 msec
