                         Program Version 5.0.3 -  RELEASE  -
|  1> %pal nprocs 1 end
|  2>
|  3> !PBE def2-TZVP OPT UNO
|  4> !SLOWCONV KDIIS
|  5>
|  6> %geom maxiter 300 end
|  7>
|  8> *xyzfile 0 3 2.xyz                           ****END OF INPUT****
 Total Charge           Charge          ....    0
 Multiplicity           Mult            ....    3
 Number of Electrons    NEL             ....  252
FINAL SINGLE POINT ENERGY     -2674.137640019628
FINAL SINGLE POINT ENERGY     -2674.137894294025
FINAL SINGLE POINT ENERGY     -2674.137939050726
FINAL SINGLE POINT ENERGY     -2674.138001901160
FINAL SINGLE POINT ENERGY     -2674.137996244956
FINAL SINGLE POINT ENERGY     -2674.138100383477
FINAL SINGLE POINT ENERGY     -2674.138105556668
FINAL SINGLE POINT ENERGY     -2674.138113132169
FINAL SINGLE POINT ENERGY     -2674.138129431623
FINAL SINGLE POINT ENERGY     -2674.138129637950
FINAL SINGLE POINT ENERGY     -2674.163493722971
FINAL SINGLE POINT ENERGY     -2674.163880854278
FINAL SINGLE POINT ENERGY     -2674.164024978329
FINAL SINGLE POINT ENERGY     -2674.164075190879
FINAL SINGLE POINT ENERGY     -2674.164101629886
FINAL SINGLE POINT ENERGY     -2674.164114298389
FINAL SINGLE POINT ENERGY     -2674.164121285049
FINAL SINGLE POINT ENERGY     -2674.164123975192
FINAL SINGLE POINT ENERGY     -2674.164125916976
                    ***********************HURRAY********************

CARTESIAN COORDINATES (ANGSTROEM)
---------------------------------
  Au     9.642388    3.820694    6.848470
  Au    10.876038    7.915393    6.263629
  Au     8.195024    8.605742    6.243049
  Au    10.366426    8.338158    8.952805
  Au     8.283219    7.030907   10.482861
  Au    11.264684    5.766637    7.966380
  Au     9.190510    4.457787    9.505054
  Au     6.510884    5.150604    9.490060
  Au     7.749413    9.240380    8.901614
  Au     7.025685    4.724638    6.802553
  Au     6.121807    7.297399    7.785034
  Au     9.107071    6.031996    5.271044
  Cr     8.693506    6.534630    7.876462

 Multiplicity           Mult            ....    3
 Number of Electrons    NEL             ....  252
 Basis Dimension        Dim             ....  525

ORBITAL ENERGIES
----------------
                 SPIN UP ORBITALS
  NO   OCC          E(Eh)            E(eV)
   0   1.0000    -214.509393     -5837.0973
   1   1.0000     -24.311137      -661.5397
   2   1.0000     -20.677618      -562.6666
   3   1.0000     -20.673595      -562.5571
   4   1.0000     -20.673580      -562.5567
   5   1.0000      -4.024155      -109.5028
   6   1.0000      -4.024147      -109.5026
   7   1.0000      -4.024099      -109.5013
   8   1.0000      -4.024093      -109.5011
   9   1.0000      -4.024056      -109.5001
  10   1.0000      -4.024050      -109.5000
  11   1.0000      -4.024000      -109.4986
  12   1.0000      -4.023996      -109.4985
  13   1.0000      -4.016163      -109.2853
  14   1.0000      -4.016143      -109.2848
  15   1.0000      -4.016108      -109.2839
  16   1.0000      -4.016053      -109.2824
  17   1.0000      -2.806711       -76.3745
  18   1.0000      -2.241512       -60.9946
  19   1.0000      -2.241413       -60.9920
  20   1.0000      -2.240896       -60.9779
  21   1.0000      -2.240860       -60.9769
  22   1.0000      -2.240771       -60.9745
  23   1.0000      -2.240739       -60.9736
  24   1.0000      -2.239856       -60.9496
  25   1.0000      -2.239705       -60.9455
  26   1.0000      -2.238992       -60.9261
  27   1.0000      -2.238699       -60.9181
  28   1.0000      -2.237439       -60.8838
  29   1.0000      -2.237381       -60.8822
  30   1.0000      -2.237367       -60.8819
  31   1.0000      -2.237316       -60.8805
  32   1.0000      -2.236394       -60.8554
  33   1.0000      -2.235994       -60.8445
  34   1.0000      -2.234061       -60.7919
  35   1.0000      -2.234040       -60.7913
  36   1.0000      -2.233544       -60.7778
  37   1.0000      -2.233512       -60.7769
  38   1.0000      -2.233346       -60.7724
  39   1.0000      -2.233326       -60.7719
  40   1.0000      -2.233073       -60.7650
  41   1.0000      -2.232487       -60.7491
  42   1.0000      -2.229896       -60.6786
  43   1.0000      -2.229746       -60.6745
  44   1.0000      -2.229709       -60.6735
  45   1.0000      -2.229649       -60.6718
  46   1.0000      -2.228833       -60.6496
  47   1.0000      -2.228732       -60.6469
  48   1.0000      -2.228714       -60.6464
  49   1.0000      -2.228640       -60.6444
  50   1.0000      -2.227399       -60.6106
  51   1.0000      -2.227382       -60.6101
  52   1.0000      -2.227333       -60.6088
  53   1.0000      -2.227245       -60.6064
  54   1.0000      -1.799618       -48.9701
  55   1.0000      -1.794061       -48.8189
  56   1.0000      -1.794036       -48.8182
  57   1.0000      -0.420921       -11.4539
  58   1.0000      -0.373515       -10.1639
  59   1.0000      -0.373440       -10.1618
  60   1.0000      -0.369597       -10.0573
  61   1.0000      -0.363944        -9.9034
  62   1.0000      -0.359175        -9.7737
  63   1.0000      -0.359093        -9.7714
  64   1.0000      -0.357081        -9.7167
  65   1.0000      -0.351039        -9.5522
  66   1.0000      -0.348660        -9.4875
  67   1.0000      -0.348137        -9.4733
  68   1.0000      -0.338625        -9.2145
  69   1.0000      -0.333954        -9.0873
  70   1.0000      -0.333874        -9.0852
  71   1.0000      -0.332057        -9.0357
  72   1.0000      -0.331737        -9.0270
  73   1.0000      -0.331574        -9.0226
  74   1.0000      -0.327214        -8.9040
  75   1.0000      -0.326968        -8.8972
  76   1.0000      -0.324704        -8.8357
  77   1.0000      -0.320315        -8.7162
  78   1.0000      -0.318840        -8.6761
  79   1.0000      -0.318251        -8.6601
  80   1.0000      -0.317261        -8.6331
  81   1.0000      -0.317223        -8.6321
  82   1.0000      -0.315692        -8.5904
  83   1.0000      -0.315407        -8.5827
  84   1.0000      -0.311865        -8.4863
  85   1.0000      -0.305798        -8.3212
  86   1.0000      -0.297731        -8.1017
  87   1.0000      -0.297187        -8.0869
  88   1.0000      -0.296947        -8.0803
  89   1.0000      -0.288331        -7.8459
  90   1.0000      -0.288205        -7.8425
  91   1.0000      -0.287805        -7.8316
  92   1.0000      -0.278116        -7.5679
  93   1.0000      -0.274047        -7.4572
  94   1.0000      -0.273956        -7.4547
  95   1.0000      -0.270923        -7.3722
  96   1.0000      -0.269781        -7.3411
  97   1.0000      -0.269465        -7.3325
  98   1.0000      -0.269077        -7.3219
  99   1.0000      -0.267776        -7.2866
 100   1.0000      -0.267072        -7.2674
 101   1.0000      -0.261694        -7.1211
 102   1.0000      -0.260848        -7.0980
 103   1.0000      -0.255329        -6.9479
 104   1.0000      -0.254819        -6.9340
 105   1.0000      -0.254578        -6.9274
 106   1.0000      -0.253673        -6.9028
 107   1.0000      -0.253464        -6.8971
 108   1.0000      -0.253337        -6.8936
 109   1.0000      -0.253125        -6.8879
 110   1.0000      -0.250101        -6.8056
 111   1.0000      -0.249876        -6.7995
 112   1.0000      -0.249800        -6.7974
 113   1.0000      -0.247043        -6.7224
 114   1.0000      -0.245558        -6.6820
 115   1.0000      -0.245427        -6.6784
 116   1.0000      -0.240813        -6.5529
 117   1.0000      -0.240745        -6.5510
 118   1.0000      -0.237948        -6.4749
 119   1.0000      -0.233979        -6.3669
 120   1.0000      -0.223234        -6.0745
 121   1.0000      -0.220163        -5.9909
 122   1.0000      -0.220156        -5.9908
 123   1.0000      -0.213929        -5.8213
 124   1.0000      -0.213908        -5.8207
 125   1.0000      -0.206908        -5.6303
 126   1.0000      -0.192863        -5.2481
 127   0.0000      -0.168064        -4.5733
 128   0.0000      -0.168031        -4.5724
 129   0.0000      -0.161819        -4.4033
 130   0.0000      -0.157758        -4.2928
 131   0.0000      -0.115108        -3.1323

                 SPIN DOWN ORBITALS
  NO   OCC          E(Eh)            E(eV)
   0   1.0000    -214.509004     -5837.0867
   1   1.0000     -24.269225      -660.3992
   2   1.0000     -20.647171      -561.8381
   3   1.0000     -20.640776      -561.6641
   4   1.0000     -20.640767      -561.6638
   5   1.0000      -4.023976      -109.4979
   6   1.0000      -4.023967      -109.4977
   7   1.0000      -4.023918      -109.4964
   8   1.0000      -4.023912      -109.4962
   9   1.0000      -4.023875      -109.4952
  10   1.0000      -4.023870      -109.4951
  11   1.0000      -4.023820      -109.4937
  12   1.0000      -4.023816      -109.4936
  13   1.0000      -4.016244      -109.2876
  14   1.0000      -4.016228      -109.2871
  15   1.0000      -4.016186      -109.2860
  16   1.0000      -4.016148      -109.2849
  17   1.0000      -2.694291       -73.3154
  18   1.0000      -2.240912       -60.9783
  19   1.0000      -2.240803       -60.9754
  20   1.0000      -2.240350       -60.9630
  21   1.0000      -2.240317       -60.9621
  22   1.0000      -2.240233       -60.9598
  23   1.0000      -2.240204       -60.9591
  24   1.0000      -2.239284       -60.9340
  25   1.0000      -2.239119       -60.9295
  26   1.0000      -2.239089       -60.9287
  27   1.0000      -2.238802       -60.9209
  28   1.0000      -2.237496       -60.8854
  29   1.0000      -2.237441       -60.8839
  30   1.0000      -2.237401       -60.8828
  31   1.0000      -2.237355       -60.8815
  32   1.0000      -2.236498       -60.8582
  33   1.0000      -2.236091       -60.8471
  34   1.0000      -2.233950       -60.7889
  35   1.0000      -2.233932       -60.7884
  36   1.0000      -2.233420       -60.7744
  37   1.0000      -2.233388       -60.7736
  38   1.0000      -2.233222       -60.7690
  39   1.0000      -2.233203       -60.7685
  40   1.0000      -2.232939       -60.7614
  41   1.0000      -2.232338       -60.7450
  42   1.0000      -2.229866       -60.6777
  43   1.0000      -2.229735       -60.6742
  44   1.0000      -2.229687       -60.6729
  45   1.0000      -2.229633       -60.6714
  46   1.0000      -2.228891       -60.6512
  47   1.0000      -2.228781       -60.6482
  48   1.0000      -2.228754       -60.6475
  49   1.0000      -2.228705       -60.6461
  50   1.0000      -2.227574       -60.6154
  51   1.0000      -2.227566       -60.6151
  52   1.0000      -2.227510       -60.6136
  53   1.0000      -2.227410       -60.6109
  54   1.0000      -1.694091       -46.0986
  55   1.0000      -1.680845       -45.7381
  56   1.0000      -1.680811       -45.7372
  57   1.0000      -0.414913       -11.2904
  58   1.0000      -0.372829       -10.1452
  59   1.0000      -0.372746       -10.1429
  60   1.0000      -0.364467        -9.9177
  61   1.0000      -0.363214        -9.8836
  62   1.0000      -0.356559        -9.7025
  63   1.0000      -0.356242        -9.6938
  64   1.0000      -0.356162        -9.6917
  65   1.0000      -0.349716        -9.5163
  66   1.0000      -0.343683        -9.3521
  67   1.0000      -0.342987        -9.3332
  68   1.0000      -0.338022        -9.1980
  69   1.0000      -0.334956        -9.1146
  70   1.0000      -0.334870        -9.1123
  71   1.0000      -0.333282        -9.0691
  72   1.0000      -0.331736        -9.0270
  73   1.0000      -0.331566        -9.0224
  74   1.0000      -0.327848        -8.9212
  75   1.0000      -0.327589        -8.9141
  76   1.0000      -0.325906        -8.8684
  77   1.0000      -0.321196        -8.7402
  78   1.0000      -0.319802        -8.7023
  79   1.0000      -0.319056        -8.6820
  80   1.0000      -0.318350        -8.6628
  81   1.0000      -0.318313        -8.6617
  82   1.0000      -0.312840        -8.5128
  83   1.0000      -0.311244        -8.4694
  84   1.0000      -0.310950        -8.4614
  85   1.0000      -0.306850        -8.3498
  86   1.0000      -0.298309        -8.1174
  87   1.0000      -0.298068        -8.1109
  88   1.0000      -0.292598        -7.9620
  89   1.0000      -0.287509        -7.8235
  90   1.0000      -0.287392        -7.8203
  91   1.0000      -0.287357        -7.8194
  92   1.0000      -0.279023        -7.5926
  93   1.0000      -0.275194        -7.4884
  94   1.0000      -0.275105        -7.4860
  95   1.0000      -0.272571        -7.4170
  96   1.0000      -0.270796        -7.3687
  97   1.0000      -0.270482        -7.3602
  98   1.0000      -0.268655        -7.3105
  99   1.0000      -0.268003        -7.2927
 100   1.0000      -0.267613        -7.2821
 101   1.0000      -0.262848        -7.1524
 102   1.0000      -0.262324        -7.1382
 103   1.0000      -0.256833        -6.9888
 104   1.0000      -0.255263        -6.9461
 105   1.0000      -0.255017        -6.9394
 106   1.0000      -0.254832        -6.9343
 107   1.0000      -0.253975        -6.9110
 108   1.0000      -0.253762        -6.9052
 109   1.0000      -0.253700        -6.9035
 110   1.0000      -0.250843        -6.8258
 111   1.0000      -0.250376        -6.8131
 112   1.0000      -0.250298        -6.8110
 113   1.0000      -0.247803        -6.7431
 114   1.0000      -0.246180        -6.6989
 115   1.0000      -0.246055        -6.6955
 116   1.0000      -0.242014        -6.5855
 117   1.0000      -0.241948        -6.5837
 118   1.0000      -0.238612        -6.4930
 119   1.0000      -0.235489        -6.4080
 120   1.0000      -0.220548        -6.0014
 121   1.0000      -0.209581        -5.7030
 122   1.0000      -0.202826        -5.5192
 123   1.0000      -0.202753        -5.5172
 124   1.0000      -0.186529        -5.0757
 125   0.0000      -0.168106        -4.5744
 126   0.0000      -0.121167        -3.2971
 127   0.0000      -0.121112        -3.2956
 128   0.0000      -0.118349        -3.2204
 129   0.0000      -0.112979        -3.0743

MULLIKEN ATOMIC CHARGES AND SPIN POPULATIONS
--------------------------------------------
   0 Au:    0.498122    0.006081
   1 Au:    0.499193    0.006517
   2 Au:    0.447151   -0.059663
   3 Au:    0.447522   -0.059810
   4 Au:    0.448992   -0.059792
   5 Au:    0.448966   -0.059888
   6 Au:    0.447505   -0.060251
   7 Au:    0.499219    0.006199
   8 Au:    0.498636    0.007124
   9 Au:    0.447152   -0.060284
  10 Au:    0.449113   -0.059638
  11 Au:    0.448610   -0.060112
  12 Cr:   -5.580181    2.453517
Sum of atomic charges         :   -0.0000000

LOEWDIN ATOMIC CHARGES AND SPIN POPULATIONS
-------------------------------------------
   0 Au:    0.112181   -0.056134
   1 Au:    0.112305   -0.055776
   2 Au:    0.123424   -0.075685
   3 Au:    0.123326   -0.075814
   4 Au:    0.122860   -0.075939
   5 Au:    0.122463   -0.076054
   6 Au:    0.122676   -0.076027
   7 Au:    0.112263   -0.056074
   8 Au:    0.112265   -0.055257
   9 Au:    0.122832   -0.076078
  10 Au:    0.122983   -0.075947
  11 Au:    0.122480   -0.076084
  12 Cr:   -1.432059    2.830869

  Mayer bond orders larger than 0.100000
B(  0-Au,  5-Au) :   0.2306 B(  0-Au,  6-Au) :   0.2307 B(  0-Au,  9-Au) :   0.2309
B(  0-Au, 11-Au) :   0.2310 B(  0-Au, 12-Cr) :   0.4972 B(  1-Au,  2-Au) :   0.2307
B(  1-Au,  3-Au) :   0.2302 B(  1-Au,  5-Au) :   0.2306 B(  1-Au, 11-Au) :   0.2313
B(  1-Au, 12-Cr) :   0.4978 B(  2-Au,  6-Au) :   0.1138 B(  2-Au,  8-Au) :   0.2308
B(  2-Au, 10-Au) :   0.1798 B(  2-Au, 11-Au) :   0.1784 B(  2-Au, 12-Cr) :   0.6710
B(  3-Au,  4-Au) :   0.1797 B(  3-Au,  5-Au) :   0.1790 B(  3-Au,  8-Au) :   0.2310
B(  3-Au,  9-Au) :   0.1137 B(  3-Au, 12-Cr) :   0.6707 B(  4-Au,  6-Au) :   0.1781
B(  4-Au,  7-Au) :   0.2308 B(  4-Au,  8-Au) :   0.2309 B(  4-Au, 11-Au) :   0.1146
B(  4-Au, 12-Cr) :   0.6693 B(  5-Au,  6-Au) :   0.1787 B(  5-Au, 10-Au) :   0.1147
B(  5-Au, 12-Cr) :   0.6698 B(  6-Au,  7-Au) :   0.2313 B(  6-Au, 12-Cr) :   0.6704
B(  7-Au,  9-Au) :   0.2307 B(  7-Au, 10-Au) :   0.2305 B(  7-Au, 12-Cr) :   0.4976
B(  8-Au, 10-Au) :   0.2306 B(  8-Au, 12-Cr) :   0.4970 B(  9-Au, 10-Au) :   0.1781
B(  9-Au, 11-Au) :   0.1785 B(  9-Au, 12-Cr) :   0.6707 B( 10-Au, 12-Cr) :   0.6703
B( 11-Au, 12-Cr) :   0.6690

FINAL SINGLE POINT ENERGY     -2674.164126470846

DIPOLE MOMENT
-------------
                                X             Y             Z
Electronic contribution:      0.03243      -0.10310      -0.01497
Nuclear contribution   :     -0.03240       0.10304       0.01462
                        -----------------------------------------
Total Dipole Moment    :      0.00003      -0.00006      -0.00036
                        -----------------------------------------
Magnitude (a.u.)       :      0.00036
Magnitude (Debye)      :      0.00092

Rotational constants in cm-1:     0.001440     0.001439     0.001210
Rotational constants in MHz :    43.175280    43.133640    36.285925

                             ****ORCA TERMINATED NORMALLY****
TOTAL RUN TIME: 0 days 8 hours 7 minutes 49 seconds 38 msec
