                         Program Version 5.0.3 -  RELEASE  -
|  1> !SC-NEVPT2 def2-TZVP def2-TZVP/C
|  2> !MOREAD RIJCOSX def2/J
|  3> %maxcore 4000
|  4> %moinp "casscf.gbw"
|  5> %pal nprocs 8 end
|  6>
|  7> %casscf
|  8>  mult 5,3
|  9>  bweight 1,1
| 10>  nroots 5,45
| 11>  nel 6
| 12>  norb 5
| 13>  ptsettings
| 14>   d4tpre 1e-14 # default = 1e-10
| 15>   d3tpre 1e-14
| 16>  end
| 17>  rel
| 18>    dosoc true
| 19>    gtensor true
| 20>  end
| 21> end
| 22>
| 23>
| 24> *xyzfile 0 5 pbe.xyz
| 25>
| 26>
| 27>                          ****END OF INPUT****

CARTESIAN COORDINATES (ANGSTROEM)
---------------------------------
  Au     9.726124    4.312543    9.480403
  Au    11.272329    5.304325    7.392775
  Au     9.166651    4.418535    5.806529
  Au    10.013793    7.180614    5.770168
  Au     6.639687    5.188048    6.226295
  Au     7.483424    7.948933    6.168043
  Au     7.194215    5.078541    9.875694
  Au     5.935117    6.956714    8.255258
  Au     8.042168    7.836723    9.842813
  Au    10.571299    7.075065    9.419943
  Cr     8.605302    6.129876    7.823281

 Total Charge           Charge          ....    0
 Multiplicity           Mult            ....    5
 Number of Electrons    NEL             ....  214
 Basis Dimension        Dim             ....  445

ORBITAL ENERGIES
----------------

  NO   OCC          E(Eh)            E(eV)
   0   2.0000    -220.580798     -6002.3087
   1   2.0000     -26.433561      -719.2938
   2   2.0000     -22.369277      -608.6990
   3   2.0000     -22.361281      -608.4814
   4   2.0000     -22.355012      -608.3108
   5   2.0000      -4.707782      -128.1052
   6   2.0000      -4.707726      -128.1037
   7   2.0000      -4.707622      -128.1009
   8   2.0000      -4.707595      -128.1002
   9   2.0000      -4.706984      -128.0835
  10   2.0000      -4.706957      -128.0828
  11   2.0000      -4.706154      -128.0610
  12   2.0000      -4.706101      -128.0595
  13   2.0000      -4.701943      -127.9464
  14   2.0000      -4.701850      -127.9438
  15   2.0000      -3.475460       -94.5721
  16   2.0000      -2.749033       -74.8050
  17   2.0000      -2.748907       -74.8016
  18   2.0000      -2.748366       -74.7869
  19   2.0000      -2.748245       -74.7836
  20   2.0000      -2.747786       -74.7711
  21   2.0000      -2.747501       -74.7633
  22   2.0000      -2.747361       -74.7595
  23   2.0000      -2.747276       -74.7572
  24   2.0000      -2.745420       -74.7067
  25   2.0000      -2.745080       -74.6974
  26   2.0000      -2.744240       -74.6746
  27   2.0000      -2.744181       -74.6730
  28   2.0000      -2.741690       -74.6052
  29   2.0000      -2.741513       -74.6003
  30   2.0000      -2.741196       -74.5917
  31   2.0000      -2.741093       -74.5889
  32   2.0000      -2.740869       -74.5828
  33   2.0000      -2.740597       -74.5754
  34   2.0000      -2.740225       -74.5653
  35   2.0000      -2.739322       -74.5407
  36   2.0000      -2.739239       -74.5385
  37   2.0000      -2.739173       -74.5367
  38   2.0000      -2.738405       -74.5158
  39   2.0000      -2.738343       -74.5141
  40   2.0000      -2.737692       -74.4964
  41   2.0000      -2.736938       -74.4759
  42   2.0000      -2.735615       -74.4399
  43   2.0000      -2.735322       -74.4319
  44   2.0000      -2.734995       -74.4230
  45   2.0000      -2.734544       -74.4107
  46   2.0000      -2.237330       -60.8808
  47   2.0000      -2.230801       -60.7032
  48   2.0000      -2.224069       -60.5200
  49   2.0000      -0.558302       -15.1922
  50   2.0000      -0.543217       -14.7817
  51   2.0000      -0.541852       -14.7445
  52   2.0000      -0.535289       -14.5659
  53   2.0000      -0.527751       -14.3608
  54   2.0000      -0.526784       -14.3345
  55   2.0000      -0.526212       -14.3190
  56   2.0000      -0.525912       -14.3108
  57   2.0000      -0.524684       -14.2774
  58   2.0000      -0.521604       -14.1936
  59   2.0000      -0.519670       -14.1409
  60   2.0000      -0.515542       -14.0286
  61   2.0000      -0.514008       -13.9869
  62   2.0000      -0.511974       -13.9315
  63   2.0000      -0.511514       -13.9190
  64   2.0000      -0.508884       -13.8474
  65   2.0000      -0.500564       -13.6210
  66   2.0000      -0.498228       -13.5575
  67   2.0000      -0.497858       -13.5474
  68   2.0000      -0.494044       -13.4436
  69   2.0000      -0.489949       -13.3322
  70   2.0000      -0.488774       -13.3002
  71   2.0000      -0.476842       -12.9755
  72   2.0000      -0.475971       -12.9518
  73   2.0000      -0.471560       -12.8318
  74   2.0000      -0.470516       -12.8034
  75   2.0000      -0.467657       -12.7256
  76   2.0000      -0.462872       -12.5954
  77   2.0000      -0.460193       -12.5225
  78   2.0000      -0.455747       -12.4015
  79   2.0000      -0.454294       -12.3620
  80   2.0000      -0.451889       -12.2965
  81   2.0000      -0.451020       -12.2729
  82   2.0000      -0.446678       -12.1547
  83   2.0000      -0.446310       -12.1447
  84   2.0000      -0.445607       -12.1256
  85   2.0000      -0.440540       -11.9877
  86   2.0000      -0.440504       -11.9867
  87   2.0000      -0.439733       -11.9657
  88   2.0000      -0.438871       -11.9423
  89   2.0000      -0.429887       -11.6978
  90   2.0000      -0.429132       -11.6773
  91   2.0000      -0.427040       -11.6203
  92   2.0000      -0.424509       -11.5515
  93   2.0000      -0.421087       -11.4584
  94   2.0000      -0.418128       -11.3779
  95   2.0000      -0.415818       -11.3150
  96   2.0000      -0.411975       -11.2104
  97   2.0000      -0.409571       -11.1450
  98   2.0000      -0.408830       -11.1248
  99   2.0000      -0.386737       -10.5236
 100   2.0000      -0.332073        -9.0362
 101   2.0000      -0.331081        -9.0092
 102   2.0000      -0.255541        -6.9536
 103   2.0000      -0.217278        -5.9124
 104   1.2000      -0.155357        -4.2275
 105   1.2000      -0.154629        -4.2077
 106   1.2000      -0.153933        -4.1887
 107   1.2000      -0.155140        -4.2216
 108   1.2000      -0.149707        -4.0737
 109   0.0000      -0.012687        -0.3452
 110   0.0000       0.005003         0.1361
 111   0.0000       0.016906         0.4600
 112   0.0000       0.032273         0.8782
 113   0.0000       0.037056         1.0083

MULLIKEN ATOMIC CHARGES AND SPIN DENSITIES
------------------------------------------
   0 Au:    0.416159    0.038737
   1 Au:    0.469735    0.084310
   2 Au:    0.409104    0.041005
   3 Au:    0.417526    0.039804
   4 Au:    0.421445    0.040522
   5 Au:    0.415806    0.038669
   6 Au:    0.417870    0.039884
   7 Au:    0.471420    0.084470
   8 Au:    0.406206    0.041117
   9 Au:    0.424361    0.040553
  10 Cr:   -4.269632    2.510930
Sum of atomic charges       :    0.0000000

LOEWDIN ATOMIC CHARGES AND SPIN DENSITIES
-----------------------------------------
   0 Au:    0.108034    0.064954
   1 Au:    0.015535    0.100346
   2 Au:    0.105146    0.068735
   3 Au:    0.111114    0.067789
   4 Au:    0.107240    0.067106
   5 Au:    0.108159    0.064853
   6 Au:    0.111265    0.067820
   7 Au:    0.015949    0.100322
   8 Au:    0.104541    0.068822
   9 Au:    0.107873    0.067154
  10 Cr:   -0.894856    2.262098

  Mayer bond orders larger than 0.100000
B(  0-Au,  1-Au) :   0.1498 B(  0-Au,  5-Au) :   0.1711 B(  0-Au,  6-Au) :   0.2608
B(  0-Au, 10-Cr) :   0.4194 B(  1-Au,  2-Au) :   0.1485 B(  1-Au,  3-Au) :   0.1461
B(  1-Au,  9-Au) :   0.1467 B(  1-Au, 10-Cr) :   0.4236 B(  2-Au,  4-Au) :   0.2658
B(  2-Au,  8-Au) :   0.1678 B(  2-Au, 10-Cr) :   0.4313 B(  3-Au,  5-Au) :   0.2614
B(  3-Au,  6-Au) :   0.1703 B(  3-Au, 10-Cr) :   0.4121 B(  4-Au,  7-Au) :   0.1465
B(  4-Au,  9-Au) :   0.1696 B(  4-Au, 10-Cr) :   0.4115 B(  5-Au,  7-Au) :   0.1491
B(  5-Au, 10-Cr) :   0.4194 B(  6-Au,  7-Au) :   0.1455 B(  6-Au, 10-Cr) :   0.4121
B(  7-Au,  8-Au) :   0.1485 B(  7-Au, 10-Cr) :   0.4232 B(  8-Au,  9-Au) :   0.2655
B(  8-Au, 10-Cr) :   0.4327 B(  9-Au, 10-Cr) :   0.4102

FINAL SINGLE POINT ENERGY     -2396.616950650721

DIPOLE MOMENT
-------------
                                X             Y             Z
Electronic contribution:     -0.02885       0.00435       0.01854
Nuclear contribution   :      0.02869      -0.00447      -0.01785
                        -----------------------------------------
Total Dipole Moment    :     -0.00016      -0.00012       0.00069
                        -----------------------------------------
Magnitude (a.u.)       :      0.00072
Magnitude (Debye)      :      0.00182

Rotational constants in cm-1:     0.001939     0.001822     0.001482
Rotational constants in MHz :    58.120353    54.628882    44.428014

                             ****ORCA TERMINATED NORMALLY****
TOTAL RUN TIME: 0 days 0 hours 25 minutes 54 seconds 970 msec
