                         Program Version 5.0.3 -  RELEASE  -
|  1> !RI-B2PLYP def2-TZVP def2-TZVP/C
|  2> !RIJCOSX VERYSLOWCONV
|  3>
|  4> %scf
|  5>   AutoTRAHIter 200
|  6>   maxiter 400
|  7> end
|  8>
|  9>
| 10> %pal nprocs 6 end
| 11>
| 12> *xyzfile 0 5 pbe.xyz
| 13>
| 14> $new_job
| 15>
| 16> !RI-B2PLYP def2-TZVP def2-TZVP/C
| 17> !RIJCOSX VERYSLOWCONV
| 18>
| 19> %scf
| 20>   AutoTRAHIter 200
| 21>   maxiter 400
| 22> end
| 23>
| 24>
| 25> %pal nprocs 6 end
| 26>
| 27> *xyzfile 0 3 pbe.xyz
| 28>
| 29>
| 30>
| 31>
| 32>
| 33>                          ****END OF INPUT****
 Total Charge           Charge          ....    0
 Multiplicity           Mult            ....    5
 Number of Electrons    NEL             ....  328
MP2 TOTAL ENERGY:    -3213.747584589 Eh
FINAL SINGLE POINT ENERGY     -3213.747584588738

CARTESIAN COORDINATES (ANGSTROEM)
---------------------------------
  Au    11.452307    8.892787   10.690354
  Au     8.607598    8.987557   10.785391
  Au    10.023703   10.518630    8.842586
  Au     7.358518    9.932714    8.530301
  Au     6.798492    9.578869    5.836858
  Au     9.605747    9.604374    6.280759
  Au     8.414501    7.874159    4.380944
  Au     5.428822    8.081922    7.787489
  Au     8.804963    5.012180    8.138241
  Au    10.408386    6.762879    5.905895
  Au     8.082681    5.260395    5.437866
  Au     7.146219    6.917323    9.718091
  Au     6.160052    5.425187    7.522585
  Au    11.382527    8.258412    7.999006
  Au     9.929750    6.682322   10.015420
  Au    11.530469    5.463638    8.074955
  Cr     8.039148    7.486176    7.147554

 Multiplicity           Mult            ....    3
 Number of Electrons    NEL             ....  328
 Basis Dimension        Dim             ....  685

ORBITAL ENERGIES
----------------
                 SPIN UP ORBITALS
  NO   OCC          E(Eh)            E(eV)
   0   1.0000    -217.772914     -5925.9023
   1   1.0000     -25.458382      -692.7578
   2   1.0000     -21.597905      -587.7089
   3   1.0000     -21.597721      -587.7039
   4   1.0000     -21.591971      -587.5474
   5   1.0000      -4.408666      -119.9659
   6   1.0000      -4.408440      -119.9597
   7   1.0000      -4.406022      -119.8940
   8   1.0000      -4.405654      -119.8839
   9   1.0000      -4.404850      -119.8621
  10   1.0000      -4.402134      -119.7881
  11   1.0000      -4.399194      -119.7081
  12   1.0000      -4.398861      -119.6991
  13   1.0000      -4.398563      -119.6910
  14   1.0000      -4.398344      -119.6850
  15   1.0000      -4.398277      -119.6832
  16   1.0000      -4.398178      -119.6805
  17   1.0000      -4.392422      -119.5239
  18   1.0000      -4.392297      -119.5205
  19   1.0000      -4.385976      -119.3485
  20   1.0000      -4.384829      -119.3173
  21   1.0000      -3.247615       -88.3721
  22   1.0000      -2.528773       -68.8114
  23   1.0000      -2.528501       -68.8040
  24   1.0000      -2.526983       -68.7627
  25   1.0000      -2.526747       -68.7563
  26   1.0000      -2.526057       -68.7375
  27   1.0000      -2.525768       -68.7296
  28   1.0000      -2.525521       -68.7229
  29   1.0000      -2.524341       -68.6908
  30   1.0000      -2.524075       -68.6836
  31   1.0000      -2.523789       -68.6758
  32   1.0000      -2.523145       -68.6583
  33   1.0000      -2.522508       -68.6409
  34   1.0000      -2.522064       -68.6289
  35   1.0000      -2.521680       -68.6184
  36   1.0000      -2.521141       -68.6037
  37   1.0000      -2.520807       -68.5947
  38   1.0000      -2.520154       -68.5769
  39   1.0000      -2.518797       -68.5400
  40   1.0000      -2.518461       -68.5308
  41   1.0000      -2.518256       -68.5252
  42   1.0000      -2.517727       -68.5108
  43   1.0000      -2.517654       -68.5089
  44   1.0000      -2.517465       -68.5037
  45   1.0000      -2.516658       -68.4818
  46   1.0000      -2.516284       -68.4716
  47   1.0000      -2.516217       -68.4698
  48   1.0000      -2.515544       -68.4514
  49   1.0000      -2.515147       -68.4406
  50   1.0000      -2.514351       -68.4190
  51   1.0000      -2.513994       -68.4092
  52   1.0000      -2.513825       -68.4047
  53   1.0000      -2.513225       -68.3883
  54   1.0000      -2.512653       -68.3728
  55   1.0000      -2.512345       -68.3644
  56   1.0000      -2.511618       -68.3446
  57   1.0000      -2.511556       -68.3429
  58   1.0000      -2.511317       -68.3364
  59   1.0000      -2.510281       -68.3082
  60   1.0000      -2.509774       -68.2944
  61   1.0000      -2.508550       -68.2611
  62   1.0000      -2.508178       -68.2510
  63   1.0000      -2.506785       -68.2131
  64   1.0000      -2.503482       -68.1232
  65   1.0000      -2.503149       -68.1141
  66   1.0000      -2.503067       -68.1119
  67   1.0000      -2.501576       -68.0714
  68   1.0000      -2.501494       -68.0691
  69   1.0000      -2.500143       -68.0324
  70   1.0000      -2.140304       -58.2406
  71   1.0000      -2.128936       -57.9313
  72   1.0000      -2.128571       -57.9214
  73   1.0000      -0.505234       -13.7481
  74   1.0000      -0.491561       -13.3760
  75   1.0000      -0.480472       -13.0743
  76   1.0000      -0.476659       -12.9706
  77   1.0000      -0.474912       -12.9230
  78   1.0000      -0.471250       -12.8234
  79   1.0000      -0.467452       -12.7200
  80   1.0000      -0.466907       -12.7052
  81   1.0000      -0.465611       -12.6699
  82   1.0000      -0.465285       -12.6611
  83   1.0000      -0.463411       -12.6100
  84   1.0000      -0.462477       -12.5846
  85   1.0000      -0.458884       -12.4869
  86   1.0000      -0.458345       -12.4722
  87   1.0000      -0.457455       -12.4480
  88   1.0000      -0.455459       -12.3937
  89   1.0000      -0.455199       -12.3866
  90   1.0000      -0.453900       -12.3513
  91   1.0000      -0.452134       -12.3032
  92   1.0000      -0.449861       -12.2413
  93   1.0000      -0.445992       -12.1360
  94   1.0000      -0.441368       -12.0102
  95   1.0000      -0.439259       -11.9528
  96   1.0000      -0.436867       -11.8878
  97   1.0000      -0.436650       -11.8819
  98   1.0000      -0.434599       -11.8260
  99   1.0000      -0.431591       -11.7442
 100   1.0000      -0.429506       -11.6874
 101   1.0000      -0.428965       -11.6727
 102   1.0000      -0.426871       -11.6158
 103   1.0000      -0.426459       -11.6045
 104   1.0000      -0.425596       -11.5810
 105   1.0000      -0.424268       -11.5449
 106   1.0000      -0.420236       -11.4352
 107   1.0000      -0.419193       -11.4068
 108   1.0000      -0.415100       -11.2954
 109   1.0000      -0.410178       -11.1615
 110   1.0000      -0.407558       -11.0902
 111   1.0000      -0.402416       -10.9503
 112   1.0000      -0.400505       -10.8983
 113   1.0000      -0.395701       -10.7676
 114   1.0000      -0.392540       -10.6816
 115   1.0000      -0.390546       -10.6273
 116   1.0000      -0.389977       -10.6118
 117   1.0000      -0.388194       -10.5633
 118   1.0000      -0.384356       -10.4589
 119   1.0000      -0.383312       -10.4304
 120   1.0000      -0.382571       -10.4103
 121   1.0000      -0.380927       -10.3656
 122   1.0000      -0.377584       -10.2746
 123   1.0000      -0.376688       -10.2502
 124   1.0000      -0.376358       -10.2412
 125   1.0000      -0.373712       -10.1692
 126   1.0000      -0.373148       -10.1539
 127   1.0000      -0.372585       -10.1386
 128   1.0000      -0.371304       -10.1037
 129   1.0000      -0.369533       -10.0555
 130   1.0000      -0.368271       -10.0212
 131   1.0000      -0.367951       -10.0124
 132   1.0000      -0.365972        -9.9586
 133   1.0000      -0.364318        -9.9136
 134   1.0000      -0.363947        -9.9035
 135   1.0000      -0.362237        -9.8570
 136   1.0000      -0.361885        -9.8474
 137   1.0000      -0.359662        -9.7869
 138   1.0000      -0.358992        -9.7687
 139   1.0000      -0.356869        -9.7109
 140   1.0000      -0.354925        -9.6580
 141   1.0000      -0.351517        -9.5653
 142   1.0000      -0.351030        -9.5520
 143   1.0000      -0.349379        -9.5071
 144   1.0000      -0.349322        -9.5055
 145   1.0000      -0.349064        -9.4985
 146   1.0000      -0.344082        -9.3629
 147   1.0000      -0.343252        -9.3404
 148   1.0000      -0.342767        -9.3272
 149   1.0000      -0.339557        -9.2398
 150   1.0000      -0.337504        -9.1840
 151   1.0000      -0.336169        -9.1476
 152   1.0000      -0.335409        -9.1269
 153   1.0000      -0.334496        -9.1021
 154   1.0000      -0.331444        -9.0191
 155   1.0000      -0.330449        -8.9920
 156   1.0000      -0.324525        -8.8308
 157   1.0000      -0.319637        -8.6978
 158   1.0000      -0.316473        -8.6117
 159   1.0000      -0.312223        -8.4960
 160   1.0000      -0.310839        -8.4584
 161   1.0000      -0.255551        -6.9539
 162   1.0000      -0.238128        -6.4798
 163   1.0000      -0.234313        -6.3760
 164   1.0000      -0.229804        -6.2533
 165   0.0000      -0.141182        -3.8418
 166   0.0000      -0.085759        -2.3336
 167   0.0000      -0.082158        -2.2356
 168   0.0000      -0.074426        -2.0252
 169   0.0000      -0.071786        -1.9534

                 SPIN DOWN ORBITALS
  NO   OCC          E(Eh)            E(eV)
   0   1.0000    -217.771712     -5925.8696
   1   1.0000     -25.387714      -690.8348
   2   1.0000     -21.538126      -586.0822
   3   1.0000     -21.537763      -586.0723
   4   1.0000     -21.515784      -585.4743
   5   1.0000      -4.409347      -119.9844
   6   1.0000      -4.409093      -119.9775
   7   1.0000      -4.405762      -119.8869
   8   1.0000      -4.405300      -119.8743
   9   1.0000      -4.404706      -119.8581
  10   1.0000      -4.402380      -119.7948
  11   1.0000      -4.399309      -119.7113
  12   1.0000      -4.399213      -119.7087
  13   1.0000      -4.399145      -119.7068
  14   1.0000      -4.399032      -119.7037
  15   1.0000      -4.398321      -119.6844
  16   1.0000      -4.397923      -119.6736
  17   1.0000      -4.393416      -119.5509
  18   1.0000      -4.393303      -119.5479
  19   1.0000      -4.388083      -119.4058
  20   1.0000      -4.385048      -119.3232
  21   1.0000      -3.031679       -82.4962
  22   1.0000      -2.529545       -68.8324
  23   1.0000      -2.529274       -68.8250
  24   1.0000      -2.527133       -68.7668
  25   1.0000      -2.526870       -68.7596
  26   1.0000      -2.525297       -68.7168
  27   1.0000      -2.525057       -68.7103
  28   1.0000      -2.524911       -68.7063
  29   1.0000      -2.524685       -68.7002
  30   1.0000      -2.523807       -68.6763
  31   1.0000      -2.523016       -68.6547
  32   1.0000      -2.522566       -68.6425
  33   1.0000      -2.521731       -68.6198
  34   1.0000      -2.521457       -68.6123
  35   1.0000      -2.520982       -68.5994
  36   1.0000      -2.520772       -68.5937
  37   1.0000      -2.520434       -68.5845
  38   1.0000      -2.520011       -68.5730
  39   1.0000      -2.519411       -68.5567
  40   1.0000      -2.518849       -68.5414
  41   1.0000      -2.518074       -68.5203
  42   1.0000      -2.517833       -68.5137
  43   1.0000      -2.517594       -68.5072
  44   1.0000      -2.516907       -68.4885
  45   1.0000      -2.516774       -68.4849
  46   1.0000      -2.516465       -68.4765
  47   1.0000      -2.516247       -68.4706
  48   1.0000      -2.515847       -68.4597
  49   1.0000      -2.515392       -68.4473
  50   1.0000      -2.514289       -68.4173
  51   1.0000      -2.513833       -68.4049
  52   1.0000      -2.513570       -68.3977
  53   1.0000      -2.513253       -68.3891
  54   1.0000      -2.512144       -68.3589
  55   1.0000      -2.511961       -68.3539
  56   1.0000      -2.511877       -68.3516
  57   1.0000      -2.511723       -68.3475
  58   1.0000      -2.510825       -68.3230
  59   1.0000      -2.510669       -68.3188
  60   1.0000      -2.510628       -68.3177
  61   1.0000      -2.510103       -68.3034
  62   1.0000      -2.509524       -68.2876
  63   1.0000      -2.507607       -68.2354
  64   1.0000      -2.505445       -68.1766
  65   1.0000      -2.504330       -68.1463
  66   1.0000      -2.503234       -68.1165
  67   1.0000      -2.503006       -68.1103
  68   1.0000      -2.501472       -68.0685
  69   1.0000      -2.501176       -68.0604
  70   1.0000      -1.901968       -51.7552
  71   1.0000      -1.900741       -51.7218
  72   1.0000      -1.849556       -50.3290
  73   1.0000      -0.500554       -13.6208
  74   1.0000      -0.478904       -13.0317
  75   1.0000      -0.478109       -13.0100
  76   1.0000      -0.473775       -12.8921
  77   1.0000      -0.472062       -12.8455
  78   1.0000      -0.471107       -12.8195
  79   1.0000      -0.468532       -12.7494
  80   1.0000      -0.465520       -12.6675
  81   1.0000      -0.465435       -12.6651
  82   1.0000      -0.463327       -12.6078
  83   1.0000      -0.461110       -12.5474
  84   1.0000      -0.460596       -12.5334
  85   1.0000      -0.459968       -12.5164
  86   1.0000      -0.458092       -12.4653
  87   1.0000      -0.456616       -12.4251
  88   1.0000      -0.455826       -12.4037
  89   1.0000      -0.455274       -12.3886
  90   1.0000      -0.451146       -12.2763
  91   1.0000      -0.451043       -12.2735
  92   1.0000      -0.450532       -12.2596
  93   1.0000      -0.445970       -12.1355
  94   1.0000      -0.442661       -12.0454
  95   1.0000      -0.442089       -12.0298
  96   1.0000      -0.435888       -11.8611
  97   1.0000      -0.433808       -11.8045
  98   1.0000      -0.432280       -11.7629
  99   1.0000      -0.431021       -11.7287
 100   1.0000      -0.430367       -11.7109
 101   1.0000      -0.428550       -11.6614
 102   1.0000      -0.427972       -11.6457
 103   1.0000      -0.426903       -11.6166
 104   1.0000      -0.421120       -11.4593
 105   1.0000      -0.419549       -11.4165
 106   1.0000      -0.417254       -11.3540
 107   1.0000      -0.412065       -11.2129
 108   1.0000      -0.408878       -11.1261
 109   1.0000      -0.404106       -10.9963
 110   1.0000      -0.401835       -10.9345
 111   1.0000      -0.397197       -10.8083
 112   1.0000      -0.396354       -10.7853
 113   1.0000      -0.393881       -10.7180
 114   1.0000      -0.390874       -10.6362
 115   1.0000      -0.390173       -10.6172
 116   1.0000      -0.387237       -10.5373
 117   1.0000      -0.387194       -10.5361
 118   1.0000      -0.384721       -10.4688
 119   1.0000      -0.383527       -10.4363
 120   1.0000      -0.382169       -10.3993
 121   1.0000      -0.380648       -10.3580
 122   1.0000      -0.377920       -10.2837
 123   1.0000      -0.376728       -10.2513
 124   1.0000      -0.374503       -10.1907
 125   1.0000      -0.373265       -10.1571
 126   1.0000      -0.372570       -10.1381
 127   1.0000      -0.370729       -10.0881
 128   1.0000      -0.370112       -10.0713
 129   1.0000      -0.369466       -10.0537
 130   1.0000      -0.367347        -9.9960
 131   1.0000      -0.367201        -9.9920
 132   1.0000      -0.366134        -9.9630
 133   1.0000      -0.363263        -9.8849
 134   1.0000      -0.362863        -9.8740
 135   1.0000      -0.361227        -9.8295
 136   1.0000      -0.359559        -9.7841
 137   1.0000      -0.359020        -9.7694
 138   1.0000      -0.356420        -9.6987
 139   1.0000      -0.355925        -9.6852
 140   1.0000      -0.352195        -9.5837
 141   1.0000      -0.351698        -9.5702
 142   1.0000      -0.350176        -9.5288
 143   1.0000      -0.348697        -9.4885
 144   1.0000      -0.346346        -9.4246
 145   1.0000      -0.346018        -9.4156
 146   1.0000      -0.343614        -9.3502
 147   1.0000      -0.338204        -9.2030
 148   1.0000      -0.338068        -9.1993
 149   1.0000      -0.334990        -9.1155
 150   1.0000      -0.332982        -9.0609
 151   1.0000      -0.332382        -9.0446
 152   1.0000      -0.331269        -9.0143
 153   1.0000      -0.326594        -8.8871
 154   1.0000      -0.326188        -8.8760
 155   1.0000      -0.317913        -8.6508
 156   1.0000      -0.311363        -8.4726
 157   1.0000      -0.272463        -7.4141
 158   1.0000      -0.249181        -6.7806
 159   1.0000      -0.243809        -6.6344
 160   1.0000      -0.236305        -6.4302
 161   1.0000      -0.229360        -6.2412
 162   1.0000      -0.167546        -4.5592
 163   0.0000      -0.086355        -2.3498
 164   0.0000      -0.083281        -2.2662
 165   0.0000      -0.073158        -1.9907
 166   0.0000      -0.067339        -1.8324
 167   0.0000      -0.064468        -1.7543

MULLIKEN ATOMIC CHARGES AND SPIN POPULATIONS
--------------------------------------------
   0 Au:    0.398685    0.031919
   1 Au:    0.240427   -0.111619
   2 Au:    0.239137   -0.119842
   3 Au:    0.160458   -0.304855
   4 Au:    0.482232   -0.017938
   5 Au:    0.226187   -0.020455
   6 Au:    0.447072   -0.181737
   7 Au:    0.479446   -0.020196
   8 Au:    0.200910   -0.007266
   9 Au:    0.199680   -0.005638
  10 Au:    0.473121   -0.100870
  11 Au:    0.235183   -0.020945
  12 Au:    0.452790   -0.168845
  13 Au:   -0.237807   -0.014238
  14 Au:   -0.242090   -0.013297
  15 Au:    0.346938   -0.410674
  16 Cr:   -4.102367    3.486495
Sum of atomic charges         :   -0.0000000

LOEWDIN ATOMIC CHARGES AND SPIN POPULATIONS
-------------------------------------------
   0 Au:    0.114090    0.003580
   1 Au:    0.021553   -0.140244
   2 Au:    0.021622   -0.144762
   3 Au:    0.019807   -0.176293
   4 Au:    0.115325   -0.089875
   5 Au:    0.055330   -0.062696
   6 Au:    0.104148   -0.145288
   7 Au:    0.114207   -0.091202
   8 Au:    0.031971   -0.104247
   9 Au:    0.032875   -0.103875
  10 Au:    0.154174   -0.091187
  11 Au:    0.056002   -0.061499
  12 Au:    0.106924   -0.140032
  13 Au:   -0.054635   -0.039267
  14 Au:   -0.056308   -0.039334
  15 Au:    0.085285   -0.279666
  16 Cr:   -0.922371    3.705888

  Mayer bond orders larger than 0.100000
B(  0-Au,  1-Au) :   0.1812 B(  0-Au,  2-Au) :   0.1821 B(  0-Au, 13-Au) :   0.3248
B(  0-Au, 14-Au) :   0.3248 B(  1-Au,  2-Au) :   0.2199 B(  1-Au,  3-Au) :   0.2388
B(  1-Au, 11-Au) :   0.2040 B(  1-Au, 14-Au) :   0.2642 B(  1-Au, 16-Cr) :   0.2502
B(  2-Au,  3-Au) :   0.2485 B(  2-Au,  5-Au) :   0.2048 B(  2-Au, 13-Au) :   0.2599
B(  2-Au, 16-Cr) :   0.2426 B(  3-Au,  4-Au) :   0.1562 B(  3-Au,  5-Au) :   0.1232
B(  3-Au,  7-Au) :   0.1564 B(  3-Au, 10-Au) :   0.1056 B(  3-Au, 11-Au) :   0.1157
B(  3-Au, 16-Cr) :   0.3514 B(  4-Au,  5-Au) :   0.1179 B(  4-Au,  6-Au) :   0.2463
B(  4-Au,  7-Au) :   0.2287 B(  4-Au,  8-Au) :   0.1057 B(  4-Au, 16-Cr) :   0.4760
B(  5-Au,  6-Au) :   0.1471 B(  5-Au,  9-Au) :   0.1356 B(  5-Au, 12-Au) :   0.1057
B(  5-Au, 13-Au) :   0.2234 B(  5-Au, 16-Cr) :   0.4839 B(  6-Au,  9-Au) :   0.2045
B(  6-Au, 10-Au) :   0.1569 B(  6-Au, 11-Au) :   0.1038 B(  6-Au, 16-Cr) :   0.4075
B(  7-Au,  9-Au) :   0.1062 B(  7-Au, 11-Au) :   0.1191 B(  7-Au, 12-Au) :   0.2467
B(  7-Au, 16-Cr) :   0.4856 B(  8-Au,  9-Au) :   0.1046 B(  8-Au, 10-Au) :   0.1466
B(  8-Au, 11-Au) :   0.1327 B(  8-Au, 12-Au) :   0.2044 B(  8-Au, 14-Au) :   0.2248
B(  8-Au, 15-Au) :   0.2066 B(  8-Au, 16-Cr) :   0.5104 B(  9-Au, 10-Au) :   0.1478
B(  9-Au, 13-Au) :   0.2268 B(  9-Au, 15-Au) :   0.2003 B(  9-Au, 16-Cr) :   0.5187
B( 10-Au, 12-Au) :   0.1567 B( 10-Au, 16-Cr) :   0.4395 B( 11-Au, 12-Au) :   0.1465
B( 11-Au, 14-Au) :   0.2283 B( 11-Au, 16-Cr) :   0.4800 B( 12-Au, 16-Cr) :   0.4080
B( 13-Au, 14-Au) :   0.3386 B( 13-Au, 15-Au) :   0.1637 B( 13-Au, 16-Cr) :   0.3858
B( 14-Au, 15-Au) :   0.1665 B( 14-Au, 16-Cr) :   0.3845 B( 15-Au, 16-Cr) :   0.1677

MP2 TOTAL ENERGY:    -3213.696132443 Eh
FINAL SINGLE POINT ENERGY     -3213.696132442976

DIPOLE MOMENT
-------------
                                X             Y             Z
Electronic contribution:     27.35615       7.46051      25.22675
Nuclear contribution   :    -27.59037      -7.66396     -25.55561
                        -----------------------------------------
Total Dipole Moment    :     -0.23423      -0.20345      -0.32886
                        -----------------------------------------
Magnitude (a.u.)       :      0.45211
Magnitude (Debye)      :      1.14916

Rotational constants in cm-1:     0.000942     0.000782     0.000720
Rotational constants in MHz :    28.235713    23.457344    21.580422

                             ****ORCA TERMINATED NORMALLY****
TOTAL RUN TIME: 0 days 0 hours 46 minutes 33 seconds 720 msec
