                         Program Version 5.0.3 -  RELEASE  -
|  1> !PBE def2-TZVP VERYSLOWCONV
|  2>
|  3> %scf
|  4>   AutoTRAHIter 200
|  5>   maxiter 400
|  6> end
|  7>
|  8>
|  9> %pal nprocs 6 end
| 10>
| 11> *xyzfile 0 5 pbe.xyz
| 12>
| 13> $new_job
| 14>
| 15> !PBE def2-TZVP VERYSLOWCONV
| 16>
| 17> %scf
| 18>   AutoTRAHIter 200
| 19>   maxiter 400
| 20> end
| 21>
| 22>
| 23> %pal nprocs 6 end
| 24>
| 25> *xyzfile 0 3 pbe.xyz
| 26>
| 27>
| 28>
| 29>
| 30>
| 31>                          ****END OF INPUT****
 Total Charge           Charge          ....    0
 Multiplicity           Mult            ....    5
 Number of Electrons    NEL             ....  328
FINAL SINGLE POINT ENERGY     -3217.516842707167

CARTESIAN COORDINATES (ANGSTROEM)
---------------------------------
  Au    11.452307    8.892787   10.690354
  Au     8.607598    8.987557   10.785391
  Au    10.023703   10.518630    8.842586
  Au     7.358518    9.932714    8.530301
  Au     6.798492    9.578869    5.836858
  Au     9.605747    9.604374    6.280759
  Au     8.414501    7.874159    4.380944
  Au     5.428822    8.081922    7.787489
  Au     8.804963    5.012180    8.138241
  Au    10.408386    6.762879    5.905895
  Au     8.082681    5.260395    5.437866
  Au     7.146219    6.917323    9.718091
  Au     6.160052    5.425187    7.522585
  Au    11.382527    8.258412    7.999006
  Au     9.929750    6.682322   10.015420
  Au    11.530469    5.463638    8.074955
  Cr     8.039148    7.486176    7.147554

 Multiplicity           Mult            ....    3
 Number of Electrons    NEL             ....  328
 Basis Dimension        Dim             ....  685

ORBITAL ENERGIES
----------------
                 SPIN UP ORBITALS
  NO   OCC          E(Eh)            E(eV)
   0   1.0000    -214.506268     -5837.0123
   1   1.0000     -24.305639      -661.3901
   2   1.0000     -20.671188      -562.4916
   3   1.0000     -20.671008      -562.4867
   4   1.0000     -20.664765      -562.3168
   5   1.0000      -4.038514      -109.8935
   6   1.0000      -4.038322      -109.8883
   7   1.0000      -4.034887      -109.7949
   8   1.0000      -4.034708      -109.7900
   9   1.0000      -4.032603      -109.7327
  10   1.0000      -4.029819      -109.6570
  11   1.0000      -4.029343      -109.6440
  12   1.0000      -4.029328      -109.6436
  13   1.0000      -4.029144      -109.6386
  14   1.0000      -4.028828      -109.6300
  15   1.0000      -4.028738      -109.6275
  16   1.0000      -4.028640      -109.6249
  17   1.0000      -4.021486      -109.4302
  18   1.0000      -4.021397      -109.4278
  19   1.0000      -4.018936      -109.3608
  20   1.0000      -4.015884      -109.2778
  21   1.0000      -2.809113       -76.4398
  22   1.0000      -2.254707       -61.3537
  23   1.0000      -2.254505       -61.3482
  24   1.0000      -2.252275       -61.2875
  25   1.0000      -2.252062       -61.2817
  26   1.0000      -2.250707       -61.2449
  27   1.0000      -2.250579       -61.2414
  28   1.0000      -2.249542       -61.2131
  29   1.0000      -2.248530       -61.1856
  30   1.0000      -2.248070       -61.1731
  31   1.0000      -2.247687       -61.1627
  32   1.0000      -2.247438       -61.1559
  33   1.0000      -2.245985       -61.1164
  34   1.0000      -2.245685       -61.1082
  35   1.0000      -2.245640       -61.1070
  36   1.0000      -2.245586       -61.1055
  37   1.0000      -2.244735       -61.0823
  38   1.0000      -2.244361       -61.0722
  39   1.0000      -2.244223       -61.0684
  40   1.0000      -2.244045       -61.0636
  41   1.0000      -2.243942       -61.0608
  42   1.0000      -2.243799       -61.0569
  43   1.0000      -2.243398       -61.0460
  44   1.0000      -2.243133       -61.0387
  45   1.0000      -2.242663       -61.0260
  46   1.0000      -2.242510       -61.0218
  47   1.0000      -2.242410       -61.0191
  48   1.0000      -2.241512       -60.9947
  49   1.0000      -2.241126       -60.9841
  50   1.0000      -2.240204       -60.9590
  51   1.0000      -2.239971       -60.9527
  52   1.0000      -2.239326       -60.9352
  53   1.0000      -2.239247       -60.9330
  54   1.0000      -2.238823       -60.9215
  55   1.0000      -2.238498       -60.9126
  56   1.0000      -2.237444       -60.8840
  57   1.0000      -2.236601       -60.8610
  58   1.0000      -2.236268       -60.8519
  59   1.0000      -2.235862       -60.8409
  60   1.0000      -2.235490       -60.8308
  61   1.0000      -2.234701       -60.8093
  62   1.0000      -2.232473       -60.7487
  63   1.0000      -2.232189       -60.7409
  64   1.0000      -2.231678       -60.7270
  65   1.0000      -2.230260       -60.6885
  66   1.0000      -2.229927       -60.6794
  67   1.0000      -2.229390       -60.6648
  68   1.0000      -2.228707       -60.6462
  69   1.0000      -2.227188       -60.6049
  70   1.0000      -1.801458       -49.0202
  71   1.0000      -1.800471       -48.9933
  72   1.0000      -1.793766       -48.8109
  73   1.0000      -0.430662       -11.7189
  74   1.0000      -0.394398       -10.7321
  75   1.0000      -0.394246       -10.7280
  76   1.0000      -0.389494       -10.5987
  77   1.0000      -0.378491       -10.2993
  78   1.0000      -0.377626       -10.2757
  79   1.0000      -0.369585       -10.0569
  80   1.0000      -0.369327       -10.0499
  81   1.0000      -0.366769        -9.9803
  82   1.0000      -0.362417        -9.8619
  83   1.0000      -0.361282        -9.8310
  84   1.0000      -0.361232        -9.8296
  85   1.0000      -0.358521        -9.7558
  86   1.0000      -0.358279        -9.7493
  87   1.0000      -0.353321        -9.6143
  88   1.0000      -0.351957        -9.5772
  89   1.0000      -0.351316        -9.5598
  90   1.0000      -0.348920        -9.4946
  91   1.0000      -0.348044        -9.4708
  92   1.0000      -0.346263        -9.4223
  93   1.0000      -0.345945        -9.4136
  94   1.0000      -0.340936        -9.2773
  95   1.0000      -0.338966        -9.2237
  96   1.0000      -0.334920        -9.1136
  97   1.0000      -0.334461        -9.1012
  98   1.0000      -0.331841        -9.0299
  99   1.0000      -0.329477        -8.9655
 100   1.0000      -0.328851        -8.9485
 101   1.0000      -0.327225        -8.9042
 102   1.0000      -0.326386        -8.8814
 103   1.0000      -0.325479        -8.8567
 104   1.0000      -0.321439        -8.7468
 105   1.0000      -0.319915        -8.7053
 106   1.0000      -0.319721        -8.7001
 107   1.0000      -0.314964        -8.5706
 108   1.0000      -0.312315        -8.4985
 109   1.0000      -0.310151        -8.4396
 110   1.0000      -0.307608        -8.3704
 111   1.0000      -0.302358        -8.2276
 112   1.0000      -0.298886        -8.1331
 113   1.0000      -0.298662        -8.1270
 114   1.0000      -0.295274        -8.0348
 115   1.0000      -0.294004        -8.0003
 116   1.0000      -0.292416        -7.9570
 117   1.0000      -0.289990        -7.8910
 118   1.0000      -0.288363        -7.8468
 119   1.0000      -0.287860        -7.8331
 120   1.0000      -0.286694        -7.8013
 121   1.0000      -0.284235        -7.7344
 122   1.0000      -0.282116        -7.6768
 123   1.0000      -0.278943        -7.5904
 124   1.0000      -0.278616        -7.5815
 125   1.0000      -0.278320        -7.5735
 126   1.0000      -0.277389        -7.5481
 127   1.0000      -0.276116        -7.5135
 128   1.0000      -0.276029        -7.5111
 129   1.0000      -0.273622        -7.4456
 130   1.0000      -0.273246        -7.4354
 131   1.0000      -0.272761        -7.4222
 132   1.0000      -0.270343        -7.3564
 133   1.0000      -0.269987        -7.3467
 134   1.0000      -0.268209        -7.2983
 135   1.0000      -0.266693        -7.2571
 136   1.0000      -0.266140        -7.2420
 137   1.0000      -0.265829        -7.2336
 138   1.0000      -0.263435        -7.1684
 139   1.0000      -0.263062        -7.1583
 140   1.0000      -0.258910        -7.0453
 141   1.0000      -0.258447        -7.0327
 142   1.0000      -0.257139        -6.9971
 143   1.0000      -0.257044        -6.9945
 144   1.0000      -0.254832        -6.9343
 145   1.0000      -0.253895        -6.9088
 146   1.0000      -0.251713        -6.8495
 147   1.0000      -0.250592        -6.8190
 148   1.0000      -0.250421        -6.8143
 149   1.0000      -0.248441        -6.7604
 150   1.0000      -0.247883        -6.7452
 151   1.0000      -0.247034        -6.7221
 152   1.0000      -0.246131        -6.6976
 153   1.0000      -0.243978        -6.6390
 154   1.0000      -0.241600        -6.5743
 155   1.0000      -0.235381        -6.4050
 156   1.0000      -0.233672        -6.3585
 157   1.0000      -0.228263        -6.2114
 158   1.0000      -0.224393        -6.1061
 159   1.0000      -0.224105        -6.0982
 160   1.0000      -0.219845        -5.9823
 161   1.0000      -0.219579        -5.9751
 162   1.0000      -0.212084        -5.7711
 163   1.0000      -0.202364        -5.5066
 164   1.0000      -0.199457        -5.4275
 165   0.0000      -0.189295        -5.1510
 166   0.0000      -0.187079        -5.0907
 167   0.0000      -0.150063        -4.0834
 168   0.0000      -0.141374        -3.8470
 169   0.0000      -0.138580        -3.7709

                 SPIN DOWN ORBITALS
  NO   OCC          E(Eh)            E(eV)
   0   1.0000    -214.505892     -5837.0021
   1   1.0000     -24.259235      -660.1273
   2   1.0000     -20.638334      -561.5976
   3   1.0000     -20.638114      -561.5916
   4   1.0000     -20.624196      -561.2129
   5   1.0000      -4.038842      -109.9025
   6   1.0000      -4.038640      -109.8970
   7   1.0000      -4.034413      -109.7820
   8   1.0000      -4.034203      -109.7763
   9   1.0000      -4.032692      -109.7351
  10   1.0000      -4.029754      -109.6552
  11   1.0000      -4.029663      -109.6527
  12   1.0000      -4.029576      -109.6504
  13   1.0000      -4.029198      -109.6400
  14   1.0000      -4.028891      -109.6317
  15   1.0000      -4.028521      -109.6216
  16   1.0000      -4.028433      -109.6192
  17   1.0000      -4.022114      -109.4473
  18   1.0000      -4.022020      -109.4447
  19   1.0000      -4.020174      -109.3945
  20   1.0000      -4.016046      -109.2822
  21   1.0000      -2.684026       -73.0361
  22   1.0000      -2.255321       -61.3704
  23   1.0000      -2.255106       -61.3646
  24   1.0000      -2.252208       -61.2857
  25   1.0000      -2.251992       -61.2798
  26   1.0000      -2.250271       -61.2330
  27   1.0000      -2.250113       -61.2287
  28   1.0000      -2.249665       -61.2165
  29   1.0000      -2.248911       -61.1960
  30   1.0000      -2.248270       -61.1785
  31   1.0000      -2.247097       -61.1466
  32   1.0000      -2.246912       -61.1416
  33   1.0000      -2.246586       -61.1327
  34   1.0000      -2.246287       -61.1246
  35   1.0000      -2.245454       -61.1019
  36   1.0000      -2.245377       -61.0998
  37   1.0000      -2.244499       -61.0759
  38   1.0000      -2.244302       -61.0706
  39   1.0000      -2.244135       -61.0660
  40   1.0000      -2.243977       -61.0617
  41   1.0000      -2.243951       -61.0610
  42   1.0000      -2.243802       -61.0570
  43   1.0000      -2.243544       -61.0499
  44   1.0000      -2.243085       -61.0374
  45   1.0000      -2.242893       -61.0322
  46   1.0000      -2.242284       -61.0157
  47   1.0000      -2.242184       -61.0129
  48   1.0000      -2.241472       -60.9936
  49   1.0000      -2.241036       -60.9817
  50   1.0000      -2.240134       -60.9571
  51   1.0000      -2.239883       -60.9503
  52   1.0000      -2.239275       -60.9338
  53   1.0000      -2.239106       -60.9292
  54   1.0000      -2.238508       -60.9129
  55   1.0000      -2.238317       -60.9077
  56   1.0000      -2.237723       -60.8915
  57   1.0000      -2.237064       -60.8736
  58   1.0000      -2.236567       -60.8601
  59   1.0000      -2.236289       -60.8525
  60   1.0000      -2.236219       -60.8506
  61   1.0000      -2.235511       -60.8313
  62   1.0000      -2.233899       -60.7875
  63   1.0000      -2.233693       -60.7819
  64   1.0000      -2.232327       -60.7447
  65   1.0000      -2.230885       -60.7055
  66   1.0000      -2.230356       -60.6911
  67   1.0000      -2.229986       -60.6810
  68   1.0000      -2.228734       -60.6469
  69   1.0000      -2.227689       -60.6185
  70   1.0000      -1.686329       -45.8873
  71   1.0000      -1.685983       -45.8779
  72   1.0000      -1.653291       -44.9883
  73   1.0000      -0.426889       -11.6162
  74   1.0000      -0.394735       -10.7413
  75   1.0000      -0.393150       -10.6982
  76   1.0000      -0.389876       -10.6091
  77   1.0000      -0.377168       -10.2633
  78   1.0000      -0.376597       -10.2477
  79   1.0000      -0.369523       -10.0552
  80   1.0000      -0.368983       -10.0405
  81   1.0000      -0.366098        -9.9620
  82   1.0000      -0.363153        -9.8819
  83   1.0000      -0.360051        -9.7975
  84   1.0000      -0.360013        -9.7964
  85   1.0000      -0.358760        -9.7623
  86   1.0000      -0.358200        -9.7471
  87   1.0000      -0.352573        -9.5940
  88   1.0000      -0.351701        -9.5703
  89   1.0000      -0.351467        -9.5639
  90   1.0000      -0.350046        -9.5252
  91   1.0000      -0.347930        -9.4676
  92   1.0000      -0.346904        -9.4397
  93   1.0000      -0.345536        -9.4025
  94   1.0000      -0.341763        -9.2998
  95   1.0000      -0.339648        -9.2423
  96   1.0000      -0.335620        -9.1327
  97   1.0000      -0.332694        -9.0531
  98   1.0000      -0.331530        -9.0214
  99   1.0000      -0.329944        -8.9782
 100   1.0000      -0.329017        -8.9530
 101   1.0000      -0.327756        -8.9187
 102   1.0000      -0.327143        -8.9020
 103   1.0000      -0.326282        -8.8786
 104   1.0000      -0.322397        -8.7729
 105   1.0000      -0.320449        -8.7199
 106   1.0000      -0.320292        -8.7156
 107   1.0000      -0.312866        -8.5135
 108   1.0000      -0.310695        -8.4544
 109   1.0000      -0.308359        -8.3909
 110   1.0000      -0.306314        -8.3352
 111   1.0000      -0.300732        -8.1833
 112   1.0000      -0.299062        -8.1379
 113   1.0000      -0.297137        -8.0855
 114   1.0000      -0.295859        -8.0507
 115   1.0000      -0.294387        -8.0107
 116   1.0000      -0.292134        -7.9494
 117   1.0000      -0.290619        -7.9081
 118   1.0000      -0.289423        -7.8756
 119   1.0000      -0.288715        -7.8563
 120   1.0000      -0.287978        -7.8363
 121   1.0000      -0.284421        -7.7395
 122   1.0000      -0.282339        -7.6828
 123   1.0000      -0.279715        -7.6114
 124   1.0000      -0.279190        -7.5971
 125   1.0000      -0.278720        -7.5844
 126   1.0000      -0.277570        -7.5531
 127   1.0000      -0.277239        -7.5441
 128   1.0000      -0.276971        -7.5368
 129   1.0000      -0.274485        -7.4691
 130   1.0000      -0.273979        -7.4554
 131   1.0000      -0.273366        -7.4387
 132   1.0000      -0.270750        -7.3675
 133   1.0000      -0.269968        -7.3462
 134   1.0000      -0.269264        -7.3270
 135   1.0000      -0.267326        -7.2743
 136   1.0000      -0.266983        -7.2650
 137   1.0000      -0.266541        -7.2530
 138   1.0000      -0.264339        -7.1930
 139   1.0000      -0.264008        -7.1840
 140   1.0000      -0.259524        -7.0620
 141   1.0000      -0.259083        -7.0500
 142   1.0000      -0.258281        -7.0282
 143   1.0000      -0.257435        -7.0052
 144   1.0000      -0.255614        -6.9556
 145   1.0000      -0.255382        -6.9493
 146   1.0000      -0.252563        -6.8726
 147   1.0000      -0.252040        -6.8584
 148   1.0000      -0.251509        -6.8439
 149   1.0000      -0.250824        -6.8253
 150   1.0000      -0.248741        -6.7686
 151   1.0000      -0.248158        -6.7527
 152   1.0000      -0.246716        -6.7135
 153   1.0000      -0.244116        -6.6427
 154   1.0000      -0.242611        -6.6018
 155   1.0000      -0.235826        -6.4171
 156   1.0000      -0.232607        -6.3296
 157   1.0000      -0.228916        -6.2291
 158   1.0000      -0.218396        -5.9429
 159   1.0000      -0.215349        -5.8599
 160   1.0000      -0.212444        -5.7809
 161   1.0000      -0.210925        -5.7396
 162   1.0000      -0.159085        -4.3289
 163   0.0000      -0.148736        -4.0473
 164   0.0000      -0.148238        -4.0337
 165   0.0000      -0.137179        -3.7328
 166   0.0000      -0.136274        -3.7082
 167   0.0000      -0.128668        -3.5012

MULLIKEN ATOMIC CHARGES AND SPIN POPULATIONS
--------------------------------------------
   0 Au:    0.425993    0.019818
   1 Au:    0.244483   -0.087862
   2 Au:    0.246146   -0.095922
   3 Au:    0.124693   -0.132175
   4 Au:    0.506847   -0.035576
   5 Au:    0.246701    0.011209
   6 Au:    0.488335   -0.103391
   7 Au:    0.503662   -0.037402
   8 Au:    0.213809   -0.038286
   9 Au:    0.212650   -0.037947
  10 Au:    0.489021   -0.054391
  11 Au:    0.256075    0.011292
  12 Au:    0.491771   -0.094883
  13 Au:   -0.228767   -0.059449
  14 Au:   -0.231826   -0.059236
  15 Au:    0.404574   -0.333035
  16 Cr:   -4.394166    3.127236
Sum of atomic charges         :   -0.0000000

LOEWDIN ATOMIC CHARGES AND SPIN POPULATIONS
-------------------------------------------
   0 Au:    0.101057   -0.001560
   1 Au:    0.018047   -0.110535
   2 Au:    0.018104   -0.114999
   3 Au:    0.036611   -0.119052
   4 Au:    0.134688   -0.072509
   5 Au:    0.074564   -0.027670
   6 Au:    0.121972   -0.097979
   7 Au:    0.134203   -0.072781
   8 Au:    0.044821   -0.086136
   9 Au:    0.045526   -0.085751
  10 Au:    0.156895   -0.064721
  11 Au:    0.075949   -0.026893
  12 Au:    0.123994   -0.093376
  13 Au:   -0.040217   -0.047246
  14 Au:   -0.041215   -0.047616
  15 Au:    0.090423   -0.270092
  16 Cr:   -1.095421    3.338916

  Mayer bond orders larger than 0.100000
B(  0-Au,  1-Au) :   0.2197 B(  0-Au,  2-Au) :   0.2207 B(  0-Au, 13-Au) :   0.3429
B(  0-Au, 14-Au) :   0.3431 B(  1-Au,  2-Au) :   0.2412 B(  1-Au,  3-Au) :   0.2683
B(  1-Au, 11-Au) :   0.2440 B(  1-Au, 14-Au) :   0.2922 B(  1-Au, 16-Cr) :   0.2549
B(  2-Au,  3-Au) :   0.2763 B(  2-Au,  5-Au) :   0.2466 B(  2-Au, 13-Au) :   0.2898
B(  2-Au, 16-Cr) :   0.2464 B(  3-Au,  4-Au) :   0.1940 B(  3-Au,  5-Au) :   0.1136
B(  3-Au,  7-Au) :   0.1937 B(  3-Au, 10-Au) :   0.1033 B(  3-Au, 11-Au) :   0.1065
B(  3-Au, 16-Cr) :   0.5089 B(  4-Au,  5-Au) :   0.1454 B(  4-Au,  6-Au) :   0.2916
B(  4-Au,  7-Au) :   0.2757 B(  4-Au,  8-Au) :   0.1164 B(  4-Au, 16-Cr) :   0.4908
B(  5-Au,  6-Au) :   0.1738 B(  5-Au,  9-Au) :   0.1595 B(  5-Au, 13-Au) :   0.2496
B(  5-Au, 16-Cr) :   0.5589 B(  6-Au,  9-Au) :   0.2484 B(  6-Au, 10-Au) :   0.2178
B(  6-Au, 16-Cr) :   0.4466 B(  7-Au,  9-Au) :   0.1170 B(  7-Au, 11-Au) :   0.1473
B(  7-Au, 12-Au) :   0.2919 B(  7-Au, 16-Cr) :   0.5000 B(  8-Au,  9-Au) :   0.1113
B(  8-Au, 10-Au) :   0.1784 B(  8-Au, 11-Au) :   0.1565 B(  8-Au, 12-Au) :   0.2484
B(  8-Au, 14-Au) :   0.2591 B(  8-Au, 15-Au) :   0.2560 B(  8-Au, 16-Cr) :   0.5185
B(  9-Au, 10-Au) :   0.1794 B(  9-Au, 13-Au) :   0.2612 B(  9-Au, 15-Au) :   0.2509
B(  9-Au, 16-Cr) :   0.5256 B( 10-Au, 12-Au) :   0.2170 B( 10-Au, 16-Cr) :   0.5322
B( 11-Au, 12-Au) :   0.1732 B( 11-Au, 14-Au) :   0.2539 B( 11-Au, 16-Cr) :   0.5548
B( 12-Au, 16-Cr) :   0.4473 B( 13-Au, 14-Au) :   0.3493 B( 13-Au, 15-Au) :   0.2074
B( 13-Au, 16-Cr) :   0.3679 B( 14-Au, 15-Au) :   0.2102 B( 14-Au, 16-Cr) :   0.3665
B( 15-Au, 16-Cr) :   0.1783

FINAL SINGLE POINT ENERGY     -3217.485226640021

DIPOLE MOMENT
-------------
                                X             Y             Z
Electronic contribution:     27.33245       7.48427      25.23327
Nuclear contribution   :    -27.59037      -7.66396     -25.55561
                        -----------------------------------------
Total Dipole Moment    :     -0.25792      -0.17969      -0.32235
                        -----------------------------------------
Magnitude (a.u.)       :      0.45024
Magnitude (Debye)      :      1.14443

Rotational constants in cm-1:     0.000942     0.000782     0.000720
Rotational constants in MHz :    28.235713    23.457344    21.580422

                             ****ORCA TERMINATED NORMALLY****
TOTAL RUN TIME: 0 days 0 hours 15 minutes 44 seconds 71 msec
