                         Program Version 5.0.3 -  RELEASE  -
|  1> !R2SCAN def2-TZVP VERYSLOWCONV
|  2> !KDIIS
|  3> %scf
|  4>   AutoTRAHIter 200
|  5>   maxiter 400
|  6> end
|  7>
|  8> %pal nprocs 6 end
|  9>
| 10> *xyzfile 0 5 pbe.xyz
| 11>
| 12> $new_job
| 13>
| 14> !R2SCAN def2-TZVP VERYSLOWCONV
| 15> !KDIIS
| 16> %scf
| 17>   AutoTRAHIter 200
| 18>   maxiter 400
| 19> end
| 20>
| 21>
| 22> %pal nprocs 6 end
| 23>
| 24> *xyzfile 0 3 pbe.xyz
| 25>
| 26>
| 27>
| 28>
| 29>
| 30>                          ****END OF INPUT****
 Total Charge           Charge          ....    0
 Multiplicity           Mult            ....    5
 Number of Electrons    NEL             ....  328
FINAL SINGLE POINT ENERGY     -3218.049691496362

CARTESIAN COORDINATES (ANGSTROEM)
---------------------------------
  Au    11.452307    8.892787   10.690354
  Au     8.607598    8.987557   10.785391
  Au    10.023703   10.518630    8.842586
  Au     7.358518    9.932714    8.530301
  Au     6.798492    9.578869    5.836858
  Au     9.605747    9.604374    6.280759
  Au     8.414501    7.874159    4.380944
  Au     5.428822    8.081922    7.787489
  Au     8.804963    5.012180    8.138241
  Au    10.408386    6.762879    5.905895
  Au     8.082681    5.260395    5.437866
  Au     7.146219    6.917323    9.718091
  Au     6.160052    5.425187    7.522585
  Au    11.382527    8.258412    7.999006
  Au     9.929750    6.682322   10.015420
  Au    11.530469    5.463638    8.074955
  Cr     8.039148    7.486176    7.147554

 Multiplicity           Mult            ....    3
 Number of Electrons    NEL             ....  328
 Basis Dimension        Dim             ....  685

ORBITAL ENERGIES
----------------
                 SPIN UP ORBITALS
  NO   OCC          E(Eh)            E(eV)
   0   1.0000    -215.300671     -5858.6291
   1   1.0000     -24.600428      -669.4117
   2   1.0000     -20.867867      -567.8435
   3   1.0000     -20.867773      -567.8410
   4   1.0000     -20.863507      -567.7249
   5   1.0000      -4.129169      -112.3604
   6   1.0000      -4.128984      -112.3554
   7   1.0000      -4.125338      -112.2562
   8   1.0000      -4.125160      -112.2513
   9   1.0000      -4.123997      -112.2197
  10   1.0000      -4.120405      -112.1219
  11   1.0000      -4.120313      -112.1194
  12   1.0000      -4.120123      -112.1143
  13   1.0000      -4.119921      -112.1087
  14   1.0000      -4.119904      -112.1083
  15   1.0000      -4.118971      -112.0829
  16   1.0000      -4.118784      -112.0778
  17   1.0000      -4.112408      -111.9043
  18   1.0000      -4.112306      -111.9015
  19   1.0000      -4.109132      -111.8152
  20   1.0000      -4.106490      -111.7433
  21   1.0000      -2.923032       -79.5397
  22   1.0000      -2.318097       -63.0786
  23   1.0000      -2.317897       -63.0732
  24   1.0000      -2.315785       -63.0157
  25   1.0000      -2.315573       -63.0099
  26   1.0000      -2.313956       -62.9659
  27   1.0000      -2.313828       -62.9625
  28   1.0000      -2.313612       -62.9566
  29   1.0000      -2.312266       -62.9200
  30   1.0000      -2.311689       -62.9043
  31   1.0000      -2.311107       -62.8884
  32   1.0000      -2.310892       -62.8826
  33   1.0000      -2.309490       -62.8444
  34   1.0000      -2.309310       -62.8395
  35   1.0000      -2.309236       -62.8375
  36   1.0000      -2.309139       -62.8349
  37   1.0000      -2.308481       -62.8170
  38   1.0000      -2.308076       -62.8059
  39   1.0000      -2.307888       -62.8008
  40   1.0000      -2.307859       -62.8000
  41   1.0000      -2.307599       -62.7930
  42   1.0000      -2.307404       -62.7877
  43   1.0000      -2.306892       -62.7737
  44   1.0000      -2.306625       -62.7665
  45   1.0000      -2.306172       -62.7541
  46   1.0000      -2.305807       -62.7442
  47   1.0000      -2.305423       -62.7338
  48   1.0000      -2.304898       -62.7195
  49   1.0000      -2.304373       -62.7052
  50   1.0000      -2.303658       -62.6857
  51   1.0000      -2.303153       -62.6720
  52   1.0000      -2.302832       -62.6632
  53   1.0000      -2.302655       -62.6584
  54   1.0000      -2.301961       -62.6395
  55   1.0000      -2.301737       -62.6335
  56   1.0000      -2.301676       -62.6318
  57   1.0000      -2.300429       -62.5979
  58   1.0000      -2.300159       -62.5905
  59   1.0000      -2.299393       -62.5697
  60   1.0000      -2.299081       -62.5612
  61   1.0000      -2.298254       -62.5387
  62   1.0000      -2.295637       -62.4675
  63   1.0000      -2.295267       -62.4574
  64   1.0000      -2.295035       -62.4511
  65   1.0000      -2.294126       -62.4263
  66   1.0000      -2.293347       -62.4051
  67   1.0000      -2.292474       -62.3814
  68   1.0000      -2.292019       -62.3690
  69   1.0000      -2.290486       -62.3273
  70   1.0000      -1.870962       -50.9115
  71   1.0000      -1.870513       -50.8992
  72   1.0000      -1.867485       -50.8168
  73   1.0000      -0.435389       -11.8475
  74   1.0000      -0.400164       -10.8890
  75   1.0000      -0.400020       -10.8851
  76   1.0000      -0.394948       -10.7471
  77   1.0000      -0.386904       -10.5282
  78   1.0000      -0.385699       -10.4954
  79   1.0000      -0.377703       -10.2778
  80   1.0000      -0.377310       -10.2671
  81   1.0000      -0.375250       -10.2111
  82   1.0000      -0.371061       -10.0971
  83   1.0000      -0.369922       -10.0661
  84   1.0000      -0.369838       -10.0638
  85   1.0000      -0.367450        -9.9988
  86   1.0000      -0.367138        -9.9903
  87   1.0000      -0.362581        -9.8663
  88   1.0000      -0.361408        -9.8344
  89   1.0000      -0.360413        -9.8073
  90   1.0000      -0.357949        -9.7403
  91   1.0000      -0.357438        -9.7264
  92   1.0000      -0.355497        -9.6736
  93   1.0000      -0.354848        -9.6559
  94   1.0000      -0.349825        -9.5192
  95   1.0000      -0.347902        -9.4669
  96   1.0000      -0.343665        -9.3516
  97   1.0000      -0.343385        -9.3440
  98   1.0000      -0.341107        -9.2820
  99   1.0000      -0.338451        -9.2097
 100   1.0000      -0.337640        -9.1877
 101   1.0000      -0.336262        -9.1502
 102   1.0000      -0.335333        -9.1249
 103   1.0000      -0.334455        -9.1010
 104   1.0000      -0.330053        -8.9812
 105   1.0000      -0.328585        -8.9412
 106   1.0000      -0.328349        -8.9348
 107   1.0000      -0.323736        -8.8093
 108   1.0000      -0.321018        -8.7353
 109   1.0000      -0.319274        -8.6879
 110   1.0000      -0.315819        -8.5939
 111   1.0000      -0.311036        -8.4637
 112   1.0000      -0.307545        -8.3687
 113   1.0000      -0.307102        -8.3567
 114   1.0000      -0.303280        -8.2527
 115   1.0000      -0.301948        -8.2164
 116   1.0000      -0.300600        -8.1797
 117   1.0000      -0.298456        -8.1214
 118   1.0000      -0.296249        -8.0613
 119   1.0000      -0.296013        -8.0549
 120   1.0000      -0.294881        -8.0241
 121   1.0000      -0.292244        -7.9524
 122   1.0000      -0.289982        -7.8908
 123   1.0000      -0.287170        -7.8143
 124   1.0000      -0.286713        -7.8019
 125   1.0000      -0.286199        -7.7879
 126   1.0000      -0.285738        -7.7753
 127   1.0000      -0.284317        -7.7367
 128   1.0000      -0.283284        -7.7085
 129   1.0000      -0.281726        -7.6662
 130   1.0000      -0.281370        -7.6565
 131   1.0000      -0.280739        -7.6393
 132   1.0000      -0.278386        -7.5753
 133   1.0000      -0.277953        -7.5635
 134   1.0000      -0.276095        -7.5129
 135   1.0000      -0.274812        -7.4780
 136   1.0000      -0.273911        -7.4535
 137   1.0000      -0.273426        -7.4403
 138   1.0000      -0.271118        -7.3775
 139   1.0000      -0.270809        -7.3691
 140   1.0000      -0.266739        -7.2583
 141   1.0000      -0.266450        -7.2505
 142   1.0000      -0.264765        -7.2046
 143   1.0000      -0.264724        -7.2035
 144   1.0000      -0.262370        -7.1395
 145   1.0000      -0.260704        -7.0941
 146   1.0000      -0.258523        -7.0348
 147   1.0000      -0.257834        -7.0160
 148   1.0000      -0.257096        -6.9959
 149   1.0000      -0.254896        -6.9361
 150   1.0000      -0.254499        -6.9253
 151   1.0000      -0.254313        -6.9202
 152   1.0000      -0.253239        -6.8910
 153   1.0000      -0.251534        -6.8446
 154   1.0000      -0.248008        -6.7486
 155   1.0000      -0.241858        -6.5813
 156   1.0000      -0.238992        -6.5033
 157   1.0000      -0.234686        -6.3861
 158   1.0000      -0.231993        -6.3128
 159   1.0000      -0.231726        -6.3056
 160   1.0000      -0.227605        -6.1934
 161   1.0000      -0.222970        -6.0673
 162   1.0000      -0.216362        -5.8875
 163   1.0000      -0.207265        -5.6400
 164   1.0000      -0.204875        -5.5749
 165   0.0000      -0.189141        -5.1468
 166   0.0000      -0.186244        -5.0679
 167   0.0000      -0.144602        -3.9348
 168   0.0000      -0.137514        -3.7419
 169   0.0000      -0.134768        -3.6672

                 SPIN DOWN ORBITALS
  NO   OCC          E(Eh)            E(eV)
   0   1.0000    -215.300132     -5858.6144
   1   1.0000     -24.537005      -667.6858
   2   1.0000     -20.821651      -566.5859
   3   1.0000     -20.821510      -566.5821
   4   1.0000     -20.809615      -566.2584
   5   1.0000      -4.129702      -112.3749
   6   1.0000      -4.129502      -112.3695
   7   1.0000      -4.124916      -112.2447
   8   1.0000      -4.124693      -112.2386
   9   1.0000      -4.124209      -112.2254
  10   1.0000      -4.120924      -112.1360
  11   1.0000      -4.120740      -112.1310
  12   1.0000      -4.120324      -112.1197
  13   1.0000      -4.120232      -112.1172
  14   1.0000      -4.119847      -112.1067
  15   1.0000      -4.118897      -112.0809
  16   1.0000      -4.118743      -112.0767
  17   1.0000      -4.113199      -111.9258
  18   1.0000      -4.113098      -111.9231
  19   1.0000      -4.111051      -111.8674
  20   1.0000      -4.106641      -111.7474
  21   1.0000      -2.756817       -75.0168
  22   1.0000      -2.318807       -63.0979
  23   1.0000      -2.318589       -63.0920
  24   1.0000      -2.315887       -63.0185
  25   1.0000      -2.315669       -63.0126
  26   1.0000      -2.313663       -62.9580
  27   1.0000      -2.313417       -62.9513
  28   1.0000      -2.313275       -62.9474
  29   1.0000      -2.312799       -62.9345
  30   1.0000      -2.312102       -62.9155
  31   1.0000      -2.310520       -62.8724
  32   1.0000      -2.310379       -62.8686
  33   1.0000      -2.310216       -62.8642
  34   1.0000      -2.309967       -62.8574
  35   1.0000      -2.309371       -62.8412
  36   1.0000      -2.309033       -62.8320
  37   1.0000      -2.308486       -62.8171
  38   1.0000      -2.308187       -62.8090
  39   1.0000      -2.307896       -62.8010
  40   1.0000      -2.307702       -62.7958
  41   1.0000      -2.307534       -62.7912
  42   1.0000      -2.307344       -62.7860
  43   1.0000      -2.306873       -62.7732
  44   1.0000      -2.306705       -62.7686
  45   1.0000      -2.306453       -62.7618
  46   1.0000      -2.305562       -62.7375
  47   1.0000      -2.305244       -62.7289
  48   1.0000      -2.304813       -62.7172
  49   1.0000      -2.304258       -62.7021
  50   1.0000      -2.303604       -62.6842
  51   1.0000      -2.303012       -62.6682
  52   1.0000      -2.302826       -62.6631
  53   1.0000      -2.302454       -62.6530
  54   1.0000      -2.302029       -62.6414
  55   1.0000      -2.301587       -62.6294
  56   1.0000      -2.301388       -62.6239
  57   1.0000      -2.300784       -62.6075
  58   1.0000      -2.300746       -62.6065
  59   1.0000      -2.299942       -62.5846
  60   1.0000      -2.299869       -62.5826
  61   1.0000      -2.299283       -62.5667
  62   1.0000      -2.297300       -62.5127
  63   1.0000      -2.297174       -62.5093
  64   1.0000      -2.296468       -62.4901
  65   1.0000      -2.294893       -62.4472
  66   1.0000      -2.293824       -62.4181
  67   1.0000      -2.293342       -62.4050
  68   1.0000      -2.292022       -62.3691
  69   1.0000      -2.291098       -62.3439
  70   1.0000      -1.713068       -46.6150
  71   1.0000      -1.712593       -46.6020
  72   1.0000      -1.685300       -45.8593
  73   1.0000      -0.431788       -11.7495
  74   1.0000      -0.401123       -10.9151
  75   1.0000      -0.399253       -10.8642
  76   1.0000      -0.395752       -10.7690
  77   1.0000      -0.385363       -10.4863
  78   1.0000      -0.384676       -10.4676
  79   1.0000      -0.378088       -10.2883
  80   1.0000      -0.377222       -10.2647
  81   1.0000      -0.374661       -10.1950
  82   1.0000      -0.372123       -10.1260
  83   1.0000      -0.369283       -10.0487
  84   1.0000      -0.368668       -10.0320
  85   1.0000      -0.367944       -10.0123
  86   1.0000      -0.366887        -9.9835
  87   1.0000      -0.362032        -9.8514
  88   1.0000      -0.361181        -9.8282
  89   1.0000      -0.360859        -9.8195
  90   1.0000      -0.359256        -9.7758
  91   1.0000      -0.357298        -9.7226
  92   1.0000      -0.356298        -9.6954
  93   1.0000      -0.354596        -9.6490
  94   1.0000      -0.351216        -9.5571
  95   1.0000      -0.349065        -9.4985
  96   1.0000      -0.344818        -9.3830
  97   1.0000      -0.341714        -9.2985
  98   1.0000      -0.340901        -9.2764
  99   1.0000      -0.339273        -9.2321
 100   1.0000      -0.338091        -9.1999
 101   1.0000      -0.336996        -9.1701
 102   1.0000      -0.336242        -9.1496
 103   1.0000      -0.335628        -9.1329
 104   1.0000      -0.331333        -9.0160
 105   1.0000      -0.329487        -8.9658
 106   1.0000      -0.329264        -8.9597
 107   1.0000      -0.321901        -8.7594
 108   1.0000      -0.319413        -8.6917
 109   1.0000      -0.316867        -8.6224
 110   1.0000      -0.315169        -8.5762
 111   1.0000      -0.309095        -8.4109
 112   1.0000      -0.307753        -8.3744
 113   1.0000      -0.305828        -8.3220
 114   1.0000      -0.304165        -8.2767
 115   1.0000      -0.302827        -8.2403
 116   1.0000      -0.300310        -8.1719
 117   1.0000      -0.299340        -8.1455
 118   1.0000      -0.297660        -8.0997
 119   1.0000      -0.297424        -8.0933
 120   1.0000      -0.296582        -8.0704
 121   1.0000      -0.293030        -7.9737
 122   1.0000      -0.290846        -7.9143
 123   1.0000      -0.287904        -7.8343
 124   1.0000      -0.287809        -7.8317
 125   1.0000      -0.287536        -7.8243
 126   1.0000      -0.285698        -7.7742
 127   1.0000      -0.285331        -7.7643
 128   1.0000      -0.285299        -7.7634
 129   1.0000      -0.282788        -7.6950
 130   1.0000      -0.282655        -7.6914
 131   1.0000      -0.281717        -7.6659
 132   1.0000      -0.279152        -7.5961
 133   1.0000      -0.277968        -7.5639
 134   1.0000      -0.277649        -7.5552
 135   1.0000      -0.275683        -7.5017
 136   1.0000      -0.275179        -7.4880
 137   1.0000      -0.274434        -7.4677
 138   1.0000      -0.272507        -7.4153
 139   1.0000      -0.272065        -7.4033
 140   1.0000      -0.267516        -7.2795
 141   1.0000      -0.267191        -7.2706
 142   1.0000      -0.266197        -7.2436
 143   1.0000      -0.265221        -7.2170
 144   1.0000      -0.263430        -7.1683
 145   1.0000      -0.263251        -7.1634
 146   1.0000      -0.260107        -7.0779
 147   1.0000      -0.259913        -7.0726
 148   1.0000      -0.259109        -7.0507
 149   1.0000      -0.258732        -7.0404
 150   1.0000      -0.256083        -6.9684
 151   1.0000      -0.255889        -6.9631
 152   1.0000      -0.254132        -6.9153
 153   1.0000      -0.251480        -6.8431
 154   1.0000      -0.249657        -6.7935
 155   1.0000      -0.242516        -6.5992
 156   1.0000      -0.236611        -6.4385
 157   1.0000      -0.235256        -6.4016
 158   1.0000      -0.221454        -6.0261
 159   1.0000      -0.217231        -5.9112
 160   1.0000      -0.215134        -5.8541
 161   1.0000      -0.212547        -5.7837
 162   1.0000      -0.158668        -4.3176
 163   0.0000      -0.145332        -3.9547
 164   0.0000      -0.143935        -3.9167
 165   0.0000      -0.131743        -3.5849
 166   0.0000      -0.130781        -3.5587
 167   0.0000      -0.123699        -3.3660

MULLIKEN ATOMIC CHARGES AND SPIN POPULATIONS
--------------------------------------------
   0 Au:    0.385839    0.024965
   1 Au:    0.227923   -0.097902
   2 Au:    0.228658   -0.107022
   3 Au:    0.112785   -0.160850
   4 Au:    0.466873   -0.050322
   5 Au:    0.208355    0.008507
   6 Au:    0.431356   -0.146341
   7 Au:    0.463274   -0.052890
   8 Au:    0.196365   -0.041624
   9 Au:    0.195096   -0.041483
  10 Au:    0.446498   -0.091959
  11 Au:    0.216848    0.008491
  12 Au:    0.436030   -0.135307
  13 Au:   -0.202883   -0.062102
  14 Au:   -0.205716   -0.061835
  15 Au:    0.345564   -0.405382
  16 Cr:   -3.952865    3.413056
Sum of atomic charges         :   -0.0000000

LOEWDIN ATOMIC CHARGES AND SPIN POPULATIONS
-------------------------------------------
   0 Au:    0.098172   -0.002257
   1 Au:    0.018117   -0.118254
   2 Au:    0.017996   -0.123124
   3 Au:    0.036452   -0.133778
   4 Au:    0.129328   -0.087686
   5 Au:    0.070380   -0.038129
   6 Au:    0.113936   -0.122197
   7 Au:    0.128767   -0.088219
   8 Au:    0.043780   -0.097886
   9 Au:    0.044475   -0.097659
  10 Au:    0.153372   -0.085703
  11 Au:    0.071670   -0.037278
  12 Au:    0.116302   -0.116910
  13 Au:   -0.038787   -0.054466
  14 Au:   -0.039824   -0.054784
  15 Au:    0.080877   -0.309236
  16 Cr:   -1.045012    3.567565

  Mayer bond orders larger than 0.100000
B(  0-Au,  1-Au) :   0.2030 B(  0-Au,  2-Au) :   0.2037 B(  0-Au, 13-Au) :   0.3444
B(  0-Au, 14-Au) :   0.3444 B(  1-Au,  2-Au) :   0.2249 B(  1-Au,  3-Au) :   0.2578
B(  1-Au, 11-Au) :   0.2498 B(  1-Au, 14-Au) :   0.2783 B(  1-Au, 16-Cr) :   0.2380
B(  2-Au,  3-Au) :   0.2659 B(  2-Au,  5-Au) :   0.2512 B(  2-Au, 13-Au) :   0.2753
B(  2-Au, 16-Cr) :   0.2298 B(  3-Au,  4-Au) :   0.1912 B(  3-Au,  5-Au) :   0.1107
B(  3-Au,  7-Au) :   0.1908 B(  3-Au, 11-Au) :   0.1037 B(  3-Au, 16-Cr) :   0.5145
B(  4-Au,  5-Au) :   0.1326 B(  4-Au,  6-Au) :   0.2795 B(  4-Au,  7-Au) :   0.2692
B(  4-Au, 16-Cr) :   0.4986 B(  5-Au,  6-Au) :   0.1667 B(  5-Au,  9-Au) :   0.1545
B(  5-Au, 13-Au) :   0.2445 B(  5-Au, 16-Cr) :   0.5634 B(  6-Au,  9-Au) :   0.2426
B(  6-Au, 10-Au) :   0.1966 B(  6-Au, 16-Cr) :   0.4465 B(  7-Au, 11-Au) :   0.1345
B(  7-Au, 12-Au) :   0.2803 B(  7-Au, 16-Cr) :   0.5073 B(  8-Au, 10-Au) :   0.1719
B(  8-Au, 11-Au) :   0.1513 B(  8-Au, 12-Au) :   0.2428 B(  8-Au, 14-Au) :   0.2522
B(  8-Au, 15-Au) :   0.2400 B(  8-Au, 16-Cr) :   0.5286 B(  9-Au, 10-Au) :   0.1729
B(  9-Au, 13-Au) :   0.2545 B(  9-Au, 15-Au) :   0.2346 B(  9-Au, 16-Cr) :   0.5350
B( 10-Au, 12-Au) :   0.1962 B( 10-Au, 16-Cr) :   0.5454 B( 11-Au, 12-Au) :   0.1665
B( 11-Au, 14-Au) :   0.2487 B( 11-Au, 16-Cr) :   0.5599 B( 12-Au, 16-Cr) :   0.4473
B( 13-Au, 14-Au) :   0.3146 B( 13-Au, 15-Au) :   0.1900 B( 13-Au, 16-Cr) :   0.3446
B( 14-Au, 15-Au) :   0.1930 B( 14-Au, 16-Cr) :   0.3431 B( 15-Au, 16-Cr) :   0.1551

FINAL SINGLE POINT ENERGY     -3218.013522122242

DIPOLE MOMENT
-------------
                                X             Y             Z
Electronic contribution:     27.32144       7.51630      25.25173
Nuclear contribution   :    -27.59037      -7.66396     -25.55561
                        -----------------------------------------
Total Dipole Moment    :     -0.26893      -0.14766      -0.30388
                        -----------------------------------------
Magnitude (a.u.)       :      0.43182
Magnitude (Debye)      :      1.09761

Rotational constants in cm-1:     0.000942     0.000782     0.000720
Rotational constants in MHz :    28.235713    23.457344    21.580422

                             ****ORCA TERMINATED NORMALLY****
TOTAL RUN TIME: 0 days 0 hours 7 minutes 18 seconds 138 msec
