                         Program Version 5.0.3 -  RELEASE  -
|  1> !RI-B2PLYP def2-TZVP def2-TZVP/C
|  2> !RIJCOSX VERYSLOWCONV
|  3>
|  4> %scf
|  5>   AutoTRAHIter 200
|  6>   maxiter 400
|  7> end
|  8>
|  9>
| 10> %pal nprocs 6 end
| 11>
| 12> *xyzfile 0 5 pbe.xyz
| 13>
| 14> $new_job
| 15>
| 16> !RI-B2PLYP def2-TZVP def2-TZVP/C
| 17> !RIJCOSX VERYSLOWCONV
| 18>
| 19> %scf
| 20>   AutoTRAHIter 200
| 21>   maxiter 400
| 22> end
| 23>
| 24>
| 25> %pal nprocs 6 end
| 26>
| 27> *xyzfile 0 3 pbe.xyz
| 28>
| 29>
| 30>
| 31>
| 32>
| 33>                          ****END OF INPUT****
 Total Charge           Charge          ....    0
 Multiplicity           Mult            ....    5
 Number of Electrons    NEL             ....  252
MP2 TOTAL ENERGY:    -2671.272439785 Eh
FINAL SINGLE POINT ENERGY     -2671.272439785301

CARTESIAN COORDINATES (ANGSTROEM)
---------------------------------
  Au     5.547107    4.638696    8.823854
  Au     7.969628    6.919541    6.135605
  Au    10.385132    5.642836    7.270845
  Au    10.243984    8.295770    7.090485
  Au     7.113663    4.329692    6.418069
  Au     8.676054    5.924689   11.065134
  Au     7.640195    3.533881   10.261093
  Au     9.276833    3.312701    8.038056
  Au     9.169333    8.088086    9.704845
  Au     9.788186   10.546244    8.557203
  Au     5.902945    7.237896    8.221466
  Au     7.558142    9.250966    7.681874
  Cr     8.028591    5.657555    8.515629

 Multiplicity           Mult            ....    3
 Number of Electrons    NEL             ....  252
 Basis Dimension        Dim             ....  525

ORBITAL ENERGIES
----------------
                 SPIN UP ORBITALS
  NO   OCC          E(Eh)            E(eV)
   0   1.0000    -217.752561     -5925.3484
   1   1.0000     -25.441101      -692.2876
   2   1.0000     -21.581758      -587.2695
   3   1.0000     -21.577501      -587.1537
   4   1.0000     -21.576022      -587.1134
   5   1.0000      -4.397324      -119.6573
   6   1.0000      -4.397021      -119.6490
   7   1.0000      -4.396721      -119.6409
   8   1.0000      -4.390678      -119.4764
   9   1.0000      -4.390610      -119.4746
  10   1.0000      -4.390239      -119.4645
  11   1.0000      -4.389394      -119.4415
  12   1.0000      -4.389341      -119.4401
  13   1.0000      -4.388036      -119.4045
  14   1.0000      -4.386364      -119.3590
  15   1.0000      -4.383390      -119.2781
  16   1.0000      -4.381910      -119.2378
  17   1.0000      -3.227716       -87.8306
  18   1.0000      -2.520541       -68.5874
  19   1.0000      -2.519276       -68.5530
  20   1.0000      -2.518150       -68.5223
  21   1.0000      -2.516969       -68.4902
  22   1.0000      -2.514984       -68.4362
  23   1.0000      -2.513784       -68.4036
  24   1.0000      -2.513675       -68.4006
  25   1.0000      -2.512895       -68.3793
  26   1.0000      -2.512491       -68.3683
  27   1.0000      -2.512323       -68.3638
  28   1.0000      -2.511278       -68.3354
  29   1.0000      -2.510879       -68.3245
  30   1.0000      -2.510295       -68.3086
  31   1.0000      -2.509788       -68.2948
  32   1.0000      -2.509549       -68.2883
  33   1.0000      -2.509083       -68.2756
  34   1.0000      -2.508693       -68.2650
  35   1.0000      -2.507364       -68.2289
  36   1.0000      -2.506575       -68.2074
  37   1.0000      -2.506365       -68.2017
  38   1.0000      -2.505217       -68.1704
  39   1.0000      -2.504822       -68.1597
  40   1.0000      -2.504769       -68.1582
  41   1.0000      -2.504254       -68.1442
  42   1.0000      -2.503759       -68.1307
  43   1.0000      -2.503230       -68.1164
  44   1.0000      -2.502721       -68.1025
  45   1.0000      -2.502681       -68.1014
  46   1.0000      -2.502234       -68.0892
  47   1.0000      -2.501852       -68.0788
  48   1.0000      -2.501497       -68.0692
  49   1.0000      -2.498858       -67.9974
  50   1.0000      -2.498125       -67.9774
  51   1.0000      -2.497797       -67.9685
  52   1.0000      -2.495996       -67.9195
  53   1.0000      -2.493263       -67.8451
  54   1.0000      -2.116296       -57.5874
  55   1.0000      -2.114924       -57.5500
  56   1.0000      -2.105843       -57.3029
  57   1.0000      -0.481628       -13.1058
  58   1.0000      -0.474244       -12.9048
  59   1.0000      -0.469483       -12.7753
  60   1.0000      -0.462892       -12.5959
  61   1.0000      -0.462092       -12.5742
  62   1.0000      -0.459861       -12.5135
  63   1.0000      -0.457514       -12.4496
  64   1.0000      -0.451836       -12.2951
  65   1.0000      -0.450657       -12.2630
  66   1.0000      -0.446354       -12.1459
  67   1.0000      -0.442339       -12.0367
  68   1.0000      -0.440489       -11.9863
  69   1.0000      -0.436529       -11.8785
  70   1.0000      -0.432330       -11.7643
  71   1.0000      -0.430089       -11.7033
  72   1.0000      -0.429909       -11.6984
  73   1.0000      -0.427337       -11.6284
  74   1.0000      -0.421318       -11.4646
  75   1.0000      -0.419946       -11.4273
  76   1.0000      -0.417482       -11.3603
  77   1.0000      -0.412997       -11.2382
  78   1.0000      -0.412779       -11.2323
  79   1.0000      -0.410067       -11.1585
  80   1.0000      -0.407313       -11.0835
  81   1.0000      -0.405310       -11.0290
  82   1.0000      -0.398240       -10.8367
  83   1.0000      -0.395313       -10.7570
  84   1.0000      -0.395116       -10.7517
  85   1.0000      -0.394799       -10.7430
  86   1.0000      -0.392657       -10.6847
  87   1.0000      -0.390975       -10.6390
  88   1.0000      -0.387515       -10.5448
  89   1.0000      -0.384500       -10.4628
  90   1.0000      -0.381460       -10.3800
  91   1.0000      -0.381361       -10.3774
  92   1.0000      -0.380362       -10.3502
  93   1.0000      -0.376520       -10.2456
  94   1.0000      -0.373131       -10.1534
  95   1.0000      -0.371567       -10.1108
  96   1.0000      -0.370356       -10.0779
  97   1.0000      -0.369801       -10.0628
  98   1.0000      -0.367148        -9.9906
  99   1.0000      -0.364808        -9.9269
 100   1.0000      -0.362240        -9.8571
 101   1.0000      -0.360132        -9.7997
 102   1.0000      -0.359308        -9.7773
 103   1.0000      -0.358515        -9.7557
 104   1.0000      -0.356290        -9.6951
 105   1.0000      -0.354711        -9.6522
 106   1.0000      -0.350695        -9.5429
 107   1.0000      -0.348691        -9.4884
 108   1.0000      -0.348257        -9.4765
 109   1.0000      -0.346528        -9.4295
 110   1.0000      -0.345485        -9.4011
 111   1.0000      -0.343195        -9.3388
 112   1.0000      -0.341621        -9.2960
 113   1.0000      -0.334531        -9.1030
 114   1.0000      -0.332462        -9.0467
 115   1.0000      -0.330132        -8.9833
 116   1.0000      -0.328788        -8.9468
 117   1.0000      -0.326594        -8.8871
 118   1.0000      -0.324215        -8.8223
 119   1.0000      -0.323915        -8.8142
 120   1.0000      -0.318076        -8.6553
 121   1.0000      -0.309146        -8.4123
 122   1.0000      -0.304112        -8.2753
 123   1.0000      -0.279537        -7.6066
 124   1.0000      -0.266008        -7.2384
 125   1.0000      -0.247451        -6.7335
 126   1.0000      -0.227173        -6.1817
 127   0.0000      -0.125130        -3.4050
 128   0.0000      -0.107624        -2.9286
 129   0.0000      -0.076142        -2.0719
 130   0.0000      -0.068148        -1.8544
 131   0.0000      -0.048367        -1.3161

                 SPIN DOWN ORBITALS
  NO   OCC          E(Eh)            E(eV)
   0   1.0000    -217.751196     -5925.3113
   1   1.0000     -25.371340      -690.3893
   2   1.0000     -21.524708      -585.7171
   3   1.0000     -21.510943      -585.3425
   4   1.0000     -21.506302      -585.2162
   5   1.0000      -4.398720      -119.6953
   6   1.0000      -4.398058      -119.6772
   7   1.0000      -4.397738      -119.6685
   8   1.0000      -4.390796      -119.4796
   9   1.0000      -4.389981      -119.4575
  10   1.0000      -4.389914      -119.4556
  11   1.0000      -4.389611      -119.4474
  12   1.0000      -4.389540      -119.4454
  13   1.0000      -4.389348      -119.4402
  14   1.0000      -4.386809      -119.3712
  15   1.0000      -4.384952      -119.3206
  16   1.0000      -4.381084      -119.2154
  17   1.0000      -3.013236       -81.9943
  18   1.0000      -2.520561       -68.5879
  19   1.0000      -2.519119       -68.5487
  20   1.0000      -2.518402       -68.5292
  21   1.0000      -2.517026       -68.4918
  22   1.0000      -2.515221       -68.4426
  23   1.0000      -2.514955       -68.4354
  24   1.0000      -2.513785       -68.4036
  25   1.0000      -2.513568       -68.3977
  26   1.0000      -2.512641       -68.3724
  27   1.0000      -2.511773       -68.3488
  28   1.0000      -2.511577       -68.3435
  29   1.0000      -2.510981       -68.3273
  30   1.0000      -2.509571       -68.2889
  31   1.0000      -2.509275       -68.2808
  32   1.0000      -2.508698       -68.2652
  33   1.0000      -2.507524       -68.2332
  34   1.0000      -2.507449       -68.2312
  35   1.0000      -2.506962       -68.2179
  36   1.0000      -2.506321       -68.2005
  37   1.0000      -2.506204       -68.1973
  38   1.0000      -2.505547       -68.1794
  39   1.0000      -2.505229       -68.1707
  40   1.0000      -2.505009       -68.1648
  41   1.0000      -2.504094       -68.1399
  42   1.0000      -2.503957       -68.1361
  43   1.0000      -2.503225       -68.1162
  44   1.0000      -2.502793       -68.1045
  45   1.0000      -2.501815       -68.0779
  46   1.0000      -2.501753       -68.0762
  47   1.0000      -2.501673       -68.0740
  48   1.0000      -2.500197       -68.0338
  49   1.0000      -2.500070       -68.0304
  50   1.0000      -2.499923       -68.0264
  51   1.0000      -2.498436       -67.9859
  52   1.0000      -2.497007       -67.9470
  53   1.0000      -2.492438       -67.8227
  54   1.0000      -1.889350       -51.4118
  55   1.0000      -1.859136       -50.5897
  56   1.0000      -1.848578       -50.3024
  57   1.0000      -0.484716       -13.1898
  58   1.0000      -0.469224       -12.7682
  59   1.0000      -0.463581       -12.6147
  60   1.0000      -0.462656       -12.5895
  61   1.0000      -0.459842       -12.5129
  62   1.0000      -0.451977       -12.2989
  63   1.0000      -0.448323       -12.1995
  64   1.0000      -0.446646       -12.1538
  65   1.0000      -0.442544       -12.0422
  66   1.0000      -0.440227       -11.9792
  67   1.0000      -0.440162       -11.9774
  68   1.0000      -0.437959       -11.9175
  69   1.0000      -0.433300       -11.7907
  70   1.0000      -0.432310       -11.7638
  71   1.0000      -0.428243       -11.6531
  72   1.0000      -0.427736       -11.6393
  73   1.0000      -0.425308       -11.5732
  74   1.0000      -0.421660       -11.4739
  75   1.0000      -0.419240       -11.4081
  76   1.0000      -0.417359       -11.3569
  77   1.0000      -0.415814       -11.3149
  78   1.0000      -0.414711       -11.2849
  79   1.0000      -0.410153       -11.1608
  80   1.0000      -0.403446       -10.9783
  81   1.0000      -0.402385       -10.9495
  82   1.0000      -0.398734       -10.8501
  83   1.0000      -0.396438       -10.7876
  84   1.0000      -0.394328       -10.7302
  85   1.0000      -0.391485       -10.6528
  86   1.0000      -0.388999       -10.5852
  87   1.0000      -0.388063       -10.5597
  88   1.0000      -0.384581       -10.4650
  89   1.0000      -0.383996       -10.4491
  90   1.0000      -0.381988       -10.3944
  91   1.0000      -0.381458       -10.3800
  92   1.0000      -0.376269       -10.2388
  93   1.0000      -0.374040       -10.1782
  94   1.0000      -0.372949       -10.1485
  95   1.0000      -0.370284       -10.0759
  96   1.0000      -0.369450       -10.0533
  97   1.0000      -0.368768       -10.0347
  98   1.0000      -0.365658        -9.9501
  99   1.0000      -0.363992        -9.9047
 100   1.0000      -0.363480        -9.8908
 101   1.0000      -0.360258        -9.8031
 102   1.0000      -0.358707        -9.7609
 103   1.0000      -0.358376        -9.7519
 104   1.0000      -0.356527        -9.7016
 105   1.0000      -0.351712        -9.5706
 106   1.0000      -0.350065        -9.5258
 107   1.0000      -0.349011        -9.4971
 108   1.0000      -0.347884        -9.4664
 109   1.0000      -0.346234        -9.4215
 110   1.0000      -0.342669        -9.3245
 111   1.0000      -0.337603        -9.1866
 112   1.0000      -0.335094        -9.1184
 113   1.0000      -0.334261        -9.0957
 114   1.0000      -0.331849        -9.0301
 115   1.0000      -0.331445        -9.0191
 116   1.0000      -0.327643        -8.9156
 117   1.0000      -0.323197        -8.7946
 118   1.0000      -0.319591        -8.6965
 119   1.0000      -0.293770        -7.9939
 120   1.0000      -0.291978        -7.9451
 121   1.0000      -0.249102        -6.7784
 122   1.0000      -0.226925        -6.1749
 123   1.0000      -0.220638        -6.0039
 124   1.0000      -0.210991        -5.7414
 125   0.0000      -0.085824        -2.3354
 126   0.0000      -0.065451        -1.7810
 127   0.0000      -0.060212        -1.6385
 128   0.0000      -0.053997        -1.4693
 129   0.0000      -0.043507        -1.1839

MULLIKEN ATOMIC CHARGES AND SPIN POPULATIONS
--------------------------------------------
   0 Au:    0.265279   -0.206273
   1 Au:    0.298044   -0.211455
   2 Au:    0.113464   -0.164491
   3 Au:    0.211528   -0.264082
   4 Au:    0.503750   -0.085095
   5 Au:    0.145664   -0.024987
   6 Au:    0.323356   -0.213140
   7 Au:    0.264226   -0.205484
   8 Au:   -0.510034   -0.057839
   9 Au:    0.442102   -0.008921
  10 Au:    0.113190   -0.160414
  11 Au:    0.204616   -0.262108
  12 Cr:   -2.375185    3.864288
Sum of atomic charges         :   -0.0000000

LOEWDIN ATOMIC CHARGES AND SPIN POPULATIONS
-------------------------------------------
   0 Au:    0.098056   -0.164260
   1 Au:    0.041421   -0.164849
   2 Au:    0.094457   -0.165773
   3 Au:    0.004367   -0.183097
   4 Au:    0.101256   -0.105155
   5 Au:    0.117348   -0.048927
   6 Au:    0.083725   -0.168936
   7 Au:    0.098193   -0.162930
   8 Au:   -0.081979   -0.063772
   9 Au:    0.164829   -0.047841
  10 Au:    0.094787   -0.164060
  11 Au:    0.002640   -0.180569
  12 Cr:   -0.819099    3.620168

  Mayer bond orders larger than 0.100000
B(  0-Au,  4-Au) :   0.1363 B(  0-Au,  6-Au) :   0.1805 B(  0-Au, 10-Au) :   0.3361
B(  0-Au, 12-Cr) :   0.4582 B(  1-Au,  2-Au) :   0.1076 B(  1-Au,  3-Au) :   0.1735
B(  1-Au,  4-Au) :   0.2111 B(  1-Au,  6-Au) :   0.1049 B(  1-Au, 10-Au) :   0.1083
B(  1-Au, 11-Au) :   0.1725 B(  1-Au, 12-Cr) :   0.5086 B(  2-Au,  3-Au) :   0.2767
B(  2-Au,  7-Au) :   0.3380 B(  2-Au, 12-Cr) :   0.5232 B(  3-Au,  8-Au) :   0.2211
B(  3-Au,  9-Au) :   0.2793 B(  3-Au, 11-Au) :   0.1554 B(  3-Au, 12-Cr) :   0.2779
B(  4-Au,  7-Au) :   0.1381 B(  4-Au, 12-Cr) :   0.8580 B(  5-Au,  6-Au) :   0.2200
B(  5-Au,  8-Au) :   0.7024 B(  5-Au, 12-Cr) :   0.5853 B(  6-Au,  7-Au) :   0.1797
B(  6-Au, 12-Cr) :   0.4581 B(  7-Au, 12-Cr) :   0.4593 B(  8-Au,  9-Au) :   0.4435
B(  8-Au, 11-Au) :   0.2224 B(  8-Au, 12-Cr) :   0.4264 B(  9-Au, 11-Au) :   0.2831
B( 10-Au, 11-Au) :   0.2788 B( 10-Au, 12-Cr) :   0.5257 B( 11-Au, 12-Cr) :   0.2824

MP2 TOTAL ENERGY:    -2671.289175681 Eh
FINAL SINGLE POINT ENERGY     -2671.289175680767

DIPOLE MOMENT
-------------
                                X             Y             Z
Electronic contribution:      8.56764      28.83786      -8.68174
Nuclear contribution   :     -8.56523     -28.75549       8.53865
                        -----------------------------------------
Total Dipole Moment    :      0.00242       0.08237      -0.14309
                        -----------------------------------------
Magnitude (a.u.)       :      0.16512
Magnitude (Debye)      :      0.41971

Rotational constants in cm-1:     0.001758     0.000981     0.000976
Rotational constants in MHz :    52.692230    29.402657    29.266823

                             ****ORCA TERMINATED NORMALLY****
TOTAL RUN TIME: 0 days 1 hours 3 minutes 34 seconds 126 msec
