                         Program Version 5.0.3 -  RELEASE  -
|  1> !R2SCAN def2-TZVP VERYSLOWCONV
|  2> !KDIIS
|  3> %scf
|  4>   AutoTRAHIter 200
|  5>   maxiter 400
|  6> end
|  7>
|  8> %pal nprocs 6 end
|  9>
| 10> *xyzfile 0 5 pbe.xyz
| 11>
| 12> $new_job
| 13>
| 14> !R2SCAN def2-TZVP VERYSLOWCONV
| 15> !KDIIS
| 16> %scf
| 17>   AutoTRAHIter 200
| 18>   maxiter 400
| 19> end
| 20>
| 21>
| 22> %pal nprocs 6 end
| 23>
| 24> *xyzfile 0 3 pbe.xyz
| 25>
| 26>
| 27>
| 28>
| 29>
| 30>                          ****END OF INPUT****
 Total Charge           Charge          ....    0
 Multiplicity           Mult            ....    5
 Number of Electrons    NEL             ....  252
FINAL SINGLE POINT ENERGY     -2674.563315770386

CARTESIAN COORDINATES (ANGSTROEM)
---------------------------------
  Au     5.547107    4.638696    8.823854
  Au     7.969628    6.919541    6.135605
  Au    10.385132    5.642836    7.270845
  Au    10.243984    8.295770    7.090485
  Au     7.113663    4.329692    6.418069
  Au     8.676054    5.924689   11.065134
  Au     7.640195    3.533881   10.261093
  Au     9.276833    3.312701    8.038056
  Au     9.169333    8.088086    9.704845
  Au     9.788186   10.546244    8.557203
  Au     5.902945    7.237896    8.221466
  Au     7.558142    9.250966    7.681874
  Cr     8.028591    5.657555    8.515629

 Multiplicity           Mult            ....    3
 Number of Electrons    NEL             ....  252
 Basis Dimension        Dim             ....  525

ORBITAL ENERGIES
----------------
                 SPIN UP ORBITALS
  NO   OCC          E(Eh)            E(eV)
   0   1.0000    -215.303603     -5858.7089
   1   1.0000     -24.607329      -669.5995
   2   1.0000     -20.874555      -568.0255
   3   1.0000     -20.873325      -567.9920
   4   1.0000     -20.873088      -567.9856
   5   1.0000      -4.115950      -112.0007
   6   1.0000      -4.113729      -111.9402
   7   1.0000      -4.113572      -111.9360
   8   1.0000      -4.111346      -111.8754
   9   1.0000      -4.111213      -111.8718
  10   1.0000      -4.110131      -111.8423
  11   1.0000      -4.109203      -111.8171
  12   1.0000      -4.109184      -111.8166
  13   1.0000      -4.108585      -111.8003
  14   1.0000      -4.108539      -111.7990
  15   1.0000      -4.104932      -111.7009
  16   1.0000      -4.104726      -111.6953
  17   1.0000      -2.921911       -79.5092
  18   1.0000      -2.306630       -62.7666
  19   1.0000      -2.305489       -62.7356
  20   1.0000      -2.305335       -62.7313
  21   1.0000      -2.303798       -62.6895
  22   1.0000      -2.302450       -62.6529
  23   1.0000      -2.301776       -62.6345
  24   1.0000      -2.301629       -62.6305
  25   1.0000      -2.299677       -62.5774
  26   1.0000      -2.299293       -62.5669
  27   1.0000      -2.298738       -62.5519
  28   1.0000      -2.298411       -62.5429
  29   1.0000      -2.298367       -62.5417
  30   1.0000      -2.298005       -62.5319
  31   1.0000      -2.297807       -62.5265
  32   1.0000      -2.297285       -62.5123
  33   1.0000      -2.297001       -62.5046
  34   1.0000      -2.296730       -62.4972
  35   1.0000      -2.296276       -62.4849
  36   1.0000      -2.295900       -62.4746
  37   1.0000      -2.295338       -62.4593
  38   1.0000      -2.295098       -62.4528
  39   1.0000      -2.294598       -62.4392
  40   1.0000      -2.293614       -62.4124
  41   1.0000      -2.293478       -62.4087
  42   1.0000      -2.293184       -62.4007
  43   1.0000      -2.292787       -62.3899
  44   1.0000      -2.291847       -62.3643
  45   1.0000      -2.291166       -62.3458
  46   1.0000      -2.290235       -62.3205
  47   1.0000      -2.289950       -62.3127
  48   1.0000      -2.289732       -62.3068
  49   1.0000      -2.289514       -62.3008
  50   1.0000      -2.289390       -62.2975
  51   1.0000      -2.288730       -62.2795
  52   1.0000      -2.285919       -62.2030
  53   1.0000      -2.283070       -62.1255
  54   1.0000      -1.869815       -50.8802
  55   1.0000      -1.867217       -50.8096
  56   1.0000      -1.866921       -50.8015
  57   1.0000      -0.413293       -11.2463
  58   1.0000      -0.393740       -10.7142
  59   1.0000      -0.375672       -10.2225
  60   1.0000      -0.375095       -10.2069
  61   1.0000      -0.370133       -10.0718
  62   1.0000      -0.362704        -9.8697
  63   1.0000      -0.359862        -9.7923
  64   1.0000      -0.357250        -9.7213
  65   1.0000      -0.353218        -9.6115
  66   1.0000      -0.352356        -9.5881
  67   1.0000      -0.348974        -9.4961
  68   1.0000      -0.346580        -9.4309
  69   1.0000      -0.344878        -9.3846
  70   1.0000      -0.340902        -9.2764
  71   1.0000      -0.338415        -9.2087
  72   1.0000      -0.337632        -9.1874
  73   1.0000      -0.334773        -9.1096
  74   1.0000      -0.331609        -9.0235
  75   1.0000      -0.327816        -8.9203
  76   1.0000      -0.322686        -8.7807
  77   1.0000      -0.322559        -8.7773
  78   1.0000      -0.322500        -8.7757
  79   1.0000      -0.321091        -8.7373
  80   1.0000      -0.316988        -8.6257
  81   1.0000      -0.313585        -8.5331
  82   1.0000      -0.310101        -8.4383
  83   1.0000      -0.308027        -8.3818
  84   1.0000      -0.305991        -8.3264
  85   1.0000      -0.304811        -8.2943
  86   1.0000      -0.301341        -8.1999
  87   1.0000      -0.299774        -8.1573
  88   1.0000      -0.297584        -8.0977
  89   1.0000      -0.295766        -8.0482
  90   1.0000      -0.293948        -7.9987
  91   1.0000      -0.290130        -7.8948
  92   1.0000      -0.288223        -7.8430
  93   1.0000      -0.284841        -7.7509
  94   1.0000      -0.283105        -7.7037
  95   1.0000      -0.281518        -7.6605
  96   1.0000      -0.280152        -7.6233
  97   1.0000      -0.279695        -7.6109
  98   1.0000      -0.278773        -7.5858
  99   1.0000      -0.277000        -7.5375
 100   1.0000      -0.274345        -7.4653
 101   1.0000      -0.272982        -7.4282
 102   1.0000      -0.270778        -7.3683
 103   1.0000      -0.270188        -7.3522
 104   1.0000      -0.269152        -7.3240
 105   1.0000      -0.267835        -7.2882
 106   1.0000      -0.262494        -7.1428
 107   1.0000      -0.262208        -7.1350
 108   1.0000      -0.260513        -7.0889
 109   1.0000      -0.259129        -7.0513
 110   1.0000      -0.257551        -7.0083
 111   1.0000      -0.256624        -6.9831
 112   1.0000      -0.254338        -6.9209
 113   1.0000      -0.251239        -6.8366
 114   1.0000      -0.249551        -6.7906
 115   1.0000      -0.248710        -6.7677
 116   1.0000      -0.247130        -6.7247
 117   1.0000      -0.242092        -6.5877
 118   1.0000      -0.242036        -6.5861
 119   1.0000      -0.235311        -6.4031
 120   1.0000      -0.235126        -6.3981
 121   1.0000      -0.227452        -6.1893
 122   1.0000      -0.226078        -6.1519
 123   1.0000      -0.219785        -5.9807
 124   1.0000      -0.215701        -5.8695
 125   1.0000      -0.211826        -5.7641
 126   1.0000      -0.207876        -5.6566
 127   0.0000      -0.178120        -4.8469
 128   0.0000      -0.175106        -4.7649
 129   0.0000      -0.157776        -4.2933
 130   0.0000      -0.132575        -3.6076
 131   0.0000      -0.115272        -3.1367

                 SPIN DOWN ORBITALS
  NO   OCC          E(Eh)            E(eV)
   0   1.0000    -215.302974     -5858.6918
   1   1.0000     -24.547686      -667.9765
   2   1.0000     -20.828443      -566.7707
   3   1.0000     -20.827420      -566.7429
   4   1.0000     -20.827251      -566.7383
   5   1.0000      -4.116578      -112.0178
   6   1.0000      -4.114427      -111.9592
   7   1.0000      -4.114266      -111.9549
   8   1.0000      -4.111063      -111.8677
   9   1.0000      -4.110931      -111.8641
  10   1.0000      -4.110674      -111.8571
  11   1.0000      -4.109689      -111.8303
  12   1.0000      -4.109323      -111.8204
  13   1.0000      -4.108894      -111.8087
  14   1.0000      -4.108854      -111.8076
  15   1.0000      -4.105324      -111.7115
  16   1.0000      -4.103955      -111.6743
  17   1.0000      -2.765784       -75.2608
  18   1.0000      -2.306898       -62.7739
  19   1.0000      -2.305600       -62.7386
  20   1.0000      -2.305221       -62.7283
  21   1.0000      -2.303708       -62.6871
  22   1.0000      -2.302923       -62.6657
  23   1.0000      -2.301546       -62.6283
  24   1.0000      -2.301315       -62.6220
  25   1.0000      -2.299889       -62.5832
  26   1.0000      -2.299627       -62.5760
  27   1.0000      -2.299091       -62.5614
  28   1.0000      -2.298728       -62.5516
  29   1.0000      -2.298622       -62.5487
  30   1.0000      -2.298085       -62.5341
  31   1.0000      -2.297676       -62.5229
  32   1.0000      -2.297586       -62.5205
  33   1.0000      -2.297430       -62.5162
  34   1.0000      -2.296956       -62.5034
  35   1.0000      -2.296888       -62.5015
  36   1.0000      -2.296106       -62.4802
  37   1.0000      -2.295401       -62.4610
  38   1.0000      -2.295279       -62.4577
  39   1.0000      -2.294085       -62.4252
  40   1.0000      -2.293881       -62.4197
  41   1.0000      -2.293689       -62.4145
  42   1.0000      -2.293174       -62.4004
  43   1.0000      -2.292491       -62.3818
  44   1.0000      -2.292224       -62.3746
  45   1.0000      -2.290608       -62.3306
  46   1.0000      -2.290353       -62.3237
  47   1.0000      -2.290058       -62.3156
  48   1.0000      -2.289988       -62.3137
  49   1.0000      -2.289541       -62.3016
  50   1.0000      -2.289355       -62.2965
  51   1.0000      -2.289110       -62.2899
  52   1.0000      -2.286759       -62.2259
  53   1.0000      -2.282141       -62.1002
  54   1.0000      -1.713395       -46.6238
  55   1.0000      -1.711649       -46.5763
  56   1.0000      -1.711510       -46.5725
  57   1.0000      -0.411940       -11.2095
  58   1.0000      -0.390397       -10.6232
  59   1.0000      -0.376342       -10.2408
  60   1.0000      -0.375263       -10.2114
  61   1.0000      -0.369640       -10.0584
  62   1.0000      -0.359881        -9.7929
  63   1.0000      -0.357152        -9.7186
  64   1.0000      -0.356644        -9.7048
  65   1.0000      -0.350237        -9.5304
  66   1.0000      -0.348348        -9.4790
  67   1.0000      -0.346918        -9.4401
  68   1.0000      -0.345762        -9.4087
  69   1.0000      -0.345321        -9.3967
  70   1.0000      -0.339349        -9.2341
  71   1.0000      -0.339172        -9.2293
  72   1.0000      -0.337369        -9.1803
  73   1.0000      -0.335170        -9.1204
  74   1.0000      -0.332145        -9.0381
  75   1.0000      -0.327361        -8.9080
  76   1.0000      -0.324674        -8.8348
  77   1.0000      -0.323862        -8.8127
  78   1.0000      -0.322822        -8.7844
  79   1.0000      -0.321737        -8.7549
  80   1.0000      -0.314251        -8.5512
  81   1.0000      -0.313263        -8.5243
  82   1.0000      -0.310476        -8.4485
  83   1.0000      -0.308131        -8.3847
  84   1.0000      -0.306397        -8.3375
  85   1.0000      -0.303851        -8.2682
  86   1.0000      -0.302713        -8.2372
  87   1.0000      -0.299233        -8.1425
  88   1.0000      -0.296183        -8.0595
  89   1.0000      -0.296056        -8.0561
  90   1.0000      -0.294854        -8.0234
  91   1.0000      -0.290957        -7.9173
  92   1.0000      -0.287998        -7.8368
  93   1.0000      -0.285802        -7.7771
  94   1.0000      -0.284092        -7.7305
  95   1.0000      -0.282877        -7.6975
  96   1.0000      -0.281404        -7.6574
  97   1.0000      -0.280865        -7.6427
  98   1.0000      -0.279594        -7.6081
  99   1.0000      -0.276087        -7.5127
 100   1.0000      -0.274738        -7.4760
 101   1.0000      -0.273767        -7.4496
 102   1.0000      -0.272261        -7.4086
 103   1.0000      -0.270839        -7.3699
 104   1.0000      -0.270671        -7.3653
 105   1.0000      -0.268214        -7.2985
 106   1.0000      -0.264319        -7.1925
 107   1.0000      -0.263083        -7.1588
 108   1.0000      -0.261996        -7.1293
 109   1.0000      -0.260367        -7.0849
 110   1.0000      -0.258336        -7.0297
 111   1.0000      -0.256135        -6.9698
 112   1.0000      -0.255390        -6.9495
 113   1.0000      -0.252631        -6.8744
 114   1.0000      -0.250557        -6.8180
 115   1.0000      -0.250247        -6.8096
 116   1.0000      -0.249522        -6.7898
 117   1.0000      -0.244824        -6.6620
 118   1.0000      -0.243970        -6.6388
 119   1.0000      -0.238836        -6.4991
 120   1.0000      -0.238594        -6.4925
 121   1.0000      -0.222942        -6.0666
 122   1.0000      -0.202756        -5.5173
 123   1.0000      -0.202166        -5.5012
 124   1.0000      -0.192525        -5.2389
 125   0.0000      -0.146570        -3.9884
 126   0.0000      -0.127556        -3.4710
 127   0.0000      -0.123054        -3.3485
 128   0.0000      -0.112384        -3.0581
 129   0.0000      -0.104012        -2.8303

MULLIKEN ATOMIC CHARGES AND SPIN POPULATIONS
--------------------------------------------
   0 Au:    0.261664   -0.137487
   1 Au:    0.281627   -0.144102
   2 Au:    0.143770   -0.101377
   3 Au:    0.200905   -0.186577
   4 Au:    0.500248   -0.135329
   5 Au:    0.113786    0.015942
   6 Au:    0.346779   -0.194705
   7 Au:    0.261177   -0.137120
   8 Au:   -0.415008   -0.123597
   9 Au:    0.405388   -0.014812
  10 Au:    0.143680   -0.099802
  11 Au:    0.195312   -0.186488
  12 Cr:   -2.439328    3.445455
Sum of atomic charges         :   -0.0000000

LOEWDIN ATOMIC CHARGES AND SPIN POPULATIONS
-------------------------------------------
   0 Au:    0.106791   -0.121779
   1 Au:    0.058611   -0.124199
   2 Au:    0.110890   -0.099935
   3 Au:   -0.001546   -0.136379
   4 Au:    0.119001   -0.115636
   5 Au:    0.143705   -0.030876
   6 Au:    0.084885   -0.139890
   7 Au:    0.107249   -0.121418
   8 Au:   -0.044450   -0.073016
   9 Au:    0.138149   -0.048314
  10 Au:    0.111452   -0.099452
  11 Au:   -0.002407   -0.135604
  12 Cr:   -0.932330    3.246497

  Mayer bond orders larger than 0.100000
B(  0-Au,  4-Au) :   0.1575 B(  0-Au,  6-Au) :   0.2020 B(  0-Au, 10-Au) :   0.3586
B(  0-Au, 12-Cr) :   0.5838 B(  1-Au,  3-Au) :   0.2206 B(  1-Au,  4-Au) :   0.2454
B(  1-Au, 11-Au) :   0.2180 B(  1-Au, 12-Cr) :   0.6037 B(  2-Au,  3-Au) :   0.3235
B(  2-Au,  7-Au) :   0.3590 B(  2-Au, 12-Cr) :   0.6453 B(  3-Au,  8-Au) :   0.2024
B(  3-Au,  9-Au) :   0.3165 B(  3-Au, 11-Au) :   0.1504 B(  3-Au, 12-Cr) :   0.3107
B(  4-Au,  7-Au) :   0.1617 B(  4-Au, 12-Cr) :   0.9398 B(  5-Au,  6-Au) :   0.2496
B(  5-Au,  8-Au) :   0.7166 B(  5-Au, 12-Cr) :   0.6155 B(  6-Au,  7-Au) :   0.2001
B(  6-Au, 12-Cr) :   0.4957 B(  7-Au, 12-Cr) :   0.5830 B(  8-Au,  9-Au) :   0.4387
B(  8-Au, 11-Au) :   0.2038 B(  8-Au, 12-Cr) :   0.4577 B(  9-Au, 11-Au) :   0.3205
B( 10-Au, 11-Au) :   0.3247 B( 10-Au, 12-Cr) :   0.6444 B( 11-Au, 12-Cr) :   0.3128

FINAL SINGLE POINT ENERGY     -2674.579728826630

DIPOLE MOMENT
-------------
                                X             Y             Z
Electronic contribution:      8.53424      28.68974      -8.58863
Nuclear contribution   :     -8.56523     -28.75549       8.53865
                        -----------------------------------------
Total Dipole Moment    :     -0.03098      -0.06575      -0.04998
                        -----------------------------------------
Magnitude (a.u.)       :      0.08821
Magnitude (Debye)      :      0.22422

Rotational constants in cm-1:     0.001758     0.000981     0.000976
Rotational constants in MHz :    52.692230    29.402657    29.266823

                             ****ORCA TERMINATED NORMALLY****
TOTAL RUN TIME: 0 days 0 hours 19 minutes 53 seconds 992 msec
