                         Program Version 5.0.3 -  RELEASE  -
|  1> !RI-B2PLYP def2-TZVP def2-TZVP/C
|  2> !RIJCOSX VERYSLOWCONV
|  3>
|  4> %scf
|  5>   AutoTRAHIter 200
|  6>   maxiter 400
|  7> end
|  8>
|  9>
| 10> %pal nprocs 6 end
| 11>
| 12> *xyzfile 0 5 pbe.xyz
| 13>
| 14> $new_job
| 15>
| 16> !RI-B2PLYP def2-TZVP def2-TZVP/C
| 17> !RIJCOSX VERYSLOWCONV
| 18>
| 19> %scf
| 20>   AutoTRAHIter 200
| 21>   maxiter 400
| 22> end
| 23>
| 24>
| 25> %pal nprocs 6 end
| 26>
| 27> *xyzfile 0 3 pbe.xyz
| 28>
| 29>
| 30>
| 31>
| 32>
| 33>                          ****END OF INPUT****
 Total Charge           Charge          ....    0
 Multiplicity           Mult            ....    5
 Number of Electrons    NEL             ....  254
MP2 TOTAL ENERGY:    -2890.529169588 Eh
FINAL SINGLE POINT ENERGY     -2890.529169588357

CARTESIAN COORDINATES (ANGSTROEM)
---------------------------------
  Au     8.264599    9.367137    7.574941
  Au     6.726181    9.563667    2.701539
  Au     7.885634    7.438359    3.980912
  Au     7.067436   10.227403    5.387282
  Au     4.310427    8.986876    6.560550
  Au     4.514166   10.531455    4.310859
  Au     5.064247    7.781743    4.100229
  Au     8.148163    5.613481    5.960077
  Au     6.431637    4.521173    7.941059
  Au     5.263444    5.582960    5.677193
  Au     5.013579    6.966267    8.214927
  Au     7.863900    6.862186    8.525623
  Fe     6.659324    7.778560    6.307192

 Multiplicity           Mult            ....    3
 Number of Electrons    NEL             ....  254
 Basis Dimension        Dim             ....  525

ORBITAL ENERGIES
----------------
                 SPIN UP ORBITALS
  NO   OCC          E(Eh)            E(eV)
   0   1.0000    -258.333145     -7029.6023
   1   1.0000     -30.894893      -840.6928
   2   1.0000     -26.610360      -724.1047
   3   1.0000     -26.592914      -723.6300
   4   1.0000     -26.575513      -723.1565
   5   1.0000      -4.400866      -119.7537
   6   1.0000      -4.400399      -119.7409
   7   1.0000      -4.400361      -119.7399
   8   1.0000      -4.397542      -119.6632
   9   1.0000      -4.397350      -119.6580
  10   1.0000      -4.396427      -119.6329
  11   1.0000      -4.396292      -119.6292
  12   1.0000      -4.395097      -119.5967
  13   1.0000      -4.394833      -119.5895
  14   1.0000      -4.393416      -119.5509
  15   1.0000      -4.384581      -119.3105
  16   1.0000      -4.384458      -119.3072
  17   1.0000      -3.907272      -106.3223
  18   1.0000      -2.650956       -72.1362
  19   1.0000      -2.615921       -71.1828
  20   1.0000      -2.579946       -70.2039
  21   1.0000      -2.523933       -68.6797
  22   1.0000      -2.523722       -68.6740
  23   1.0000      -2.520628       -68.5898
  24   1.0000      -2.519936       -68.5709
  25   1.0000      -2.519849       -68.5686
  26   1.0000      -2.519319       -68.5541
  27   1.0000      -2.518769       -68.5392
  28   1.0000      -2.518565       -68.5336
  29   1.0000      -2.517546       -68.5059
  30   1.0000      -2.517407       -68.5021
  31   1.0000      -2.516347       -68.4733
  32   1.0000      -2.516220       -68.4698
  33   1.0000      -2.516058       -68.4654
  34   1.0000      -2.515294       -68.4446
  35   1.0000      -2.514555       -68.4245
  36   1.0000      -2.514542       -68.4242
  37   1.0000      -2.514068       -68.4113
  38   1.0000      -2.514050       -68.4108
  39   1.0000      -2.512652       -68.3727
  40   1.0000      -2.512117       -68.3582
  41   1.0000      -2.510803       -68.3224
  42   1.0000      -2.510391       -68.3112
  43   1.0000      -2.510205       -68.3062
  44   1.0000      -2.509933       -68.2987
  45   1.0000      -2.509701       -68.2924
  46   1.0000      -2.509320       -68.2821
  47   1.0000      -2.508650       -68.2638
  48   1.0000      -2.508581       -68.2620
  49   1.0000      -2.508018       -68.2466
  50   1.0000      -2.506789       -68.2132
  51   1.0000      -2.502558       -68.0981
  52   1.0000      -2.502442       -68.0949
  53   1.0000      -2.502143       -68.0868
  54   1.0000      -2.500123       -68.0318
  55   1.0000      -2.499722       -68.0209
  56   1.0000      -2.499198       -68.0066
  57   1.0000      -0.556727       -15.1493
  58   1.0000      -0.554987       -15.1020
  59   1.0000      -0.542819       -14.7708
  60   1.0000      -0.535184       -14.5631
  61   1.0000      -0.504093       -13.7171
  62   1.0000      -0.502245       -13.6668
  63   1.0000      -0.470077       -12.7914
  64   1.0000      -0.463449       -12.6111
  65   1.0000      -0.459321       -12.4988
  66   1.0000      -0.458379       -12.4731
  67   1.0000      -0.456427       -12.4200
  68   1.0000      -0.449291       -12.2258
  69   1.0000      -0.448927       -12.2159
  70   1.0000      -0.445363       -12.1189
  71   1.0000      -0.445195       -12.1144
  72   1.0000      -0.440650       -11.9907
  73   1.0000      -0.438599       -11.9349
  74   1.0000      -0.438312       -11.9271
  75   1.0000      -0.435629       -11.8541
  76   1.0000      -0.435164       -11.8414
  77   1.0000      -0.434281       -11.8174
  78   1.0000      -0.429435       -11.6855
  79   1.0000      -0.425866       -11.5884
  80   1.0000      -0.420365       -11.4387
  81   1.0000      -0.418915       -11.3993
  82   1.0000      -0.415288       -11.3006
  83   1.0000      -0.411780       -11.2051
  84   1.0000      -0.408937       -11.1277
  85   1.0000      -0.407589       -11.0911
  86   1.0000      -0.403128       -10.9697
  87   1.0000      -0.396009       -10.7760
  88   1.0000      -0.394808       -10.7433
  89   1.0000      -0.394491       -10.7347
  90   1.0000      -0.390592       -10.6285
  91   1.0000      -0.390046       -10.6137
  92   1.0000      -0.386600       -10.5199
  93   1.0000      -0.386369       -10.5136
  94   1.0000      -0.385436       -10.4883
  95   1.0000      -0.378966       -10.3122
  96   1.0000      -0.376459       -10.2440
  97   1.0000      -0.375991       -10.2312
  98   1.0000      -0.373838       -10.1727
  99   1.0000      -0.371852       -10.1186
 100   1.0000      -0.370636       -10.0855
 101   1.0000      -0.368644       -10.0313
 102   1.0000      -0.367835       -10.0093
 103   1.0000      -0.365640        -9.9496
 104   1.0000      -0.362931        -9.8758
 105   1.0000      -0.361387        -9.8338
 106   1.0000      -0.360514        -9.8101
 107   1.0000      -0.360459        -9.8086
 108   1.0000      -0.359733        -9.7888
 109   1.0000      -0.359199        -9.7743
 110   1.0000      -0.357340        -9.7237
 111   1.0000      -0.354524        -9.6471
 112   1.0000      -0.351977        -9.5778
 113   1.0000      -0.348959        -9.4956
 114   1.0000      -0.348547        -9.4844
 115   1.0000      -0.348347        -9.4790
 116   1.0000      -0.337469        -9.1830
 117   1.0000      -0.337305        -9.1785
 118   1.0000      -0.336126        -9.1464
 119   1.0000      -0.333325        -9.0702
 120   1.0000      -0.328733        -8.9453
 121   1.0000      -0.326594        -8.8871
 122   1.0000      -0.322893        -8.7864
 123   1.0000      -0.317191        -8.6312
 124   1.0000      -0.279280        -7.5996
 125   1.0000      -0.278510        -7.5786
 126   1.0000      -0.241743        -6.5782
 127   1.0000      -0.210300        -5.7226
 128   0.0000      -0.120680        -3.2839
 129   0.0000      -0.109349        -2.9755
 130   0.0000      -0.075285        -2.0486
 131   0.0000      -0.068906        -1.8750
 132   0.0000      -0.063301        -1.7225

                 SPIN DOWN ORBITALS
  NO   OCC          E(Eh)            E(eV)
   0   1.0000    -258.331102     -7029.5467
   1   1.0000     -30.803023      -838.1929
   2   1.0000     -26.513690      -721.4742
   3   1.0000     -26.509123      -721.3499
   4   1.0000     -26.504388      -721.2211
   5   1.0000      -4.402037      -119.7855
   6   1.0000      -4.401255      -119.7642
   7   1.0000      -4.400295      -119.7381
   8   1.0000      -4.397745      -119.6687
   9   1.0000      -4.397562      -119.6637
  10   1.0000      -4.396807      -119.6432
  11   1.0000      -4.396717      -119.6408
  12   1.0000      -4.396402      -119.6322
  13   1.0000      -4.394873      -119.5906
  14   1.0000      -4.394295      -119.5749
  15   1.0000      -4.385100      -119.3246
  16   1.0000      -4.384971      -119.3211
  17   1.0000      -3.664976       -99.7291
  18   1.0000      -2.524306       -68.6899
  19   1.0000      -2.522783       -68.6484
  20   1.0000      -2.519938       -68.5710
  21   1.0000      -2.519385       -68.5560
  22   1.0000      -2.519310       -68.5539
  23   1.0000      -2.519064       -68.5472
  24   1.0000      -2.518810       -68.5403
  25   1.0000      -2.518174       -68.5230
  26   1.0000      -2.517960       -68.5172
  27   1.0000      -2.517065       -68.4928
  28   1.0000      -2.515894       -68.4610
  29   1.0000      -2.515828       -68.4592
  30   1.0000      -2.515293       -68.4446
  31   1.0000      -2.515028       -68.4374
  32   1.0000      -2.514189       -68.4146
  33   1.0000      -2.514117       -68.4126
  34   1.0000      -2.513573       -68.3978
  35   1.0000      -2.513537       -68.3968
  36   1.0000      -2.512910       -68.3798
  37   1.0000      -2.512738       -68.3751
  38   1.0000      -2.511650       -68.3455
  39   1.0000      -2.511291       -68.3357
  40   1.0000      -2.510934       -68.3260
  41   1.0000      -2.510649       -68.3182
  42   1.0000      -2.510386       -68.3111
  43   1.0000      -2.510246       -68.3073
  44   1.0000      -2.509866       -68.2969
  45   1.0000      -2.509093       -68.2759
  46   1.0000      -2.508824       -68.2686
  47   1.0000      -2.505424       -68.1761
  48   1.0000      -2.503528       -68.1245
  49   1.0000      -2.503115       -68.1132
  50   1.0000      -2.502220       -68.0889
  51   1.0000      -2.501108       -68.0586
  52   1.0000      -2.500880       -68.0524
  53   1.0000      -2.499741       -68.0214
  54   1.0000      -2.346528       -63.8523
  55   1.0000      -2.339907       -63.6721
  56   1.0000      -2.330409       -63.4137
  57   1.0000      -0.501253       -13.6398
  58   1.0000      -0.476742       -12.9728
  59   1.0000      -0.473090       -12.8734
  60   1.0000      -0.468724       -12.7546
  61   1.0000      -0.462233       -12.5780
  62   1.0000      -0.461032       -12.5453
  63   1.0000      -0.457084       -12.4379
  64   1.0000      -0.455812       -12.4033
  65   1.0000      -0.455142       -12.3850
  66   1.0000      -0.450476       -12.2581
  67   1.0000      -0.446891       -12.1605
  68   1.0000      -0.444506       -12.0956
  69   1.0000      -0.442218       -12.0334
  70   1.0000      -0.441763       -12.0210
  71   1.0000      -0.440568       -11.9885
  72   1.0000      -0.437693       -11.9102
  73   1.0000      -0.432459       -11.7678
  74   1.0000      -0.431225       -11.7342
  75   1.0000      -0.430753       -11.7214
  76   1.0000      -0.425713       -11.5842
  77   1.0000      -0.423395       -11.5212
  78   1.0000      -0.418205       -11.3799
  79   1.0000      -0.417494       -11.3606
  80   1.0000      -0.413575       -11.2540
  81   1.0000      -0.412138       -11.2149
  82   1.0000      -0.410620       -11.1736
  83   1.0000      -0.400143       -10.8884
  84   1.0000      -0.398239       -10.8366
  85   1.0000      -0.397516       -10.8170
  86   1.0000      -0.396002       -10.7758
  87   1.0000      -0.393949       -10.7199
  88   1.0000      -0.391167       -10.6442
  89   1.0000      -0.389886       -10.6093
  90   1.0000      -0.383746       -10.4423
  91   1.0000      -0.383329       -10.4309
  92   1.0000      -0.381906       -10.3922
  93   1.0000      -0.378249       -10.2927
  94   1.0000      -0.378077       -10.2880
  95   1.0000      -0.374665       -10.1951
  96   1.0000      -0.374116       -10.1802
  97   1.0000      -0.370385       -10.0787
  98   1.0000      -0.369734       -10.0610
  99   1.0000      -0.366797        -9.9811
 100   1.0000      -0.364145        -9.9089
 101   1.0000      -0.363301        -9.8859
 102   1.0000      -0.361907        -9.8480
 103   1.0000      -0.361851        -9.8465
 104   1.0000      -0.360101        -9.7989
 105   1.0000      -0.358516        -9.7557
 106   1.0000      -0.357055        -9.7160
 107   1.0000      -0.355886        -9.6841
 108   1.0000      -0.354172        -9.6375
 109   1.0000      -0.350871        -9.5477
 110   1.0000      -0.350341        -9.5333
 111   1.0000      -0.341903        -9.3037
 112   1.0000      -0.341802        -9.3009
 113   1.0000      -0.339955        -9.2507
 114   1.0000      -0.337774        -9.1913
 115   1.0000      -0.334352        -9.0982
 116   1.0000      -0.331670        -9.0252
 117   1.0000      -0.326810        -8.8929
 118   1.0000      -0.325132        -8.8473
 119   1.0000      -0.319318        -8.6891
 120   1.0000      -0.302255        -8.2248
 121   1.0000      -0.294336        -8.0093
 122   1.0000      -0.249716        -6.7951
 123   1.0000      -0.224267        -6.1026
 124   1.0000      -0.219811        -5.9814
 125   1.0000      -0.207021        -5.6333
 126   0.0000      -0.080192        -2.1821
 127   0.0000      -0.074218        -2.0196
 128   0.0000      -0.067396        -1.8339
 129   0.0000      -0.050048        -1.3619
 130   0.0000      -0.049698        -1.3524

MULLIKEN ATOMIC CHARGES AND SPIN POPULATIONS
--------------------------------------------
   0 Au:    0.201173   -0.079713
   1 Au:    0.292301    0.028155
   2 Au:    0.020340   -0.108919
   3 Au:   -0.049890   -0.266800
   4 Au:    0.022399   -0.108718
   5 Au:    0.290426    0.029539
   6 Au:    0.014214   -0.298419
   7 Au:    0.096609   -0.038573
   8 Au:    0.321156   -0.113446
   9 Au:    0.122580   -0.298586
  10 Au:    0.095124   -0.037327
  11 Au:    0.166997   -0.343354
  12 Fe:   -1.593430    3.636161
Sum of atomic charges         :   -0.0000000

LOEWDIN ATOMIC CHARGES AND SPIN POPULATIONS
-------------------------------------------
   0 Au:    0.131117   -0.187285
   1 Au:    0.051053   -0.024620
   2 Au:    0.032203   -0.100256
   3 Au:   -0.062569   -0.136281
   4 Au:    0.032675   -0.099549
   5 Au:    0.050343   -0.023636
   6 Au:   -0.072434   -0.176473
   7 Au:    0.019653   -0.104951
   8 Au:    0.076756   -0.105812
   9 Au:    0.026280   -0.207325
  10 Au:    0.019516   -0.104143
  11 Au:   -0.023085   -0.213866
  12 Fe:   -0.281507    3.484197

  Mayer bond orders larger than 0.100000
B(  0-Au,  3-Au) :   0.3825 B(  0-Au, 11-Au) :   0.2529 B(  0-Au, 12-Fe) :   0.5644
B(  1-Au,  2-Au) :   0.4071 B(  1-Au,  3-Au) :   0.2746 B(  1-Au,  6-Au) :   0.2483
B(  2-Au,  6-Au) :   0.1535 B(  2-Au,  7-Au) :   0.3313 B(  2-Au, 12-Fe) :   0.5370
B(  3-Au,  5-Au) :   0.2726 B(  3-Au,  6-Au) :   0.1260 B(  3-Au, 12-Fe) :   0.4120
B(  4-Au,  5-Au) :   0.4086 B(  4-Au,  6-Au) :   0.1557 B(  4-Au, 10-Au) :   0.3304
B(  4-Au, 12-Fe) :   0.5350 B(  5-Au,  6-Au) :   0.2476 B(  6-Au,  9-Au) :   0.3550
B(  6-Au, 12-Fe) :   0.3309 B(  7-Au,  8-Au) :   0.2077 B(  7-Au,  9-Au) :   0.1308
B(  7-Au, 11-Au) :   0.1362 B(  7-Au, 12-Fe) :   0.4779 B(  8-Au,  9-Au) :   0.2798
B(  8-Au, 10-Au) :   0.2075 B(  8-Au, 11-Au) :   0.2392 B(  9-Au, 10-Au) :   0.1291
B(  9-Au, 12-Fe) :   0.4634 B( 10-Au, 11-Au) :   0.1356 B( 10-Au, 12-Fe) :   0.4826
B( 11-Au, 12-Fe) :   0.3372

MP2 TOTAL ENERGY:    -2890.520549457 Eh
FINAL SINGLE POINT ENERGY     -2890.520549456977

DIPOLE MOMENT
-------------
                                X             Y             Z
Electronic contribution:    -10.62527       0.14181     -14.93084
Nuclear contribution   :     10.64998      -0.31708      15.06613
                        -----------------------------------------
Total Dipole Moment    :      0.02471      -0.17527       0.13530
                        -----------------------------------------
Magnitude (a.u.)       :      0.22279
Magnitude (Debye)      :      0.56629

Rotational constants in cm-1:     0.001839     0.001031     0.001025
Rotational constants in MHz :    55.131531    30.894425    30.726366

                             ****ORCA TERMINATED NORMALLY****
TOTAL RUN TIME: 0 days 1 hours 30 minutes 43 seconds 718 msec
