                         Program Version 5.0.3 -  RELEASE  -
|  1> !PBE def2-TZVP VERYSLOWCONV
|  2>
|  3> %scf
|  4>   AutoTRAHIter 200
|  5>   maxiter 400
|  6> end
|  7>
|  8>
|  9> %pal nprocs 6 end
| 10>
| 11> *xyzfile 0 5 pbe.xyz
| 12>
| 13> $new_job
| 14>
| 15> !PBE def2-TZVP VERYSLOWCONV
| 16>
| 17> %scf
| 18>   AutoTRAHIter 200
| 19>   maxiter 400
| 20> end
| 21>
| 22>
| 23> %pal nprocs 6 end
| 24>
| 25> *xyzfile 0 3 pbe.xyz
| 26>
| 27>
| 28>
| 29>
| 30>
| 31>                          ****END OF INPUT****
 Total Charge           Charge          ....    0
 Multiplicity           Mult            ....    5
 Number of Electrons    NEL             ....  254
FINAL SINGLE POINT ENERGY     -2893.397139894534

CARTESIAN COORDINATES (ANGSTROEM)
---------------------------------
  Au     8.264599    9.367137    7.574941
  Au     6.726181    9.563667    2.701539
  Au     7.885634    7.438359    3.980912
  Au     7.067436   10.227403    5.387282
  Au     4.310427    8.986876    6.560550
  Au     4.514166   10.531455    4.310859
  Au     5.064247    7.781743    4.100229
  Au     8.148163    5.613481    5.960077
  Au     6.431637    4.521173    7.941059
  Au     5.263444    5.582960    5.677193
  Au     5.013579    6.966267    8.214927
  Au     7.863900    6.862186    8.525623
  Fe     6.659324    7.778560    6.307192

 Multiplicity           Mult            ....    3
 Number of Electrons    NEL             ....  254
 Basis Dimension        Dim             ....  525

ORBITAL ENERGIES
----------------
                 SPIN UP ORBITALS
  NO   OCC          E(Eh)            E(eV)
   0   1.0000    -254.747073     -6932.0203
   1   1.0000     -29.584622      -805.0385
   2   1.0000     -25.535560      -694.8579
   3   1.0000     -25.513523      -694.2583
   4   1.0000     -25.512099      -694.2195
   5   1.0000      -4.031454      -109.7014
   6   1.0000      -4.031054      -109.6905
   7   1.0000      -4.026330      -109.5620
   8   1.0000      -4.024945      -109.5243
   9   1.0000      -4.023157      -109.4757
  10   1.0000      -4.022956      -109.4702
  11   1.0000      -4.021580      -109.4328
  12   1.0000      -4.021444      -109.4291
  13   1.0000      -4.020685      -109.4084
  14   1.0000      -4.017197      -109.3135
  15   1.0000      -4.016198      -109.2863
  16   1.0000      -4.015972      -109.2802
  17   1.0000      -3.359625       -91.4200
  18   1.0000      -2.250090       -61.2281
  19   1.0000      -2.248443       -61.1832
  20   1.0000      -2.244618       -61.0792
  21   1.0000      -2.244021       -61.0629
  22   1.0000      -2.243119       -61.0384
  23   1.0000      -2.241962       -61.0069
  24   1.0000      -2.241550       -60.9957
  25   1.0000      -2.241434       -60.9925
  26   1.0000      -2.241033       -60.9816
  27   1.0000      -2.240927       -60.9787
  28   1.0000      -2.240068       -60.9554
  29   1.0000      -2.238355       -60.9087
  30   1.0000      -2.237670       -60.8901
  31   1.0000      -2.237140       -60.8757
  32   1.0000      -2.236770       -60.8656
  33   1.0000      -2.236579       -60.8604
  34   1.0000      -2.235939       -60.8430
  35   1.0000      -2.235741       -60.8376
  36   1.0000      -2.234876       -60.8141
  37   1.0000      -2.234494       -60.8037
  38   1.0000      -2.234337       -60.7994
  39   1.0000      -2.233604       -60.7795
  40   1.0000      -2.233119       -60.7663
  41   1.0000      -2.232745       -60.7561
  42   1.0000      -2.232013       -60.7362
  43   1.0000      -2.230846       -60.7044
  44   1.0000      -2.230397       -60.6922
  45   1.0000      -2.230159       -60.6857
  46   1.0000      -2.229865       -60.6777
  47   1.0000      -2.229642       -60.6716
  48   1.0000      -2.228495       -60.6404
  49   1.0000      -2.228398       -60.6378
  50   1.0000      -2.228217       -60.6329
  51   1.0000      -2.227423       -60.6113
  52   1.0000      -2.226912       -60.5974
  53   1.0000      -2.221491       -60.4499
  54   1.0000      -2.204480       -59.9870
  55   1.0000      -2.158920       -58.7472
  56   1.0000      -2.156058       -58.6693
  57   1.0000      -0.420234       -11.4351
  58   1.0000      -0.388622       -10.5749
  59   1.0000      -0.374719       -10.1966
  60   1.0000      -0.368517       -10.0279
  61   1.0000      -0.367629       -10.0037
  62   1.0000      -0.365599        -9.9485
  63   1.0000      -0.360316        -9.8047
  64   1.0000      -0.357496        -9.7280
  65   1.0000      -0.355927        -9.6853
  66   1.0000      -0.349985        -9.5236
  67   1.0000      -0.343941        -9.3591
  68   1.0000      -0.342091        -9.3088
  69   1.0000      -0.337288        -9.1781
  70   1.0000      -0.336833        -9.1657
  71   1.0000      -0.335474        -9.1287
  72   1.0000      -0.333848        -9.0845
  73   1.0000      -0.332752        -9.0547
  74   1.0000      -0.331213        -9.0128
  75   1.0000      -0.329989        -8.9795
  76   1.0000      -0.328050        -8.9267
  77   1.0000      -0.325041        -8.8448
  78   1.0000      -0.319245        -8.6871
  79   1.0000      -0.315451        -8.5839
  80   1.0000      -0.313291        -8.5251
  81   1.0000      -0.312416        -8.5013
  82   1.0000      -0.310599        -8.4518
  83   1.0000      -0.305188        -8.3046
  84   1.0000      -0.304093        -8.2748
  85   1.0000      -0.297975        -8.1083
  86   1.0000      -0.297679        -8.1003
  87   1.0000      -0.295924        -8.0525
  88   1.0000      -0.291415        -7.9298
  89   1.0000      -0.289439        -7.8760
  90   1.0000      -0.288137        -7.8406
  91   1.0000      -0.286841        -7.8053
  92   1.0000      -0.284977        -7.7546
  93   1.0000      -0.282072        -7.6756
  94   1.0000      -0.276887        -7.5345
  95   1.0000      -0.276573        -7.5259
  96   1.0000      -0.274679        -7.4744
  97   1.0000      -0.271643        -7.3918
  98   1.0000      -0.271328        -7.3832
  99   1.0000      -0.270307        -7.3554
 100   1.0000      -0.269743        -7.3401
 101   1.0000      -0.267457        -7.2779
 102   1.0000      -0.264288        -7.1916
 103   1.0000      -0.262326        -7.1383
 104   1.0000      -0.261799        -7.1239
 105   1.0000      -0.261441        -7.1142
 106   1.0000      -0.260104        -7.0778
 107   1.0000      -0.259889        -7.0719
 108   1.0000      -0.259101        -7.0505
 109   1.0000      -0.258476        -7.0335
 110   1.0000      -0.253468        -6.8972
 111   1.0000      -0.253265        -6.8917
 112   1.0000      -0.251528        -6.8444
 113   1.0000      -0.248672        -6.7667
 114   1.0000      -0.248032        -6.7493
 115   1.0000      -0.245267        -6.6741
 116   1.0000      -0.245239        -6.6733
 117   1.0000      -0.242461        -6.5977
 118   1.0000      -0.241835        -6.5807
 119   1.0000      -0.239404        -6.5145
 120   1.0000      -0.238990        -6.5032
 121   1.0000      -0.236562        -6.4372
 122   1.0000      -0.233338        -6.3494
 123   1.0000      -0.232268        -6.3203
 124   1.0000      -0.229012        -6.2317
 125   1.0000      -0.221892        -6.0380
 126   1.0000      -0.219756        -5.9799
 127   1.0000      -0.192538        -5.2392
 128   0.0000      -0.185431        -5.0458
 129   0.0000      -0.172786        -4.7017
 130   0.0000      -0.138521        -3.7693
 131   0.0000      -0.133583        -3.6350
 132   0.0000      -0.127226        -3.4620

                 SPIN DOWN ORBITALS
  NO   OCC          E(Eh)            E(eV)
   0   1.0000    -254.746418     -6932.0025
   1   1.0000     -29.530395      -803.5629
   2   1.0000     -25.486941      -693.5349
   3   1.0000     -25.476255      -693.2441
   4   1.0000     -25.475153      -693.2141
   5   1.0000      -4.031356      -109.6988
   6   1.0000      -4.029878      -109.6585
   7   1.0000      -4.026154      -109.5572
   8   1.0000      -4.025072      -109.5278
   9   1.0000      -4.023312      -109.4799
  10   1.0000      -4.023140      -109.4752
  11   1.0000      -4.021588      -109.4330
  12   1.0000      -4.021543      -109.4317
  13   1.0000      -4.021251      -109.4238
  14   1.0000      -4.017234      -109.3145
  15   1.0000      -4.016683      -109.2995
  16   1.0000      -4.016452      -109.2932
  17   1.0000      -3.236521       -88.0702
  18   1.0000      -2.248532       -61.1857
  19   1.0000      -2.248335       -61.1803
  20   1.0000      -2.243666       -61.0533
  21   1.0000      -2.243051       -61.0365
  22   1.0000      -2.242731       -61.0278
  23   1.0000      -2.242204       -61.0135
  24   1.0000      -2.241634       -60.9980
  25   1.0000      -2.241166       -60.9852
  26   1.0000      -2.241010       -60.9810
  27   1.0000      -2.240499       -60.9671
  28   1.0000      -2.239749       -60.9467
  29   1.0000      -2.237696       -60.8908
  30   1.0000      -2.237309       -60.8803
  31   1.0000      -2.236866       -60.8682
  32   1.0000      -2.236684       -60.8633
  33   1.0000      -2.236395       -60.8554
  34   1.0000      -2.235412       -60.8287
  35   1.0000      -2.235315       -60.8260
  36   1.0000      -2.235023       -60.8181
  37   1.0000      -2.234790       -60.8117
  38   1.0000      -2.234741       -60.8104
  39   1.0000      -2.234383       -60.8007
  40   1.0000      -2.233220       -60.7690
  41   1.0000      -2.233192       -60.7683
  42   1.0000      -2.232288       -60.7436
  43   1.0000      -2.231749       -60.7290
  44   1.0000      -2.231210       -60.7143
  45   1.0000      -2.230794       -60.7030
  46   1.0000      -2.230359       -60.6911
  47   1.0000      -2.229842       -60.6771
  48   1.0000      -2.229031       -60.6550
  49   1.0000      -2.228952       -60.6529
  50   1.0000      -2.228758       -60.6476
  51   1.0000      -2.228155       -60.6312
  52   1.0000      -2.227509       -60.6136
  53   1.0000      -2.221411       -60.4477
  54   1.0000      -2.061479       -56.0957
  55   1.0000      -2.049983       -55.7829
  56   1.0000      -2.047163       -55.7061
  57   1.0000      -0.417221       -11.3531
  58   1.0000      -0.388289       -10.5659
  59   1.0000      -0.371367       -10.1054
  60   1.0000      -0.368371       -10.0239
  61   1.0000      -0.367838       -10.0094
  62   1.0000      -0.362403        -9.8615
  63   1.0000      -0.356735        -9.7073
  64   1.0000      -0.352805        -9.6003
  65   1.0000      -0.351570        -9.5667
  66   1.0000      -0.347780        -9.4636
  67   1.0000      -0.342428        -9.3179
  68   1.0000      -0.339942        -9.2503
  69   1.0000      -0.337605        -9.1867
  70   1.0000      -0.337416        -9.1816
  71   1.0000      -0.335100        -9.1185
  72   1.0000      -0.332794        -9.0558
  73   1.0000      -0.332311        -9.0426
  74   1.0000      -0.327215        -8.9040
  75   1.0000      -0.325099        -8.8464
  76   1.0000      -0.322286        -8.7698
  77   1.0000      -0.320924        -8.7328
  78   1.0000      -0.316667        -8.6170
  79   1.0000      -0.313305        -8.5255
  80   1.0000      -0.313128        -8.5207
  81   1.0000      -0.311428        -8.4744
  82   1.0000      -0.309528        -8.4227
  83   1.0000      -0.304424        -8.2838
  84   1.0000      -0.300696        -8.1823
  85   1.0000      -0.294806        -8.0221
  86   1.0000      -0.293661        -7.9909
  87   1.0000      -0.292164        -7.9502
  88   1.0000      -0.291296        -7.9266
  89   1.0000      -0.288700        -7.8559
  90   1.0000      -0.287113        -7.8127
  91   1.0000      -0.285163        -7.7597
  92   1.0000      -0.282550        -7.6886
  93   1.0000      -0.280577        -7.6349
  94   1.0000      -0.275851        -7.5063
  95   1.0000      -0.275532        -7.4976
  96   1.0000      -0.274945        -7.4816
  97   1.0000      -0.271448        -7.3865
  98   1.0000      -0.271151        -7.3784
  99   1.0000      -0.270934        -7.3725
 100   1.0000      -0.270214        -7.3529
 101   1.0000      -0.267152        -7.2696
 102   1.0000      -0.264254        -7.1907
 103   1.0000      -0.262863        -7.1529
 104   1.0000      -0.262824        -7.1518
 105   1.0000      -0.262176        -7.1342
 106   1.0000      -0.260146        -7.0789
 107   1.0000      -0.260126        -7.0784
 108   1.0000      -0.258675        -7.0389
 109   1.0000      -0.255241        -6.9455
 110   1.0000      -0.254002        -6.9117
 111   1.0000      -0.252314        -6.8658
 112   1.0000      -0.251425        -6.8416
 113   1.0000      -0.247248        -6.7280
 114   1.0000      -0.246579        -6.7097
 115   1.0000      -0.246173        -6.6987
 116   1.0000      -0.241779        -6.5791
 117   1.0000      -0.241698        -6.5769
 118   1.0000      -0.239212        -6.5093
 119   1.0000      -0.236290        -6.4298
 120   1.0000      -0.235490        -6.4080
 121   1.0000      -0.224344        -6.1047
 122   1.0000      -0.202530        -5.5111
 123   1.0000      -0.200286        -5.4501
 124   1.0000      -0.193534        -5.2663
 125   1.0000      -0.171049        -4.6545
 126   0.0000      -0.162963        -4.4344
 127   0.0000      -0.154257        -4.1975
 128   0.0000      -0.153222        -4.1694
 129   0.0000      -0.137069        -3.7298
 130   0.0000      -0.132476        -3.6049

MULLIKEN ATOMIC CHARGES AND SPIN POPULATIONS
--------------------------------------------
   0 Au:    0.225186   -0.072638
   1 Au:    0.319128    0.034474
   2 Au:    0.059713   -0.072357
   3 Au:    0.002483   -0.118102
   4 Au:    0.061427   -0.062129
   5 Au:    0.317212    0.041800
   6 Au:    0.033949   -0.142261
   7 Au:    0.143857   -0.012919
   8 Au:    0.350748   -0.059266
   9 Au:    0.116638   -0.179750
  10 Au:    0.142949   -0.019913
  11 Au:    0.224825   -0.187496
  12 Fe:   -1.998114    2.850556
Sum of atomic charges         :   -0.0000000

LOEWDIN ATOMIC CHARGES AND SPIN POPULATIONS
-------------------------------------------
   0 Au:    0.158841   -0.136612
   1 Au:    0.046715   -0.005482
   2 Au:    0.065235   -0.065523
   3 Au:   -0.010476   -0.045335
   4 Au:    0.065617   -0.059168
   5 Au:    0.045022   -0.000405
   6 Au:   -0.027761   -0.078879
   7 Au:    0.053012   -0.060926
   8 Au:    0.061023   -0.071695
   9 Au:    0.055294   -0.127754
  10 Au:    0.053394   -0.064358
  11 Au:    0.026159   -0.120102
  12 Fe:   -0.592074    2.836237

  Mayer bond orders larger than 0.100000
B(  0-Au,  3-Au) :   0.4109 B(  0-Au, 11-Au) :   0.2766 B(  0-Au, 12-Fe) :   0.5474
B(  1-Au,  2-Au) :   0.4140 B(  1-Au,  3-Au) :   0.3217 B(  1-Au,  5-Au) :   0.1374
B(  1-Au,  6-Au) :   0.2679 B(  2-Au,  6-Au) :   0.1836 B(  2-Au,  7-Au) :   0.3469
B(  2-Au, 12-Fe) :   0.5811 B(  3-Au,  5-Au) :   0.3167 B(  3-Au, 12-Fe) :   0.5338
B(  4-Au,  5-Au) :   0.4167 B(  4-Au,  6-Au) :   0.1883 B(  4-Au, 10-Au) :   0.3457
B(  4-Au, 12-Fe) :   0.5840 B(  5-Au,  6-Au) :   0.2689 B(  6-Au,  9-Au) :   0.3888
B(  6-Au, 12-Fe) :   0.4532 B(  7-Au,  8-Au) :   0.2358 B(  7-Au,  9-Au) :   0.1643
B(  7-Au, 11-Au) :   0.1868 B(  7-Au, 12-Fe) :   0.5234 B(  8-Au,  9-Au) :   0.3075
B(  8-Au, 10-Au) :   0.2393 B(  8-Au, 11-Au) :   0.2839 B(  9-Au, 10-Au) :   0.1666
B(  9-Au, 12-Fe) :   0.5639 B( 10-Au, 11-Au) :   0.1813 B( 10-Au, 12-Fe) :   0.5227
B( 11-Au, 12-Fe) :   0.5145

FINAL SINGLE POINT ENERGY     -2893.383047025401

DIPOLE MOMENT
-------------
                                X             Y             Z
Electronic contribution:    -10.64797       0.17265     -14.98654
Nuclear contribution   :     10.64998      -0.31708      15.06613
                        -----------------------------------------
Total Dipole Moment    :      0.00201      -0.14444       0.07959
                        -----------------------------------------
Magnitude (a.u.)       :      0.16492
Magnitude (Debye)      :      0.41920

Rotational constants in cm-1:     0.001839     0.001031     0.001025
Rotational constants in MHz :    55.131531    30.894425    30.726366

                             ****ORCA TERMINATED NORMALLY****
TOTAL RUN TIME: 0 days 0 hours 23 minutes 52 seconds 551 msec
