                         Program Version 5.0.3 -  RELEASE  -
|  1> !R2SCAN def2-TZVP VERYSLOWCONV
|  2> !KDIIS
|  3> %scf
|  4>   AutoTRAHIter 200
|  5>   maxiter 400
|  6> end
|  7>
|  8> %pal nprocs 6 end
|  9>
| 10> *xyzfile 0 5 pbe.xyz
| 11>
| 12> $new_job
| 13>
| 14> !R2SCAN def2-TZVP VERYSLOWCONV
| 15> !KDIIS
| 16> %scf
| 17>   AutoTRAHIter 200
| 18>   maxiter 400
| 19> end
| 20>
| 21>
| 22> %pal nprocs 6 end
| 23>
| 24> *xyzfile 0 3 pbe.xyz
| 25>
| 26>
| 27>
| 28>
| 29>
| 30>                          ****END OF INPUT****
 Total Charge           Charge          ....    0
 Multiplicity           Mult            ....    5
 Number of Electrons    NEL             ....  254
FINAL SINGLE POINT ENERGY     -2893.813138119003

CARTESIAN COORDINATES (ANGSTROEM)
---------------------------------
  Au     8.264599    9.367137    7.574941
  Au     6.726181    9.563667    2.701539
  Au     7.885634    7.438359    3.980912
  Au     7.067436   10.227403    5.387282
  Au     4.310427    8.986876    6.560550
  Au     4.514166   10.531455    4.310859
  Au     5.064247    7.781743    4.100229
  Au     8.148163    5.613481    5.960077
  Au     6.431637    4.521173    7.941059
  Au     5.263444    5.582960    5.677193
  Au     5.013579    6.966267    8.214927
  Au     7.863900    6.862186    8.525623
  Fe     6.659324    7.778560    6.307192

 Multiplicity           Mult            ....    3
 Number of Electrons    NEL             ....  254
 Basis Dimension        Dim             ....  525

ORBITAL ENERGIES
----------------
                 SPIN UP ORBITALS
  NO   OCC          E(Eh)            E(eV)
   0   1.0000    -255.631146     -6956.0771
   1   1.0000     -29.930332      -814.4457
   2   1.0000     -25.777100      -701.4306
   3   1.0000     -25.752905      -700.7722
   4   1.0000     -25.752516      -700.7616
   5   1.0000      -4.122562      -112.1806
   6   1.0000      -4.122335      -112.1744
   7   1.0000      -4.117605      -112.0457
   8   1.0000      -4.116662      -112.0201
   9   1.0000      -4.114635      -111.9649
  10   1.0000      -4.114631      -111.9648
  11   1.0000      -4.113068      -111.9223
  12   1.0000      -4.112953      -111.9191
  13   1.0000      -4.112082      -111.8954
  14   1.0000      -4.109283      -111.8193
  15   1.0000      -4.106678      -111.7484
  16   1.0000      -4.106536      -111.7445
  17   1.0000      -3.508538       -95.4722
  18   1.0000      -2.314534       -62.9817
  19   1.0000      -2.312563       -62.9280
  20   1.0000      -2.309941       -62.8567
  21   1.0000      -2.308231       -62.8102
  22   1.0000      -2.307890       -62.8009
  23   1.0000      -2.306974       -62.7760
  24   1.0000      -2.306053       -62.7509
  25   1.0000      -2.305802       -62.7441
  26   1.0000      -2.305351       -62.7318
  27   1.0000      -2.305332       -62.7313
  28   1.0000      -2.304798       -62.7167
  29   1.0000      -2.304320       -62.7037
  30   1.0000      -2.302700       -62.6596
  31   1.0000      -2.302097       -62.6433
  32   1.0000      -2.301209       -62.6191
  33   1.0000      -2.300791       -62.6077
  34   1.0000      -2.300530       -62.6006
  35   1.0000      -2.300019       -62.5867
  36   1.0000      -2.299912       -62.5838
  37   1.0000      -2.299430       -62.5707
  38   1.0000      -2.298877       -62.5556
  39   1.0000      -2.298404       -62.5428
  40   1.0000      -2.297721       -62.5242
  41   1.0000      -2.297540       -62.5193
  42   1.0000      -2.297442       -62.5166
  43   1.0000      -2.296188       -62.4824
  44   1.0000      -2.295193       -62.4554
  45   1.0000      -2.294803       -62.4448
  46   1.0000      -2.293362       -62.4056
  47   1.0000      -2.293180       -62.4006
  48   1.0000      -2.293003       -62.3958
  49   1.0000      -2.292855       -62.3917
  50   1.0000      -2.292799       -62.3902
  51   1.0000      -2.291281       -62.3489
  52   1.0000      -2.290607       -62.3306
  53   1.0000      -2.290045       -62.3153
  54   1.0000      -2.286880       -62.2292
  55   1.0000      -2.256356       -61.3986
  56   1.0000      -2.255811       -61.3837
  57   1.0000      -0.426363       -11.6019
  58   1.0000      -0.394628       -10.7384
  59   1.0000      -0.386605       -10.5200
  60   1.0000      -0.379500       -10.3267
  61   1.0000      -0.375528       -10.2186
  62   1.0000      -0.375464       -10.2169
  63   1.0000      -0.371454       -10.1078
  64   1.0000      -0.369876       -10.0648
  65   1.0000      -0.368544       -10.0286
  66   1.0000      -0.361203        -9.8288
  67   1.0000      -0.357076        -9.7165
  68   1.0000      -0.352055        -9.5799
  69   1.0000      -0.348115        -9.4727
  70   1.0000      -0.347030        -9.4432
  71   1.0000      -0.346572        -9.4307
  72   1.0000      -0.343612        -9.3501
  73   1.0000      -0.341949        -9.3049
  74   1.0000      -0.341139        -9.2829
  75   1.0000      -0.341103        -9.2819
  76   1.0000      -0.339945        -9.2504
  77   1.0000      -0.335120        -9.1191
  78   1.0000      -0.329062        -8.9542
  79   1.0000      -0.326638        -8.8883
  80   1.0000      -0.323281        -8.7969
  81   1.0000      -0.322293        -8.7700
  82   1.0000      -0.320484        -8.7208
  83   1.0000      -0.316487        -8.6120
  84   1.0000      -0.312695        -8.5089
  85   1.0000      -0.309523        -8.4225
  86   1.0000      -0.308863        -8.4046
  87   1.0000      -0.305388        -8.3100
  88   1.0000      -0.301161        -8.1950
  89   1.0000      -0.298181        -8.1139
  90   1.0000      -0.297365        -8.0917
  91   1.0000      -0.295763        -8.0481
  92   1.0000      -0.294876        -8.0240
  93   1.0000      -0.291488        -7.9318
  94   1.0000      -0.286276        -7.7900
  95   1.0000      -0.285880        -7.7792
  96   1.0000      -0.284204        -7.7336
  97   1.0000      -0.280716        -7.6387
  98   1.0000      -0.280154        -7.6234
  99   1.0000      -0.279413        -7.6032
 100   1.0000      -0.278320        -7.5735
 101   1.0000      -0.276537        -7.5249
 102   1.0000      -0.272979        -7.4281
 103   1.0000      -0.271731        -7.3942
 104   1.0000      -0.270582        -7.3629
 105   1.0000      -0.270477        -7.3601
 106   1.0000      -0.270374        -7.3573
 107   1.0000      -0.269696        -7.3388
 108   1.0000      -0.268936        -7.3181
 109   1.0000      -0.267412        -7.2767
 110   1.0000      -0.261820        -7.1245
 111   1.0000      -0.261617        -7.1190
 112   1.0000      -0.261408        -7.1133
 113   1.0000      -0.258924        -7.0457
 114   1.0000      -0.258896        -7.0449
 115   1.0000      -0.257197        -6.9987
 116   1.0000      -0.253001        -6.8845
 117   1.0000      -0.252831        -6.8799
 118   1.0000      -0.252432        -6.8690
 119   1.0000      -0.247535        -6.7358
 120   1.0000      -0.246538        -6.7087
 121   1.0000      -0.246357        -6.7037
 122   1.0000      -0.241339        -6.5672
 123   1.0000      -0.240312        -6.5392
 124   1.0000      -0.238457        -6.4888
 125   1.0000      -0.234584        -6.3833
 126   1.0000      -0.222078        -6.0430
 127   1.0000      -0.194312        -5.2875
 128   0.0000      -0.184066        -5.0087
 129   0.0000      -0.172066        -4.6822
 130   0.0000      -0.134745        -3.6666
 131   0.0000      -0.128243        -3.4897
 132   0.0000      -0.123453        -3.3593

                 SPIN DOWN ORBITALS
  NO   OCC          E(Eh)            E(eV)
   0   1.0000    -255.630146     -6956.0499
   1   1.0000     -29.854308      -812.3770
   2   1.0000     -25.709389      -699.5880
   3   1.0000     -25.699811      -699.3274
   4   1.0000     -25.699334      -699.3144
   5   1.0000      -4.122729      -112.1852
   6   1.0000      -4.121277      -112.1457
   7   1.0000      -4.117765      -112.0501
   8   1.0000      -4.117017      -112.0297
   9   1.0000      -4.114962      -111.9738
  10   1.0000      -4.114950      -111.9735
  11   1.0000      -4.113308      -111.9288
  12   1.0000      -4.113184      -111.9254
  13   1.0000      -4.112829      -111.9158
  14   1.0000      -4.109564      -111.8269
  15   1.0000      -4.107207      -111.7628
  16   1.0000      -4.107067      -111.7590
  17   1.0000      -3.339982       -90.8855
  18   1.0000      -2.312500       -62.9263
  19   1.0000      -2.312353       -62.9223
  20   1.0000      -2.307781       -62.7979
  21   1.0000      -2.307310       -62.7851
  22   1.0000      -2.306802       -62.7713
  23   1.0000      -2.306630       -62.7666
  24   1.0000      -2.305786       -62.7436
  25   1.0000      -2.305334       -62.7313
  26   1.0000      -2.305149       -62.7263
  27   1.0000      -2.304801       -62.7168
  28   1.0000      -2.304270       -62.7024
  29   1.0000      -2.302002       -62.6407
  30   1.0000      -2.301681       -62.6319
  31   1.0000      -2.300788       -62.6076
  32   1.0000      -2.300694       -62.6051
  33   1.0000      -2.300563       -62.6015
  34   1.0000      -2.299820       -62.5813
  35   1.0000      -2.299670       -62.5772
  36   1.0000      -2.299418       -62.5703
  37   1.0000      -2.299388       -62.5695
  38   1.0000      -2.299347       -62.5684
  39   1.0000      -2.298533       -62.5463
  40   1.0000      -2.298150       -62.5358
  41   1.0000      -2.297720       -62.5241
  42   1.0000      -2.296596       -62.4935
  43   1.0000      -2.296445       -62.4895
  44   1.0000      -2.295902       -62.4747
  45   1.0000      -2.294145       -62.4269
  46   1.0000      -2.293882       -62.4197
  47   1.0000      -2.293763       -62.4165
  48   1.0000      -2.293545       -62.4105
  49   1.0000      -2.293093       -62.3982
  50   1.0000      -2.292035       -62.3694
  51   1.0000      -2.291509       -62.3551
  52   1.0000      -2.290700       -62.3331
  53   1.0000      -2.286858       -62.2286
  54   1.0000      -2.116164       -57.5837
  55   1.0000      -2.104357       -57.2625
  56   1.0000      -2.102262       -57.2054
  57   1.0000      -0.424240       -11.5442
  58   1.0000      -0.394347       -10.7307
  59   1.0000      -0.380563       -10.3557
  60   1.0000      -0.377457       -10.2711
  61   1.0000      -0.375825       -10.2267
  62   1.0000      -0.371626       -10.1125
  63   1.0000      -0.366284        -9.9671
  64   1.0000      -0.362196        -9.8559
  65   1.0000      -0.361360        -9.8331
  66   1.0000      -0.357558        -9.7297
  67   1.0000      -0.352866        -9.6020
  68   1.0000      -0.349624        -9.5138
  69   1.0000      -0.347750        -9.4628
  70   1.0000      -0.347286        -9.4501
  71   1.0000      -0.345348        -9.3974
  72   1.0000      -0.342498        -9.3199
  73   1.0000      -0.342307        -9.3146
  74   1.0000      -0.337510        -9.1841
  75   1.0000      -0.334753        -9.1091
  76   1.0000      -0.331897        -9.0314
  77   1.0000      -0.330203        -8.9853
  78   1.0000      -0.326449        -8.8831
  79   1.0000      -0.323337        -8.7984
  80   1.0000      -0.322049        -8.7634
  81   1.0000      -0.320421        -8.7191
  82   1.0000      -0.319383        -8.6909
  83   1.0000      -0.312910        -8.5147
  84   1.0000      -0.309281        -8.4160
  85   1.0000      -0.304607        -8.2888
  86   1.0000      -0.303516        -8.2591
  87   1.0000      -0.302073        -8.2198
  88   1.0000      -0.301029        -8.1914
  89   1.0000      -0.298429        -8.1207
  90   1.0000      -0.295959        -8.0535
  91   1.0000      -0.294248        -8.0069
  92   1.0000      -0.291896        -7.9429
  93   1.0000      -0.289507        -7.8779
  94   1.0000      -0.285243        -7.7619
  95   1.0000      -0.284245        -7.7347
  96   1.0000      -0.284030        -7.7288
  97   1.0000      -0.280714        -7.6386
  98   1.0000      -0.280531        -7.6336
  99   1.0000      -0.279393        -7.6027
 100   1.0000      -0.278689        -7.5835
 101   1.0000      -0.276303        -7.5186
 102   1.0000      -0.273068        -7.4305
 103   1.0000      -0.272309        -7.4099
 104   1.0000      -0.271653        -7.3921
 105   1.0000      -0.271282        -7.3820
 106   1.0000      -0.268891        -7.3169
 107   1.0000      -0.268858        -7.3160
 108   1.0000      -0.267026        -7.2662
 109   1.0000      -0.263757        -7.1772
 110   1.0000      -0.262954        -7.1553
 111   1.0000      -0.260150        -7.0790
 112   1.0000      -0.259808        -7.0697
 113   1.0000      -0.255807        -6.9608
 114   1.0000      -0.254376        -6.9219
 115   1.0000      -0.254164        -6.9161
 116   1.0000      -0.249371        -6.7857
 117   1.0000      -0.249031        -6.7765
 118   1.0000      -0.246775        -6.7151
 119   1.0000      -0.243436        -6.6242
 120   1.0000      -0.242006        -6.5853
 121   1.0000      -0.227140        -6.1808
 122   1.0000      -0.204859        -5.5745
 123   1.0000      -0.202090        -5.4991
 124   1.0000      -0.195198        -5.3116
 125   1.0000      -0.179017        -4.8713
 126   0.0000      -0.154024        -4.1912
 127   0.0000      -0.144912        -3.9433
 128   0.0000      -0.144720        -3.9380
 129   0.0000      -0.132754        -3.6124
 130   0.0000      -0.126979        -3.4553

MULLIKEN ATOMIC CHARGES AND SPIN POPULATIONS
--------------------------------------------
   0 Au:    0.205069   -0.090680
   1 Au:    0.277356    0.040993
   2 Au:    0.040983   -0.091482
   3 Au:    0.009636   -0.152882
   4 Au:    0.042519   -0.090614
   5 Au:    0.275882    0.041000
   6 Au:    0.053222   -0.180935
   7 Au:    0.121148   -0.029600
   8 Au:    0.318993   -0.075669
   9 Au:    0.113866   -0.221705
  10 Au:    0.120000   -0.029054
  11 Au:    0.205706   -0.231580
  12 Fe:   -1.784380    3.112209
Sum of atomic charges         :   -0.0000000

LOEWDIN ATOMIC CHARGES AND SPIN POPULATIONS
-------------------------------------------
   0 Au:    0.150283   -0.158939
   1 Au:    0.040971   -0.005138
   2 Au:    0.057224   -0.081917
   3 Au:   -0.017103   -0.066660
   4 Au:    0.057538   -0.081204
   5 Au:    0.040308   -0.005055
   6 Au:   -0.032336   -0.102760
   7 Au:    0.043985   -0.080758
   8 Au:    0.059426   -0.083374
   9 Au:    0.049549   -0.154490
  10 Au:    0.044038   -0.080235
  11 Au:    0.018581   -0.146445
  12 Fe:   -0.512464    3.046975

  Mayer bond orders larger than 0.100000
B(  0-Au,  3-Au) :   0.4103 B(  0-Au, 11-Au) :   0.2722 B(  0-Au, 12-Fe) :   0.5457
B(  1-Au,  2-Au) :   0.4186 B(  1-Au,  3-Au) :   0.3092 B(  1-Au,  5-Au) :   0.1118
B(  1-Au,  6-Au) :   0.2555 B(  2-Au,  6-Au) :   0.1651 B(  2-Au,  7-Au) :   0.3507
B(  2-Au, 12-Fe) :   0.5668 B(  3-Au,  5-Au) :   0.3083 B(  3-Au, 12-Fe) :   0.5114
B(  4-Au,  5-Au) :   0.4197 B(  4-Au,  6-Au) :   0.1676 B(  4-Au, 10-Au) :   0.3501
B(  4-Au, 12-Fe) :   0.5658 B(  5-Au,  6-Au) :   0.2544 B(  6-Au,  9-Au) :   0.3966
B(  6-Au, 12-Fe) :   0.4182 B(  7-Au,  8-Au) :   0.2223 B(  7-Au,  9-Au) :   0.1448
B(  7-Au, 11-Au) :   0.1587 B(  7-Au, 12-Fe) :   0.5042 B(  8-Au,  9-Au) :   0.2932
B(  8-Au, 10-Au) :   0.2221 B(  8-Au, 11-Au) :   0.2763 B(  9-Au, 10-Au) :   0.1428
B(  9-Au, 12-Fe) :   0.5247 B( 10-Au, 11-Au) :   0.1584 B( 10-Au, 12-Fe) :   0.5070
B( 11-Au, 12-Fe) :   0.4795

FINAL SINGLE POINT ENERGY     -2893.827984286281

DIPOLE MOMENT
-------------
                                X             Y             Z
Electronic contribution:    -10.64227       0.15576     -14.96355
Nuclear contribution   :     10.64998      -0.31708      15.06613
                        -----------------------------------------
Total Dipole Moment    :      0.00771      -0.16133       0.10258
                        -----------------------------------------
Magnitude (a.u.)       :      0.19134
Magnitude (Debye)      :      0.48634

Rotational constants in cm-1:     0.001839     0.001031     0.001025
Rotational constants in MHz :    55.131531    30.894425    30.726366

                             ****ORCA TERMINATED NORMALLY****
TOTAL RUN TIME: 0 days 0 hours 18 minutes 40 seconds 636 msec
