                         Program Version 5.0.3 -  RELEASE  -
|  1> %pal nprocs 1 end
|  2>
|  3> !PBE def2-TZVP OPT UNO
|  4> !SLOWCONV KDIIS
|  5>
|  6> %geom maxiter 300 end
|  7>
|  8> *xyzfile 0 5 6.xyz                           ****END OF INPUT****
 Total Charge           Charge          ....    0
 Multiplicity           Mult            ....    5
 Number of Electrons    NEL             ....  216
FINAL SINGLE POINT ENERGY     -2621.729779997055
FINAL SINGLE POINT ENERGY     -2621.730645440974
FINAL SINGLE POINT ENERGY     -2621.731574687423
FINAL SINGLE POINT ENERGY     -2621.732437757492
FINAL SINGLE POINT ENERGY     -2621.732856336459
FINAL SINGLE POINT ENERGY     -2621.733558757134
FINAL SINGLE POINT ENERGY     -2621.734000836342
FINAL SINGLE POINT ENERGY     -2621.734508900914
FINAL SINGLE POINT ENERGY     -2621.735364316107
FINAL SINGLE POINT ENERGY     -2621.736095151333
FINAL SINGLE POINT ENERGY     -2621.738107380736
FINAL SINGLE POINT ENERGY     -2621.738141737299
FINAL SINGLE POINT ENERGY     -2621.738168544930
FINAL SINGLE POINT ENERGY     -2621.738182186051
FINAL SINGLE POINT ENERGY     -2621.738188680231
FINAL SINGLE POINT ENERGY     -2621.738192143190
FINAL SINGLE POINT ENERGY     -2621.738194294745
FINAL SINGLE POINT ENERGY     -2621.738195584652
FINAL SINGLE POINT ENERGY     -2621.738196266401
                    ***********************HURRAY********************

CARTESIAN COORDINATES (ANGSTROEM)
---------------------------------
  Au    10.263740    2.998907    7.574198
  Au    11.676813    5.250564    7.332312
  Au    14.079058    6.139491    6.752351
  Au     8.888164    5.207052    6.575684
  Au    12.237871    7.993798    7.368219
  Au    10.393517    9.761238    7.987106
  Au     7.789950    9.425105    8.709472
  Au     8.569127    7.260627   10.247082
  Au     7.591721    7.508525    6.725603
  Au     9.677454    5.006794    9.412453
  Fe     9.792370    7.281726    8.005051

 Multiplicity           Mult            ....    5
 Number of Electrons    NEL             ....  216
 Basis Dimension        Dim             ....  445

ORBITAL ENERGIES
----------------
                 SPIN UP ORBITALS
  NO   OCC          E(Eh)            E(eV)
   0   1.0000    -254.764867     -6932.5045
   1   1.0000     -29.608466      -805.6873
   2   1.0000     -25.555091      -695.3894
   3   1.0000     -25.538360      -694.9341
   4   1.0000     -25.536099      -694.8726
   5   1.0000      -4.036907      -109.8498
   6   1.0000      -4.031256      -109.6961
   7   1.0000      -4.026119      -109.5563
   8   1.0000      -4.025997      -109.5529
   9   1.0000      -4.022993      -109.4712
  10   1.0000      -4.017205      -109.3137
  11   1.0000      -4.016060      -109.2826
  12   1.0000      -4.015985      -109.2805
  13   1.0000      -4.011372      -109.1550
  14   1.0000      -4.009217      -109.0963
  15   1.0000      -3.388398       -92.2030
  16   1.0000      -2.257770       -61.4371
  17   1.0000      -2.251229       -61.2590
  18   1.0000      -2.250299       -61.2337
  19   1.0000      -2.246310       -61.1252
  20   1.0000      -2.244403       -61.0733
  21   1.0000      -2.243845       -61.0581
  22   1.0000      -2.241998       -61.0079
  23   1.0000      -2.241834       -61.0034
  24   1.0000      -2.240149       -60.9576
  25   1.0000      -2.239892       -60.9506
  26   1.0000      -2.236250       -60.8515
  27   1.0000      -2.234671       -60.8085
  28   1.0000      -2.234383       -60.8007
  29   1.0000      -2.233993       -60.7900
  30   1.0000      -2.233388       -60.7736
  31   1.0000      -2.233286       -60.7708
  32   1.0000      -2.232584       -60.7517
  33   1.0000      -2.232121       -60.7391
  34   1.0000      -2.232044       -60.7370
  35   1.0000      -2.229898       -60.6786
  36   1.0000      -2.229667       -60.6723
  37   1.0000      -2.229224       -60.6603
  38   1.0000      -2.224696       -60.5371
  39   1.0000      -2.224133       -60.5217
  40   1.0000      -2.223555       -60.5060
  41   1.0000      -2.223050       -60.4923
  42   1.0000      -2.222466       -60.4764
  43   1.0000      -2.222348       -60.4732
  44   1.0000      -2.222149       -60.4677
  45   1.0000      -2.221898       -60.4609
  46   1.0000      -2.215279       -60.2808
  47   1.0000      -2.191699       -59.6392
  48   1.0000      -2.187195       -59.5166
  49   1.0000      -0.415863       -11.3162
  50   1.0000      -0.387412       -10.5420
  51   1.0000      -0.380907       -10.3650
  52   1.0000      -0.367943       -10.0122
  53   1.0000      -0.367202        -9.9921
  54   1.0000      -0.363646        -9.8953
  55   1.0000      -0.351983        -9.5780
  56   1.0000      -0.349994        -9.5238
  57   1.0000      -0.349842        -9.5197
  58   1.0000      -0.337984        -9.1970
  59   1.0000      -0.335248        -9.1226
  60   1.0000      -0.332853        -9.0574
  61   1.0000      -0.329566        -8.9679
  62   1.0000      -0.329362        -8.9624
  63   1.0000      -0.326029        -8.8717
  64   1.0000      -0.320506        -8.7214
  65   1.0000      -0.320225        -8.7138
  66   1.0000      -0.318485        -8.6664
  67   1.0000      -0.315171        -8.5762
  68   1.0000      -0.310281        -8.4432
  69   1.0000      -0.307662        -8.3719
  70   1.0000      -0.303857        -8.2684
  71   1.0000      -0.299434        -8.1480
  72   1.0000      -0.298498        -8.1226
  73   1.0000      -0.292812        -7.9678
  74   1.0000      -0.291711        -7.9379
  75   1.0000      -0.288989        -7.8638
  76   1.0000      -0.287339        -7.8189
  77   1.0000      -0.286406        -7.7935
  78   1.0000      -0.284508        -7.7419
  79   1.0000      -0.280012        -7.6195
  80   1.0000      -0.279548        -7.6069
  81   1.0000      -0.277304        -7.5458
  82   1.0000      -0.274331        -7.4649
  83   1.0000      -0.273585        -7.4446
  84   1.0000      -0.272824        -7.4239
  85   1.0000      -0.272139        -7.4053
  86   1.0000      -0.268985        -7.3194
  87   1.0000      -0.267821        -7.2878
  88   1.0000      -0.265377        -7.2213
  89   1.0000      -0.264293        -7.1918
  90   1.0000      -0.263502        -7.1703
  91   1.0000      -0.261263        -7.1093
  92   1.0000      -0.260331        -7.0840
  93   1.0000      -0.258514        -7.0345
  94   1.0000      -0.257432        -7.0051
  95   1.0000      -0.255422        -6.9504
  96   1.0000      -0.254698        -6.9307
  97   1.0000      -0.254055        -6.9132
  98   1.0000      -0.248342        -6.7577
  99   1.0000      -0.248180        -6.7533
 100   1.0000      -0.246081        -6.6962
 101   1.0000      -0.244972        -6.6660
 102   1.0000      -0.243641        -6.6298
 103   1.0000      -0.240753        -6.5512
 104   1.0000      -0.235861        -6.4181
 105   1.0000      -0.234805        -6.3894
 106   1.0000      -0.232346        -6.3224
 107   1.0000      -0.218613        -5.9487
 108   1.0000      -0.215114        -5.8536
 109   1.0000      -0.201294        -5.4775
 110   0.0000      -0.156126        -4.2484
 111   0.0000      -0.148161        -4.0317
 112   0.0000      -0.132317        -3.6005
 113   0.0000      -0.115116        -3.1325
 114   0.0000      -0.100005        -2.7213

                 SPIN DOWN ORBITALS
  NO   OCC          E(Eh)            E(eV)
   0   1.0000    -254.764068     -6932.4827
   1   1.0000     -29.546741      -804.0077
   2   1.0000     -25.503260      -693.9790
   3   1.0000     -25.493697      -693.7188
   4   1.0000     -25.492685      -693.6912
   5   1.0000      -4.035929      -109.8232
   6   1.0000      -4.029134      -109.6383
   7   1.0000      -4.025202      -109.5313
   8   1.0000      -4.025079      -109.5280
   9   1.0000      -4.023006      -109.4716
  10   1.0000      -4.015285      -109.2615
  11   1.0000      -4.014336      -109.2356
  12   1.0000      -4.014262      -109.2336
  13   1.0000      -4.011249      -109.1516
  14   1.0000      -4.008939      -109.0888
  15   1.0000      -3.248248       -88.3893
  16   1.0000      -2.256542       -61.4036
  17   1.0000      -2.248673       -61.1895
  18   1.0000      -2.248267       -61.1785
  19   1.0000      -2.243761       -61.0558
  20   1.0000      -2.243377       -61.0454
  21   1.0000      -2.242688       -61.0266
  22   1.0000      -2.241528       -60.9951
  23   1.0000      -2.240696       -60.9725
  24   1.0000      -2.239517       -60.9403
  25   1.0000      -2.239088       -60.9287
  26   1.0000      -2.233611       -60.7796
  27   1.0000      -2.233246       -60.7697
  28   1.0000      -2.233054       -60.7645
  29   1.0000      -2.232475       -60.7487
  30   1.0000      -2.232071       -60.7377
  31   1.0000      -2.231756       -60.7292
  32   1.0000      -2.231599       -60.7249
  33   1.0000      -2.231287       -60.7164
  34   1.0000      -2.229994       -60.6812
  35   1.0000      -2.228804       -60.6488
  36   1.0000      -2.228608       -60.6435
  37   1.0000      -2.228385       -60.6374
  38   1.0000      -2.223474       -60.5038
  39   1.0000      -2.223327       -60.4998
  40   1.0000      -2.223015       -60.4913
  41   1.0000      -2.221830       -60.4591
  42   1.0000      -2.220737       -60.4293
  43   1.0000      -2.220669       -60.4275
  44   1.0000      -2.220433       -60.4211
  45   1.0000      -2.215061       -60.2749
  46   1.0000      -2.071836       -56.3775
  47   1.0000      -2.060652       -56.0732
  48   1.0000      -2.060587       -56.0714
  49   1.0000      -0.413226       -11.2445
  50   1.0000      -0.380157       -10.3446
  51   1.0000      -0.377508       -10.2725
  52   1.0000      -0.361349        -9.8328
  53   1.0000      -0.357429        -9.7261
  54   1.0000      -0.357025        -9.7152
  55   1.0000      -0.345705        -9.4071
  56   1.0000      -0.339742        -9.2449
  57   1.0000      -0.338316        -9.2060
  58   1.0000      -0.332676        -9.0526
  59   1.0000      -0.327982        -8.9249
  60   1.0000      -0.326396        -8.8817
  61   1.0000      -0.321588        -8.7509
  62   1.0000      -0.319011        -8.6807
  63   1.0000      -0.318584        -8.6691
  64   1.0000      -0.316348        -8.6083
  65   1.0000      -0.312700        -8.5090
  66   1.0000      -0.308267        -8.3884
  67   1.0000      -0.306752        -8.3471
  68   1.0000      -0.304640        -8.2897
  69   1.0000      -0.304414        -8.2835
  70   1.0000      -0.302932        -8.2432
  71   1.0000      -0.296222        -8.0606
  72   1.0000      -0.291745        -7.9388
  73   1.0000      -0.289911        -7.8889
  74   1.0000      -0.287072        -7.8116
  75   1.0000      -0.284459        -7.7405
  76   1.0000      -0.284340        -7.7373
  77   1.0000      -0.280961        -7.6453
  78   1.0000      -0.280152        -7.6233
  79   1.0000      -0.277096        -7.5402
  80   1.0000      -0.274350        -7.4654
  81   1.0000      -0.273949        -7.4545
  82   1.0000      -0.272551        -7.4165
  83   1.0000      -0.272201        -7.4070
  84   1.0000      -0.269756        -7.3404
  85   1.0000      -0.265788        -7.2324
  86   1.0000      -0.265701        -7.2301
  87   1.0000      -0.264247        -7.1905
  88   1.0000      -0.263785        -7.1780
  89   1.0000      -0.262061        -7.1310
  90   1.0000      -0.259917        -7.0727
  91   1.0000      -0.256412        -6.9773
  92   1.0000      -0.254459        -6.9242
  93   1.0000      -0.253383        -6.8949
  94   1.0000      -0.248799        -6.7702
  95   1.0000      -0.247773        -6.7422
  96   1.0000      -0.246434        -6.7058
  97   1.0000      -0.245427        -6.6784
  98   1.0000      -0.244026        -6.6403
  99   1.0000      -0.243107        -6.6153
 100   1.0000      -0.239675        -6.5219
 101   1.0000      -0.233565        -6.3556
 102   1.0000      -0.223324        -6.0770
 103   1.0000      -0.219873        -5.9830
 104   1.0000      -0.204466        -5.5638
 105   1.0000      -0.184227        -5.0131
 106   0.0000      -0.173999        -4.7348
 107   0.0000      -0.167575        -4.5600
 108   0.0000      -0.163492        -4.4488
 109   0.0000      -0.155208        -4.2234
 110   0.0000      -0.142142        -3.8679

MULLIKEN ATOMIC CHARGES AND SPIN POPULATIONS
--------------------------------------------
   0 Au:    0.430668    0.068849
   1 Au:   -0.397560    0.025863
   2 Au:    0.362272    0.076714
   3 Au:    0.056115    0.024199
   4 Au:   -0.089537    0.083205
   5 Au:    0.180261    0.105926
   6 Au:    0.225633    0.035399
   7 Au:    0.171623    0.099022
   8 Au:    0.171165    0.099818
   9 Au:    0.054461    0.023216
  10 Fe:   -1.165101    3.357789
Sum of atomic charges         :   -0.0000000

LOEWDIN ATOMIC CHARGES AND SPIN POPULATIONS
-------------------------------------------
   0 Au:    0.119965    0.042218
   1 Au:   -0.140992    0.057667
   2 Au:    0.108197    0.060733
   3 Au:    0.012633    0.041052
   4 Au:    0.010328    0.096140
   5 Au:    0.058803    0.089395
   6 Au:   -0.014979    0.025870
   7 Au:    0.072679    0.084003
   8 Au:    0.071596    0.084590
   9 Au:    0.012535    0.040478
  10 Fe:   -0.310765    3.377853

  Mayer bond orders larger than 0.100000
B(  0-Au,  1-Au) :   0.5287 B(  0-Au,  3-Au) :   0.2608 B(  0-Au,  9-Au) :   0.2638
B(  1-Au,  2-Au) :   0.6804 B(  1-Au,  3-Au) :   0.1913 B(  1-Au,  4-Au) :   0.3216
B(  1-Au,  9-Au) :   0.1884 B(  1-Au, 10-Fe) :   0.2519 B(  2-Au,  4-Au) :   0.3764
B(  3-Au,  8-Au) :   0.4919 B(  3-Au,  9-Au) :   0.1304 B(  3-Au, 10-Fe) :   0.6160
B(  4-Au,  5-Au) :   0.4854 B(  4-Au, 10-Fe) :   0.6581 B(  5-Au,  6-Au) :   0.3090
B(  5-Au, 10-Fe) :   0.5915 B(  6-Au,  7-Au) :   0.2753 B(  6-Au,  8-Au) :   0.2766
B(  6-Au, 10-Fe) :   0.2987 B(  7-Au,  9-Au) :   0.4913 B(  7-Au, 10-Fe) :   0.6570
B(  8-Au, 10-Fe) :   0.6553 B(  9-Au, 10-Fe) :   0.6169

FINAL SINGLE POINT ENERGY     -2621.738196821692

DIPOLE MOMENT
-------------
                                X             Y             Z
Electronic contribution:     12.47310     -24.22754      -5.25620
Nuclear contribution   :    -12.28656      23.73118       5.17424
                        -----------------------------------------
Total Dipole Moment    :      0.18654      -0.49637      -0.08196
                        -----------------------------------------
Magnitude (a.u.)       :      0.53656
Magnitude (Debye)      :      1.36382

Rotational constants in cm-1:     0.001990     0.001402     0.001045
Rotational constants in MHz :    59.653017    42.026919    31.315281

                             ****ORCA TERMINATED NORMALLY****
TOTAL RUN TIME: 0 days 2 hours 38 minutes 53 seconds 829 msec
