                         Program Version 5.0.3 -  RELEASE  -
|  1> !SC-NEVPT2 def2-TZVP def2-TZVP/C
|  2> !MOREAD RIJCOSX def2/J
|  3> %maxcore 4000
|  4> %moinp "casscf.gbw"
|  5> %pal nprocs 8 end
|  6>
|  7> %casscf
|  8>  mult 5,3
|  9>  bweight 1,1
| 10>  nroots 5,45
| 11>  nel 6
| 12>  norb 5
| 13>  ptsettings
| 14>   d4tpre 1e-14 # default = 1e-10
| 15>   d3tpre 1e-14
| 16>  end
| 17>  rel
| 18>    dosoc true
| 19>    gtensor true
| 20>  end
| 21> end
| 22>
| 23>
| 24> *xyzfile 0 5 pbe.xyz
| 25>
| 26>
| 27>                          ****END OF INPUT****

CARTESIAN COORDINATES (ANGSTROEM)
---------------------------------
  Au     9.346472    5.337908    7.562423
  Au     8.869469    3.321015    9.406400
  Au    10.317889    4.916169   11.258274
  Au     8.721444    8.027830    8.089398
  Au     5.595484    5.372158   10.604199
  Au    10.746670    6.907953    9.464028
  Au     7.660798    4.123381   11.846248
  Au     6.591180    9.417626    7.306687
  Au     6.740068    4.566147    8.135757
  Au     6.009201    7.223286    8.695735
  Cr     8.201290    5.993262    9.974960

 Total Charge           Charge          ....    0
 Multiplicity           Mult            ....    5
 Number of Electrons    NEL             ....  214
 Basis Dimension        Dim             ....  445

ORBITAL ENERGIES
----------------

  NO   OCC          E(Eh)            E(eV)
   0   2.0000    -220.495170     -5999.9786
   1   2.0000     -26.332719      -716.5497
   2   2.0000     -22.266566      -605.9041
   3   2.0000     -22.265861      -605.8849
   4   2.0000     -22.252731      -605.5276
   5   2.0000      -4.710917      -128.1906
   6   2.0000      -4.710696      -128.1846
   7   2.0000      -4.707211      -128.0897
   8   2.0000      -4.707088      -128.0864
   9   2.0000      -4.706549      -128.0717
  10   2.0000      -4.704816      -128.0245
  11   2.0000      -4.704799      -128.0241
  12   2.0000      -4.704370      -128.0124
  13   2.0000      -4.704227      -128.0085
  14   2.0000      -4.688705      -127.5862
  15   2.0000      -3.386498       -92.1513
  16   2.0000      -2.752166       -74.8902
  17   2.0000      -2.750846       -74.8543
  18   2.0000      -2.750195       -74.8366
  19   2.0000      -2.748113       -74.7800
  20   2.0000      -2.747968       -74.7760
  21   2.0000      -2.747509       -74.7635
  22   2.0000      -2.746538       -74.7371
  23   2.0000      -2.745614       -74.7119
  24   2.0000      -2.744789       -74.6895
  25   2.0000      -2.744342       -74.6774
  26   2.0000      -2.743953       -74.6668
  27   2.0000      -2.743816       -74.6630
  28   2.0000      -2.742603       -74.6300
  29   2.0000      -2.742010       -74.6139
  30   2.0000      -2.741740       -74.6065
  31   2.0000      -2.741250       -74.5932
  32   2.0000      -2.740911       -74.5840
  33   2.0000      -2.739995       -74.5591
  34   2.0000      -2.739728       -74.5518
  35   2.0000      -2.739425       -74.5435
  36   2.0000      -2.738854       -74.5280
  37   2.0000      -2.737607       -74.4941
  38   2.0000      -2.737474       -74.4905
  39   2.0000      -2.737054       -74.4790
  40   2.0000      -2.736977       -74.4769
  41   2.0000      -2.736883       -74.4744
  42   2.0000      -2.735685       -74.4418
  43   2.0000      -2.725946       -74.1767
  44   2.0000      -2.723360       -74.1064
  45   2.0000      -2.720428       -74.0266
  46   2.0000      -2.151827       -58.5542
  47   2.0000      -2.151782       -58.5530
  48   2.0000      -2.138759       -58.1986
  49   2.0000      -0.551176       -14.9983
  50   2.0000      -0.550114       -14.9694
  51   2.0000      -0.546769       -14.8784
  52   2.0000      -0.542201       -14.7540
  53   2.0000      -0.533557       -14.5188
  54   2.0000      -0.533076       -14.5057
  55   2.0000      -0.524491       -14.2721
  56   2.0000      -0.524225       -14.2649
  57   2.0000      -0.520901       -14.1744
  58   2.0000      -0.520751       -14.1704
  59   2.0000      -0.517369       -14.0783
  60   2.0000      -0.516380       -14.0514
  61   2.0000      -0.509582       -13.8664
  62   2.0000      -0.508500       -13.8370
  63   2.0000      -0.504468       -13.7273
  64   2.0000      -0.501087       -13.6353
  65   2.0000      -0.498728       -13.5711
  66   2.0000      -0.495430       -13.4813
  67   2.0000      -0.491223       -13.3669
  68   2.0000      -0.488530       -13.2936
  69   2.0000      -0.487044       -13.2532
  70   2.0000      -0.481069       -13.0905
  71   2.0000      -0.475570       -12.9409
  72   2.0000      -0.472906       -12.8684
  73   2.0000      -0.467513       -12.7217
  74   2.0000      -0.463265       -12.6061
  75   2.0000      -0.460313       -12.5257
  76   2.0000      -0.460214       -12.5231
  77   2.0000      -0.457801       -12.4574
  78   2.0000      -0.454326       -12.3628
  79   2.0000      -0.454027       -12.3547
  80   2.0000      -0.451240       -12.2789
  81   2.0000      -0.448542       -12.2054
  82   2.0000      -0.448021       -12.1913
  83   2.0000      -0.447291       -12.1714
  84   2.0000      -0.445947       -12.1348
  85   2.0000      -0.442887       -12.0516
  86   2.0000      -0.442559       -12.0426
  87   2.0000      -0.433359       -11.7923
  88   2.0000      -0.432262       -11.7625
  89   2.0000      -0.431326       -11.7370
  90   2.0000      -0.427269       -11.6266
  91   2.0000      -0.424848       -11.5607
  92   2.0000      -0.419480       -11.4146
  93   2.0000      -0.419281       -11.4092
  94   2.0000      -0.419163       -11.4060
  95   2.0000      -0.415646       -11.3103
  96   2.0000      -0.413224       -11.2444
  97   2.0000      -0.405319       -11.0293
  98   2.0000      -0.391565       -10.6550
  99   2.0000      -0.385430       -10.4881
 100   2.0000      -0.338849        -9.2206
 101   2.0000      -0.324447        -8.8287
 102   2.0000      -0.272376        -7.4117
 103   2.0000      -0.247291        -6.7291
 104   1.2000      -0.069711        -1.8969
 105   1.2000      -0.125889        -3.4256
 106   1.2000      -0.101441        -2.7604
 107   1.2000      -0.101857        -2.7717
 108   1.2000      -0.092348        -2.5129
 109   0.0000      -0.009417        -0.2562
 110   0.0000       0.004990         0.1358
 111   0.0000       0.006013         0.1636
 112   0.0000       0.013262         0.3609
 113   0.0000       0.029731         0.8090

MULLIKEN ATOMIC CHARGES AND SPIN DENSITIES
------------------------------------------
   0 Au:    0.182789    0.020597
   1 Au:    0.152415    0.018664
   2 Au:    0.352164    0.088968
   3 Au:   -0.264837    0.046421
   4 Au:    0.524593    0.038522
   5 Au:    0.524398    0.038438
   6 Au:    0.350839    0.089150
   7 Au:    0.451630    0.007745
   8 Au:    0.182970    0.020675
   9 Au:   -0.267167    0.046069
  10 Cr:   -2.189795    2.584753
Sum of atomic charges       :    0.0000000

LOEWDIN ATOMIC CHARGES AND SPIN DENSITIES
-----------------------------------------
   0 Au:    0.079066    0.033440
   1 Au:    0.057263    0.036320
   2 Au:    0.101590    0.098974
   3 Au:   -0.051702    0.049198
   4 Au:    0.134103    0.075180
   5 Au:    0.134320    0.075201
   6 Au:    0.101520    0.098983
   7 Au:    0.149991    0.017284
   8 Au:    0.079495    0.033393
   9 Au:   -0.051460    0.049133
  10 Cr:   -0.734186    2.432894

  Mayer bond orders larger than 0.100000
B(  0-Au,  1-Au) :   0.3221 B(  0-Au,  3-Au) :   0.1964 B(  0-Au,  5-Au) :   0.1067
B(  0-Au,  8-Au) :   0.3526 B(  0-Au, 10-Cr) :   0.3032 B(  1-Au,  2-Au) :   0.1700
B(  1-Au,  6-Au) :   0.1708 B(  1-Au,  8-Au) :   0.3225 B(  1-Au, 10-Cr) :   0.3009
B(  2-Au,  5-Au) :   0.1651 B(  2-Au,  6-Au) :   0.1907 B(  2-Au, 10-Cr) :   0.4397
B(  3-Au,  5-Au) :   0.2884 B(  3-Au,  7-Au) :   0.4666 B(  3-Au,  9-Au) :   0.4462
B(  3-Au, 10-Cr) :   0.4846 B(  4-Au,  6-Au) :   0.1656 B(  4-Au,  8-Au) :   0.1062
B(  4-Au,  9-Au) :   0.2890 B(  4-Au, 10-Cr) :   0.3574 B(  5-Au, 10-Cr) :   0.3574
B(  6-Au, 10-Cr) :   0.4396 B(  7-Au,  9-Au) :   0.4676 B(  8-Au,  9-Au) :   0.1950
B(  8-Au, 10-Cr) :   0.3036 B(  9-Au, 10-Cr) :   0.4854

FINAL SINGLE POINT ENERGY     -2396.246835366317

DIPOLE MOMENT
-------------
                                X             Y             Z
Electronic contribution:     -4.86178      -2.82913     -25.85349
Nuclear contribution   :      4.94295       2.51354      25.79589
                        -----------------------------------------
Total Dipole Moment    :      0.08117      -0.31560      -0.05760
                        -----------------------------------------
Magnitude (a.u.)       :      0.33092
Magnitude (Debye)      :      0.84112

Rotational constants in cm-1:     0.002208     0.001491     0.001173
Rotational constants in MHz :    66.180446    44.700447    35.173789

                             ****ORCA TERMINATED NORMALLY****
TOTAL RUN TIME: 0 days 0 hours 24 minutes 53 seconds 928 msec
