                         Program Version 5.0.3 -  RELEASE  -
|  1> !RI-B2PLYP def2-TZVP def2-TZVP/C
|  2> !RIJCOSX VERYSLOWCONV
|  3>
|  4> %scf
|  5>   AutoTRAHIter 200
|  6>   maxiter 400
|  7> end
|  8>
|  9>
| 10> %pal nprocs 6 end
| 11>
| 12> *xyzfile 0 5 pbe.xyz
| 13>
| 14> $new_job
| 15>
| 16> !RI-B2PLYP def2-TZVP def2-TZVP/C
| 17> !RIJCOSX VERYSLOWCONV
| 18>
| 19> %scf
| 20>   AutoTRAHIter 200
| 21>   maxiter 400
| 22> end
| 23>
| 24>
| 25> %pal nprocs 6 end
| 26>
| 27> *xyzfile 0 3 pbe.xyz
| 28>
| 29>
| 30>
| 31>
| 32>
| 33>                          ****END OF INPUT****
 Total Charge           Charge          ....    0
 Multiplicity           Mult            ....    5
 Number of Electrons    NEL             ....  328
MP2 TOTAL ENERGY:    -3213.764651807 Eh
FINAL SINGLE POINT ENERGY     -3213.764651807019

CARTESIAN COORDINATES (ANGSTROEM)
---------------------------------
  Au     6.936422    5.441489    8.102389
  Au     9.413759    5.408465    9.238192
  Au     5.545139    7.596150    7.093305
  Au     8.370745    9.699361   10.651653
  Au    10.241532    7.721885   10.542859
  Au     6.014834    9.321355    9.188003
  Au     7.381741    7.106148   10.260792
  Au    10.312030    9.661058    8.446402
  Au    11.335754    7.037710    8.085769
  Au     9.331356    5.982915    6.432396
  Au     7.971457   11.320400    8.484440
  Au     6.797917    5.802356    5.331829
  Au     7.958842    8.274251    5.040505
  Au     6.384650   10.145715    6.478642
  Au    10.665189    8.390565    5.824000
  Au     9.113613   10.622697    6.068825
  Cr     8.160016    8.148074    7.808882

 Multiplicity           Mult            ....    3
 Number of Electrons    NEL             ....  328
 Basis Dimension        Dim             ....  685

ORBITAL ENERGIES
----------------
                 SPIN UP ORBITALS
  NO   OCC          E(Eh)            E(eV)
   0   1.0000    -217.784463     -5926.2165
   1   1.0000     -25.469689      -693.0655
   2   1.0000     -21.611680      -588.0837
   3   1.0000     -21.605862      -587.9254
   4   1.0000     -21.604377      -587.8850
   5   1.0000      -4.412930      -120.0819
   6   1.0000      -4.411219      -120.0354
   7   1.0000      -4.410563      -120.0175
   8   1.0000      -4.408749      -119.9681
   9   1.0000      -4.408102      -119.9506
  10   1.0000      -4.406219      -119.8993
  11   1.0000      -4.405335      -119.8753
  12   1.0000      -4.402218      -119.7904
  13   1.0000      -4.401547      -119.7722
  14   1.0000      -4.401441      -119.7693
  15   1.0000      -4.400038      -119.7311
  16   1.0000      -4.399155      -119.7071
  17   1.0000      -4.398807      -119.6976
  18   1.0000      -4.398427      -119.6873
  19   1.0000      -4.392629      -119.5295
  20   1.0000      -4.391770      -119.5061
  21   1.0000      -3.258766       -88.6755
  22   1.0000      -2.531923       -68.8971
  23   1.0000      -2.530174       -68.8495
  24   1.0000      -2.530024       -68.8455
  25   1.0000      -2.529690       -68.8364
  26   1.0000      -2.529401       -68.8285
  27   1.0000      -2.529308       -68.8260
  28   1.0000      -2.529237       -68.8240
  29   1.0000      -2.528956       -68.8164
  30   1.0000      -2.528267       -68.7976
  31   1.0000      -2.527862       -68.7866
  32   1.0000      -2.527303       -68.7714
  33   1.0000      -2.525903       -68.7333
  34   1.0000      -2.525665       -68.7268
  35   1.0000      -2.525034       -68.7097
  36   1.0000      -2.524556       -68.6967
  37   1.0000      -2.524032       -68.6824
  38   1.0000      -2.523814       -68.6765
  39   1.0000      -2.522729       -68.6469
  40   1.0000      -2.522555       -68.6422
  41   1.0000      -2.521877       -68.6238
  42   1.0000      -2.521528       -68.6143
  43   1.0000      -2.521399       -68.6108
  44   1.0000      -2.520811       -68.5948
  45   1.0000      -2.520658       -68.5906
  46   1.0000      -2.519596       -68.5617
  47   1.0000      -2.519041       -68.5466
  48   1.0000      -2.518736       -68.5383
  49   1.0000      -2.518277       -68.5258
  50   1.0000      -2.518057       -68.5198
  51   1.0000      -2.517799       -68.5128
  52   1.0000      -2.517504       -68.5048
  53   1.0000      -2.516921       -68.4889
  54   1.0000      -2.516451       -68.4761
  55   1.0000      -2.515899       -68.4611
  56   1.0000      -2.515652       -68.4544
  57   1.0000      -2.515464       -68.4493
  58   1.0000      -2.515353       -68.4462
  59   1.0000      -2.514527       -68.4238
  60   1.0000      -2.514226       -68.4156
  61   1.0000      -2.514029       -68.4102
  62   1.0000      -2.513782       -68.4035
  63   1.0000      -2.513589       -68.3982
  64   1.0000      -2.509427       -68.2850
  65   1.0000      -2.509238       -68.2798
  66   1.0000      -2.509010       -68.2736
  67   1.0000      -2.508755       -68.2667
  68   1.0000      -2.507668       -68.2371
  69   1.0000      -2.507323       -68.2277
  70   1.0000      -2.149162       -58.4817
  71   1.0000      -2.146389       -58.4062
  72   1.0000      -2.135188       -58.1014
  73   1.0000      -0.505126       -13.7452
  74   1.0000      -0.489964       -13.3326
  75   1.0000      -0.488242       -13.2857
  76   1.0000      -0.482760       -13.1366
  77   1.0000      -0.474443       -12.9102
  78   1.0000      -0.473591       -12.8871
  79   1.0000      -0.470492       -12.8027
  80   1.0000      -0.469834       -12.7848
  81   1.0000      -0.468909       -12.7597
  82   1.0000      -0.467659       -12.7256
  83   1.0000      -0.465474       -12.6662
  84   1.0000      -0.465156       -12.6575
  85   1.0000      -0.464230       -12.6323
  86   1.0000      -0.462761       -12.5924
  87   1.0000      -0.462091       -12.5741
  88   1.0000      -0.460807       -12.5392
  89   1.0000      -0.459363       -12.4999
  90   1.0000      -0.457273       -12.4430
  91   1.0000      -0.456975       -12.4349
  92   1.0000      -0.454741       -12.3741
  93   1.0000      -0.453511       -12.3407
  94   1.0000      -0.452111       -12.3026
  95   1.0000      -0.451122       -12.2756
  96   1.0000      -0.450291       -12.2530
  97   1.0000      -0.448910       -12.2155
  98   1.0000      -0.446934       -12.1617
  99   1.0000      -0.444986       -12.1087
 100   1.0000      -0.439147       -11.9498
 101   1.0000      -0.437961       -11.9175
 102   1.0000      -0.434314       -11.8183
 103   1.0000      -0.432923       -11.7804
 104   1.0000      -0.430721       -11.7205
 105   1.0000      -0.429027       -11.6744
 106   1.0000      -0.427698       -11.6383
 107   1.0000      -0.422461       -11.4957
 108   1.0000      -0.420691       -11.4476
 109   1.0000      -0.417484       -11.3603
 110   1.0000      -0.414209       -11.2712
 111   1.0000      -0.412381       -11.2214
 112   1.0000      -0.408891       -11.1265
 113   1.0000      -0.408251       -11.1091
 114   1.0000      -0.405156       -11.0249
 115   1.0000      -0.401279       -10.9194
 116   1.0000      -0.400092       -10.8871
 117   1.0000      -0.396022       -10.7763
 118   1.0000      -0.395182       -10.7534
 119   1.0000      -0.391676       -10.6580
 120   1.0000      -0.384742       -10.4693
 121   1.0000      -0.380845       -10.3633
 122   1.0000      -0.379720       -10.3327
 123   1.0000      -0.379310       -10.3215
 124   1.0000      -0.378319       -10.2946
 125   1.0000      -0.377355       -10.2684
 126   1.0000      -0.376006       -10.2316
 127   1.0000      -0.373245       -10.1565
 128   1.0000      -0.372246       -10.1293
 129   1.0000      -0.371920       -10.1205
 130   1.0000      -0.370252       -10.0751
 131   1.0000      -0.369053       -10.0424
 132   1.0000      -0.367449        -9.9988
 133   1.0000      -0.367105        -9.9894
 134   1.0000      -0.365297        -9.9402
 135   1.0000      -0.364954        -9.9309
 136   1.0000      -0.363371        -9.8878
 137   1.0000      -0.363068        -9.8796
 138   1.0000      -0.361769        -9.8442
 139   1.0000      -0.360489        -9.8094
 140   1.0000      -0.358456        -9.7541
 141   1.0000      -0.357184        -9.7195
 142   1.0000      -0.356033        -9.6882
 143   1.0000      -0.354457        -9.6453
 144   1.0000      -0.353021        -9.6062
 145   1.0000      -0.350294        -9.5320
 146   1.0000      -0.348518        -9.4837
 147   1.0000      -0.345061        -9.3896
 148   1.0000      -0.343926        -9.3587
 149   1.0000      -0.342582        -9.3221
 150   1.0000      -0.341445        -9.2912
 151   1.0000      -0.338813        -9.2196
 152   1.0000      -0.337446        -9.1824
 153   1.0000      -0.334853        -9.1118
 154   1.0000      -0.332120        -9.0374
 155   1.0000      -0.331481        -9.0201
 156   1.0000      -0.327766        -8.9190
 157   1.0000      -0.324043        -8.8176
 158   1.0000      -0.321805        -8.7568
 159   1.0000      -0.319040        -8.6815
 160   1.0000      -0.315580        -8.5874
 161   1.0000      -0.247725        -6.7409
 162   1.0000      -0.245659        -6.6847
 163   1.0000      -0.236021        -6.4225
 164   1.0000      -0.228895        -6.2285
 165   0.0000      -0.144308        -3.9268
 166   0.0000      -0.090011        -2.4493
 167   0.0000      -0.079434        -2.1615
 168   0.0000      -0.072799        -1.9810
 169   0.0000      -0.071956        -1.9580

                 SPIN DOWN ORBITALS
  NO   OCC          E(Eh)            E(eV)
   0   1.0000    -217.783534     -5926.1912
   1   1.0000     -25.398998      -691.1419
   2   1.0000     -21.556457      -586.5810
   3   1.0000     -21.537271      -586.0589
   4   1.0000     -21.531771      -585.9093
   5   1.0000      -4.414012      -120.1114
   6   1.0000      -4.412538      -120.0713
   7   1.0000      -4.411154      -120.0336
   8   1.0000      -4.409901      -119.9995
   9   1.0000      -4.408410      -119.9589
  10   1.0000      -4.405733      -119.8861
  11   1.0000      -4.405555      -119.8812
  12   1.0000      -4.402284      -119.7922
  13   1.0000      -4.402121      -119.7878
  14   1.0000      -4.401554      -119.7724
  15   1.0000      -4.400571      -119.7456
  16   1.0000      -4.400322      -119.7389
  17   1.0000      -4.399442      -119.7149
  18   1.0000      -4.399248      -119.7096
  19   1.0000      -4.394619      -119.5837
  20   1.0000      -4.392065      -119.5142
  21   1.0000      -3.043643       -82.8217
  22   1.0000      -2.532108       -68.9022
  23   1.0000      -2.531444       -68.8841
  24   1.0000      -2.531047       -68.8733
  25   1.0000      -2.530024       -68.8454
  26   1.0000      -2.529871       -68.8413
  27   1.0000      -2.529764       -68.8384
  28   1.0000      -2.529588       -68.8336
  29   1.0000      -2.529298       -68.8257
  30   1.0000      -2.528981       -68.8171
  31   1.0000      -2.528813       -68.8125
  32   1.0000      -2.527103       -68.7660
  33   1.0000      -2.526865       -68.7595
  34   1.0000      -2.526233       -68.7423
  35   1.0000      -2.525382       -68.7191
  36   1.0000      -2.524575       -68.6972
  37   1.0000      -2.523903       -68.6789
  38   1.0000      -2.523388       -68.6649
  39   1.0000      -2.522900       -68.6516
  40   1.0000      -2.522511       -68.6410
  41   1.0000      -2.521841       -68.6228
  42   1.0000      -2.521639       -68.6173
  43   1.0000      -2.521239       -68.6064
  44   1.0000      -2.521028       -68.6007
  45   1.0000      -2.520585       -68.5886
  46   1.0000      -2.519774       -68.5665
  47   1.0000      -2.519333       -68.5545
  48   1.0000      -2.518810       -68.5403
  49   1.0000      -2.518566       -68.5337
  50   1.0000      -2.518406       -68.5293
  51   1.0000      -2.518135       -68.5219
  52   1.0000      -2.517420       -68.5025
  53   1.0000      -2.517302       -68.4993
  54   1.0000      -2.516962       -68.4900
  55   1.0000      -2.516548       -68.4788
  56   1.0000      -2.516224       -68.4699
  57   1.0000      -2.516110       -68.4668
  58   1.0000      -2.515786       -68.4580
  59   1.0000      -2.515642       -68.4541
  60   1.0000      -2.514960       -68.4355
  61   1.0000      -2.514811       -68.4315
  62   1.0000      -2.514315       -68.4180
  63   1.0000      -2.514238       -68.4159
  64   1.0000      -2.512194       -68.3603
  65   1.0000      -2.511073       -68.3298
  66   1.0000      -2.509674       -68.2917
  67   1.0000      -2.509573       -68.2889
  68   1.0000      -2.508444       -68.2582
  69   1.0000      -2.507267       -68.2262
  70   1.0000      -1.929313       -52.4993
  71   1.0000      -1.885029       -51.2942
  72   1.0000      -1.872317       -50.9483
  73   1.0000      -0.507099       -13.7989
  74   1.0000      -0.477677       -12.9982
  75   1.0000      -0.475908       -12.9501
  76   1.0000      -0.473514       -12.8850
  77   1.0000      -0.472687       -12.8625
  78   1.0000      -0.470583       -12.8052
  79   1.0000      -0.470209       -12.7950
  80   1.0000      -0.469174       -12.7669
  81   1.0000      -0.468133       -12.7385
  82   1.0000      -0.467701       -12.7268
  83   1.0000      -0.467108       -12.7107
  84   1.0000      -0.466133       -12.6841
  85   1.0000      -0.463669       -12.6171
  86   1.0000      -0.463317       -12.6075
  87   1.0000      -0.461688       -12.5632
  88   1.0000      -0.459960       -12.5162
  89   1.0000      -0.459354       -12.4997
  90   1.0000      -0.458157       -12.4671
  91   1.0000      -0.457822       -12.4580
  92   1.0000      -0.455526       -12.3955
  93   1.0000      -0.454725       -12.3737
  94   1.0000      -0.452579       -12.3153
  95   1.0000      -0.451110       -12.2753
  96   1.0000      -0.450620       -12.2620
  97   1.0000      -0.449200       -12.2234
  98   1.0000      -0.447742       -12.1837
  99   1.0000      -0.446177       -12.1411
 100   1.0000      -0.439113       -11.9489
 101   1.0000      -0.434342       -11.8191
 102   1.0000      -0.432393       -11.7660
 103   1.0000      -0.430565       -11.7163
 104   1.0000      -0.429970       -11.7001
 105   1.0000      -0.426052       -11.5935
 106   1.0000      -0.421849       -11.4791
 107   1.0000      -0.421396       -11.4668
 108   1.0000      -0.419301       -11.4098
 109   1.0000      -0.415974       -11.3192
 110   1.0000      -0.414846       -11.2885
 111   1.0000      -0.409169       -11.1340
 112   1.0000      -0.406828       -11.0703
 113   1.0000      -0.404848       -11.0165
 114   1.0000      -0.398144       -10.8341
 115   1.0000      -0.396062       -10.7774
 116   1.0000      -0.395045       -10.7497
 117   1.0000      -0.392370       -10.6769
 118   1.0000      -0.389861       -10.6086
 119   1.0000      -0.384537       -10.4638
 120   1.0000      -0.382074       -10.3968
 121   1.0000      -0.380822       -10.3627
 122   1.0000      -0.379026       -10.3138
 123   1.0000      -0.378863       -10.3094
 124   1.0000      -0.377825       -10.2811
 125   1.0000      -0.375850       -10.2274
 126   1.0000      -0.374345       -10.1864
 127   1.0000      -0.373616       -10.1666
 128   1.0000      -0.372103       -10.1254
 129   1.0000      -0.370118       -10.0714
 130   1.0000      -0.369718       -10.0605
 131   1.0000      -0.367924       -10.0117
 132   1.0000      -0.367174        -9.9913
 133   1.0000      -0.366035        -9.9603
 134   1.0000      -0.364570        -9.9205
 135   1.0000      -0.363729        -9.8976
 136   1.0000      -0.362221        -9.8565
 137   1.0000      -0.359897        -9.7933
 138   1.0000      -0.358638        -9.7590
 139   1.0000      -0.357570        -9.7300
 140   1.0000      -0.357352        -9.7241
 141   1.0000      -0.355006        -9.6602
 142   1.0000      -0.352242        -9.5850
 143   1.0000      -0.349780        -9.5180
 144   1.0000      -0.346513        -9.4291
 145   1.0000      -0.345054        -9.3894
 146   1.0000      -0.343963        -9.3597
 147   1.0000      -0.343290        -9.3414
 148   1.0000      -0.339449        -9.2369
 149   1.0000      -0.337222        -9.1763
 150   1.0000      -0.336314        -9.1516
 151   1.0000      -0.334753        -9.1091
 152   1.0000      -0.330816        -9.0020
 153   1.0000      -0.330148        -8.9838
 154   1.0000      -0.325898        -8.8681
 155   1.0000      -0.325139        -8.8475
 156   1.0000      -0.319465        -8.6931
 157   1.0000      -0.261761        -7.1229
 158   1.0000      -0.250589        -6.8189
 159   1.0000      -0.244252        -6.6464
 160   1.0000      -0.243645        -6.6299
 161   1.0000      -0.238095        -6.4789
 162   1.0000      -0.163843        -4.4584
 163   0.0000      -0.078919        -2.1475
 164   0.0000      -0.077767        -2.1162
 165   0.0000      -0.074545        -2.0285
 166   0.0000      -0.070987        -1.9316
 167   0.0000      -0.064790        -1.7630

MULLIKEN ATOMIC CHARGES AND SPIN POPULATIONS
--------------------------------------------
   0 Au:    0.367339   -0.066809
   1 Au:    0.401704   -0.045842
   2 Au:    0.405126   -0.106840
   3 Au:    0.461625   -0.018972
   4 Au:    0.275125   -0.004415
   5 Au:    0.425909   -0.050543
   6 Au:    0.354011   -0.038849
   7 Au:    0.124066   -0.147031
   8 Au:    0.341835   -0.221414
   9 Au:    0.212462   -0.116166
  10 Au:    0.392451   -0.137572
  11 Au:    0.357614   -0.308405
  12 Au:    0.304383    0.007942
  13 Au:    0.433127    0.004934
  14 Au:    0.377933   -0.114403
  15 Au:    0.459270   -0.169409
  16 Cr:   -5.693980    3.533794
Sum of atomic charges         :    0.0000000

LOEWDIN ATOMIC CHARGES AND SPIN POPULATIONS
-------------------------------------------
   0 Au:    0.066250   -0.113504
   1 Au:    0.073739   -0.072722
   2 Au:    0.069093   -0.121810
   3 Au:    0.084090   -0.061296
   4 Au:    0.049738   -0.058320
   5 Au:    0.086795   -0.076693
   6 Au:    0.082278   -0.059111
   7 Au:    0.054294   -0.111891
   8 Au:    0.051472   -0.185746
   9 Au:    0.052642   -0.102510
  10 Au:    0.079582   -0.125799
  11 Au:    0.099727   -0.239585
  12 Au:    0.059384   -0.056763
  13 Au:    0.096791   -0.034905
  14 Au:    0.089890   -0.133712
  15 Au:    0.066151   -0.134115
  16 Cr:   -1.161917    3.688481

  Mayer bond orders larger than 0.100000
B(  0-Au,  1-Au) :   0.1976 B(  0-Au,  2-Au) :   0.1684 B(  0-Au,  6-Au) :   0.1989
B(  0-Au,  9-Au) :   0.1624 B(  0-Au, 11-Au) :   0.2155 B(  0-Au, 16-Cr) :   0.3803
B(  1-Au,  4-Au) :   0.1995 B(  1-Au,  6-Au) :   0.1653 B(  1-Au,  8-Au) :   0.1857
B(  1-Au,  9-Au) :   0.1495 B(  1-Au, 16-Cr) :   0.3470 B(  2-Au,  5-Au) :   0.2170
B(  2-Au,  7-Au) :   0.1098 B(  2-Au, 11-Au) :   0.2085 B(  2-Au, 13-Au) :   0.2154
B(  2-Au, 16-Cr) :   0.4045 B(  3-Au,  4-Au) :   0.1667 B(  3-Au,  5-Au) :   0.1672
B(  3-Au,  6-Au) :   0.1558 B(  3-Au,  7-Au) :   0.1541 B(  3-Au, 10-Au) :   0.1642
B(  3-Au, 16-Cr) :   0.3849 B(  4-Au,  6-Au) :   0.1021 B(  4-Au,  7-Au) :   0.1534
B(  4-Au,  8-Au) :   0.2254 B(  4-Au, 16-Cr) :   0.4475 B(  5-Au,  6-Au) :   0.2199
B(  5-Au,  9-Au) :   0.1022 B(  5-Au, 10-Au) :   0.1237 B(  5-Au, 13-Au) :   0.1512
B(  5-Au, 16-Cr) :   0.3803 B(  6-Au, 12-Au) :   0.1008 B(  6-Au, 16-Cr) :   0.4910
B(  7-Au, 10-Au) :   0.1667 B(  7-Au, 14-Au) :   0.1213 B(  7-Au, 15-Au) :   0.1430
B(  7-Au, 16-Cr) :   0.5596 B(  8-Au,  9-Au) :   0.1279 B(  8-Au, 14-Au) :   0.2108
B(  8-Au, 16-Cr) :   0.3994 B(  9-Au, 11-Au) :   0.1751 B(  9-Au, 12-Au) :   0.1542
B(  9-Au, 14-Au) :   0.1123 B(  9-Au, 16-Cr) :   0.4086 B( 10-Au, 13-Au) :   0.1531
B( 10-Au, 15-Au) :   0.2180 B( 10-Au, 16-Cr) :   0.3607 B( 11-Au, 12-Au) :   0.1896
B( 11-Au, 16-Cr) :   0.2763 B( 12-Au, 13-Au) :   0.1938 B( 12-Au, 14-Au) :   0.1137
B( 12-Au, 15-Au) :   0.1417 B( 12-Au, 16-Cr) :   0.4713 B( 13-Au, 15-Au) :   0.1561
B( 13-Au, 16-Cr) :   0.3486 B( 14-Au, 15-Au) :   0.1970 B( 14-Au, 16-Cr) :   0.5473
B( 15-Au, 16-Cr) :   0.3244

MP2 TOTAL ENERGY:    -3213.707881936 Eh
FINAL SINGLE POINT ENERGY     -3213.707881936166

DIPOLE MOMENT
-------------
                                X             Y             Z
Electronic contribution:      6.97622      -1.79068       0.67381
Nuclear contribution   :     -7.09090       1.84549      -0.72325
                        -----------------------------------------
Total Dipole Moment    :     -0.11469       0.05481      -0.04944
                        -----------------------------------------
Magnitude (a.u.)       :      0.13639
Magnitude (Debye)      :      0.34668

Rotational constants in cm-1:     0.000877     0.000866     0.000783
Rotational constants in MHz :    26.304032    25.969922    23.486064

                             ****ORCA TERMINATED NORMALLY****
TOTAL RUN TIME: 0 days 3 hours 45 minutes 2 seconds 302 msec
