                         Program Version 5.0.3 -  RELEASE  -
|  1> !PBE def2-TZVP VERYSLOWCONV
|  2>
|  3> %scf
|  4>   AutoTRAHIter 200
|  5>   maxiter 400
|  6> end
|  7>
|  8>
|  9> %pal nprocs 6 end
| 10>
| 11> *xyzfile 0 5 pbe.xyz
| 12>
| 13> $new_job
| 14>
| 15> !PBE def2-TZVP VERYSLOWCONV
| 16>
| 17> %scf
| 18>   AutoTRAHIter 200
| 19>   maxiter 400
| 20> end
| 21>
| 22>
| 23> %pal nprocs 6 end
| 24>
| 25> *xyzfile 0 3 pbe.xyz
| 26>
| 27>
| 28>
| 29>
| 30>
| 31>                          ****END OF INPUT****
 Total Charge           Charge          ....    0
 Multiplicity           Mult            ....    5
 Number of Electrons    NEL             ....  328
FINAL SINGLE POINT ENERGY     -3217.525583760714

CARTESIAN COORDINATES (ANGSTROEM)
---------------------------------
  Au     6.936422    5.441489    8.102389
  Au     9.413759    5.408465    9.238192
  Au     5.545139    7.596150    7.093305
  Au     8.370745    9.699361   10.651653
  Au    10.241532    7.721885   10.542859
  Au     6.014834    9.321355    9.188003
  Au     7.381741    7.106148   10.260792
  Au    10.312030    9.661058    8.446402
  Au    11.335754    7.037710    8.085769
  Au     9.331356    5.982915    6.432396
  Au     7.971457   11.320400    8.484440
  Au     6.797917    5.802356    5.331829
  Au     7.958842    8.274251    5.040505
  Au     6.384650   10.145715    6.478642
  Au    10.665189    8.390565    5.824000
  Au     9.113613   10.622697    6.068825
  Cr     8.160016    8.148074    7.808882

 Multiplicity           Mult            ....    3
 Number of Electrons    NEL             ....  328
 Basis Dimension        Dim             ....  685

ORBITAL ENERGIES
----------------
                 SPIN UP ORBITALS
  NO   OCC          E(Eh)            E(eV)
   0   1.0000    -214.515570     -5837.2654
   1   1.0000     -24.315262      -661.6519
   2   1.0000     -20.679913      -562.7290
   3   1.0000     -20.678097      -562.6796
   4   1.0000     -20.677682      -562.6683
   5   1.0000      -4.043430      -110.0273
   6   1.0000      -4.041820      -109.9835
   7   1.0000      -4.041485      -109.9744
   8   1.0000      -4.039912      -109.9316
   9   1.0000      -4.038977      -109.9061
  10   1.0000      -4.036382      -109.8355
  11   1.0000      -4.032190      -109.7215
  12   1.0000      -4.031889      -109.7133
  13   1.0000      -4.031432      -109.7008
  14   1.0000      -4.030945      -109.6876
  15   1.0000      -4.029394      -109.6454
  16   1.0000      -4.028905      -109.6321
  17   1.0000      -4.028557      -109.6226
  18   1.0000      -4.027402      -109.5912
  19   1.0000      -4.024746      -109.5189
  20   1.0000      -4.021338      -109.4262
  21   1.0000      -2.819705       -76.7281
  22   1.0000      -2.257460       -61.4286
  23   1.0000      -2.256425       -61.4004
  24   1.0000      -2.255922       -61.3868
  25   1.0000      -2.255781       -61.3829
  26   1.0000      -2.255439       -61.3736
  27   1.0000      -2.255015       -61.3621
  28   1.0000      -2.254838       -61.3573
  29   1.0000      -2.254747       -61.3548
  30   1.0000      -2.254113       -61.3375
  31   1.0000      -2.253140       -61.3111
  32   1.0000      -2.252687       -61.2987
  33   1.0000      -2.252571       -61.2956
  34   1.0000      -2.251647       -61.2704
  35   1.0000      -2.251115       -61.2560
  36   1.0000      -2.250967       -61.2519
  37   1.0000      -2.250089       -61.2280
  38   1.0000      -2.249897       -61.2228
  39   1.0000      -2.248530       -61.1856
  40   1.0000      -2.247715       -61.1634
  41   1.0000      -2.247369       -61.1540
  42   1.0000      -2.246576       -61.1325
  43   1.0000      -2.246226       -61.1229
  44   1.0000      -2.245515       -61.1036
  45   1.0000      -2.244661       -61.0803
  46   1.0000      -2.244237       -61.0688
  47   1.0000      -2.243958       -61.0612
  48   1.0000      -2.243833       -61.0578
  49   1.0000      -2.243529       -61.0495
  50   1.0000      -2.243219       -61.0411
  51   1.0000      -2.242836       -61.0307
  52   1.0000      -2.242654       -61.0257
  53   1.0000      -2.242341       -61.0172
  54   1.0000      -2.242136       -61.0116
  55   1.0000      -2.241880       -61.0046
  56   1.0000      -2.241369       -60.9907
  57   1.0000      -2.240924       -60.9786
  58   1.0000      -2.240684       -60.9721
  59   1.0000      -2.240043       -60.9547
  60   1.0000      -2.239470       -60.9391
  61   1.0000      -2.239353       -60.9359
  62   1.0000      -2.238615       -60.9158
  63   1.0000      -2.238238       -60.9056
  64   1.0000      -2.237939       -60.8974
  65   1.0000      -2.237033       -60.8728
  66   1.0000      -2.234535       -60.8048
  67   1.0000      -2.234357       -60.7999
  68   1.0000      -2.233831       -60.7856
  69   1.0000      -2.233430       -60.7747
  70   1.0000      -1.810883       -49.2766
  71   1.0000      -1.808630       -49.2153
  72   1.0000      -1.807299       -49.1791
  73   1.0000      -0.436199       -11.8696
  74   1.0000      -0.395381       -10.7589
  75   1.0000      -0.394449       -10.7335
  76   1.0000      -0.392359       -10.6766
  77   1.0000      -0.377701       -10.2778
  78   1.0000      -0.377066       -10.2605
  79   1.0000      -0.376332       -10.2405
  80   1.0000      -0.373768       -10.1708
  81   1.0000      -0.371434       -10.1072
  82   1.0000      -0.370688       -10.0869
  83   1.0000      -0.365331        -9.9411
  84   1.0000      -0.363863        -9.9012
  85   1.0000      -0.362883        -9.8746
  86   1.0000      -0.361859        -9.8467
  87   1.0000      -0.359758        -9.7895
  88   1.0000      -0.357829        -9.7370
  89   1.0000      -0.356456        -9.6997
  90   1.0000      -0.353443        -9.6177
  91   1.0000      -0.353399        -9.6165
  92   1.0000      -0.352801        -9.6002
  93   1.0000      -0.351949        -9.5770
  94   1.0000      -0.349262        -9.5039
  95   1.0000      -0.347900        -9.4668
  96   1.0000      -0.346200        -9.4206
  97   1.0000      -0.345753        -9.4084
  98   1.0000      -0.344056        -9.3622
  99   1.0000      -0.340882        -9.2759
 100   1.0000      -0.336528        -9.1574
 101   1.0000      -0.333992        -9.0884
 102   1.0000      -0.332654        -9.0520
 103   1.0000      -0.332273        -9.0416
 104   1.0000      -0.330080        -8.9819
 105   1.0000      -0.328985        -8.9521
 106   1.0000      -0.327452        -8.9104
 107   1.0000      -0.322412        -8.7733
 108   1.0000      -0.320981        -8.7343
 109   1.0000      -0.316816        -8.6210
 110   1.0000      -0.315163        -8.5760
 111   1.0000      -0.311810        -8.4848
 112   1.0000      -0.309219        -8.4143
 113   1.0000      -0.308624        -8.3981
 114   1.0000      -0.302083        -8.2201
 115   1.0000      -0.300236        -8.1698
 116   1.0000      -0.297387        -8.0923
 117   1.0000      -0.295985        -8.0542
 118   1.0000      -0.294664        -8.0182
 119   1.0000      -0.291804        -7.9404
 120   1.0000      -0.287317        -7.8183
 121   1.0000      -0.284030        -7.7288
 122   1.0000      -0.283393        -7.7115
 123   1.0000      -0.282518        -7.6877
 124   1.0000      -0.281144        -7.6503
 125   1.0000      -0.280849        -7.6423
 126   1.0000      -0.278031        -7.5656
 127   1.0000      -0.276969        -7.5367
 128   1.0000      -0.275815        -7.5053
 129   1.0000      -0.274354        -7.4655
 130   1.0000      -0.273604        -7.4452
 131   1.0000      -0.272772        -7.4225
 132   1.0000      -0.271730        -7.3941
 133   1.0000      -0.270753        -7.3676
 134   1.0000      -0.269666        -7.3380
 135   1.0000      -0.268835        -7.3154
 136   1.0000      -0.267907        -7.2901
 137   1.0000      -0.265713        -7.2304
 138   1.0000      -0.265072        -7.2130
 139   1.0000      -0.264448        -7.1960
 140   1.0000      -0.263456        -7.1690
 141   1.0000      -0.262137        -7.1331
 142   1.0000      -0.260035        -7.0759
 143   1.0000      -0.257629        -7.0104
 144   1.0000      -0.256704        -6.9853
 145   1.0000      -0.254615        -6.9284
 146   1.0000      -0.253317        -6.8931
 147   1.0000      -0.252234        -6.8636
 148   1.0000      -0.250697        -6.8218
 149   1.0000      -0.250056        -6.8044
 150   1.0000      -0.249052        -6.7771
 151   1.0000      -0.248376        -6.7587
 152   1.0000      -0.247908        -6.7459
 153   1.0000      -0.246675        -6.7124
 154   1.0000      -0.246317        -6.7026
 155   1.0000      -0.240745        -6.5510
 156   1.0000      -0.239555        -6.5186
 157   1.0000      -0.238056        -6.4778
 158   1.0000      -0.236663        -6.4399
 159   1.0000      -0.234194        -6.3727
 160   1.0000      -0.228476        -6.2171
 161   1.0000      -0.224306        -6.1037
 162   1.0000      -0.215161        -5.8548
 163   1.0000      -0.207381        -5.6431
 164   1.0000      -0.206432        -5.6173
 165   0.0000      -0.196648        -5.3511
 166   0.0000      -0.188833        -5.1384
 167   0.0000      -0.153918        -4.1883
 168   0.0000      -0.140646        -3.8272
 169   0.0000      -0.138610        -3.7718

                 SPIN DOWN ORBITALS
  NO   OCC          E(Eh)            E(eV)
   0   1.0000    -214.515283     -5837.2576
   1   1.0000     -24.267825      -660.3611
   2   1.0000     -20.645133      -561.7826
   3   1.0000     -20.641177      -561.6750
   4   1.0000     -20.640773      -561.6640
   5   1.0000      -4.044213      -110.0486
   6   1.0000      -4.042292      -109.9964
   7   1.0000      -4.041996      -109.9883
   8   1.0000      -4.040390      -109.9446
   9   1.0000      -4.038973      -109.9061
  10   1.0000      -4.036613      -109.8418
  11   1.0000      -4.032627      -109.7334
  12   1.0000      -4.031856      -109.7124
  13   1.0000      -4.031363      -109.6990
  14   1.0000      -4.031078      -109.6912
  15   1.0000      -4.029689      -109.6534
  16   1.0000      -4.029445      -109.6468
  17   1.0000      -4.028756      -109.6280
  18   1.0000      -4.027882      -109.6042
  19   1.0000      -4.025166      -109.5303
  20   1.0000      -4.022127      -109.4476
  21   1.0000      -2.692141       -73.2569
  22   1.0000      -2.258204       -61.4489
  23   1.0000      -2.256892       -61.4132
  24   1.0000      -2.256549       -61.4038
  25   1.0000      -2.256535       -61.4034
  26   1.0000      -2.256047       -61.3902
  27   1.0000      -2.255688       -61.3804
  28   1.0000      -2.255649       -61.3793
  29   1.0000      -2.255405       -61.3727
  30   1.0000      -2.254254       -61.3414
  31   1.0000      -2.253681       -61.3258
  32   1.0000      -2.253106       -61.3101
  33   1.0000      -2.252828       -61.3026
  34   1.0000      -2.251719       -61.2724
  35   1.0000      -2.251429       -61.2645
  36   1.0000      -2.251306       -61.2612
  37   1.0000      -2.250138       -61.2294
  38   1.0000      -2.250042       -61.2267
  39   1.0000      -2.249009       -61.1987
  40   1.0000      -2.247901       -61.1685
  41   1.0000      -2.247517       -61.1580
  42   1.0000      -2.246874       -61.1405
  43   1.0000      -2.246597       -61.1330
  44   1.0000      -2.245762       -61.1103
  45   1.0000      -2.244912       -61.0871
  46   1.0000      -2.244407       -61.0734
  47   1.0000      -2.244113       -61.0654
  48   1.0000      -2.243851       -61.0583
  49   1.0000      -2.243591       -61.0512
  50   1.0000      -2.243325       -61.0440
  51   1.0000      -2.243192       -61.0404
  52   1.0000      -2.242778       -61.0291
  53   1.0000      -2.242475       -61.0208
  54   1.0000      -2.242344       -61.0173
  55   1.0000      -2.242123       -61.0113
  56   1.0000      -2.241708       -61.0000
  57   1.0000      -2.241123       -60.9841
  58   1.0000      -2.241099       -60.9834
  59   1.0000      -2.240365       -60.9634
  60   1.0000      -2.239990       -60.9532
  61   1.0000      -2.239668       -60.9445
  62   1.0000      -2.239051       -60.9277
  63   1.0000      -2.238652       -60.9168
  64   1.0000      -2.238289       -60.9070
  65   1.0000      -2.237591       -60.8880
  66   1.0000      -2.235359       -60.8272
  67   1.0000      -2.234932       -60.8156
  68   1.0000      -2.234718       -60.8098
  69   1.0000      -2.234014       -60.7906
  70   1.0000      -1.690022       -45.9878
  71   1.0000      -1.680459       -45.7276
  72   1.0000      -1.679567       -45.7034
  73   1.0000      -0.432645       -11.7729
  74   1.0000      -0.395679       -10.7670
  75   1.0000      -0.394564       -10.7366
  76   1.0000      -0.393012       -10.6944
  77   1.0000      -0.375479       -10.2173
  78   1.0000      -0.374995       -10.2041
  79   1.0000      -0.374604       -10.1935
  80   1.0000      -0.372572       -10.1382
  81   1.0000      -0.370564       -10.0836
  82   1.0000      -0.370141       -10.0721
  83   1.0000      -0.366053        -9.9608
  84   1.0000      -0.364670        -9.9232
  85   1.0000      -0.362856        -9.8738
  86   1.0000      -0.362259        -9.8576
  87   1.0000      -0.360325        -9.8049
  88   1.0000      -0.358162        -9.7461
  89   1.0000      -0.356659        -9.7052
  90   1.0000      -0.354289        -9.6407
  91   1.0000      -0.353839        -9.6285
  92   1.0000      -0.353425        -9.6172
  93   1.0000      -0.352466        -9.5911
  94   1.0000      -0.349566        -9.5122
  95   1.0000      -0.348794        -9.4912
  96   1.0000      -0.347035        -9.4433
  97   1.0000      -0.346500        -9.4288
  98   1.0000      -0.345143        -9.3918
  99   1.0000      -0.341721        -9.2987
 100   1.0000      -0.337086        -9.1726
 101   1.0000      -0.334388        -9.0992
 102   1.0000      -0.332988        -9.0611
 103   1.0000      -0.332585        -9.0501
 104   1.0000      -0.329909        -8.9773
 105   1.0000      -0.327840        -8.9210
 106   1.0000      -0.324759        -8.8372
 107   1.0000      -0.322381        -8.7724
 108   1.0000      -0.320537        -8.7223
 109   1.0000      -0.317107        -8.6289
 110   1.0000      -0.315547        -8.5865
 111   1.0000      -0.311298        -8.4708
 112   1.0000      -0.309049        -8.4096
 113   1.0000      -0.308658        -8.3990
 114   1.0000      -0.301789        -8.2121
 115   1.0000      -0.300645        -8.1810
 116   1.0000      -0.297502        -8.0955
 117   1.0000      -0.296735        -8.0746
 118   1.0000      -0.294692        -8.0190
 119   1.0000      -0.292176        -7.9505
 120   1.0000      -0.288375        -7.8471
 121   1.0000      -0.285373        -7.7654
 122   1.0000      -0.284590        -7.7441
 123   1.0000      -0.283257        -7.7078
 124   1.0000      -0.282107        -7.6765
 125   1.0000      -0.281704        -7.6656
 126   1.0000      -0.279109        -7.5949
 127   1.0000      -0.277804        -7.5594
 128   1.0000      -0.276594        -7.5265
 129   1.0000      -0.275345        -7.4925
 130   1.0000      -0.274529        -7.4703
 131   1.0000      -0.274060        -7.4575
 132   1.0000      -0.272505        -7.4152
 133   1.0000      -0.271756        -7.3949
 134   1.0000      -0.270462        -7.3597
 135   1.0000      -0.269970        -7.3462
 136   1.0000      -0.269041        -7.3210
 137   1.0000      -0.266480        -7.2513
 138   1.0000      -0.265709        -7.2303
 139   1.0000      -0.265349        -7.2205
 140   1.0000      -0.264615        -7.2006
 141   1.0000      -0.263490        -7.1699
 142   1.0000      -0.260939        -7.1005
 143   1.0000      -0.257993        -7.0204
 144   1.0000      -0.257014        -6.9937
 145   1.0000      -0.255506        -6.9527
 146   1.0000      -0.254474        -6.9246
 147   1.0000      -0.253271        -6.8919
 148   1.0000      -0.252046        -6.8585
 149   1.0000      -0.251410        -6.8412
 150   1.0000      -0.249919        -6.8006
 151   1.0000      -0.249509        -6.7895
 152   1.0000      -0.248802        -6.7703
 153   1.0000      -0.247625        -6.7382
 154   1.0000      -0.247433        -6.7330
 155   1.0000      -0.241081        -6.5602
 156   1.0000      -0.236795        -6.4435
 157   1.0000      -0.230572        -6.2742
 158   1.0000      -0.224707        -6.1146
 159   1.0000      -0.220853        -6.0097
 160   1.0000      -0.220020        -5.9870
 161   1.0000      -0.214776        -5.8444
 162   1.0000      -0.156051        -4.2464
 163   0.0000      -0.144248        -3.9252
 164   0.0000      -0.141209        -3.8425
 165   0.0000      -0.140539        -3.8243
 166   0.0000      -0.132956        -3.6179
 167   0.0000      -0.129600        -3.5266

MULLIKEN ATOMIC CHARGES AND SPIN POPULATIONS
--------------------------------------------
   0 Au:    0.379259   -0.009174
   1 Au:    0.397795   -0.018492
   2 Au:    0.406940   -0.058189
   3 Au:    0.454014   -0.005902
   4 Au:    0.312933   -0.068600
   5 Au:    0.448266   -0.054165
   6 Au:    0.358849   -0.047926
   7 Au:    0.101213   -0.116254
   8 Au:    0.393921   -0.177940
   9 Au:    0.176585   -0.098854
  10 Au:    0.416774   -0.107923
  11 Au:    0.404182   -0.243530
  12 Au:    0.299534   -0.048159
  13 Au:    0.427043    0.017492
  14 Au:    0.407225   -0.042844
  15 Au:    0.483131   -0.134131
  16 Cr:   -5.867665    3.214593
Sum of atomic charges         :    0.0000000

LOEWDIN ATOMIC CHARGES AND SPIN POPULATIONS
-------------------------------------------
   0 Au:    0.066382   -0.057718
   1 Au:    0.077377   -0.055963
   2 Au:    0.084401   -0.085538
   3 Au:    0.087070   -0.053911
   4 Au:    0.060162   -0.087096
   5 Au:    0.108194   -0.062960
   6 Au:    0.108046   -0.055610
   7 Au:    0.075981   -0.098417
   8 Au:    0.051654   -0.150016
   9 Au:    0.070614   -0.093252
  10 Au:    0.074293   -0.101384
  11 Au:    0.087178   -0.204068
  12 Au:    0.084080   -0.072682
  13 Au:    0.104672   -0.027361
  14 Au:    0.096118   -0.085739
  15 Au:    0.074835   -0.117045
  16 Cr:   -1.311058    3.408759

  Mayer bond orders larger than 0.100000
B(  0-Au,  1-Au) :   0.2387 B(  0-Au,  2-Au) :   0.2044 B(  0-Au,  6-Au) :   0.2381
B(  0-Au,  9-Au) :   0.1709 B(  0-Au, 11-Au) :   0.2353 B(  0-Au, 16-Cr) :   0.4071
B(  1-Au,  4-Au) :   0.2309 B(  1-Au,  6-Au) :   0.1872 B(  1-Au,  8-Au) :   0.2211
B(  1-Au,  9-Au) :   0.1999 B(  1-Au, 16-Cr) :   0.3531 B(  2-Au,  5-Au) :   0.2609
B(  2-Au,  7-Au) :   0.1270 B(  2-Au, 11-Au) :   0.2286 B(  2-Au, 12-Au) :   0.1081
B(  2-Au, 13-Au) :   0.2480 B(  2-Au, 16-Cr) :   0.4823 B(  3-Au,  4-Au) :   0.2166
B(  3-Au,  5-Au) :   0.1941 B(  3-Au,  6-Au) :   0.1741 B(  3-Au,  7-Au) :   0.1827
B(  3-Au, 10-Au) :   0.2157 B(  3-Au, 16-Cr) :   0.3719 B(  4-Au,  6-Au) :   0.1274
B(  4-Au,  7-Au) :   0.1818 B(  4-Au,  8-Au) :   0.2584 B(  4-Au, 16-Cr) :   0.3934
B(  5-Au,  6-Au) :   0.2612 B(  5-Au,  9-Au) :   0.1256 B(  5-Au, 10-Au) :   0.1560
B(  5-Au, 13-Au) :   0.1785 B(  5-Au, 16-Cr) :   0.4243 B(  6-Au, 12-Au) :   0.1312
B(  6-Au, 16-Cr) :   0.5013 B(  7-Au,  8-Au) :   0.1267 B(  7-Au, 10-Au) :   0.1776
B(  7-Au, 14-Au) :   0.1551 B(  7-Au, 15-Au) :   0.1808 B(  7-Au, 16-Cr) :   0.6702
B(  8-Au,  9-Au) :   0.1647 B(  8-Au, 14-Au) :   0.2440 B(  8-Au, 16-Cr) :   0.3384
B(  9-Au, 11-Au) :   0.2348 B(  9-Au, 12-Au) :   0.1743 B(  9-Au, 14-Au) :   0.1373
B(  9-Au, 16-Cr) :   0.4868 B( 10-Au, 13-Au) :   0.1990 B( 10-Au, 15-Au) :   0.2608
B( 10-Au, 16-Cr) :   0.3391 B( 11-Au, 12-Au) :   0.2515 B( 11-Au, 16-Cr) :   0.2002
B( 12-Au, 13-Au) :   0.2320 B( 12-Au, 14-Au) :   0.1412 B( 12-Au, 15-Au) :   0.1608
B( 12-Au, 16-Cr) :   0.4818 B( 13-Au, 15-Au) :   0.1912 B( 13-Au, 16-Cr) :   0.3738
B( 14-Au, 15-Au) :   0.2378 B( 14-Au, 16-Cr) :   0.5330 B( 15-Au, 16-Cr) :   0.3238

FINAL SINGLE POINT ENERGY     -3217.488437777898

DIPOLE MOMENT
-------------
                                X             Y             Z
Electronic contribution:      6.98800      -1.78745       0.71054
Nuclear contribution   :     -7.09090       1.84549      -0.72325
                        -----------------------------------------
Total Dipole Moment    :     -0.10291       0.05805      -0.01271
                        -----------------------------------------
Magnitude (a.u.)       :      0.11883
Magnitude (Debye)      :      0.30205

Rotational constants in cm-1:     0.000877     0.000866     0.000783
Rotational constants in MHz :    26.304032    25.969922    23.486064

                             ****ORCA TERMINATED NORMALLY****
TOTAL RUN TIME: 0 days 0 hours 43 minutes 15 seconds 477 msec
