                         Program Version 5.0.3 -  RELEASE  -
|  1> !R2SCAN def2-TZVP VERYSLOWCONV
|  2> !KDIIS
|  3> %scf
|  4>   AutoTRAHIter 200
|  5>   maxiter 400
|  6> end
|  7>
|  8> %pal nprocs 6 end
|  9>
| 10> *xyzfile 0 5 pbe.xyz
| 11>
| 12> $new_job
| 13>
| 14> !R2SCAN def2-TZVP VERYSLOWCONV
| 15> !KDIIS
| 16> %scf
| 17>   AutoTRAHIter 200
| 18>   maxiter 400
| 19> end
| 20>
| 21>
| 22> %pal nprocs 6 end
| 23>
| 24> *xyzfile 0 3 pbe.xyz
| 25>
| 26>
| 27>
| 28>
| 29>
| 30>                          ****END OF INPUT****
 Total Charge           Charge          ....    0
 Multiplicity           Mult            ....    5
 Number of Electrons    NEL             ....  328
FINAL SINGLE POINT ENERGY     -3218.063471153804

CARTESIAN COORDINATES (ANGSTROEM)
---------------------------------
  Au     6.936422    5.441489    8.102389
  Au     9.413759    5.408465    9.238192
  Au     5.545139    7.596150    7.093305
  Au     8.370745    9.699361   10.651653
  Au    10.241532    7.721885   10.542859
  Au     6.014834    9.321355    9.188003
  Au     7.381741    7.106148   10.260792
  Au    10.312030    9.661058    8.446402
  Au    11.335754    7.037710    8.085769
  Au     9.331356    5.982915    6.432396
  Au     7.971457   11.320400    8.484440
  Au     6.797917    5.802356    5.331829
  Au     7.958842    8.274251    5.040505
  Au     6.384650   10.145715    6.478642
  Au    10.665189    8.390565    5.824000
  Au     9.113613   10.622697    6.068825
  Cr     8.160016    8.148074    7.808882

 Multiplicity           Mult            ....    3
 Number of Electrons    NEL             ....  328
 Basis Dimension        Dim             ....  685

ORBITAL ENERGIES
----------------
                 SPIN UP ORBITALS
  NO   OCC          E(Eh)            E(eV)
   0   1.0000    -215.316299     -5859.0544
   1   1.0000     -24.616414      -669.8467
   2   1.0000     -20.883409      -568.2665
   3   1.0000     -20.882135      -568.2318
   4   1.0000     -20.881636      -568.2182
   5   1.0000      -4.133848      -112.4877
   6   1.0000      -4.132435      -112.4493
   7   1.0000      -4.131929      -112.4355
   8   1.0000      -4.130393      -112.3937
   9   1.0000      -4.129294      -112.3638
  10   1.0000      -4.127136      -112.3051
  11   1.0000      -4.122617      -112.1821
  12   1.0000      -4.122405      -112.1763
  13   1.0000      -4.121912      -112.1629
  14   1.0000      -4.121585      -112.1540
  15   1.0000      -4.119850      -112.1068
  16   1.0000      -4.119168      -112.0883
  17   1.0000      -4.119011      -112.0840
  18   1.0000      -4.117788      -112.0507
  19   1.0000      -4.114987      -111.9745
  20   1.0000      -4.111361      -111.8758
  21   1.0000      -2.936151       -79.8967
  22   1.0000      -2.320895       -63.1548
  23   1.0000      -2.319820       -63.1255
  24   1.0000      -2.319340       -63.1124
  25   1.0000      -2.318849       -63.0991
  26   1.0000      -2.318689       -63.0947
  27   1.0000      -2.318238       -63.0825
  28   1.0000      -2.318112       -63.0790
  29   1.0000      -2.318000       -63.0760
  30   1.0000      -2.317457       -63.0612
  31   1.0000      -2.316530       -63.0360
  32   1.0000      -2.316063       -63.0233
  33   1.0000      -2.315890       -63.0186
  34   1.0000      -2.314940       -62.9927
  35   1.0000      -2.314466       -62.9798
  36   1.0000      -2.314371       -62.9772
  37   1.0000      -2.313590       -62.9560
  38   1.0000      -2.313134       -62.9436
  39   1.0000      -2.311697       -62.9045
  40   1.0000      -2.311034       -62.8864
  41   1.0000      -2.310647       -62.8759
  42   1.0000      -2.309986       -62.8579
  43   1.0000      -2.309455       -62.8435
  44   1.0000      -2.308631       -62.8211
  45   1.0000      -2.307851       -62.7998
  46   1.0000      -2.307387       -62.7872
  47   1.0000      -2.307300       -62.7848
  48   1.0000      -2.307011       -62.7769
  49   1.0000      -2.306807       -62.7714
  50   1.0000      -2.306602       -62.7658
  51   1.0000      -2.306071       -62.7514
  52   1.0000      -2.305899       -62.7467
  53   1.0000      -2.305647       -62.7398
  54   1.0000      -2.305378       -62.7325
  55   1.0000      -2.305121       -62.7255
  56   1.0000      -2.304428       -62.7067
  57   1.0000      -2.304003       -62.6951
  58   1.0000      -2.303915       -62.6927
  59   1.0000      -2.303386       -62.6783
  60   1.0000      -2.302593       -62.6567
  61   1.0000      -2.302502       -62.6543
  62   1.0000      -2.301760       -62.6341
  63   1.0000      -2.301548       -62.6283
  64   1.0000      -2.301414       -62.6247
  65   1.0000      -2.299948       -62.5848
  66   1.0000      -2.297877       -62.5284
  67   1.0000      -2.297093       -62.5071
  68   1.0000      -2.296566       -62.4927
  69   1.0000      -2.296236       -62.4838
  70   1.0000      -1.883771       -51.2600
  71   1.0000      -1.882891       -51.2361
  72   1.0000      -1.881903       -51.2092
  73   1.0000      -0.440267       -11.9803
  74   1.0000      -0.399939       -10.8829
  75   1.0000      -0.399474       -10.8702
  76   1.0000      -0.396966       -10.8020
  77   1.0000      -0.386143       -10.5075
  78   1.0000      -0.385444       -10.4885
  79   1.0000      -0.384299       -10.4573
  80   1.0000      -0.382277       -10.4023
  81   1.0000      -0.379320       -10.3218
  82   1.0000      -0.378162       -10.2903
  83   1.0000      -0.374220       -10.1830
  84   1.0000      -0.372643       -10.1401
  85   1.0000      -0.371848       -10.1185
  86   1.0000      -0.370602       -10.0846
  87   1.0000      -0.368824       -10.0362
  88   1.0000      -0.366831        -9.9820
  89   1.0000      -0.365485        -9.9453
  90   1.0000      -0.362547        -9.8654
  91   1.0000      -0.362429        -9.8622
  92   1.0000      -0.361878        -9.8472
  93   1.0000      -0.360875        -9.8199
  94   1.0000      -0.358256        -9.7486
  95   1.0000      -0.356838        -9.7100
  96   1.0000      -0.355163        -9.6645
  97   1.0000      -0.355035        -9.6610
  98   1.0000      -0.352943        -9.6041
  99   1.0000      -0.350059        -9.5256
 100   1.0000      -0.345386        -9.3984
 101   1.0000      -0.342592        -9.3224
 102   1.0000      -0.341229        -9.2853
 103   1.0000      -0.341075        -9.2811
 104   1.0000      -0.338662        -9.2155
 105   1.0000      -0.337608        -9.1868
 106   1.0000      -0.336077        -9.1451
 107   1.0000      -0.331159        -9.0113
 108   1.0000      -0.329565        -8.9679
 109   1.0000      -0.325291        -8.8516
 110   1.0000      -0.323727        -8.8091
 111   1.0000      -0.320085        -8.7100
 112   1.0000      -0.317511        -8.6399
 113   1.0000      -0.316887        -8.6229
 114   1.0000      -0.310418        -8.4469
 115   1.0000      -0.308364        -8.3910
 116   1.0000      -0.305843        -8.3224
 117   1.0000      -0.304242        -8.2788
 118   1.0000      -0.302846        -8.2409
 119   1.0000      -0.299690        -8.1550
 120   1.0000      -0.294973        -8.0266
 121   1.0000      -0.291999        -7.9457
 122   1.0000      -0.290999        -7.9185
 123   1.0000      -0.290343        -7.9006
 124   1.0000      -0.289195        -7.8694
 125   1.0000      -0.288807        -7.8588
 126   1.0000      -0.285913        -7.7801
 127   1.0000      -0.285126        -7.7587
 128   1.0000      -0.283737        -7.7209
 129   1.0000      -0.282158        -7.6779
 130   1.0000      -0.281562        -7.6617
 131   1.0000      -0.280371        -7.6293
 132   1.0000      -0.279591        -7.6080
 133   1.0000      -0.278521        -7.5789
 134   1.0000      -0.277410        -7.5487
 135   1.0000      -0.276427        -7.5220
 136   1.0000      -0.275490        -7.4965
 137   1.0000      -0.273339        -7.4379
 138   1.0000      -0.272839        -7.4243
 139   1.0000      -0.271996        -7.4014
 140   1.0000      -0.270891        -7.3713
 141   1.0000      -0.269379        -7.3302
 142   1.0000      -0.267252        -7.2723
 143   1.0000      -0.265075        -7.2131
 144   1.0000      -0.263856        -7.1799
 145   1.0000      -0.261628        -7.1193
 146   1.0000      -0.260320        -7.0837
 147   1.0000      -0.259222        -7.0538
 148   1.0000      -0.257087        -6.9957
 149   1.0000      -0.256385        -6.9766
 150   1.0000      -0.255954        -6.9649
 151   1.0000      -0.255077        -6.9410
 152   1.0000      -0.254596        -6.9279
 153   1.0000      -0.253854        -6.9077
 154   1.0000      -0.253393        -6.8952
 155   1.0000      -0.251631        -6.8472
 156   1.0000      -0.251386        -6.8406
 157   1.0000      -0.249117        -6.7788
 158   1.0000      -0.246120        -6.6973
 159   1.0000      -0.241767        -6.5788
 160   1.0000      -0.231548        -6.3007
 161   1.0000      -0.227554        -6.1921
 162   1.0000      -0.221031        -6.0145
 163   1.0000      -0.212337        -5.7780
 164   1.0000      -0.210152        -5.7185
 165   0.0000      -0.195614        -5.3229
 166   0.0000      -0.187739        -5.1086
 167   0.0000      -0.148805        -4.0492
 168   0.0000      -0.136779        -3.7220
 169   0.0000      -0.134521        -3.6605

                 SPIN DOWN ORBITALS
  NO   OCC          E(Eh)            E(eV)
   0   1.0000    -215.315863     -5859.0425
   1   1.0000     -24.552833      -668.1165
   2   1.0000     -20.836158      -566.9807
   3   1.0000     -20.832441      -566.8795
   4   1.0000     -20.831984      -566.8671
   5   1.0000      -4.135044      -112.5203
   6   1.0000      -4.133115      -112.4678
   7   1.0000      -4.132766      -112.4583
   8   1.0000      -4.131131      -112.4138
   9   1.0000      -4.129316      -112.3644
  10   1.0000      -4.127479      -112.3144
  11   1.0000      -4.123000      -112.1925
  12   1.0000      -4.122591      -112.1814
  13   1.0000      -4.121857      -112.1614
  14   1.0000      -4.121720      -112.1577
  15   1.0000      -4.120136      -112.1146
  16   1.0000      -4.119905      -112.1083
  17   1.0000      -4.119291      -112.0916
  18   1.0000      -4.118437      -112.0684
  19   1.0000      -4.115483      -111.9880
  20   1.0000      -4.112475      -111.9061
  21   1.0000      -2.772300       -75.4381
  22   1.0000      -2.321836       -63.1804
  23   1.0000      -2.320354       -63.1401
  24   1.0000      -2.320196       -63.1357
  25   1.0000      -2.320135       -63.1341
  26   1.0000      -2.319471       -63.1160
  27   1.0000      -2.319355       -63.1128
  28   1.0000      -2.319136       -63.1069
  29   1.0000      -2.318945       -63.1017
  30   1.0000      -2.317589       -63.0648
  31   1.0000      -2.317262       -63.0559
  32   1.0000      -2.316647       -63.0392
  33   1.0000      -2.316269       -63.0289
  34   1.0000      -2.314982       -62.9939
  35   1.0000      -2.314864       -62.9906
  36   1.0000      -2.314585       -62.9831
  37   1.0000      -2.313723       -62.9596
  38   1.0000      -2.313189       -62.9451
  39   1.0000      -2.312118       -62.9159
  40   1.0000      -2.311197       -62.8909
  41   1.0000      -2.310742       -62.8785
  42   1.0000      -2.310160       -62.8626
  43   1.0000      -2.309912       -62.8559
  44   1.0000      -2.308922       -62.8290
  45   1.0000      -2.308136       -62.8076
  46   1.0000      -2.307561       -62.7919
  47   1.0000      -2.307362       -62.7865
  48   1.0000      -2.307058       -62.7782
  49   1.0000      -2.306800       -62.7712
  50   1.0000      -2.306533       -62.7640
  51   1.0000      -2.306392       -62.7601
  52   1.0000      -2.306189       -62.7546
  53   1.0000      -2.305828       -62.7448
  54   1.0000      -2.305741       -62.7424
  55   1.0000      -2.305404       -62.7332
  56   1.0000      -2.304795       -62.7167
  57   1.0000      -2.304428       -62.7067
  58   1.0000      -2.304230       -62.7013
  59   1.0000      -2.303739       -62.6879
  60   1.0000      -2.303258       -62.6748
  61   1.0000      -2.302962       -62.6668
  62   1.0000      -2.302170       -62.6452
  63   1.0000      -2.302146       -62.6446
  64   1.0000      -2.301831       -62.6360
  65   1.0000      -2.300603       -62.6026
  66   1.0000      -2.298314       -62.5403
  67   1.0000      -2.298229       -62.5380
  68   1.0000      -2.297832       -62.5272
  69   1.0000      -2.296913       -62.5022
  70   1.0000      -1.725034       -46.9406
  71   1.0000      -1.716379       -46.7050
  72   1.0000      -1.715305       -46.6758
  73   1.0000      -0.437192       -11.8966
  74   1.0000      -0.400956       -10.9106
  75   1.0000      -0.400135       -10.8882
  76   1.0000      -0.398424       -10.8417
  77   1.0000      -0.383552       -10.4370
  78   1.0000      -0.383079       -10.4241
  79   1.0000      -0.382618       -10.4116
  80   1.0000      -0.380541       -10.3550
  81   1.0000      -0.378278       -10.2935
  82   1.0000      -0.377965       -10.2849
  83   1.0000      -0.375152       -10.2084
  84   1.0000      -0.373638       -10.1672
  85   1.0000      -0.371771       -10.1164
  86   1.0000      -0.371065       -10.0972
  87   1.0000      -0.369628       -10.0581
  88   1.0000      -0.367235        -9.9930
  89   1.0000      -0.365834        -9.9549
  90   1.0000      -0.363487        -9.8910
  91   1.0000      -0.363070        -9.8796
  92   1.0000      -0.362650        -9.8682
  93   1.0000      -0.361716        -9.8428
  94   1.0000      -0.358743        -9.7619
  95   1.0000      -0.357941        -9.7401
  96   1.0000      -0.356260        -9.6943
  97   1.0000      -0.355842        -9.6829
  98   1.0000      -0.354284        -9.6405
  99   1.0000      -0.351033        -9.5521
 100   1.0000      -0.346225        -9.4212
 101   1.0000      -0.343345        -9.3429
 102   1.0000      -0.341776        -9.3002
 103   1.0000      -0.341408        -9.2902
 104   1.0000      -0.338936        -9.2229
 105   1.0000      -0.336652        -9.1608
 106   1.0000      -0.333623        -9.0783
 107   1.0000      -0.331218        -9.0129
 108   1.0000      -0.329241        -8.9591
 109   1.0000      -0.325870        -8.8674
 110   1.0000      -0.324220        -8.8225
 111   1.0000      -0.319850        -8.7036
 112   1.0000      -0.317472        -8.6389
 113   1.0000      -0.317057        -8.6276
 114   1.0000      -0.310107        -8.4384
 115   1.0000      -0.308810        -8.4032
 116   1.0000      -0.305901        -8.3240
 117   1.0000      -0.305090        -8.3019
 118   1.0000      -0.302969        -8.2442
 119   1.0000      -0.300240        -8.1700
 120   1.0000      -0.296557        -8.0697
 121   1.0000      -0.293648        -7.9906
 122   1.0000      -0.292713        -7.9651
 123   1.0000      -0.291460        -7.9310
 124   1.0000      -0.290374        -7.9015
 125   1.0000      -0.290091        -7.8938
 126   1.0000      -0.287324        -7.8185
 127   1.0000      -0.286061        -7.7841
 128   1.0000      -0.284866        -7.7516
 129   1.0000      -0.283427        -7.7124
 130   1.0000      -0.282811        -7.6957
 131   1.0000      -0.282084        -7.6759
 132   1.0000      -0.280540        -7.6339
 133   1.0000      -0.279881        -7.6160
 134   1.0000      -0.278391        -7.5754
 135   1.0000      -0.277979        -7.5642
 136   1.0000      -0.277052        -7.5390
 137   1.0000      -0.274335        -7.4650
 138   1.0000      -0.273647        -7.4463
 139   1.0000      -0.273274        -7.4362
 140   1.0000      -0.272574        -7.4171
 141   1.0000      -0.271124        -7.3777
 142   1.0000      -0.268405        -7.3037
 143   1.0000      -0.265495        -7.2245
 144   1.0000      -0.264032        -7.1847
 145   1.0000      -0.262806        -7.1513
 146   1.0000      -0.261909        -7.1269
 147   1.0000      -0.260583        -7.0908
 148   1.0000      -0.259052        -7.0492
 149   1.0000      -0.258206        -7.0261
 150   1.0000      -0.257150        -6.9974
 151   1.0000      -0.256508        -6.9799
 152   1.0000      -0.255661        -6.9569
 153   1.0000      -0.255048        -6.9402
 154   1.0000      -0.254353        -6.9213
 155   1.0000      -0.247562        -6.7365
 156   1.0000      -0.242814        -6.6073
 157   1.0000      -0.233476        -6.3532
 158   1.0000      -0.227030        -6.1778
 159   1.0000      -0.222838        -6.0637
 160   1.0000      -0.222137        -6.0447
 161   1.0000      -0.216328        -5.8866
 162   1.0000      -0.154752        -4.2110
 163   0.0000      -0.140514        -3.8236
 164   0.0000      -0.138046        -3.7564
 165   0.0000      -0.136152        -3.7049
 166   0.0000      -0.127947        -3.4816
 167   0.0000      -0.124154        -3.3784

MULLIKEN ATOMIC CHARGES AND SPIN POPULATIONS
--------------------------------------------
   0 Au:    0.343948   -0.005503
   1 Au:    0.368736   -0.021549
   2 Au:    0.375456   -0.067796
   3 Au:    0.412998   -0.005732
   4 Au:    0.280811   -0.071409
   5 Au:    0.407191   -0.060086
   6 Au:    0.328680   -0.064282
   7 Au:    0.090022   -0.148414
   8 Au:    0.357318   -0.207591
   9 Au:    0.160139   -0.117115
  10 Au:    0.375964   -0.128247
  11 Au:    0.352591   -0.299332
  12 Au:    0.271480   -0.056069
  13 Au:    0.390216    0.021519
  14 Au:    0.357230   -0.050637
  15 Au:    0.437343   -0.159208
  16 Cr:   -5.310123    3.441452
Sum of atomic charges         :    0.0000000

LOEWDIN ATOMIC CHARGES AND SPIN POPULATIONS
-------------------------------------------
   0 Au:    0.064597   -0.062375
   1 Au:    0.075133   -0.062416
   2 Au:    0.081755   -0.091919
   3 Au:    0.085098   -0.059371
   4 Au:    0.057440   -0.092784
   5 Au:    0.103403   -0.067020
   6 Au:    0.103929   -0.062567
   7 Au:    0.070872   -0.112663
   8 Au:    0.048170   -0.166101
   9 Au:    0.067531   -0.104244
  10 Au:    0.071708   -0.111672
  11 Au:    0.078879   -0.231112
  12 Au:    0.080732   -0.081122
  13 Au:    0.100653   -0.031753
  14 Au:    0.093104   -0.094175
  15 Au:    0.071023   -0.129242
  16 Cr:   -1.254029    3.560536

  Mayer bond orders larger than 0.100000
B(  0-Au,  1-Au) :   0.2413 B(  0-Au,  2-Au) :   0.1898 B(  0-Au,  6-Au) :   0.2385
B(  0-Au,  9-Au) :   0.1616 B(  0-Au, 11-Au) :   0.2225 B(  0-Au, 16-Cr) :   0.4208
B(  1-Au,  4-Au) :   0.2217 B(  1-Au,  6-Au) :   0.1786 B(  1-Au,  8-Au) :   0.2109
B(  1-Au,  9-Au) :   0.1881 B(  1-Au, 16-Cr) :   0.3514 B(  2-Au,  5-Au) :   0.2599
B(  2-Au, 11-Au) :   0.2202 B(  2-Au, 13-Au) :   0.2488 B(  2-Au, 16-Cr) :   0.5020
B(  3-Au,  4-Au) :   0.2111 B(  3-Au,  5-Au) :   0.1868 B(  3-Au,  6-Au) :   0.1682
B(  3-Au,  7-Au) :   0.1769 B(  3-Au, 10-Au) :   0.2075 B(  3-Au, 16-Cr) :   0.3822
B(  4-Au,  6-Au) :   0.1138 B(  4-Au,  7-Au) :   0.1692 B(  4-Au,  8-Au) :   0.2572
B(  4-Au, 16-Cr) :   0.3843 B(  5-Au,  6-Au) :   0.2587 B(  5-Au,  9-Au) :   0.1003
B(  5-Au, 10-Au) :   0.1461 B(  5-Au, 13-Au) :   0.1660 B(  5-Au, 16-Cr) :   0.4449
B(  6-Au, 12-Au) :   0.1033 B(  6-Au, 16-Cr) :   0.5247 B(  7-Au,  8-Au) :   0.1059
B(  7-Au, 10-Au) :   0.1658 B(  7-Au, 14-Au) :   0.1386 B(  7-Au, 15-Au) :   0.1635
B(  7-Au, 16-Cr) :   0.7077 B(  8-Au,  9-Au) :   0.1457 B(  8-Au, 14-Au) :   0.2474
B(  8-Au, 16-Cr) :   0.3235 B(  9-Au, 11-Au) :   0.2137 B(  9-Au, 12-Au) :   0.1685
B(  9-Au, 14-Au) :   0.1272 B(  9-Au, 16-Cr) :   0.5213 B( 10-Au, 13-Au) :   0.1829
B( 10-Au, 15-Au) :   0.2650 B( 10-Au, 16-Cr) :   0.3394 B( 11-Au, 12-Au) :   0.2390
B( 11-Au, 16-Cr) :   0.1834 B( 12-Au, 13-Au) :   0.2272 B( 12-Au, 14-Au) :   0.1303
B( 12-Au, 15-Au) :   0.1499 B( 12-Au, 16-Cr) :   0.5123 B( 13-Au, 15-Au) :   0.1777
B( 13-Au, 16-Cr) :   0.3896 B( 14-Au, 15-Au) :   0.2370 B( 14-Au, 16-Cr) :   0.5307
B( 15-Au, 16-Cr) :   0.3219

FINAL SINGLE POINT ENERGY     -3218.020416519164

DIPOLE MOMENT
-------------
                                X             Y             Z
Electronic contribution:      6.98867      -1.77378       0.72918
Nuclear contribution   :     -7.09090       1.84549      -0.72325
                        -----------------------------------------
Total Dipole Moment    :     -0.10223       0.07171       0.00592
                        -----------------------------------------
Magnitude (a.u.)       :      0.12502
Magnitude (Debye)      :      0.31777

Rotational constants in cm-1:     0.000877     0.000866     0.000783
Rotational constants in MHz :    26.304032    25.969922    23.486064

                             ****ORCA TERMINATED NORMALLY****
TOTAL RUN TIME: 0 days 0 hours 37 minutes 17 seconds 930 msec
