                         Program Version 5.0.3 -  RELEASE  -
|  1> %pal nprocs 1 end
|  2>
|  3> !PBE def2-TZVP OPT UNO
|  4> !SLOWCONV KDIIS
|  5>
|  6> %geom maxiter 300 end
|  7>
|  8> *xyzfile 0 6 7.xyz                           ****END OF INPUT****
 Total Charge           Charge          ....    0
 Multiplicity           Mult            ....    6
 Number of Electrons    NEL             ....  215
FINAL SINGLE POINT ENERGY     -2509.027468167513
FINAL SINGLE POINT ENERGY     -2509.030901179181
FINAL SINGLE POINT ENERGY     -2509.032357457004
FINAL SINGLE POINT ENERGY     -2509.034168265925
FINAL SINGLE POINT ENERGY     -2509.035744972600
FINAL SINGLE POINT ENERGY     -2509.037221790987
FINAL SINGLE POINT ENERGY     -2509.038586030926
FINAL SINGLE POINT ENERGY     -2509.040079986283
FINAL SINGLE POINT ENERGY     -2509.041372913430
FINAL SINGLE POINT ENERGY     -2509.042338275643
FINAL SINGLE POINT ENERGY     -2509.042977392849
FINAL SINGLE POINT ENERGY     -2509.043132160690
FINAL SINGLE POINT ENERGY     -2509.043358319474
FINAL SINGLE POINT ENERGY     -2509.043458081173
FINAL SINGLE POINT ENERGY     -2509.043525880764
FINAL SINGLE POINT ENERGY     -2509.043552906209
FINAL SINGLE POINT ENERGY     -2509.043557577909
FINAL SINGLE POINT ENERGY     -2509.043567906360
                    ***********************HURRAY********************

CARTESIAN COORDINATES (ANGSTROEM)
---------------------------------
  Au     8.281853    7.693476   11.644014
  Au     7.823278    5.385492   10.426492
  Au     9.416817    7.451548    9.089886
  Au     7.348300    3.450184    8.763401
  Au     6.493577    7.822642    9.484179
  Au     6.205781    8.248715    6.919426
  Au     7.035865    3.928219    6.032678
  Au     9.121892    7.874378    6.524669
  Au     7.199918    6.294156    4.974315
  Au     7.468873    8.887958    4.496057
  Mn     7.532459    5.983388    7.726340

 Multiplicity           Mult            ....    6
 Number of Electrons    NEL             ....  215
 Basis Dimension        Dim             ....  445

ORBITAL ENERGIES
----------------
                 SPIN UP ORBITALS
  NO   OCC          E(Eh)            E(eV)
   0   1.0000    -234.206477     -6373.0822
   1   1.0000     -26.903596      -732.0841
   2   1.0000     -23.053060      -627.3057
   3   1.0000     -23.051220      -627.2556
   4   1.0000     -23.050603      -627.2388
   5   1.0000      -4.030276      -109.6694
   6   1.0000      -4.029495      -109.6481
   7   1.0000      -4.022341      -109.4535
   8   1.0000      -4.022014      -109.4446
   9   1.0000      -4.020690      -109.4085
  10   1.0000      -4.020624      -109.4067
  11   1.0000      -4.020439      -109.4017
  12   1.0000      -4.020364      -109.3997
  13   1.0000      -4.020288      -109.3976
  14   1.0000      -4.019741      -109.3827
  15   1.0000      -3.115850       -84.7866
  16   1.0000      -2.251078       -61.2550
  17   1.0000      -2.250353       -61.2352
  18   1.0000      -2.243374       -61.0453
  19   1.0000      -2.242689       -61.0267
  20   1.0000      -2.241654       -60.9985
  21   1.0000      -2.241285       -60.9885
  22   1.0000      -2.240040       -60.9546
  23   1.0000      -2.239494       -60.9397
  24   1.0000      -2.238011       -60.8994
  25   1.0000      -2.237613       -60.8885
  26   1.0000      -2.236711       -60.8640
  27   1.0000      -2.236075       -60.8467
  28   1.0000      -2.235766       -60.8383
  29   1.0000      -2.235688       -60.8362
  30   1.0000      -2.235595       -60.8336
  31   1.0000      -2.235126       -60.8209
  32   1.0000      -2.234335       -60.7993
  33   1.0000      -2.234234       -60.7966
  34   1.0000      -2.233612       -60.7797
  35   1.0000      -2.232717       -60.7553
  36   1.0000      -2.232551       -60.7508
  37   1.0000      -2.232274       -60.7433
  38   1.0000      -2.232054       -60.7373
  39   1.0000      -2.231830       -60.7312
  40   1.0000      -2.227819       -60.6220
  41   1.0000      -2.226980       -60.5992
  42   1.0000      -2.226932       -60.5979
  43   1.0000      -2.226149       -60.5766
  44   1.0000      -2.225673       -60.5637
  45   1.0000      -2.224944       -60.5438
  46   1.0000      -2.021063       -54.9959
  47   1.0000      -2.017163       -54.8898
  48   1.0000      -2.016306       -54.8665
  49   1.0000      -0.410497       -11.1702
  50   1.0000      -0.389217       -10.5911
  51   1.0000      -0.376868       -10.2551
  52   1.0000      -0.370948       -10.0940
  53   1.0000      -0.369005       -10.0411
  54   1.0000      -0.365897        -9.9566
  55   1.0000      -0.358354        -9.7513
  56   1.0000      -0.344989        -9.3876
  57   1.0000      -0.338848        -9.2205
  58   1.0000      -0.336797        -9.1647
  59   1.0000      -0.334528        -9.1030
  60   1.0000      -0.334322        -9.0974
  61   1.0000      -0.329722        -8.9722
  62   1.0000      -0.329489        -8.9658
  63   1.0000      -0.328420        -8.9368
  64   1.0000      -0.324202        -8.8220
  65   1.0000      -0.320282        -8.7153
  66   1.0000      -0.316656        -8.6166
  67   1.0000      -0.311705        -8.4819
  68   1.0000      -0.310329        -8.4445
  69   1.0000      -0.307001        -8.3539
  70   1.0000      -0.306833        -8.3494
  71   1.0000      -0.301002        -8.1907
  72   1.0000      -0.300458        -8.1759
  73   1.0000      -0.299151        -8.1403
  74   1.0000      -0.290542        -7.9061
  75   1.0000      -0.289944        -7.8898
  76   1.0000      -0.287676        -7.8281
  77   1.0000      -0.285610        -7.7719
  78   1.0000      -0.284214        -7.7338
  79   1.0000      -0.281748        -7.6668
  80   1.0000      -0.281389        -7.6570
  81   1.0000      -0.278785        -7.5861
  82   1.0000      -0.274809        -7.4779
  83   1.0000      -0.273705        -7.4479
  84   1.0000      -0.272537        -7.4161
  85   1.0000      -0.271455        -7.3867
  86   1.0000      -0.267563        -7.2808
  87   1.0000      -0.267006        -7.2656
  88   1.0000      -0.266423        -7.2497
  89   1.0000      -0.266407        -7.2493
  90   1.0000      -0.262707        -7.1486
  91   1.0000      -0.262474        -7.1423
  92   1.0000      -0.262456        -7.1418
  93   1.0000      -0.261459        -7.1147
  94   1.0000      -0.257442        -7.0053
  95   1.0000      -0.255648        -6.9565
  96   1.0000      -0.253744        -6.9047
  97   1.0000      -0.250817        -6.8251
  98   1.0000      -0.249095        -6.7782
  99   1.0000      -0.248123        -6.7518
 100   1.0000      -0.246397        -6.7048
 101   1.0000      -0.245630        -6.6839
 102   1.0000      -0.244573        -6.6552
 103   1.0000      -0.242456        -6.5976
 104   1.0000      -0.239941        -6.5291
 105   1.0000      -0.233722        -6.3599
 106   1.0000      -0.232629        -6.3302
 107   1.0000      -0.214165        -5.8277
 108   1.0000      -0.207701        -5.6518
 109   1.0000      -0.206535        -5.6201
 110   0.0000      -0.167069        -4.5462
 111   0.0000      -0.142873        -3.8878
 112   0.0000      -0.131673        -3.5830
 113   0.0000      -0.109641        -2.9835
 114   0.0000      -0.108728        -2.9587

                 SPIN DOWN ORBITALS
  NO   OCC          E(Eh)            E(eV)
   0   1.0000    -234.205687     -6373.0608
   1   1.0000     -26.834505      -730.2040
   2   1.0000     -22.999617      -625.8514
   3   1.0000     -22.999131      -625.8382
   4   1.0000     -22.998686      -625.8260
   5   1.0000      -4.029046      -109.6359
   6   1.0000      -4.028286      -109.6152
   7   1.0000      -4.022086      -109.4465
   8   1.0000      -4.021755      -109.4375
   9   1.0000      -4.019492      -109.3759
  10   1.0000      -4.019427      -109.3742
  11   1.0000      -4.019168      -109.3671
  12   1.0000      -4.019155      -109.3668
  13   1.0000      -4.019097      -109.3652
  14   1.0000      -4.018545      -109.3502
  15   1.0000      -2.945680       -80.1560
  16   1.0000      -2.249816       -61.2206
  17   1.0000      -2.249102       -61.2012
  18   1.0000      -2.241725       -61.0004
  19   1.0000      -2.241129       -60.9842
  20   1.0000      -2.240283       -60.9612
  21   1.0000      -2.239986       -60.9531
  22   1.0000      -2.239410       -60.9374
  23   1.0000      -2.238691       -60.9179
  24   1.0000      -2.236744       -60.8649
  25   1.0000      -2.236216       -60.8505
  26   1.0000      -2.235834       -60.8401
  27   1.0000      -2.235190       -60.8226
  28   1.0000      -2.234288       -60.7981
  29   1.0000      -2.234147       -60.7942
  30   1.0000      -2.234093       -60.7928
  31   1.0000      -2.233473       -60.7759
  32   1.0000      -2.232916       -60.7607
  33   1.0000      -2.232726       -60.7556
  34   1.0000      -2.232350       -60.7453
  35   1.0000      -2.232121       -60.7391
  36   1.0000      -2.231986       -60.7354
  37   1.0000      -2.231429       -60.7203
  38   1.0000      -2.231406       -60.7197
  39   1.0000      -2.231176       -60.7134
  40   1.0000      -2.226944       -60.5982
  41   1.0000      -2.226114       -60.5756
  42   1.0000      -2.226079       -60.5747
  43   1.0000      -2.225302       -60.5535
  44   1.0000      -2.224600       -60.5345
  45   1.0000      -2.223951       -60.5168
  46   1.0000      -1.851647       -50.3859
  47   1.0000      -1.851022       -50.3689
  48   1.0000      -1.850405       -50.3521
  49   1.0000      -0.405462       -11.0332
  50   1.0000      -0.388084       -10.5603
  51   1.0000      -0.370660       -10.0862
  52   1.0000      -0.365868        -9.9558
  53   1.0000      -0.363407        -9.8888
  54   1.0000      -0.361936        -9.8488
  55   1.0000      -0.352142        -9.5823
  56   1.0000      -0.338451        -9.2097
  57   1.0000      -0.333573        -9.0770
  58   1.0000      -0.332837        -9.0569
  59   1.0000      -0.332090        -9.0366
  60   1.0000      -0.331750        -9.0274
  61   1.0000      -0.326554        -8.8860
  62   1.0000      -0.322219        -8.7680
  63   1.0000      -0.315408        -8.5827
  64   1.0000      -0.315082        -8.5738
  65   1.0000      -0.313555        -8.5323
  66   1.0000      -0.307912        -8.3787
  67   1.0000      -0.306570        -8.3422
  68   1.0000      -0.306097        -8.3293
  69   1.0000      -0.305330        -8.3084
  70   1.0000      -0.303164        -8.2495
  71   1.0000      -0.295920        -8.0524
  72   1.0000      -0.295266        -8.0346
  73   1.0000      -0.292755        -7.9663
  74   1.0000      -0.289072        -7.8660
  75   1.0000      -0.285856        -7.7785
  76   1.0000      -0.285630        -7.7724
  77   1.0000      -0.284408        -7.7391
  78   1.0000      -0.283102        -7.7036
  79   1.0000      -0.280407        -7.6303
  80   1.0000      -0.276998        -7.5375
  81   1.0000      -0.271960        -7.4004
  82   1.0000      -0.271511        -7.3882
  83   1.0000      -0.268778        -7.3138
  84   1.0000      -0.268462        -7.3052
  85   1.0000      -0.267418        -7.2768
  86   1.0000      -0.266398        -7.2490
  87   1.0000      -0.265411        -7.2222
  88   1.0000      -0.265129        -7.2145
  89   1.0000      -0.261574        -7.1178
  90   1.0000      -0.260518        -7.0891
  91   1.0000      -0.260057        -7.0765
  92   1.0000      -0.259139        -7.0515
  93   1.0000      -0.254346        -6.9211
  94   1.0000      -0.251483        -6.8432
  95   1.0000      -0.251024        -6.8307
  96   1.0000      -0.247981        -6.7479
  97   1.0000      -0.244598        -6.6558
  98   1.0000      -0.243872        -6.6361
  99   1.0000      -0.239147        -6.5075
 100   1.0000      -0.233448        -6.3524
 101   1.0000      -0.232404        -6.3240
 102   1.0000      -0.219415        -5.9706
 103   1.0000      -0.217278        -5.9124
 104   1.0000      -0.212583        -5.7847
 105   0.0000      -0.173414        -4.7188
 106   0.0000      -0.153621        -4.1802
 107   0.0000      -0.139477        -3.7954
 108   0.0000      -0.132660        -3.6099
 109   0.0000      -0.131633        -3.5819

MULLIKEN ATOMIC CHARGES AND SPIN POPULATIONS
--------------------------------------------
   0 Au:    0.361222    0.074679
   1 Au:   -0.005054    0.020940
   2 Au:    0.030326    0.043286
   3 Au:    0.137833    0.059553
   4 Au:    0.031594    0.043684
   5 Au:    0.030544    0.044439
   6 Au:    0.137796    0.060938
   7 Au:    0.031285    0.044437
   8 Au:    0.000732    0.021583
   9 Au:    0.356988    0.075666
  10 Mn:   -1.113267    4.510795
Sum of atomic charges         :   -0.0000000

LOEWDIN ATOMIC CHARGES AND SPIN POPULATIONS
-------------------------------------------
   0 Au:    0.106872    0.054250
   1 Au:   -0.063954    0.056529
   2 Au:   -0.013620    0.057003
   3 Au:    0.067763    0.057414
   4 Au:   -0.013190    0.057369
   5 Au:   -0.014466    0.058497
   6 Au:    0.067976    0.060513
   7 Au:   -0.014437    0.058442
   8 Au:   -0.063145    0.056246
   9 Au:    0.106506    0.055062
  10 Mn:   -0.166305    4.428676

  Mayer bond orders larger than 0.100000
B(  0-Au,  1-Au) :   0.5014 B(  0-Au,  2-Au) :   0.2785 B(  0-Au,  4-Au) :   0.2774
B(  1-Au,  2-Au) :   0.1606 B(  1-Au,  3-Au) :   0.6051 B(  1-Au,  4-Au) :   0.1603
B(  1-Au, 10-Mn) :   0.3755 B(  2-Au,  4-Au) :   0.1623 B(  2-Au,  7-Au) :   0.5955
B(  2-Au, 10-Mn) :   0.5143 B(  3-Au,  6-Au) :   0.1599 B(  3-Au, 10-Mn) :   0.5203
B(  4-Au,  5-Au) :   0.5959 B(  4-Au, 10-Mn) :   0.5148 B(  5-Au,  7-Au) :   0.1645
B(  5-Au,  8-Au) :   0.1608 B(  5-Au,  9-Au) :   0.2811 B(  5-Au, 10-Mn) :   0.5150
B(  6-Au,  8-Au) :   0.5919 B(  6-Au,  9-Au) :   0.1011 B(  6-Au, 10-Mn) :   0.5402
B(  7-Au,  8-Au) :   0.1607 B(  7-Au,  9-Au) :   0.2805 B(  7-Au, 10-Mn) :   0.5145
B(  8-Au,  9-Au) :   0.4944 B(  8-Au, 10-Mn) :   0.3757

FINAL SINGLE POINT ENERGY     -2509.043570957785

DIPOLE MOMENT
-------------
                                X             Y             Z
Electronic contribution:      3.89407      26.17571       3.97727
Nuclear contribution   :     -3.88097     -26.08742      -3.95397
                        -----------------------------------------
Total Dipole Moment    :      0.01310       0.08829       0.02330
                        -----------------------------------------
Magnitude (a.u.)       :      0.09225
Magnitude (Debye)      :      0.23448

Rotational constants in cm-1:     0.002128     0.001389     0.001016
Rotational constants in MHz :    63.790126    41.641656    30.472454

                             ****ORCA TERMINATED NORMALLY****
TOTAL RUN TIME: 0 days 2 hours 1 minutes 27 seconds 201 msec
