                         Program Version 5.0.3 -  RELEASE  -
|  1> %pal nprocs 1 end
|  2>
|  3> !PBE def2-TZVP OPT UNO
|  4> !SLOWCONV KDIIS
|  5>
|  6> %geom maxiter 300 end
|  7>
|  8> *xyzfile 0 5 5.xyz                           ****END OF INPUT****
 Total Charge           Charge          ....    0
 Multiplicity           Mult            ....    5
 Number of Electrons    NEL             ....  254
FINAL SINGLE POINT ENERGY     -2893.389288651407
FINAL SINGLE POINT ENERGY     -2893.390988273686
FINAL SINGLE POINT ENERGY     -2893.391572720391
FINAL SINGLE POINT ENERGY     -2893.391956239129
FINAL SINGLE POINT ENERGY     -2893.392164859785
FINAL SINGLE POINT ENERGY     -2893.392294137516
FINAL SINGLE POINT ENERGY     -2893.392366325725
FINAL SINGLE POINT ENERGY     -2893.392411839622
FINAL SINGLE POINT ENERGY     -2893.392469483581
FINAL SINGLE POINT ENERGY     -2893.392488938496
FINAL SINGLE POINT ENERGY     -2893.392492675228
                    ***********************HURRAY********************

CARTESIAN COORDINATES (ANGSTROEM)
---------------------------------
  Au     6.150954    8.555086    3.699781
  Au     8.308475    6.823990    4.181247
  Au     7.679844    5.064980    6.214995
  Au     4.959129    5.614793    6.643313
  Au     4.658505   10.598754    4.690319
  Au     4.186232    8.086282    5.720622
  Au     8.360832    9.459042    5.146245
  Au     6.908534   11.518748    6.161064
  Au     5.160505    7.812519    8.384781
  Au     7.766653    6.748886    8.461985
  Au     7.455332    9.412028    7.856110
  Au     4.703644   10.369304    7.501397
  Fe     6.738845    7.522184    6.140912

 Multiplicity           Mult            ....    5
 Number of Electrons    NEL             ....  254
 Basis Dimension        Dim             ....  525

ORBITAL ENERGIES
----------------
                 SPIN UP ORBITALS
  NO   OCC          E(Eh)            E(eV)
   0   1.0000    -254.766323     -6932.5441
   1   1.0000     -29.607780      -805.6687
   2   1.0000     -25.551816      -695.3003
   3   1.0000     -25.540918      -695.0037
   4   1.0000     -25.535272      -694.8501
   5   1.0000      -4.036737      -109.8452
   6   1.0000      -4.036658      -109.8430
   7   1.0000      -4.031569      -109.7046
   8   1.0000      -4.030140      -109.6657
   9   1.0000      -4.030006      -109.6620
  10   1.0000      -4.027987      -109.6071
  11   1.0000      -4.019733      -109.3825
  12   1.0000      -4.018451      -109.3476
  13   1.0000      -4.018392      -109.3460
  14   1.0000      -4.016333      -109.2900
  15   1.0000      -4.016216      -109.2868
  16   1.0000      -4.013941      -109.2249
  17   1.0000      -3.387293       -92.1729
  18   1.0000      -2.253496       -61.3208
  19   1.0000      -2.253418       -61.3186
  20   1.0000      -2.249886       -61.2225
  21   1.0000      -2.249771       -61.2194
  22   1.0000      -2.247950       -61.1698
  23   1.0000      -2.247211       -61.1497
  24   1.0000      -2.246668       -61.1349
  25   1.0000      -2.245871       -61.1133
  26   1.0000      -2.245256       -61.0965
  27   1.0000      -2.245188       -61.0947
  28   1.0000      -2.244683       -61.0809
  29   1.0000      -2.243813       -61.0573
  30   1.0000      -2.243677       -61.0535
  31   1.0000      -2.242639       -61.0253
  32   1.0000      -2.240155       -60.9577
  33   1.0000      -2.239811       -60.9484
  34   1.0000      -2.238004       -60.8992
  35   1.0000      -2.237284       -60.8796
  36   1.0000      -2.237035       -60.8728
  37   1.0000      -2.234969       -60.8166
  38   1.0000      -2.234919       -60.8152
  39   1.0000      -2.232193       -60.7411
  40   1.0000      -2.231986       -60.7354
  41   1.0000      -2.231931       -60.7339
  42   1.0000      -2.231392       -60.7193
  43   1.0000      -2.230702       -60.7005
  44   1.0000      -2.229965       -60.6804
  45   1.0000      -2.229659       -60.6721
  46   1.0000      -2.228676       -60.6454
  47   1.0000      -2.228392       -60.6376
  48   1.0000      -2.227169       -60.6043
  49   1.0000      -2.227116       -60.6029
  50   1.0000      -2.227056       -60.6013
  51   1.0000      -2.226519       -60.5867
  52   1.0000      -2.225018       -60.5458
  53   1.0000      -2.224523       -60.5323
  54   1.0000      -2.218912       -60.3797
  55   1.0000      -2.196448       -59.7684
  56   1.0000      -2.186203       -59.4896
  57   1.0000      -0.424912       -11.5624
  58   1.0000      -0.381992       -10.3945
  59   1.0000      -0.381597       -10.3838
  60   1.0000      -0.380212       -10.3461
  61   1.0000      -0.370771       -10.0892
  62   1.0000      -0.366807        -9.9813
  63   1.0000      -0.365724        -9.9518
  64   1.0000      -0.357100        -9.7172
  65   1.0000      -0.356650        -9.7049
  66   1.0000      -0.356009        -9.6875
  67   1.0000      -0.349935        -9.5222
  68   1.0000      -0.346069        -9.4170
  69   1.0000      -0.345885        -9.4120
  70   1.0000      -0.343012        -9.3338
  71   1.0000      -0.342297        -9.3144
  72   1.0000      -0.338543        -9.2122
  73   1.0000      -0.337162        -9.1746
  74   1.0000      -0.333969        -9.0877
  75   1.0000      -0.333518        -9.0755
  76   1.0000      -0.330436        -8.9916
  77   1.0000      -0.329576        -8.9682
  78   1.0000      -0.327797        -8.9198
  79   1.0000      -0.320240        -8.7142
  80   1.0000      -0.320028        -8.7084
  81   1.0000      -0.318952        -8.6791
  82   1.0000      -0.316789        -8.6203
  83   1.0000      -0.313754        -8.5377
  84   1.0000      -0.306652        -8.3444
  85   1.0000      -0.306395        -8.3374
  86   1.0000      -0.303002        -8.2451
  87   1.0000      -0.301189        -8.1958
  88   1.0000      -0.299240        -8.1427
  89   1.0000      -0.297160        -8.0861
  90   1.0000      -0.294221        -8.0062
  91   1.0000      -0.290849        -7.9144
  92   1.0000      -0.287554        -7.8247
  93   1.0000      -0.285798        -7.7770
  94   1.0000      -0.282430        -7.6853
  95   1.0000      -0.280438        -7.6311
  96   1.0000      -0.278840        -7.5876
  97   1.0000      -0.277860        -7.5610
  98   1.0000      -0.274951        -7.4818
  99   1.0000      -0.273398        -7.4395
 100   1.0000      -0.272623        -7.4184
 101   1.0000      -0.270918        -7.3720
 102   1.0000      -0.267784        -7.2868
 103   1.0000      -0.265927        -7.2363
 104   1.0000      -0.265524        -7.2253
 105   1.0000      -0.262650        -7.1471
 106   1.0000      -0.262315        -7.1380
 107   1.0000      -0.260399        -7.0858
 108   1.0000      -0.260207        -7.0806
 109   1.0000      -0.259090        -7.0502
 110   1.0000      -0.257053        -6.9948
 111   1.0000      -0.255483        -6.9521
 112   1.0000      -0.254917        -6.9366
 113   1.0000      -0.253513        -6.8985
 114   1.0000      -0.251369        -6.8401
 115   1.0000      -0.249869        -6.7993
 116   1.0000      -0.248870        -6.7721
 117   1.0000      -0.247482        -6.7343
 118   1.0000      -0.247023        -6.7218
 119   1.0000      -0.244426        -6.6512
 120   1.0000      -0.242751        -6.6056
 121   1.0000      -0.240557        -6.5459
 122   1.0000      -0.239784        -6.5248
 123   1.0000      -0.239488        -6.5168
 124   1.0000      -0.234308        -6.3758
 125   1.0000      -0.232188        -6.3182
 126   1.0000      -0.207894        -5.6571
 127   1.0000      -0.197579        -5.3764
 128   1.0000      -0.195984        -5.3330
 129   0.0000      -0.162433        -4.4200
 130   0.0000      -0.155568        -4.2332
 131   0.0000      -0.131716        -3.5842
 132   0.0000      -0.124286        -3.3820
 133   0.0000      -0.121819        -3.3149

                 SPIN DOWN ORBITALS
  NO   OCC          E(Eh)            E(eV)
   0   1.0000    -254.765580     -6932.5239
   1   1.0000     -29.547010      -804.0150
   2   1.0000     -25.501647      -693.9351
   3   1.0000     -25.495987      -693.7811
   4   1.0000     -25.492649      -693.6902
   5   1.0000      -4.035551      -109.8129
   6   1.0000      -4.035477      -109.8109
   7   1.0000      -4.030971      -109.6883
   8   1.0000      -4.029220      -109.6406
   9   1.0000      -4.029082      -109.6369
  10   1.0000      -4.026529      -109.5674
  11   1.0000      -4.018220      -109.3413
  12   1.0000      -4.017723      -109.3278
  13   1.0000      -4.017649      -109.3258
  14   1.0000      -4.016146      -109.2849
  15   1.0000      -4.016032      -109.2818
  16   1.0000      -4.013688      -109.2180
  17   1.0000      -3.250051       -88.4384
  18   1.0000      -2.251831       -61.2754
  19   1.0000      -2.251768       -61.2737
  20   1.0000      -2.248715       -61.1906
  21   1.0000      -2.248603       -61.1876
  22   1.0000      -2.246485       -61.1300
  23   1.0000      -2.246149       -61.1208
  24   1.0000      -2.245591       -61.1056
  25   1.0000      -2.244461       -61.0749
  26   1.0000      -2.244419       -61.0737
  27   1.0000      -2.244162       -61.0668
  28   1.0000      -2.243024       -61.0358
  29   1.0000      -2.242726       -61.0277
  30   1.0000      -2.242304       -61.0162
  31   1.0000      -2.242272       -61.0153
  32   1.0000      -2.239437       -60.9382
  33   1.0000      -2.238659       -60.9170
  34   1.0000      -2.237394       -60.8826
  35   1.0000      -2.235489       -60.8307
  36   1.0000      -2.234722       -60.8099
  37   1.0000      -2.233970       -60.7894
  38   1.0000      -2.233912       -60.7878
  39   1.0000      -2.232041       -60.7369
  40   1.0000      -2.231325       -60.7174
  41   1.0000      -2.230813       -60.7035
  42   1.0000      -2.230745       -60.7016
  43   1.0000      -2.230465       -60.6941
  44   1.0000      -2.229399       -60.6650
  45   1.0000      -2.228833       -60.6496
  46   1.0000      -2.228189       -60.6321
  47   1.0000      -2.227356       -60.6094
  48   1.0000      -2.226871       -60.5963
  49   1.0000      -2.226827       -60.5950
  50   1.0000      -2.226711       -60.5919
  51   1.0000      -2.226258       -60.5796
  52   1.0000      -2.224725       -60.5378
  53   1.0000      -2.224234       -60.5245
  54   1.0000      -2.072130       -56.3855
  55   1.0000      -2.064692       -56.1831
  56   1.0000      -2.062226       -56.1160
  57   1.0000      -0.419431       -11.4133
  58   1.0000      -0.379006       -10.3133
  59   1.0000      -0.376975       -10.2580
  60   1.0000      -0.376074       -10.2335
  61   1.0000      -0.363613        -9.8944
  62   1.0000      -0.360323        -9.8049
  63   1.0000      -0.359262        -9.7760
  64   1.0000      -0.351546        -9.5661
  65   1.0000      -0.349807        -9.5187
  66   1.0000      -0.346209        -9.4208
  67   1.0000      -0.344311        -9.3692
  68   1.0000      -0.343162        -9.3379
  69   1.0000      -0.339664        -9.2427
  70   1.0000      -0.338559        -9.2127
  71   1.0000      -0.338457        -9.2099
  72   1.0000      -0.335730        -9.1357
  73   1.0000      -0.335585        -9.1317
  74   1.0000      -0.329837        -8.9753
  75   1.0000      -0.329332        -8.9616
  76   1.0000      -0.327269        -8.9055
  77   1.0000      -0.326467        -8.8836
  78   1.0000      -0.319791        -8.7020
  79   1.0000      -0.318020        -8.6538
  80   1.0000      -0.317329        -8.6350
  81   1.0000      -0.313170        -8.5218
  82   1.0000      -0.309736        -8.4284
  83   1.0000      -0.306329        -8.3356
  84   1.0000      -0.304293        -8.2802
  85   1.0000      -0.300630        -8.1806
  86   1.0000      -0.300088        -8.1658
  87   1.0000      -0.300016        -8.1638
  88   1.0000      -0.294948        -8.0259
  89   1.0000      -0.294365        -8.0101
  90   1.0000      -0.288171        -7.8415
  91   1.0000      -0.285695        -7.7742
  92   1.0000      -0.283370        -7.7109
  93   1.0000      -0.281223        -7.6525
  94   1.0000      -0.276955        -7.5363
  95   1.0000      -0.275665        -7.5012
  96   1.0000      -0.274639        -7.4733
  97   1.0000      -0.274448        -7.4681
  98   1.0000      -0.273169        -7.4333
  99   1.0000      -0.270619        -7.3639
 100   1.0000      -0.270158        -7.3514
 101   1.0000      -0.269696        -7.3388
 102   1.0000      -0.263886        -7.1807
 103   1.0000      -0.263569        -7.1721
 104   1.0000      -0.263191        -7.1618
 105   1.0000      -0.259133        -7.0514
 106   1.0000      -0.258791        -7.0421
 107   1.0000      -0.257594        -7.0095
 108   1.0000      -0.257467        -7.0060
 109   1.0000      -0.255057        -6.9405
 110   1.0000      -0.251661        -6.8480
 111   1.0000      -0.251149        -6.8341
 112   1.0000      -0.249477        -6.7886
 113   1.0000      -0.247174        -6.7259
 114   1.0000      -0.246288        -6.7018
 115   1.0000      -0.244510        -6.6534
 116   1.0000      -0.243253        -6.6193
 117   1.0000      -0.239413        -6.5148
 118   1.0000      -0.239310        -6.5120
 119   1.0000      -0.234066        -6.3693
 120   1.0000      -0.231407        -6.2969
 121   1.0000      -0.212228        -5.7750
 122   1.0000      -0.205420        -5.5898
 123   1.0000      -0.203683        -5.5425
 124   1.0000      -0.188134        -5.1194
 125   0.0000      -0.174907        -4.7595
 126   0.0000      -0.171266        -4.6604
 127   0.0000      -0.163508        -4.4493
 128   0.0000      -0.158177        -4.3042
 129   0.0000      -0.152011        -4.1364

MULLIKEN ATOMIC CHARGES AND SPIN POPULATIONS
--------------------------------------------
   0 Au:    0.129867    0.051017
   1 Au:    0.262829    0.132053
   2 Au:    0.265384    0.101829
   3 Au:    0.285563    0.087333
   4 Au:    0.150468    0.079430
   5 Au:    0.045835    0.014587
   6 Au:    0.121773    0.051855
   7 Au:    0.158897    0.079569
   8 Au:    0.172763   -0.003202
   9 Au:    0.286030    0.088604
  10 Au:    0.042073    0.014431
  11 Au:   -0.009133    0.135627
  12 Fe:   -1.912347    3.166867
Sum of atomic charges         :   -0.0000000

LOEWDIN ATOMIC CHARGES AND SPIN POPULATIONS
-------------------------------------------
   0 Au:    0.056998    0.047418
   1 Au:    0.106148    0.092358
   2 Au:    0.047101    0.091298
   3 Au:    0.092384    0.045183
   4 Au:    0.010741    0.066312
   5 Au:    0.021027    0.048760
   6 Au:    0.054966    0.048040
   7 Au:    0.012969    0.066560
   8 Au:    0.015829    0.024742
   9 Au:    0.092847    0.046232
  10 Au:    0.019957    0.048707
  11 Au:   -0.018599    0.092645
  12 Fe:   -0.512370    3.281746

  Mayer bond orders larger than 0.100000
B(  0-Au,  1-Au) :   0.2054 B(  0-Au,  4-Au) :   0.4053 B(  0-Au,  5-Au) :   0.2127
B(  0-Au,  6-Au) :   0.1963 B(  0-Au, 12-Fe) :   0.5003 B(  1-Au,  2-Au) :   0.2287
B(  1-Au,  6-Au) :   0.2073 B(  1-Au, 12-Fe) :   0.5706 B(  2-Au,  3-Au) :   0.2080
B(  2-Au,  9-Au) :   0.2084 B(  2-Au, 12-Fe) :   0.6040 B(  3-Au,  5-Au) :   0.3333
B(  3-Au,  8-Au) :   0.1850 B(  3-Au, 12-Fe) :   0.5403 B(  4-Au,  5-Au) :   0.3456
B(  4-Au,  7-Au) :   0.2497 B(  4-Au, 11-Au) :   0.2422 B(  4-Au, 12-Fe) :   0.1407
B(  5-Au,  8-Au) :   0.1934 B(  5-Au, 11-Au) :   0.2200 B(  5-Au, 12-Fe) :   0.5471
B(  6-Au,  7-Au) :   0.4079 B(  6-Au, 10-Au) :   0.2134 B(  6-Au, 12-Fe) :   0.5017
B(  7-Au, 10-Au) :   0.3448 B(  7-Au, 11-Au) :   0.2393 B(  7-Au, 12-Fe) :   0.1377
B(  8-Au,  9-Au) :   0.1816 B(  8-Au, 10-Au) :   0.1953 B(  8-Au, 11-Au) :   0.3750
B(  8-Au, 12-Fe) :   0.5049 B(  9-Au, 10-Au) :   0.3345 B(  9-Au, 12-Fe) :   0.5429
B( 10-Au, 11-Au) :   0.2226 B( 10-Au, 12-Fe) :   0.5444 B( 11-Au, 12-Fe) :   0.2110

FINAL SINGLE POINT ENERGY     -2893.392494327139

DIPOLE MOMENT
-------------
                                X             Y             Z
Electronic contribution:    -14.36050      30.99830       2.93231
Nuclear contribution   :     14.48390     -31.07082      -3.07883
                        -----------------------------------------
Total Dipole Moment    :      0.12340      -0.07251      -0.14652
                        -----------------------------------------
Magnitude (a.u.)       :      0.20482
Magnitude (Debye)      :      0.52062

Rotational constants in cm-1:     0.001622     0.001213     0.001098
Rotational constants in MHz :    48.629548    36.379718    32.918020

                             ****ORCA TERMINATED NORMALLY****
TOTAL RUN TIME: 0 days 2 hours 17 minutes 46 seconds 301 msec
