                         Program Version 5.0.3 -  RELEASE  -
|  1> %pal nprocs 6 end
|  2>
|  3> !PBE def2-TZVP OPT UNO
|  4> !SLOWCONV KDIIS
|  5>
|  6> %geom maxiter 300 end
|  7>
|  8> *xyzfile 0 4 4.xyz
|  9>
| 10>                          ****END OF INPUT****
 Total Charge           Charge          ....    0
 Multiplicity           Mult            ....    4
 Number of Electrons    NEL             ....  215
FINAL SINGLE POINT ENERGY     -2508.992660175643
FINAL SINGLE POINT ENERGY     -2508.995115297125
FINAL SINGLE POINT ENERGY     -2508.995785747963
FINAL SINGLE POINT ENERGY     -2508.996914017521
FINAL SINGLE POINT ENERGY     -2508.997463266357
FINAL SINGLE POINT ENERGY     -2508.998594353587
FINAL SINGLE POINT ENERGY     -2508.999679438414
FINAL SINGLE POINT ENERGY     -2509.000528869974
FINAL SINGLE POINT ENERGY     -2509.001931346854
FINAL SINGLE POINT ENERGY     -2509.003822543438
FINAL SINGLE POINT ENERGY     -2509.028726726189
FINAL SINGLE POINT ENERGY     -2509.028732499918
FINAL SINGLE POINT ENERGY     -2509.028735511114
FINAL SINGLE POINT ENERGY     -2509.028737122650
FINAL SINGLE POINT ENERGY     -2509.028737877709
FINAL SINGLE POINT ENERGY     -2509.028738732233
FINAL SINGLE POINT ENERGY     -2509.028739949006
FINAL SINGLE POINT ENERGY     -2509.028741015624
FINAL SINGLE POINT ENERGY     -2509.028741383115
                    ***********************HURRAY********************

CARTESIAN COORDINATES (ANGSTROEM)
---------------------------------
  Au     5.889409    8.023460    9.318310
  Au     5.835269    8.282361    6.345343
  Au     4.510296   10.013361    8.086156
  Au     7.193365   10.406924    7.799612
  Au     7.792411    6.209643    9.841122
  Au     9.131703    5.325674    7.640959
  Au     9.309367    4.476808    5.151521
  Au    10.313044    7.407385    9.026774
  Au     9.785036    9.886023    8.116108
  Au     7.489921    6.424161    5.537437
  Mn     8.053897    7.870895    7.721502

 Multiplicity           Mult            ....    4
 Number of Electrons    NEL             ....  215
 Basis Dimension        Dim             ....  445

ORBITAL ENERGIES
----------------
                 SPIN UP ORBITALS
  NO   OCC          E(Eh)            E(eV)
   0   1.0000    -234.201328     -6372.9421
   1   1.0000     -26.898335      -731.9409
   2   1.0000     -23.048238      -627.1744
   3   1.0000     -23.046743      -627.1338
   4   1.0000     -23.045605      -627.1028
   5   1.0000      -4.028174      -109.6122
   6   1.0000      -4.027287      -109.5881
   7   1.0000      -4.025483      -109.5390
   8   1.0000      -4.023580      -109.4872
   9   1.0000      -4.022283      -109.4519
  10   1.0000      -4.021784      -109.4383
  11   1.0000      -4.020646      -109.4073
  12   1.0000      -4.020208      -109.3954
  13   1.0000      -4.016404      -109.2919
  14   1.0000      -4.005211      -108.9873
  15   1.0000      -3.105726       -84.5111
  16   1.0000      -2.248030       -61.1720
  17   1.0000      -2.246796       -61.1384
  18   1.0000      -2.243075       -61.0372
  19   1.0000      -2.242101       -61.0107
  20   1.0000      -2.241328       -60.9896
  21   1.0000      -2.240838       -60.9763
  22   1.0000      -2.240779       -60.9747
  23   1.0000      -2.240141       -60.9573
  24   1.0000      -2.238762       -60.9198
  25   1.0000      -2.238303       -60.9073
  26   1.0000      -2.238201       -60.9045
  27   1.0000      -2.237183       -60.8768
  28   1.0000      -2.236037       -60.8457
  29   1.0000      -2.235211       -60.8232
  30   1.0000      -2.234986       -60.8171
  31   1.0000      -2.234176       -60.7950
  32   1.0000      -2.232934       -60.7612
  33   1.0000      -2.232866       -60.7594
  34   1.0000      -2.232452       -60.7481
  35   1.0000      -2.231404       -60.7196
  36   1.0000      -2.231259       -60.7156
  37   1.0000      -2.230613       -60.6981
  38   1.0000      -2.230001       -60.6814
  39   1.0000      -2.228585       -60.6429
  40   1.0000      -2.228140       -60.6308
  41   1.0000      -2.225076       -60.5474
  42   1.0000      -2.224004       -60.5182
  43   1.0000      -2.223022       -60.4915
  44   1.0000      -2.218775       -60.3759
  45   1.0000      -2.211263       -60.1715
  46   1.0000      -2.011460       -54.7346
  47   1.0000      -2.007903       -54.6378
  48   1.0000      -2.005081       -54.5610
  49   1.0000      -0.407219       -11.0810
  50   1.0000      -0.383585       -10.4379
  51   1.0000      -0.373720       -10.1694
  52   1.0000      -0.370211       -10.0740
  53   1.0000      -0.361197        -9.8287
  54   1.0000      -0.358214        -9.7475
  55   1.0000      -0.350411        -9.5352
  56   1.0000      -0.348697        -9.4885
  57   1.0000      -0.340126        -9.2553
  58   1.0000      -0.337016        -9.1707
  59   1.0000      -0.333883        -9.0854
  60   1.0000      -0.331790        -9.0285
  61   1.0000      -0.329691        -8.9713
  62   1.0000      -0.325739        -8.8638
  63   1.0000      -0.323699        -8.8083
  64   1.0000      -0.322040        -8.7632
  65   1.0000      -0.319261        -8.6875
  66   1.0000      -0.317803        -8.6479
  67   1.0000      -0.314415        -8.5557
  68   1.0000      -0.310567        -8.4510
  69   1.0000      -0.305466        -8.3121
  70   1.0000      -0.300348        -8.1729
  71   1.0000      -0.297795        -8.1034
  72   1.0000      -0.295397        -8.0382
  73   1.0000      -0.293271        -7.9803
  74   1.0000      -0.290721        -7.9109
  75   1.0000      -0.288756        -7.8575
  76   1.0000      -0.285554        -7.7703
  77   1.0000      -0.282717        -7.6931
  78   1.0000      -0.279060        -7.5936
  79   1.0000      -0.278112        -7.5678
  80   1.0000      -0.274341        -7.4652
  81   1.0000      -0.273838        -7.4515
  82   1.0000      -0.273731        -7.4486
  83   1.0000      -0.271728        -7.3941
  84   1.0000      -0.270294        -7.3551
  85   1.0000      -0.267886        -7.2896
  86   1.0000      -0.266645        -7.2558
  87   1.0000      -0.265807        -7.2330
  88   1.0000      -0.262451        -7.1417
  89   1.0000      -0.261893        -7.1265
  90   1.0000      -0.259696        -7.0667
  91   1.0000      -0.259503        -7.0614
  92   1.0000      -0.256719        -6.9857
  93   1.0000      -0.256479        -6.9791
  94   1.0000      -0.254263        -6.9189
  95   1.0000      -0.251518        -6.8441
  96   1.0000      -0.251034        -6.8310
  97   1.0000      -0.247201        -6.7267
  98   1.0000      -0.246620        -6.7109
  99   1.0000      -0.245134        -6.6704
 100   1.0000      -0.243426        -6.6240
 101   1.0000      -0.242693        -6.6040
 102   1.0000      -0.239201        -6.5090
 103   1.0000      -0.236281        -6.4295
 104   1.0000      -0.235506        -6.4084
 105   1.0000      -0.233327        -6.3492
 106   1.0000      -0.229514        -6.2454
 107   1.0000      -0.224714        -6.1148
 108   1.0000      -0.208735        -5.6800
 109   0.0000      -0.187381        -5.0989
 110   0.0000      -0.164544        -4.4775
 111   0.0000      -0.134303        -3.6546
 112   0.0000      -0.127957        -3.4819
 113   0.0000      -0.123463        -3.3596

                 SPIN DOWN ORBITALS
  NO   OCC          E(Eh)            E(eV)
   0   1.0000    -234.200589     -6372.9220
   1   1.0000     -26.833415      -730.1744
   2   1.0000     -22.998497      -625.8209
   3   1.0000     -22.997522      -625.7944
   4   1.0000     -22.996626      -625.7700
   5   1.0000      -4.028098      -109.6101
   6   1.0000      -4.027149      -109.5843
   7   1.0000      -4.025885      -109.5499
   8   1.0000      -4.023464      -109.4840
   9   1.0000      -4.021568      -109.4324
  10   1.0000      -4.021314      -109.4255
  11   1.0000      -4.021118      -109.4202
  12   1.0000      -4.019402      -109.3735
  13   1.0000      -4.016348      -109.2904
  14   1.0000      -4.005517      -108.9957
  15   1.0000      -2.946400       -80.1756
  16   1.0000      -2.248171       -61.1758
  17   1.0000      -2.246511       -61.1307
  18   1.0000      -2.243216       -61.0410
  19   1.0000      -2.241778       -61.0019
  20   1.0000      -2.241528       -60.9951
  21   1.0000      -2.240461       -60.9661
  22   1.0000      -2.240322       -60.9623
  23   1.0000      -2.239336       -60.9354
  24   1.0000      -2.238771       -60.9201
  25   1.0000      -2.238414       -60.9103
  26   1.0000      -2.237317       -60.8805
  27   1.0000      -2.236544       -60.8594
  28   1.0000      -2.235507       -60.8312
  29   1.0000      -2.235178       -60.8223
  30   1.0000      -2.235004       -60.8175
  31   1.0000      -2.232814       -60.7580
  32   1.0000      -2.232690       -60.7546
  33   1.0000      -2.232685       -60.7544
  34   1.0000      -2.232408       -60.7469
  35   1.0000      -2.232197       -60.7412
  36   1.0000      -2.231257       -60.7156
  37   1.0000      -2.231154       -60.7128
  38   1.0000      -2.230517       -60.6955
  39   1.0000      -2.228269       -60.6343
  40   1.0000      -2.227902       -60.6243
  41   1.0000      -2.224367       -60.5281
  42   1.0000      -2.224127       -60.5216
  43   1.0000      -2.222572       -60.4792
  44   1.0000      -2.219163       -60.3865
  45   1.0000      -2.211473       -60.1772
  46   1.0000      -1.854984       -50.4767
  47   1.0000      -1.851017       -50.3687
  48   1.0000      -1.849219       -50.3198
  49   1.0000      -0.403323       -10.9750
  50   1.0000      -0.384013       -10.4495
  51   1.0000      -0.371590       -10.1115
  52   1.0000      -0.365717        -9.9517
  53   1.0000      -0.361245        -9.8300
  54   1.0000      -0.354184        -9.6378
  55   1.0000      -0.347117        -9.4455
  56   1.0000      -0.343517        -9.3476
  57   1.0000      -0.339031        -9.2255
  58   1.0000      -0.333097        -9.0640
  59   1.0000      -0.331822        -9.0293
  60   1.0000      -0.328040        -8.9264
  61   1.0000      -0.324901        -8.8410
  62   1.0000      -0.321202        -8.7404
  63   1.0000      -0.319920        -8.7055
  64   1.0000      -0.315851        -8.5947
  65   1.0000      -0.313679        -8.5356
  66   1.0000      -0.312617        -8.5067
  67   1.0000      -0.310764        -8.4563
  68   1.0000      -0.308083        -8.3834
  69   1.0000      -0.305304        -8.3078
  70   1.0000      -0.300632        -8.1806
  71   1.0000      -0.297273        -8.0892
  72   1.0000      -0.295063        -8.0291
  73   1.0000      -0.291524        -7.9328
  74   1.0000      -0.290385        -7.9018
  75   1.0000      -0.285995        -7.7823
  76   1.0000      -0.284959        -7.7541
  77   1.0000      -0.283690        -7.7196
  78   1.0000      -0.279082        -7.5942
  79   1.0000      -0.275399        -7.4940
  80   1.0000      -0.274229        -7.4622
  81   1.0000      -0.273632        -7.4459
  82   1.0000      -0.272342        -7.4108
  83   1.0000      -0.271807        -7.3962
  84   1.0000      -0.269871        -7.3436
  85   1.0000      -0.268184        -7.2976
  86   1.0000      -0.266591        -7.2543
  87   1.0000      -0.264133        -7.1874
  88   1.0000      -0.262458        -7.1418
  89   1.0000      -0.262314        -7.1379
  90   1.0000      -0.260195        -7.0803
  91   1.0000      -0.259456        -7.0601
  92   1.0000      -0.256897        -6.9905
  93   1.0000      -0.253925        -6.9097
  94   1.0000      -0.252767        -6.8781
  95   1.0000      -0.250279        -6.8104
  96   1.0000      -0.248294        -6.7564
  97   1.0000      -0.247199        -6.7266
  98   1.0000      -0.244506        -6.6533
  99   1.0000      -0.240319        -6.5394
 100   1.0000      -0.239323        -6.5123
 101   1.0000      -0.235757        -6.4153
 102   1.0000      -0.232503        -6.3267
 103   1.0000      -0.217474        -5.9178
 104   1.0000      -0.204422        -5.5626
 105   1.0000      -0.183577        -4.9954
 106   0.0000      -0.144463        -3.9310
 107   0.0000      -0.142018        -3.8645
 108   0.0000      -0.140270        -3.8169
 109   0.0000      -0.129920        -3.5353
 110   0.0000      -0.124818        -3.3965

MULLIKEN ATOMIC CHARGES AND SPIN POPULATIONS
--------------------------------------------
   0 Au:   -0.024978   -0.241169
   1 Au:    0.119722   -0.079922
   2 Au:    0.362275   -0.085807
   3 Au:    0.035829   -0.182083
   4 Au:    0.250564   -0.074378
   5 Au:   -0.037301   -0.107054
   6 Au:    0.290414   -0.059049
   7 Au:    0.208951   -0.261696
   8 Au:    0.206856   -0.085965
   9 Au:   -0.057301    0.039411
  10 Mn:   -1.355034    4.137711
Sum of atomic charges         :   -0.0000000

LOEWDIN ATOMIC CHARGES AND SPIN POPULATIONS
-------------------------------------------
   0 Au:    0.001534   -0.131866
   1 Au:    0.012170   -0.064790
   2 Au:    0.083142   -0.120060
   3 Au:   -0.018737   -0.108538
   4 Au:    0.103793   -0.153086
   5 Au:   -0.071751   -0.074563
   6 Au:    0.075949   -0.052778
   7 Au:    0.054717   -0.197995
   8 Au:    0.092722   -0.138009
   9 Au:    0.003173    0.023473
  10 Mn:   -0.336712    4.018213

  Mayer bond orders larger than 0.100000
B(  0-Au,  1-Au) :   0.1497 B(  0-Au,  2-Au) :   0.4085 B(  0-Au,  4-Au) :   0.3717
B(  0-Au, 10-Mn) :   0.5629 B(  1-Au,  2-Au) :   0.2906 B(  1-Au,  3-Au) :   0.1471
B(  1-Au,  9-Au) :   0.5152 B(  1-Au, 10-Mn) :   0.5743 B(  2-Au,  3-Au) :   0.3587
B(  3-Au,  8-Au) :   0.3951 B(  3-Au, 10-Mn) :   0.5856 B(  4-Au,  5-Au) :   0.3130
B(  4-Au,  7-Au) :   0.1320 B(  4-Au, 10-Mn) :   0.5006 B(  5-Au,  6-Au) :   0.5643
B(  5-Au,  7-Au) :   0.2263 B(  5-Au,  9-Au) :   0.2411 B(  5-Au, 10-Mn) :   0.3963
B(  6-Au,  9-Au) :   0.4503 B(  7-Au,  8-Au) :   0.3239 B(  7-Au, 10-Mn) :   0.6083
B(  8-Au, 10-Mn) :   0.5614 B(  9-Au, 10-Mn) :   0.6059

FINAL SINGLE POINT ENERGY     -2509.028741587091

DIPOLE MOMENT
-------------
                                X             Y             Z
Electronic contribution:    -11.96978      -8.11109      -1.08280
Nuclear contribution   :     11.91264       8.16045       1.27370
                        -----------------------------------------
Total Dipole Moment    :     -0.05713       0.04936       0.19090
                        -----------------------------------------
Magnitude (a.u.)       :      0.20528
Magnitude (Debye)      :      0.52179

Rotational constants in cm-1:     0.002112     0.001264     0.001095
Rotational constants in MHz :    63.302329    37.879992    32.815708

                             ****ORCA TERMINATED NORMALLY****
TOTAL RUN TIME: 0 days 1 hours 51 minutes 34 seconds 583 msec
