                         Program Version 5.0.3 -  RELEASE  -
|  1> !SC-NEVPT2 def2-TZVP def2-TZVP/C
|  2> !MOREAD RIJCOSX def2/J
|  3> %maxcore 4000
|  4> %moinp "casscf.gbw"
|  5> %pal nprocs 8 end
|  6>
|  7> %casscf
|  8>  mult 5,3
|  9>  bweight 1,1
| 10>  nroots 5,45
| 11>  nel 6
| 12>  norb 5
| 13>  ptsettings
| 14>   d4tpre 1e-14 # default = 1e-10
| 15>   d3tpre 1e-14
| 16>  end
| 17>  rel
| 18>    dosoc true
| 19>    gtensor true
| 20>  end
| 21> end
| 22>
| 23>
| 24> *xyzfile 0 5 pbe.xyz
| 25>
| 26>
| 27>                          ****END OF INPUT****

CARTESIAN COORDINATES (ANGSTROEM)
---------------------------------
  Au     6.925413    8.934431    5.364489
  Au     5.477974    5.924177    9.673813
  Au    10.285727    8.158260    8.622522
  Au     8.094203    6.831148    9.538496
  Au     7.159785    4.876459    7.693826
  Au    11.921072    9.859096    7.228440
  Au     9.423322    9.565391    6.168209
  Au     8.837618    6.888850    6.643209
  Au     6.647123    6.005434    5.175565
  Au     4.432847    7.644699    5.327319
  Au     7.246113   10.437669    7.824990
  Au     4.708973    9.690517    7.209081
  Au     3.631071    7.199286    8.034658
  Au     9.810933   11.090143    8.570750
  Au     8.320786    9.507588   10.235779
  Au     5.678642    8.765627    9.719671
  Cr     6.243287    7.405595    7.476254

 Total Charge           Charge          ....    0
 Multiplicity           Mult            ....    5
 Number of Electrons    NEL             ....  328
 Basis Dimension        Dim             ....  685

ORBITAL ENERGIES
----------------

  NO   OCC          E(Eh)            E(eV)
   0   2.0000    -220.537485     -6001.1301
   1   2.0000     -26.380927      -717.8615
   2   2.0000     -22.313218      -607.1735
   3   2.0000     -22.312481      -607.1535
   4   2.0000     -22.303436      -606.9074
   5   2.0000      -4.726306      -128.6093
   6   2.0000      -4.719885      -128.4346
   7   2.0000      -4.715770      -128.3226
   8   2.0000      -4.711503      -128.2065
   9   2.0000      -4.710222      -128.1716
  10   2.0000      -4.709678      -128.1569
  11   2.0000      -4.709450      -128.1507
  12   2.0000      -4.709326      -128.1473
  13   2.0000      -4.709169      -128.1430
  14   2.0000      -4.708555      -128.1263
  15   2.0000      -4.708132      -128.1148
  16   2.0000      -4.705377      -128.0398
  17   2.0000      -4.702950      -127.9738
  18   2.0000      -4.702688      -127.9666
  19   2.0000      -4.702627      -127.9650
  20   2.0000      -4.701911      -127.9455
  21   2.0000      -3.430508       -93.3489
  22   2.0000      -2.766636       -75.2840
  23   2.0000      -2.764172       -75.2169
  24   2.0000      -2.761694       -75.1495
  25   2.0000      -2.758794       -75.0706
  26   2.0000      -2.757087       -75.0241
  27   2.0000      -2.756212       -75.0003
  28   2.0000      -2.754930       -74.9655
  29   2.0000      -2.753102       -74.9157
  30   2.0000      -2.751787       -74.8799
  31   2.0000      -2.750989       -74.8582
  32   2.0000      -2.750726       -74.8511
  33   2.0000      -2.750297       -74.8394
  34   2.0000      -2.748826       -74.7994
  35   2.0000      -2.748200       -74.7823
  36   2.0000      -2.747976       -74.7762
  37   2.0000      -2.747596       -74.7659
  38   2.0000      -2.746694       -74.7414
  39   2.0000      -2.746186       -74.7275
  40   2.0000      -2.745680       -74.7138
  41   2.0000      -2.745563       -74.7106
  42   2.0000      -2.745203       -74.7008
  43   2.0000      -2.744784       -74.6894
  44   2.0000      -2.744622       -74.6850
  45   2.0000      -2.744286       -74.6758
  46   2.0000      -2.744035       -74.6690
  47   2.0000      -2.743746       -74.6611
  48   2.0000      -2.743231       -74.6471
  49   2.0000      -2.742984       -74.6404
  50   2.0000      -2.742871       -74.6373
  51   2.0000      -2.742649       -74.6313
  52   2.0000      -2.741402       -74.5973
  53   2.0000      -2.741362       -74.5963
  54   2.0000      -2.741236       -74.5928
  55   2.0000      -2.740829       -74.5817
  56   2.0000      -2.740598       -74.5755
  57   2.0000      -2.740128       -74.5627
  58   2.0000      -2.739618       -74.5488
  59   2.0000      -2.739405       -74.5430
  60   2.0000      -2.739168       -74.5366
  61   2.0000      -2.738757       -74.5254
  62   2.0000      -2.736947       -74.4761
  63   2.0000      -2.736570       -74.4659
  64   2.0000      -2.736423       -74.4618
  65   2.0000      -2.736038       -74.4514
  66   2.0000      -2.735864       -74.4466
  67   2.0000      -2.735810       -74.4452
  68   2.0000      -2.735273       -74.4306
  69   2.0000      -2.734762       -74.4167
  70   2.0000      -2.193093       -59.6771
  71   2.0000      -2.192414       -59.6586
  72   2.0000      -2.183026       -59.4031
  73   2.0000      -0.562899       -15.3173
  74   2.0000      -0.559659       -15.2291
  75   2.0000      -0.554667       -15.0933
  76   2.0000      -0.549628       -14.9561
  77   2.0000      -0.547788       -14.9061
  78   2.0000      -0.546940       -14.8830
  79   2.0000      -0.544268       -14.8103
  80   2.0000      -0.542274       -14.7560
  81   2.0000      -0.541049       -14.7227
  82   2.0000      -0.540725       -14.7139
  83   2.0000      -0.538180       -14.6446
  84   2.0000      -0.537012       -14.6128
  85   2.0000      -0.535896       -14.5825
  86   2.0000      -0.535493       -14.5715
  87   2.0000      -0.532489       -14.4898
  88   2.0000      -0.531273       -14.4567
  89   2.0000      -0.529419       -14.4062
  90   2.0000      -0.527862       -14.3638
  91   2.0000      -0.527466       -14.3531
  92   2.0000      -0.525391       -14.2966
  93   2.0000      -0.522962       -14.2305
  94   2.0000      -0.520887       -14.1740
  95   2.0000      -0.518745       -14.1158
  96   2.0000      -0.516309       -14.0495
  97   2.0000      -0.514398       -13.9975
  98   2.0000      -0.512896       -13.9566
  99   2.0000      -0.511146       -13.9090
 100   2.0000      -0.509450       -13.8628
 101   2.0000      -0.506421       -13.7804
 102   2.0000      -0.503714       -13.7067
 103   2.0000      -0.501204       -13.6384
 104   2.0000      -0.498269       -13.5586
 105   2.0000      -0.496611       -13.5135
 106   2.0000      -0.493055       -13.4167
 107   2.0000      -0.491430       -13.3725
 108   2.0000      -0.488674       -13.2975
 109   2.0000      -0.484522       -13.1845
 110   2.0000      -0.482219       -13.1218
 111   2.0000      -0.480363       -13.0713
 112   2.0000      -0.476215       -12.9585
 113   2.0000      -0.471705       -12.8358
 114   2.0000      -0.469832       -12.7848
 115   2.0000      -0.466378       -12.6908
 116   2.0000      -0.465790       -12.6748
 117   2.0000      -0.463691       -12.6177
 118   2.0000      -0.462355       -12.5813
 119   2.0000      -0.460066       -12.5190
 120   2.0000      -0.458861       -12.4863
 121   2.0000      -0.454978       -12.3806
 122   2.0000      -0.453880       -12.3507
 123   2.0000      -0.451914       -12.2972
 124   2.0000      -0.450670       -12.2633
 125   2.0000      -0.448364       -12.2006
 126   2.0000      -0.447209       -12.1692
 127   2.0000      -0.444236       -12.0883
 128   2.0000      -0.443840       -12.0775
 129   2.0000      -0.442336       -12.0366
 130   2.0000      -0.441872       -12.0239
 131   2.0000      -0.439823       -11.9682
 132   2.0000      -0.438657       -11.9365
 133   2.0000      -0.438139       -11.9224
 134   2.0000      -0.437253       -11.8983
 135   2.0000      -0.436428       -11.8758
 136   2.0000      -0.434209       -11.8154
 137   2.0000      -0.432742       -11.7755
 138   2.0000      -0.431062       -11.7298
 139   2.0000      -0.429270       -11.6810
 140   2.0000      -0.428546       -11.6613
 141   2.0000      -0.427483       -11.6324
 142   2.0000      -0.424149       -11.5417
 143   2.0000      -0.420666       -11.4469
 144   2.0000      -0.418382       -11.3847
 145   2.0000      -0.415317       -11.3013
 146   2.0000      -0.412891       -11.2353
 147   2.0000      -0.410469       -11.1694
 148   2.0000      -0.407699       -11.0941
 149   2.0000      -0.404856       -11.0167
 150   2.0000      -0.402504       -10.9527
 151   2.0000      -0.400432       -10.8963
 152   2.0000      -0.395874       -10.7723
 153   2.0000      -0.387868       -10.5544
 154   2.0000      -0.379096       -10.3157
 155   2.0000      -0.349934        -9.5222
 156   2.0000      -0.343931        -9.3588
 157   2.0000      -0.282582        -7.6894
 158   2.0000      -0.251670        -6.8483
 159   2.0000      -0.234706        -6.3867
 160   2.0000      -0.221870        -6.0374
 161   1.2000      -0.132696        -3.6108
 162   1.2000      -0.116501        -3.1702
 163   1.2000      -0.136165        -3.7052
 164   1.2000      -0.122052        -3.3212
 165   1.2000      -0.121367        -3.3026
 166   0.0000      -0.017529        -0.4770
 167   0.0000      -0.010686        -0.2908
 168   0.0000      -0.004394        -0.1196
 169   0.0000      -0.002311        -0.0629
 170   0.0000       0.009049         0.2462

MULLIKEN ATOMIC CHARGES AND SPIN DENSITIES
------------------------------------------
   0 Au:    0.348888    0.014236
   1 Au:    0.595457    0.036104
   2 Au:   -0.105774    0.009636
   3 Au:   -0.013219    0.026647
   4 Au:    0.553547    0.026390
   5 Au:    0.654133    0.011533
   6 Au:   -0.322720    0.017115
   7 Au:    0.153685    0.021440
   8 Au:    0.582104    0.008123
   9 Au:    0.529739    0.024679
  10 Au:   -0.450115    0.026320
  11 Au:    0.646749    0.018413
  12 Au:    0.612302    0.023648
  13 Au:    0.329004    0.008243
  14 Au:    0.216889    0.015318
  15 Au:    0.526730    0.030176
  16 Cr:   -4.857400    2.681979
Sum of atomic charges       :    0.0000000

LOEWDIN ATOMIC CHARGES AND SPIN DENSITIES
-----------------------------------------
   0 Au:    0.040843    0.050775
   1 Au:    0.140267    0.074243
   2 Au:   -0.069384    0.014768
   3 Au:    0.003250    0.056403
   4 Au:    0.126561    0.065885
   5 Au:    0.235681    0.014892
   6 Au:   -0.062385    0.024172
   7 Au:    0.012514    0.044223
   8 Au:    0.140117    0.046891
   9 Au:    0.141715    0.048694
  10 Au:   -0.045102    0.034773
  11 Au:    0.093756    0.056685
  12 Au:    0.209510    0.050534
  13 Au:    0.016625    0.014763
  14 Au:    0.056974    0.020835
  15 Au:    0.088917    0.064939
  16 Cr:   -1.129857    2.316525

  Mayer bond orders larger than 0.100000
B(  0-Au,  1-Au) :   0.1290 B(  0-Au,  6-Au) :   0.3638 B(  0-Au,  9-Au) :   0.1584
B(  0-Au, 10-Au) :   0.1668 B(  0-Au, 16-Cr) :   0.3289 B(  1-Au,  3-Au) :   0.1460
B(  1-Au,  4-Au) :   0.1635 B(  1-Au, 12-Au) :   0.1321 B(  1-Au, 15-Au) :   0.1019
B(  1-Au, 16-Cr) :   0.4048 B(  2-Au,  3-Au) :   0.4136 B(  2-Au,  5-Au) :   0.2461
B(  2-Au,  6-Au) :   0.4464 B(  2-Au,  7-Au) :   0.1719 B(  2-Au, 13-Au) :   0.1723
B(  2-Au, 14-Au) :   0.1252 B(  2-Au, 16-Cr) :   0.1465 B(  3-Au,  7-Au) :   0.1667
B(  3-Au, 14-Au) :   0.2361 B(  3-Au, 15-Au) :   0.1017 B(  3-Au, 16-Cr) :   0.3664
B(  4-Au,  7-Au) :   0.1487 B(  4-Au,  8-Au) :   0.1860 B(  4-Au, 11-Au) :   0.1657
B(  4-Au, 16-Cr) :   0.3427 B(  5-Au,  6-Au) :   0.2999 B(  5-Au, 13-Au) :   0.1418
B(  6-Au,  7-Au) :   0.1273 B(  6-Au, 10-Au) :   0.1893 B(  6-Au, 13-Au) :   0.2343
B(  6-Au, 16-Cr) :   0.3353 B(  7-Au,  8-Au) :   0.1667 B(  7-Au, 12-Au) :   0.1536
B(  7-Au, 16-Cr) :   0.3083 B(  8-Au,  9-Au) :   0.1736 B(  8-Au, 15-Au) :   0.1554
B(  8-Au, 16-Cr) :   0.3242 B(  9-Au, 11-Au) :   0.1161 B(  9-Au, 12-Au) :   0.1170
B(  9-Au, 16-Cr) :   0.3641 B( 10-Au, 11-Au) :   0.2045 B( 10-Au, 13-Au) :   0.3731
B( 10-Au, 14-Au) :   0.3562 B( 10-Au, 15-Au) :   0.1411 B( 10-Au, 16-Cr) :   0.3629
B( 11-Au, 15-Au) :   0.1307 B( 11-Au, 16-Cr) :   0.2358 B( 12-Au, 16-Cr) :   0.2488
B( 13-Au, 14-Au) :   0.2145 B( 14-Au, 15-Au) :   0.1104 B( 14-Au, 16-Cr) :   0.2375
B( 15-Au, 16-Cr) :   0.2958

FINAL SINGLE POINT ENERGY     -3208.223301606624

DIPOLE MOMENT
-------------
                                X             Y             Z
Electronic contribution:     40.97721      28.26692       7.51058
Nuclear contribution   :    -41.26749     -28.43055      -7.52329
                        -----------------------------------------
Total Dipole Moment    :     -0.29028      -0.16363      -0.01271
                        -----------------------------------------
Magnitude (a.u.)       :      0.33347
Magnitude (Debye)      :      0.84760

Rotational constants in cm-1:     0.001102     0.000661     0.000645
Rotational constants in MHz :    33.036582    19.802841    19.325816

                             ****ORCA TERMINATED NORMALLY****
TOTAL RUN TIME: 0 days 2 hours 52 minutes 5 seconds 924 msec
