                         Program Version 5.0.3 -  RELEASE  -
|  1> !CASSCF def2-TZVP def2-TZVP/C
|  2> !MOREAD RIJCOSX
|  3> %maxcore 6000
|  4> %moinp "pbe.qro"
|  5> %pal nprocs 2 end
|  6>
|  7> %casscf
|  8>  mult 5,3
|  9>  bweight 1,1
| 10>  nroots 5,45
| 11>  nel 6
| 12>  norb 5
| 13> end
| 14>
| 15>
| 16> *xyzfile 0 5 pbe.xyz
| 17>
| 18>
| 19>                          ****END OF INPUT****

CARTESIAN COORDINATES (ANGSTROEM)
---------------------------------
  Au     9.554058    6.230807    7.267637
  Au     8.294643    9.517793    9.773636
  Au    10.304109    7.576623    9.561552
  Au    10.901022   10.363575    9.252050
  Au     5.802063    8.941441    8.924495
  Au     7.671489    6.759368    9.612670
  Au     7.261274    4.707885    7.659040
  Au     5.075334    6.212630    8.677695
  Au     8.943801   10.513159    7.262578
  Au    10.965911    8.589751    7.020080
  Au     8.809001    8.463027    5.310911
  Au     7.958707    5.746269    5.042336
  Au     6.199929    7.890699    4.421138
  Au     5.189249    5.587755    5.851406
  Au     4.322942    8.189147    6.657677
  Au     6.476537    9.960452    6.331376
  Cr     6.966483    7.356780    7.022113

 Total Charge           Charge          ....    0
 Multiplicity           Mult            ....    5
 Number of Electrons    NEL             ....  328
 Basis Dimension        Dim             ....  685

ORBITAL ENERGIES
----------------

  NO   OCC          E(Eh)            E(eV)
   0   2.0000    -220.513628     -6000.4809
   1   2.0000     -26.352694      -717.0933
   2   2.0000     -22.287515      -606.4741
   3   2.0000     -22.283165      -606.3557
   4   2.0000     -22.274520      -606.1205
   5   2.0000      -4.730404      -128.7208
   6   2.0000      -4.717966      -128.3824
   7   2.0000      -4.717898      -128.3805
   8   2.0000      -4.717600      -128.3724
   9   2.0000      -4.713503      -128.2609
  10   2.0000      -4.713400      -128.2581
  11   2.0000      -4.712980      -128.2467
  12   2.0000      -4.712797      -128.2417
  13   2.0000      -4.712226      -128.2262
  14   2.0000      -4.712214      -128.2259
  15   2.0000      -4.709303      -128.1467
  16   2.0000      -4.709157      -128.1427
  17   2.0000      -4.702836      -127.9707
  18   2.0000      -4.702581      -127.9637
  19   2.0000      -4.702179      -127.9528
  20   2.0000      -4.701960      -127.9468
  21   2.0000      -3.406809       -92.7040
  22   2.0000      -2.769882       -75.3723
  23   2.0000      -2.767774       -75.3150
  24   2.0000      -2.767532       -75.3084
  25   2.0000      -2.757043       -75.0230
  26   2.0000      -2.756947       -75.0203
  27   2.0000      -2.756153       -74.9987
  28   2.0000      -2.755377       -74.9776
  29   2.0000      -2.754628       -74.9572
  30   2.0000      -2.754149       -74.9442
  31   2.0000      -2.753860       -74.9363
  32   2.0000      -2.753686       -74.9316
  33   2.0000      -2.752814       -74.9079
  34   2.0000      -2.752014       -74.8861
  35   2.0000      -2.751868       -74.8821
  36   2.0000      -2.751098       -74.8612
  37   2.0000      -2.750610       -74.8479
  38   2.0000      -2.750112       -74.8343
  39   2.0000      -2.749956       -74.8301
  40   2.0000      -2.749655       -74.8219
  41   2.0000      -2.749480       -74.8171
  42   2.0000      -2.749209       -74.8098
  43   2.0000      -2.748924       -74.8020
  44   2.0000      -2.748401       -74.7878
  45   2.0000      -2.748283       -74.7846
  46   2.0000      -2.747642       -74.7671
  47   2.0000      -2.747177       -74.7545
  48   2.0000      -2.746503       -74.7361
  49   2.0000      -2.746237       -74.7289
  50   2.0000      -2.746180       -74.7274
  51   2.0000      -2.745766       -74.7161
  52   2.0000      -2.745550       -74.7102
  53   2.0000      -2.745520       -74.7094
  54   2.0000      -2.744776       -74.6892
  55   2.0000      -2.744160       -74.6724
  56   2.0000      -2.743437       -74.6527
  57   2.0000      -2.740639       -74.5766
  58   2.0000      -2.740478       -74.5722
  59   2.0000      -2.739882       -74.5560
  60   2.0000      -2.739785       -74.5533
  61   2.0000      -2.739562       -74.5473
  62   2.0000      -2.738634       -74.5220
  63   2.0000      -2.738128       -74.5082
  64   2.0000      -2.737244       -74.4842
  65   2.0000      -2.736866       -74.4739
  66   2.0000      -2.735956       -74.4491
  67   2.0000      -2.735299       -74.4313
  68   2.0000      -2.734988       -74.4228
  69   2.0000      -2.733787       -74.3901
  70   2.0000      -2.172642       -59.1206
  71   2.0000      -2.169699       -59.0405
  72   2.0000      -2.160978       -58.8032
  73   2.0000      -0.568119       -15.4593
  74   2.0000      -0.555375       -15.1125
  75   2.0000      -0.551894       -15.0178
  76   2.0000      -0.551483       -15.0066
  77   2.0000      -0.549351       -14.9486
  78   2.0000      -0.548677       -14.9303
  79   2.0000      -0.546192       -14.8626
  80   2.0000      -0.545704       -14.8494
  81   2.0000      -0.545028       -14.8310
  82   2.0000      -0.541739       -14.7415
  83   2.0000      -0.540696       -14.7131
  84   2.0000      -0.540492       -14.7075
  85   2.0000      -0.540084       -14.6964
  86   2.0000      -0.537858       -14.6359
  87   2.0000      -0.537732       -14.6324
  88   2.0000      -0.536308       -14.5937
  89   2.0000      -0.535902       -14.5826
  90   2.0000      -0.531386       -14.4597
  91   2.0000      -0.529003       -14.3949
  92   2.0000      -0.528751       -14.3880
  93   2.0000      -0.527349       -14.3499
  94   2.0000      -0.525954       -14.3119
  95   2.0000      -0.521878       -14.2010
  96   2.0000      -0.521327       -14.1860
  97   2.0000      -0.520067       -14.1517
  98   2.0000      -0.519323       -14.1315
  99   2.0000      -0.513685       -13.9781
 100   2.0000      -0.510722       -13.8974
 101   2.0000      -0.508018       -13.8239
 102   2.0000      -0.506775       -13.7901
 103   2.0000      -0.502189       -13.6653
 104   2.0000      -0.500690       -13.6245
 105   2.0000      -0.498130       -13.5548
 106   2.0000      -0.496771       -13.5178
 107   2.0000      -0.495554       -13.4847
 108   2.0000      -0.492295       -13.3960
 109   2.0000      -0.490240       -13.3401
 110   2.0000      -0.488224       -13.2853
 111   2.0000      -0.483885       -13.1672
 112   2.0000      -0.482097       -13.1185
 113   2.0000      -0.474972       -12.9247
 114   2.0000      -0.470498       -12.8029
 115   2.0000      -0.469112       -12.7652
 116   2.0000      -0.466502       -12.6942
 117   2.0000      -0.466137       -12.6842
 118   2.0000      -0.463504       -12.6126
 119   2.0000      -0.462150       -12.5757
 120   2.0000      -0.461959       -12.5705
 121   2.0000      -0.460282       -12.5249
 122   2.0000      -0.459287       -12.4978
 123   2.0000      -0.457822       -12.4580
 124   2.0000      -0.451593       -12.2885
 125   2.0000      -0.451097       -12.2750
 126   2.0000      -0.450164       -12.2496
 127   2.0000      -0.449938       -12.2434
 128   2.0000      -0.447031       -12.1643
 129   2.0000      -0.446344       -12.1456
 130   2.0000      -0.444581       -12.0977
 131   2.0000      -0.443918       -12.0796
 132   2.0000      -0.441602       -12.0166
 133   2.0000      -0.440294       -11.9810
 134   2.0000      -0.438898       -11.9430
 135   2.0000      -0.436343       -11.8735
 136   2.0000      -0.435544       -11.8518
 137   2.0000      -0.432610       -11.7719
 138   2.0000      -0.429766       -11.6945
 139   2.0000      -0.428121       -11.6498
 140   2.0000      -0.427919       -11.6443
 141   2.0000      -0.426526       -11.6064
 142   2.0000      -0.424170       -11.5422
 143   2.0000      -0.422737       -11.5033
 144   2.0000      -0.421921       -11.4811
 145   2.0000      -0.418935       -11.3998
 146   2.0000      -0.416590       -11.3360
 147   2.0000      -0.411034       -11.1848
 148   2.0000      -0.409764       -11.1502
 149   2.0000      -0.406693       -11.0667
 150   2.0000      -0.405643       -11.0381
 151   2.0000      -0.400843       -10.9075
 152   2.0000      -0.392958       -10.6929
 153   2.0000      -0.388155       -10.5622
 154   2.0000      -0.379929       -10.3384
 155   2.0000      -0.349859        -9.5202
 156   2.0000      -0.348727        -9.4893
 157   2.0000      -0.271470        -7.3871
 158   2.0000      -0.247518        -6.7353
 159   2.0000      -0.243844        -6.6353
 160   2.0000      -0.222097        -6.0436
 161   1.2000      -0.098711        -2.6861
 162   1.2000      -0.156550        -4.2600
 163   1.2000      -0.117184        -3.1887
 164   1.2000      -0.092283        -2.5111
 165   1.2000      -0.096027        -2.6130
 166   0.0000      -0.026793        -0.7291
 167   0.0000      -0.013497        -0.3673
 168   0.0000      -0.012968        -0.3529
 169   0.0000      -0.004243        -0.1155
 170   0.0000       0.003790         0.1031

MULLIKEN ATOMIC CHARGES AND SPIN DENSITIES
------------------------------------------
   0 Au:    0.060263    0.026148
   1 Au:   -0.074302    0.012393
   2 Au:    0.239447    0.009857
   3 Au:    0.475618    0.012076
   4 Au:    0.450978    0.017451
   5 Au:    0.175436    0.031721
   6 Au:    0.664151    0.024809
   7 Au:    0.687549    0.017591
   8 Au:   -0.071517    0.012411
   9 Au:    0.228559    0.009851
  10 Au:    0.181206    0.031402
  11 Au:    0.666208    0.024597
  12 Au:    0.687115    0.017511
  13 Au:    0.493849    0.010195
  14 Au:    0.653899    0.024086
  15 Au:    0.450727    0.017563
  16 Cr:   -5.969186    2.700336
Sum of atomic charges       :    0.0000000

LOEWDIN ATOMIC CHARGES AND SPIN DENSITIES
-----------------------------------------
   0 Au:    0.011554    0.053961
   1 Au:   -0.020848    0.023269
   2 Au:    0.029602    0.015225
   3 Au:    0.172669    0.016312
   4 Au:    0.077949    0.059602
   5 Au:    0.042058    0.050367
   6 Au:    0.134669    0.063400
   7 Au:    0.147209    0.043876
   8 Au:   -0.019721    0.023428
   9 Au:    0.025996    0.015309
  10 Au:    0.043166    0.050353
  11 Au:    0.134474    0.063295
  12 Au:    0.147578    0.043483
  13 Au:    0.184205    0.023978
  14 Au:    0.144991    0.046541
  15 Au:    0.078022    0.059642
  16 Cr:   -1.333571    2.347960

  Mayer bond orders larger than 0.100000
B(  0-Au,  2-Au) :   0.2063 B(  0-Au,  5-Au) :   0.1791 B(  0-Au,  6-Au) :   0.1205
B(  0-Au,  9-Au) :   0.2038 B(  0-Au, 10-Au) :   0.1732 B(  0-Au, 11-Au) :   0.1208
B(  0-Au, 14-Au) :   0.1088 B(  0-Au, 16-Cr) :   0.3827 B(  1-Au,  2-Au) :   0.2000
B(  1-Au,  3-Au) :   0.2866 B(  1-Au,  4-Au) :   0.1902 B(  1-Au,  5-Au) :   0.1612
B(  1-Au,  8-Au) :   0.2749 B(  1-Au, 16-Cr) :   0.4453 B(  2-Au,  3-Au) :   0.1496
B(  2-Au,  5-Au) :   0.2186 B(  2-Au,  9-Au) :   0.1548 B(  2-Au, 16-Cr) :   0.3148
B(  3-Au,  8-Au) :   0.2858 B(  3-Au,  9-Au) :   0.1564 B(  4-Au,  5-Au) :   0.1298
B(  4-Au,  7-Au) :   0.1097 B(  4-Au, 11-Au) :   0.1731 B(  4-Au, 14-Au) :   0.1288
B(  4-Au, 15-Au) :   0.1552 B(  4-Au, 16-Cr) :   0.3502 B(  5-Au,  7-Au) :   0.1384
B(  5-Au, 12-Au) :   0.1313 B(  5-Au, 16-Cr) :   0.3782 B(  6-Au,  7-Au) :   0.1076
B(  6-Au, 11-Au) :   0.1106 B(  6-Au, 13-Au) :   0.1178 B(  6-Au, 15-Au) :   0.1727
B(  6-Au, 16-Cr) :   0.2839 B(  7-Au, 10-Au) :   0.1334 B(  7-Au, 16-Cr) :   0.2298
B(  8-Au,  9-Au) :   0.2027 B(  8-Au, 10-Au) :   0.1614 B(  8-Au, 15-Au) :   0.1895
B(  8-Au, 16-Cr) :   0.4445 B(  9-Au, 10-Au) :   0.2158 B(  9-Au, 16-Cr) :   0.3207
B( 10-Au, 11-Au) :   0.1010 B( 10-Au, 12-Au) :   0.1380 B( 10-Au, 15-Au) :   0.1306
B( 10-Au, 16-Cr) :   0.3777 B( 11-Au, 12-Au) :   0.1074 B( 11-Au, 13-Au) :   0.1169
B( 11-Au, 16-Cr) :   0.2814 B( 12-Au, 15-Au) :   0.1118 B( 12-Au, 16-Cr) :   0.2302
B( 13-Au, 16-Cr) :   0.2549 B( 14-Au, 15-Au) :   0.1291 B( 14-Au, 16-Cr) :   0.2385
B( 15-Au, 16-Cr) :   0.3508

FINAL SINGLE POINT ENERGY     -3200.131068959807

DIPOLE MOMENT
-------------
                                X             Y             Z
Electronic contribution:     26.55357      16.22189      13.53849
Nuclear contribution   :    -27.05654     -16.63558     -13.83552
                        -----------------------------------------
Total Dipole Moment    :     -0.50296      -0.41369      -0.29702
                        -----------------------------------------
Magnitude (a.u.)       :      0.71577
Magnitude (Debye)      :      1.81935

Rotational constants in cm-1:     0.001107     0.000699     0.000697
Rotational constants in MHz :    33.183824    20.942111    20.909492

                             ****ORCA TERMINATED NORMALLY****
TOTAL RUN TIME: 0 days 4 hours 18 minutes 51 seconds 763 msec
