                         Program Version 5.0.3 -  RELEASE  -
|  1> !CASSCF def2-TZVP def2-TZVP/C
|  2> !MOREAD RIJCOSX
|  3> %maxcore 6000
|  4> %moinp "pbe.qro"
|  5> %pal nprocs 16 end
|  6>
|  7> %casscf
|  8>  mult 6,4
|  9>  bweight 1,1
| 10>  nroots 1,24
| 11>  nel 5
| 12>  norb 5
| 13> end
| 14>
| 15>
| 16> *xyzfile 0 6 pbe.xyz
| 17>
| 18>
| 19>                          ****END OF INPUT****

CARTESIAN COORDINATES (ANGSTROEM)
---------------------------------
  Au     5.588670   10.258068    8.439902
  Au     7.392651    7.201897    4.562333
  Au     5.600582    8.393807    6.369173
  Au     5.709012    5.613601    5.979016
  Au     7.826176    4.039181    6.762381
  Au     6.172563    5.043184    8.739026
  Au     5.746517    7.659148    9.248846
  Au     9.877353    8.233305    8.626274
  Au     8.162567    6.618469   10.070160
  Au     7.789002    9.427335   10.131694
  Au     8.037479    9.819883    7.327312
  Au     9.905227    5.449746    8.193137
  Au     9.533248    5.651428    5.331870
  Au     9.699675    8.377279    5.767483
  Mn     7.783301    6.895930    7.282775

 Total Charge           Charge          ....    0
 Multiplicity           Mult            ....    6
 Number of Electrons    NEL             ....  291
 Basis Dimension        Dim             ....  605

ORBITAL ENERGIES
----------------

  NO   OCC          E(Eh)            E(eV)
   0   2.0000    -240.559660     -6545.9611
   1   2.0000     -29.133629      -792.7664
   2   2.0000     -24.838831      -675.8990
   3   2.0000     -24.838548      -675.8913
   4   2.0000     -24.838484      -675.8895
   5   2.0000      -4.719604      -128.4269
   6   2.0000      -4.719371      -128.4206
   7   2.0000      -4.717805      -128.3780
   8   2.0000      -4.717693      -128.3750
   9   2.0000      -4.716406      -128.3399
  10   2.0000      -4.716130      -128.3324
  11   2.0000      -4.715323      -128.3105
  12   2.0000      -4.715038      -128.3027
  13   2.0000      -4.711633      -128.2101
  14   2.0000      -4.711557      -128.2080
  15   2.0000      -4.711484      -128.2060
  16   2.0000      -4.709737      -128.1585
  17   2.0000      -4.709489      -128.1517
  18   2.0000      -4.693457      -127.7155
  19   2.0000      -3.839111      -104.4675
  20   2.0000      -2.760327       -75.1123
  21   2.0000      -2.759874       -75.1000
  22   2.0000      -2.759528       -75.0906
  23   2.0000      -2.757552       -75.0368
  24   2.0000      -2.756729       -75.0144
  25   2.0000      -2.756509       -75.0084
  26   2.0000      -2.755932       -74.9927
  27   2.0000      -2.755413       -74.9786
  28   2.0000      -2.754660       -74.9581
  29   2.0000      -2.754017       -74.9406
  30   2.0000      -2.753492       -74.9263
  31   2.0000      -2.753377       -74.9232
  32   2.0000      -2.753217       -74.9188
  33   2.0000      -2.752584       -74.9016
  34   2.0000      -2.752146       -74.8897
  35   2.0000      -2.751802       -74.8803
  36   2.0000      -2.751168       -74.8631
  37   2.0000      -2.751119       -74.8618
  38   2.0000      -2.750392       -74.8420
  39   2.0000      -2.749917       -74.8291
  40   2.0000      -2.749876       -74.8279
  41   2.0000      -2.749702       -74.8232
  42   2.0000      -2.748950       -74.8027
  43   2.0000      -2.748843       -74.7998
  44   2.0000      -2.747986       -74.7765
  45   2.0000      -2.747971       -74.7761
  46   2.0000      -2.747758       -74.7703
  47   2.0000      -2.747123       -74.7530
  48   2.0000      -2.746782       -74.7437
  49   2.0000      -2.746584       -74.7383
  50   2.0000      -2.745473       -74.7081
  51   2.0000      -2.745035       -74.6962
  52   2.0000      -2.744649       -74.6857
  53   2.0000      -2.744154       -74.6722
  54   2.0000      -2.743818       -74.6631
  55   2.0000      -2.743316       -74.6494
  56   2.0000      -2.742195       -74.6189
  57   2.0000      -2.741983       -74.6132
  58   2.0000      -2.740914       -74.5841
  59   2.0000      -2.729749       -74.2802
  60   2.0000      -2.729202       -74.2654
  61   2.0000      -2.728307       -74.2410
  62   2.0000      -2.507720       -68.2385
  63   2.0000      -2.507641       -68.2364
  64   2.0000      -2.507206       -68.2246
  65   2.0000      -0.578794       -15.7498
  66   2.0000      -0.559735       -15.2312
  67   2.0000      -0.555049       -15.1036
  68   2.0000      -0.554673       -15.0934
  69   2.0000      -0.553470       -15.0607
  70   2.0000      -0.552049       -15.0220
  71   2.0000      -0.549818       -14.9613
  72   2.0000      -0.544080       -14.8052
  73   2.0000      -0.542092       -14.7511
  74   2.0000      -0.540692       -14.7130
  75   2.0000      -0.539150       -14.6710
  76   2.0000      -0.537558       -14.6277
  77   2.0000      -0.536990       -14.6122
  78   2.0000      -0.535580       -14.5739
  79   2.0000      -0.534522       -14.5451
  80   2.0000      -0.532326       -14.4853
  81   2.0000      -0.529052       -14.3962
  82   2.0000      -0.527678       -14.3588
  83   2.0000      -0.527408       -14.3515
  84   2.0000      -0.524671       -14.2770
  85   2.0000      -0.519564       -14.1381
  86   2.0000      -0.516032       -14.0420
  87   2.0000      -0.511074       -13.9070
  88   2.0000      -0.510695       -13.8967
  89   2.0000      -0.508067       -13.8252
  90   2.0000      -0.507411       -13.8073
  91   2.0000      -0.504757       -13.7351
  92   2.0000      -0.502564       -13.6755
  93   2.0000      -0.499665       -13.5966
  94   2.0000      -0.494332       -13.4515
  95   2.0000      -0.490500       -13.3472
  96   2.0000      -0.488843       -13.3021
  97   2.0000      -0.487027       -13.2527
  98   2.0000      -0.485788       -13.2190
  99   2.0000      -0.482940       -13.1415
 100   2.0000      -0.478533       -13.0215
 101   2.0000      -0.476845       -12.9756
 102   2.0000      -0.476795       -12.9743
 103   2.0000      -0.472814       -12.8659
 104   2.0000      -0.472471       -12.8566
 105   2.0000      -0.467815       -12.7299
 106   2.0000      -0.467590       -12.7238
 107   2.0000      -0.461040       -12.5455
 108   2.0000      -0.459737       -12.5101
 109   2.0000      -0.458525       -12.4771
 110   2.0000      -0.455439       -12.3931
 111   2.0000      -0.452345       -12.3089
 112   2.0000      -0.451616       -12.2891
 113   2.0000      -0.450407       -12.2562
 114   2.0000      -0.447119       -12.1667
 115   2.0000      -0.446625       -12.1533
 116   2.0000      -0.444472       -12.0947
 117   2.0000      -0.439777       -11.9669
 118   2.0000      -0.434699       -11.8288
 119   2.0000      -0.433577       -11.7982
 120   2.0000      -0.433121       -11.7858
 121   2.0000      -0.432338       -11.7645
 122   2.0000      -0.428435       -11.6583
 123   2.0000      -0.426956       -11.6181
 124   2.0000      -0.425857       -11.5882
 125   2.0000      -0.425359       -11.5746
 126   2.0000      -0.424060       -11.5393
 127   2.0000      -0.423900       -11.5349
 128   2.0000      -0.421783       -11.4773
 129   2.0000      -0.419531       -11.4160
 130   2.0000      -0.411890       -11.2081
 131   2.0000      -0.409673       -11.1478
 132   2.0000      -0.408811       -11.1243
 133   2.0000      -0.406773       -11.0689
 134   2.0000      -0.406296       -11.0559
 135   2.0000      -0.381373       -10.3777
 136   2.0000      -0.379783       -10.3344
 137   2.0000      -0.347830        -9.4649
 138   2.0000      -0.347217        -9.4483
 139   2.0000      -0.261738        -7.1222
 140   2.0000      -0.244181        -6.6445
 141   2.0000      -0.240063        -6.5325
 142   2.0000      -0.224571        -6.1109
 143   1.0000      -0.156076        -4.2470
 144   1.0000      -0.149512        -4.0684
 145   1.0000      -0.157779        -4.2934
 146   1.0000      -0.162711        -4.4276
 147   1.0000      -0.153147        -4.1673
 148   0.0000      -0.040343        -1.0978
 149   0.0000      -0.026828        -0.7300
 150   0.0000      -0.008623        -0.2346
 151   0.0000       0.001318         0.0359
 152   0.0000       0.009523         0.2591

MULLIKEN ATOMIC CHARGES AND SPIN DENSITIES
------------------------------------------
   0 Au:    0.437958    0.004237
   1 Au:    0.280558    0.008046
   2 Au:   -0.083488    0.010460
   3 Au:    0.279812    0.008052
   4 Au:    0.220323    0.006683
   5 Au:    0.228889    0.008230
   6 Au:   -0.145561    0.008100
   7 Au:    0.228336    0.007741
   8 Au:    0.226642    0.007707
   9 Au:    0.115434    0.005229
  10 Au:   -0.146108    0.008071
  11 Au:    0.136766    0.010559
  12 Au:    0.220097    0.006723
  13 Au:    0.228319    0.008201
  14 Mn:   -2.227977    3.891961
Sum of atomic charges       :    0.0000000

LOEWDIN ATOMIC CHARGES AND SPIN DENSITIES
-----------------------------------------
   0 Au:    0.137062    0.005332
   1 Au:    0.024825    0.011202
   2 Au:    0.007339    0.013048
   3 Au:    0.024532    0.011209
   4 Au:    0.026643    0.009097
   5 Au:    0.053352    0.011447
   6 Au:   -0.063935    0.011125
   7 Au:    0.000364    0.011238
   8 Au:   -0.000042    0.011195
   9 Au:   -0.012114    0.006308
  10 Au:   -0.063961    0.011082
  11 Au:    0.066886    0.013066
  12 Au:    0.026332    0.009147
  13 Au:    0.053426    0.011417
  14 Mn:   -0.280709    3.854086

  Mayer bond orders larger than 0.100000
B(  0-Au,  2-Au) :   0.2833 B(  0-Au,  6-Au) :   0.2667 B(  0-Au,  9-Au) :   0.1218
B(  0-Au, 10-Au) :   0.2664 B(  1-Au,  2-Au) :   0.2026 B(  1-Au,  3-Au) :   0.2200
B(  1-Au, 12-Au) :   0.2534 B(  1-Au, 13-Au) :   0.1385 B(  1-Au, 14-Mn) :   0.3712
B(  2-Au,  3-Au) :   0.2034 B(  2-Au,  6-Au) :   0.1507 B(  2-Au, 10-Au) :   0.1497
B(  2-Au, 14-Mn) :   0.4562 B(  3-Au,  4-Au) :   0.2535 B(  3-Au,  5-Au) :   0.1384
B(  3-Au, 14-Mn) :   0.3712 B(  4-Au,  5-Au) :   0.2155 B(  4-Au, 11-Au) :   0.1232
B(  4-Au, 12-Au) :   0.1806 B(  4-Au, 14-Mn) :   0.3284 B(  5-Au,  6-Au) :   0.3816
B(  5-Au,  8-Au) :   0.1080 B(  5-Au, 14-Mn) :   0.3975 B(  6-Au,  8-Au) :   0.2753
B(  6-Au,  9-Au) :   0.2121 B(  6-Au, 10-Au) :   0.1674 B(  6-Au, 14-Mn) :   0.3500
B(  7-Au,  8-Au) :   0.1817 B(  7-Au,  9-Au) :   0.2584 B(  7-Au, 10-Au) :   0.2760
B(  7-Au, 11-Au) :   0.1788 B(  7-Au, 13-Au) :   0.1079 B(  7-Au, 14-Mn) :   0.3475
B(  8-Au,  9-Au) :   0.2604 B(  8-Au, 11-Au) :   0.1792 B(  8-Au, 14-Mn) :   0.3472
B(  9-Au, 10-Au) :   0.2126 B(  9-Au, 14-Mn) :   0.1442 B( 10-Au, 13-Au) :   0.3821
B( 10-Au, 14-Mn) :   0.3494 B( 11-Au, 12-Au) :   0.1227 B( 11-Au, 14-Mn) :   0.4688
B( 12-Au, 13-Au) :   0.2157 B( 12-Au, 14-Mn) :   0.3289 B( 13-Au, 14-Mn) :   0.3971

FINAL SINGLE POINT ENERGY     -3037.179333625908

DIPOLE MOMENT
-------------
                                X             Y             Z
Electronic contribution:     -5.13322      13.68979       9.24580
Nuclear contribution   :      5.02016     -13.67044      -9.35925
                        -----------------------------------------
Total Dipole Moment    :     -0.11306       0.01935      -0.11346
                        -----------------------------------------
Magnitude (a.u.)       :      0.16133
Magnitude (Debye)      :      0.41008

Rotational constants in cm-1:     0.001238     0.000941     0.000935
Rotational constants in MHz :    37.100535    28.221771    28.034831

                             ****ORCA TERMINATED NORMALLY****
TOTAL RUN TIME: 0 days 0 hours 6 minutes 16 seconds 169 msec
