                         Program Version 5.0.3 -  RELEASE  -
|  1> !RI-B2PLYP def2-TZVP def2-TZVP/C
|  2> !RIJCOSX VERYSLOWCONV
|  3>
|  4> %scf
|  5>   AutoTRAHIter 200
|  6>   maxiter 400
|  7> end
|  8>
|  9>
| 10> %pal nprocs 6 end
| 11>
| 12> *xyzfile 0 5 pbe.xyz
| 13>
| 14> $new_job
| 15>
| 16> !RI-B2PLYP def2-TZVP def2-TZVP/C
| 17> !RIJCOSX VERYSLOWCONV
| 18>
| 19> %scf
| 20>   AutoTRAHIter 200
| 21>   maxiter 400
| 22> end
| 23>
| 24>
| 25> %pal nprocs 6 end
| 26>
| 27> *xyzfile 0 3 pbe.xyz
| 28>
| 29>
| 30>
| 31>
| 32>
| 33>                          ****END OF INPUT****
 Total Charge           Charge          ....    0
 Multiplicity           Mult            ....    5
 Number of Electrons    NEL             ....  290
MP2 TOTAL ENERGY:    -2942.513986282 Eh
FINAL SINGLE POINT ENERGY     -2942.513986281873

CARTESIAN COORDINATES (ANGSTROEM)
---------------------------------
  Au     6.170119    5.779933    6.541651
  Au    10.335173    6.814664    7.944502
  Au     8.825042    8.657259    9.202237
  Au     8.708488    4.837481    6.637906
  Au     7.779314    5.955327    8.995122
  Au     6.554766    7.860943   10.722244
  Au     4.967138    6.278436    9.130146
  Au     6.746144   10.428378    9.624092
  Au    10.602363    6.450465    5.226920
  Au     6.229863    8.428575    5.234446
  Au     7.214062   10.501604    6.926457
  Au     8.871569    8.428386    6.195655
  Au     4.051640    7.523045    6.783016
  Au     7.939746    6.427342    4.413060
  Cr     6.404925    8.226924    7.982618

 Multiplicity           Mult            ....    3
 Number of Electrons    NEL             ....  290
 Basis Dimension        Dim             ....  605

ORBITAL ENERGIES
----------------
                 SPIN UP ORBITALS
  NO   OCC          E(Eh)            E(eV)
   0   1.0000    -217.764984     -5925.6865
   1   1.0000     -25.451256      -692.5639
   2   1.0000     -21.591498      -587.5345
   3   1.0000     -21.589074      -587.4686
   4   1.0000     -21.585283      -587.3654
   5   1.0000      -4.403242      -119.8183
   6   1.0000      -4.400475      -119.7430
   7   1.0000      -4.400021      -119.7307
   8   1.0000      -4.399853      -119.7261
   9   1.0000      -4.398589      -119.6917
  10   1.0000      -4.398290      -119.6836
  11   1.0000      -4.397836      -119.6712
  12   1.0000      -4.397620      -119.6653
  13   1.0000      -4.397270      -119.6558
  14   1.0000      -4.391119      -119.4884
  15   1.0000      -4.390528      -119.4724
  16   1.0000      -4.389893      -119.4551
  17   1.0000      -4.389503      -119.4444
  18   1.0000      -4.382653      -119.2580
  19   1.0000      -3.240201       -88.1704
  20   1.0000      -2.524482       -68.6946
  21   1.0000      -2.522164       -68.6316
  22   1.0000      -2.521749       -68.6203
  23   1.0000      -2.521249       -68.6067
  24   1.0000      -2.520548       -68.5876
  25   1.0000      -2.520207       -68.5783
  26   1.0000      -2.519368       -68.5555
  27   1.0000      -2.518710       -68.5376
  28   1.0000      -2.518629       -68.5354
  29   1.0000      -2.518230       -68.5245
  30   1.0000      -2.517893       -68.5154
  31   1.0000      -2.517355       -68.5007
  32   1.0000      -2.517256       -68.4980
  33   1.0000      -2.516635       -68.4811
  34   1.0000      -2.516122       -68.4672
  35   1.0000      -2.515536       -68.4512
  36   1.0000      -2.515267       -68.4439
  37   1.0000      -2.514775       -68.4305
  38   1.0000      -2.514337       -68.4186
  39   1.0000      -2.513525       -68.3965
  40   1.0000      -2.513391       -68.3928
  41   1.0000      -2.512867       -68.3786
  42   1.0000      -2.512448       -68.3672
  43   1.0000      -2.512233       -68.3613
  44   1.0000      -2.512031       -68.3559
  45   1.0000      -2.511667       -68.3459
  46   1.0000      -2.511315       -68.3364
  47   1.0000      -2.510472       -68.3134
  48   1.0000      -2.510127       -68.3040
  49   1.0000      -2.509113       -68.2764
  50   1.0000      -2.508331       -68.2552
  51   1.0000      -2.507892       -68.2432
  52   1.0000      -2.507343       -68.2283
  53   1.0000      -2.506715       -68.2112
  54   1.0000      -2.505922       -68.1896
  55   1.0000      -2.505723       -68.1842
  56   1.0000      -2.505345       -68.1739
  57   1.0000      -2.505092       -68.1670
  58   1.0000      -2.503895       -68.1344
  59   1.0000      -2.500151       -68.0326
  60   1.0000      -2.499272       -68.0086
  61   1.0000      -2.497683       -67.9654
  62   1.0000      -2.132529       -58.0291
  63   1.0000      -2.123625       -57.7868
  64   1.0000      -2.119052       -57.6623
  65   1.0000      -0.499028       -13.5792
  66   1.0000      -0.485347       -13.2070
  67   1.0000      -0.476673       -12.9709
  68   1.0000      -0.474178       -12.9030
  69   1.0000      -0.467179       -12.7126
  70   1.0000      -0.465462       -12.6659
  71   1.0000      -0.462610       -12.5883
  72   1.0000      -0.460892       -12.5415
  73   1.0000      -0.459764       -12.5108
  74   1.0000      -0.456729       -12.4282
  75   1.0000      -0.456038       -12.4094
  76   1.0000      -0.454426       -12.3656
  77   1.0000      -0.451730       -12.2922
  78   1.0000      -0.450187       -12.2502
  79   1.0000      -0.448381       -12.2011
  80   1.0000      -0.445571       -12.1246
  81   1.0000      -0.442167       -12.0320
  82   1.0000      -0.441665       -12.0183
  83   1.0000      -0.437868       -11.9150
  84   1.0000      -0.435275       -11.8444
  85   1.0000      -0.432322       -11.7641
  86   1.0000      -0.429684       -11.6923
  87   1.0000      -0.427560       -11.6345
  88   1.0000      -0.427243       -11.6259
  89   1.0000      -0.424648       -11.5552
  90   1.0000      -0.423068       -11.5123
  91   1.0000      -0.419806       -11.4235
  92   1.0000      -0.418885       -11.3984
  93   1.0000      -0.416694       -11.3388
  94   1.0000      -0.415939       -11.3183
  95   1.0000      -0.411435       -11.1957
  96   1.0000      -0.409692       -11.1483
  97   1.0000      -0.407400       -11.0859
  98   1.0000      -0.401448       -10.9239
  99   1.0000      -0.396190       -10.7809
 100   1.0000      -0.392255       -10.6738
 101   1.0000      -0.390114       -10.6155
 102   1.0000      -0.388594       -10.5742
 103   1.0000      -0.386664       -10.5217
 104   1.0000      -0.385096       -10.4790
 105   1.0000      -0.381337       -10.3767
 106   1.0000      -0.380491       -10.3537
 107   1.0000      -0.378066       -10.2877
 108   1.0000      -0.376091       -10.2339
 109   1.0000      -0.375472       -10.2171
 110   1.0000      -0.373592       -10.1660
 111   1.0000      -0.372198       -10.1280
 112   1.0000      -0.370519       -10.0823
 113   1.0000      -0.368213       -10.0196
 114   1.0000      -0.366364        -9.9693
 115   1.0000      -0.366090        -9.9618
 116   1.0000      -0.364608        -9.9215
 117   1.0000      -0.363174        -9.8825
 118   1.0000      -0.362460        -9.8630
 119   1.0000      -0.360960        -9.8222
 120   1.0000      -0.358328        -9.7506
 121   1.0000      -0.357071        -9.7164
 122   1.0000      -0.356205        -9.6928
 123   1.0000      -0.354646        -9.6504
 124   1.0000      -0.351887        -9.5753
 125   1.0000      -0.350662        -9.5420
 126   1.0000      -0.348040        -9.4706
 127   1.0000      -0.345458        -9.4004
 128   1.0000      -0.342756        -9.3269
 129   1.0000      -0.340456        -9.2643
 130   1.0000      -0.340257        -9.2589
 131   1.0000      -0.337484        -9.1834
 132   1.0000      -0.336760        -9.1637
 133   1.0000      -0.335562        -9.1311
 134   1.0000      -0.332333        -9.0432
 135   1.0000      -0.329768        -8.9734
 136   1.0000      -0.328827        -8.9478
 137   1.0000      -0.327916        -8.9231
 138   1.0000      -0.324741        -8.8366
 139   1.0000      -0.321358        -8.7446
 140   1.0000      -0.315580        -8.5874
 141   1.0000      -0.306936        -8.3522
 142   1.0000      -0.295573        -8.0429
 143   1.0000      -0.237983        -6.4758
 144   1.0000      -0.234880        -6.3914
 145   1.0000      -0.225437        -6.1344
 146   0.0000      -0.133290        -3.6270
 147   0.0000      -0.100544        -2.7359
 148   0.0000      -0.075355        -2.0505
 149   0.0000      -0.067354        -1.8328
 150   0.0000      -0.061433        -1.6717

                 SPIN DOWN ORBITALS
  NO   OCC          E(Eh)            E(eV)
   0   1.0000    -217.763709     -5925.6518
   1   1.0000     -25.380893      -690.6492
   2   1.0000     -21.534296      -585.9780
   3   1.0000     -21.526741      -585.7724
   4   1.0000     -21.509960      -585.3158
   5   1.0000      -4.403689      -119.8305
   6   1.0000      -4.401241      -119.7638
   7   1.0000      -4.400540      -119.7448
   8   1.0000      -4.399769      -119.7238
   9   1.0000      -4.399616      -119.7196
  10   1.0000      -4.398423      -119.6872
  11   1.0000      -4.398283      -119.6834
  12   1.0000      -4.398069      -119.6775
  13   1.0000      -4.397837      -119.6712
  14   1.0000      -4.391522      -119.4994
  15   1.0000      -4.391107      -119.4881
  16   1.0000      -4.390860      -119.4814
  17   1.0000      -4.390324      -119.4668
  18   1.0000      -4.383796      -119.2891
  19   1.0000      -3.024895       -82.3116
  20   1.0000      -2.524589       -68.6976
  21   1.0000      -2.523233       -68.6607
  22   1.0000      -2.522029       -68.6279
  23   1.0000      -2.521309       -68.6083
  24   1.0000      -2.520394       -68.5834
  25   1.0000      -2.519964       -68.5717
  26   1.0000      -2.518946       -68.5440
  27   1.0000      -2.518862       -68.5417
  28   1.0000      -2.518212       -68.5240
  29   1.0000      -2.518140       -68.5221
  30   1.0000      -2.518014       -68.5187
  31   1.0000      -2.517426       -68.5027
  32   1.0000      -2.517102       -68.4938
  33   1.0000      -2.516715       -68.4833
  34   1.0000      -2.516005       -68.4640
  35   1.0000      -2.515436       -68.4485
  36   1.0000      -2.514880       -68.4334
  37   1.0000      -2.514685       -68.4281
  38   1.0000      -2.514436       -68.4213
  39   1.0000      -2.514032       -68.4103
  40   1.0000      -2.513695       -68.4011
  41   1.0000      -2.513085       -68.3845
  42   1.0000      -2.512764       -68.3758
  43   1.0000      -2.512479       -68.3680
  44   1.0000      -2.512163       -68.3594
  45   1.0000      -2.511486       -68.3410
  46   1.0000      -2.511174       -68.3325
  47   1.0000      -2.510832       -68.3232
  48   1.0000      -2.510679       -68.3191
  49   1.0000      -2.509655       -68.2912
  50   1.0000      -2.508776       -68.2673
  51   1.0000      -2.508664       -68.2642
  52   1.0000      -2.507708       -68.2382
  53   1.0000      -2.507235       -68.2253
  54   1.0000      -2.506834       -68.2144
  55   1.0000      -2.506281       -68.1994
  56   1.0000      -2.505847       -68.1876
  57   1.0000      -2.505415       -68.1758
  58   1.0000      -2.504840       -68.1602
  59   1.0000      -2.501891       -68.0799
  60   1.0000      -2.500020       -68.0290
  61   1.0000      -2.498977       -68.0006
  62   1.0000      -1.902014       -51.7564
  63   1.0000      -1.885323       -51.3022
  64   1.0000      -1.845105       -50.2079
  65   1.0000      -0.494265       -13.4496
  66   1.0000      -0.477279       -12.9874
  67   1.0000      -0.472038       -12.8448
  68   1.0000      -0.470678       -12.8078
  69   1.0000      -0.466859       -12.7039
  70   1.0000      -0.462738       -12.5918
  71   1.0000      -0.461322       -12.5532
  72   1.0000      -0.460210       -12.5229
  73   1.0000      -0.458794       -12.4844
  74   1.0000      -0.455089       -12.3836
  75   1.0000      -0.454144       -12.3579
  76   1.0000      -0.453769       -12.3477
  77   1.0000      -0.450376       -12.2553
  78   1.0000      -0.448626       -12.2077
  79   1.0000      -0.448145       -12.1946
  80   1.0000      -0.445237       -12.1155
  81   1.0000      -0.444601       -12.0982
  82   1.0000      -0.442507       -12.0412
  83   1.0000      -0.436594       -11.8803
  84   1.0000      -0.433429       -11.7942
  85   1.0000      -0.430916       -11.7258
  86   1.0000      -0.430081       -11.7031
  87   1.0000      -0.427728       -11.6391
  88   1.0000      -0.424725       -11.5574
  89   1.0000      -0.423160       -11.5148
  90   1.0000      -0.420886       -11.4529
  91   1.0000      -0.419908       -11.4263
  92   1.0000      -0.418327       -11.3833
  93   1.0000      -0.417001       -11.3472
  94   1.0000      -0.413947       -11.2641
  95   1.0000      -0.408649       -11.1199
  96   1.0000      -0.400114       -10.8877
  97   1.0000      -0.398177       -10.8350
  98   1.0000      -0.397238       -10.8094
  99   1.0000      -0.395067       -10.7503
 100   1.0000      -0.390595       -10.6286
 101   1.0000      -0.388944       -10.5837
 102   1.0000      -0.386087       -10.5060
 103   1.0000      -0.385593       -10.4925
 104   1.0000      -0.383508       -10.4358
 105   1.0000      -0.381121       -10.3708
 106   1.0000      -0.379597       -10.3294
 107   1.0000      -0.378223       -10.2920
 108   1.0000      -0.376348       -10.2410
 109   1.0000      -0.374601       -10.1934
 110   1.0000      -0.372684       -10.1413
 111   1.0000      -0.370634       -10.0855
 112   1.0000      -0.368571       -10.0293
 113   1.0000      -0.367364        -9.9965
 114   1.0000      -0.366003        -9.9594
 115   1.0000      -0.365053        -9.9336
 116   1.0000      -0.364120        -9.9082
 117   1.0000      -0.363093        -9.8803
 118   1.0000      -0.362654        -9.8683
 119   1.0000      -0.360506        -9.8099
 120   1.0000      -0.359055        -9.7704
 121   1.0000      -0.355711        -9.6794
 122   1.0000      -0.354541        -9.6475
 123   1.0000      -0.353575        -9.6213
 124   1.0000      -0.352457        -9.5908
 125   1.0000      -0.350784        -9.5453
 126   1.0000      -0.345098        -9.3906
 127   1.0000      -0.343459        -9.3460
 128   1.0000      -0.339993        -9.2517
 129   1.0000      -0.339076        -9.2267
 130   1.0000      -0.336975        -9.1695
 131   1.0000      -0.335118        -9.1190
 132   1.0000      -0.334580        -9.1044
 133   1.0000      -0.330908        -9.0045
 134   1.0000      -0.328275        -8.9328
 135   1.0000      -0.325971        -8.8701
 136   1.0000      -0.319373        -8.6906
 137   1.0000      -0.318155        -8.6574
 138   1.0000      -0.313171        -8.5218
 139   1.0000      -0.245636        -6.6841
 140   1.0000      -0.232956        -6.3391
 141   1.0000      -0.231446        -6.2980
 142   1.0000      -0.223690        -6.0869
 143   1.0000      -0.191968        -5.2237
 144   0.0000      -0.080073        -2.1789
 145   0.0000      -0.074604        -2.0301
 146   0.0000      -0.071484        -1.9452
 147   0.0000      -0.063295        -1.7223
 148   0.0000      -0.052231        -1.4213

MULLIKEN ATOMIC CHARGES AND SPIN POPULATIONS
--------------------------------------------
   0 Au:   -0.177756   -0.045614
   1 Au:    0.243153   -0.078979
   2 Au:    0.165020   -0.139764
   3 Au:    0.293133   -0.201048
   4 Au:   -0.214770   -0.109715
   5 Au:    0.525661   -0.090933
   6 Au:    0.493847   -0.061488
   7 Au:    0.405821   -0.120447
   8 Au:    0.379533   -0.079022
   9 Au:    0.364417   -0.244816
  10 Au:    0.516104   -0.175822
  11 Au:   -0.672034   -0.015369
  12 Au:    0.447763   -0.077258
  13 Au:    0.191979   -0.062088
  14 Cr:   -2.961870    3.502362
Sum of atomic charges         :    0.0000000

LOEWDIN ATOMIC CHARGES AND SPIN POPULATIONS
-------------------------------------------
   0 Au:   -0.028492   -0.092403
   1 Au:    0.025838   -0.125245
   2 Au:    0.027537   -0.118173
   3 Au:    0.011393   -0.145057
   4 Au:    0.003184   -0.101381
   5 Au:    0.110466   -0.079762
   6 Au:    0.107251   -0.077674
   7 Au:    0.153176   -0.146102
   8 Au:    0.076949   -0.079311
   9 Au:    0.043451   -0.191691
  10 Au:    0.140185   -0.194960
  11 Au:   -0.084507   -0.084357
  12 Au:    0.157886   -0.129380
  13 Au:    0.059069   -0.069713
  14 Cr:   -0.803386    3.635210

  Mayer bond orders larger than 0.100000
B(  0-Au,  3-Au) :   0.3229 B(  0-Au,  4-Au) :   0.2459 B(  0-Au,  6-Au) :   0.1057
B(  0-Au, 12-Au) :   0.1983 B(  0-Au, 13-Au) :   0.2787 B(  0-Au, 14-Cr) :   0.4805
B(  1-Au,  2-Au) :   0.3226 B(  1-Au,  3-Au) :   0.1515 B(  1-Au,  4-Au) :   0.1985
B(  1-Au,  8-Au) :   0.2379 B(  1-Au, 11-Au) :   0.2899 B(  1-Au, 14-Cr) :   0.1808
B(  2-Au,  4-Au) :   0.2153 B(  2-Au,  5-Au) :   0.1247 B(  2-Au,  7-Au) :   0.2310
B(  2-Au, 11-Au) :   0.2005 B(  2-Au, 14-Cr) :   0.5095 B(  3-Au,  4-Au) :   0.2862
B(  3-Au,  8-Au) :   0.1754 B(  3-Au, 11-Au) :   0.1097 B(  3-Au, 13-Au) :   0.1839
B(  4-Au,  5-Au) :   0.1879 B(  4-Au,  6-Au) :   0.1090 B(  4-Au, 14-Cr) :   0.4171
B(  5-Au,  6-Au) :   0.2309 B(  5-Au,  7-Au) :   0.1763 B(  5-Au, 14-Cr) :   0.4719
B(  6-Au, 12-Au) :   0.2223 B(  6-Au, 14-Cr) :   0.6096 B(  7-Au, 10-Au) :   0.2251
B(  7-Au, 14-Cr) :   0.5125 B(  8-Au, 11-Au) :   0.4391 B(  8-Au, 13-Au) :   0.2131
B(  9-Au, 10-Au) :   0.2375 B(  9-Au, 11-Au) :   0.2088 B(  9-Au, 12-Au) :   0.1967
B(  9-Au, 13-Au) :   0.1606 B(  9-Au, 14-Cr) :   0.4398 B( 10-Au, 11-Au) :   0.2258
B( 10-Au, 14-Cr) :   0.4978 B( 11-Au, 13-Au) :   0.3204 B( 11-Au, 14-Cr) :   0.3679
B( 12-Au, 14-Cr) :   0.5906 B( 13-Au, 14-Cr) :   0.1826

MP2 TOTAL ENERGY:    -2942.492576176 Eh
FINAL SINGLE POINT ENERGY     -2942.492576176359

DIPOLE MOMENT
-------------
                                X             Y             Z
Electronic contribution:     38.20977     -26.84668     -20.38037
Nuclear contribution   :    -38.54656      27.17516      20.57094
                        -----------------------------------------
Total Dipole Moment    :     -0.33679       0.32848       0.19056
                        -----------------------------------------
Magnitude (a.u.)       :      0.50759
Magnitude (Debye)      :      1.29018

Rotational constants in cm-1:     0.001227     0.000921     0.000862
Rotational constants in MHz :    36.792099    27.596282    25.848922

                             ****ORCA TERMINATED NORMALLY****
TOTAL RUN TIME: 0 days 1 hours 57 minutes 12 seconds 161 msec
