                         Program Version 5.0.3 -  RELEASE  -
|  1> !PBE def2-TZVP VERYSLOWCONV
|  2>
|  3> %scf
|  4>   AutoTRAHIter 200
|  5>   maxiter 400
|  6> end
|  7>
|  8>
|  9> %pal nprocs 6 end
| 10>
| 11> *xyzfile 0 5 pbe.xyz
| 12>
| 13> $new_job
| 14>
| 15> !PBE def2-TZVP VERYSLOWCONV
| 16>
| 17> %scf
| 18>   AutoTRAHIter 200
| 19>   maxiter 400
| 20> end
| 21>
| 22>
| 23> %pal nprocs 6 end
| 24>
| 25> *xyzfile 0 3 pbe.xyz
| 26>
| 27>
| 28>
| 29>
| 30>
| 31>                          ****END OF INPUT****
 Total Charge           Charge          ....    0
 Multiplicity           Mult            ....    5
 Number of Electrons    NEL             ....  290
FINAL SINGLE POINT ENERGY     -2945.826356175404

CARTESIAN COORDINATES (ANGSTROEM)
---------------------------------
  Au     6.170119    5.779933    6.541651
  Au    10.335173    6.814664    7.944502
  Au     8.825042    8.657259    9.202237
  Au     8.708488    4.837481    6.637906
  Au     7.779314    5.955327    8.995122
  Au     6.554766    7.860943   10.722244
  Au     4.967138    6.278436    9.130146
  Au     6.746144   10.428378    9.624092
  Au    10.602363    6.450465    5.226920
  Au     6.229863    8.428575    5.234446
  Au     7.214062   10.501604    6.926457
  Au     8.871569    8.428386    6.195655
  Au     4.051640    7.523045    6.783016
  Au     7.939746    6.427342    4.413060
  Cr     6.404925    8.226924    7.982618

 Multiplicity           Mult            ....    3
 Number of Electrons    NEL             ....  290
 Basis Dimension        Dim             ....  605

ORBITAL ENERGIES
----------------
                 SPIN UP ORBITALS
  NO   OCC          E(Eh)            E(eV)
   0   1.0000    -214.503329     -5836.9323
   1   1.0000     -24.304204      -661.3510
   2   1.0000     -20.670414      -562.4706
   3   1.0000     -20.668023      -562.4055
   4   1.0000     -20.663987      -562.2957
   5   1.0000      -4.033833      -109.7662
   6   1.0000      -4.033199      -109.7489
   7   1.0000      -4.029801      -109.6565
   8   1.0000      -4.029616      -109.6514
   9   1.0000      -4.029473      -109.6475
  10   1.0000      -4.028553      -109.6225
  11   1.0000      -4.027535      -109.5948
  12   1.0000      -4.026970      -109.5794
  13   1.0000      -4.024487      -109.5119
  14   1.0000      -4.022471      -109.4570
  15   1.0000      -4.020790      -109.4113
  16   1.0000      -4.019521      -109.3767
  17   1.0000      -4.018513      -109.3493
  18   1.0000      -4.014797      -109.2482
  19   1.0000      -2.807012       -76.3827
  20   1.0000      -2.250647       -61.2432
  21   1.0000      -2.250247       -61.2323
  22   1.0000      -2.247099       -61.1467
  23   1.0000      -2.246678       -61.1352
  24   1.0000      -2.246097       -61.1194
  25   1.0000      -2.245912       -61.1144
  26   1.0000      -2.245056       -61.0911
  27   1.0000      -2.244554       -61.0774
  28   1.0000      -2.244207       -61.0680
  29   1.0000      -2.243975       -61.0617
  30   1.0000      -2.243655       -61.0530
  31   1.0000      -2.242770       -61.0289
  32   1.0000      -2.242565       -61.0233
  33   1.0000      -2.241932       -61.0061
  34   1.0000      -2.241696       -60.9997
  35   1.0000      -2.241306       -60.9890
  36   1.0000      -2.240968       -60.9798
  37   1.0000      -2.240628       -60.9706
  38   1.0000      -2.240265       -60.9607
  39   1.0000      -2.239941       -60.9519
  40   1.0000      -2.239467       -60.9390
  41   1.0000      -2.239302       -60.9345
  42   1.0000      -2.238711       -60.9184
  43   1.0000      -2.238217       -60.9050
  44   1.0000      -2.236936       -60.8701
  45   1.0000      -2.236478       -60.8576
  46   1.0000      -2.236083       -60.8469
  47   1.0000      -2.234782       -60.8115
  48   1.0000      -2.234597       -60.8065
  49   1.0000      -2.234326       -60.7991
  50   1.0000      -2.234042       -60.7914
  51   1.0000      -2.233229       -60.7692
  52   1.0000      -2.233134       -60.7667
  53   1.0000      -2.232493       -60.7492
  54   1.0000      -2.232442       -60.7478
  55   1.0000      -2.231504       -60.7223
  56   1.0000      -2.230833       -60.7041
  57   1.0000      -2.230353       -60.6910
  58   1.0000      -2.228735       -60.6470
  59   1.0000      -2.228198       -60.6324
  60   1.0000      -2.227037       -60.6008
  61   1.0000      -2.225976       -60.5719
  62   1.0000      -1.799704       -48.9724
  63   1.0000      -1.797312       -48.9073
  64   1.0000      -1.792318       -48.7714
  65   1.0000      -0.425412       -11.5760
  66   1.0000      -0.391415       -10.6509
  67   1.0000      -0.387210       -10.5365
  68   1.0000      -0.380895       -10.3647
  69   1.0000      -0.376689       -10.2502
  70   1.0000      -0.366592        -9.9755
  71   1.0000      -0.363558        -9.8929
  72   1.0000      -0.360348        -9.8056
  73   1.0000      -0.358237        -9.7481
  74   1.0000      -0.355709        -9.6793
  75   1.0000      -0.354322        -9.6416
  76   1.0000      -0.351273        -9.5586
  77   1.0000      -0.348649        -9.4872
  78   1.0000      -0.348485        -9.4828
  79   1.0000      -0.345428        -9.3996
  80   1.0000      -0.343539        -9.3482
  81   1.0000      -0.341770        -9.3000
  82   1.0000      -0.341323        -9.2879
  83   1.0000      -0.335572        -9.1314
  84   1.0000      -0.333139        -9.0652
  85   1.0000      -0.330850        -9.0029
  86   1.0000      -0.328055        -8.9268
  87   1.0000      -0.327700        -8.9172
  88   1.0000      -0.324593        -8.8326
  89   1.0000      -0.323838        -8.8121
  90   1.0000      -0.321425        -8.7464
  91   1.0000      -0.321019        -8.7354
  92   1.0000      -0.318758        -8.6738
  93   1.0000      -0.316443        -8.6109
  94   1.0000      -0.315185        -8.5766
  95   1.0000      -0.311793        -8.4843
  96   1.0000      -0.306696        -8.3456
  97   1.0000      -0.305644        -8.3170
  98   1.0000      -0.300905        -8.1880
  99   1.0000      -0.298611        -8.1256
 100   1.0000      -0.296210        -8.0603
 101   1.0000      -0.293462        -7.9855
 102   1.0000      -0.292264        -7.9529
 103   1.0000      -0.291806        -7.9404
 104   1.0000      -0.287709        -7.8289
 105   1.0000      -0.283213        -7.7066
 106   1.0000      -0.282859        -7.6970
 107   1.0000      -0.282631        -7.6908
 108   1.0000      -0.280225        -7.6253
 109   1.0000      -0.279715        -7.6114
 110   1.0000      -0.276629        -7.5275
 111   1.0000      -0.275577        -7.4988
 112   1.0000      -0.273806        -7.4507
 113   1.0000      -0.273286        -7.4365
 114   1.0000      -0.272580        -7.4173
 115   1.0000      -0.271024        -7.3749
 116   1.0000      -0.270059        -7.3487
 117   1.0000      -0.268151        -7.2968
 118   1.0000      -0.267296        -7.2735
 119   1.0000      -0.265310        -7.2194
 120   1.0000      -0.263852        -7.1798
 121   1.0000      -0.262119        -7.1326
 122   1.0000      -0.260632        -7.0922
 123   1.0000      -0.260627        -7.0920
 124   1.0000      -0.258607        -7.0371
 125   1.0000      -0.258068        -7.0224
 126   1.0000      -0.254279        -6.9193
 127   1.0000      -0.251047        -6.8313
 128   1.0000      -0.249890        -6.7998
 129   1.0000      -0.248621        -6.7653
 130   1.0000      -0.247769        -6.7421
 131   1.0000      -0.247436        -6.7331
 132   1.0000      -0.245403        -6.6778
 133   1.0000      -0.244271        -6.6469
 134   1.0000      -0.242922        -6.6102
 135   1.0000      -0.241489        -6.5712
 136   1.0000      -0.240461        -6.5433
 137   1.0000      -0.238378        -6.4866
 138   1.0000      -0.234240        -6.3740
 139   1.0000      -0.221017        -6.0142
 140   1.0000      -0.219008        -5.9595
 141   1.0000      -0.216723        -5.8973
 142   1.0000      -0.214662        -5.8413
 143   1.0000      -0.213445        -5.8081
 144   1.0000      -0.205462        -5.5909
 145   1.0000      -0.196920        -5.3585
 146   0.0000      -0.189125        -5.1463
 147   0.0000      -0.177392        -4.8271
 148   0.0000      -0.164877        -4.4865
 149   0.0000      -0.134531        -3.6608
 150   0.0000      -0.130008        -3.5377

                 SPIN DOWN ORBITALS
  NO   OCC          E(Eh)            E(eV)
   0   1.0000    -214.502913     -5836.9210
   1   1.0000     -24.257893      -660.0908
   2   1.0000     -20.638303      -561.5968
   3   1.0000     -20.633855      -561.4758
   4   1.0000     -20.624138      -561.2113
   5   1.0000      -4.034523      -109.7849
   6   1.0000      -4.033277      -109.7511
   7   1.0000      -4.029548      -109.6496
   8   1.0000      -4.029305      -109.6430
   9   1.0000      -4.029220      -109.6407
  10   1.0000      -4.028503      -109.6211
  11   1.0000      -4.028314      -109.6160
  12   1.0000      -4.026899      -109.5775
  13   1.0000      -4.024438      -109.5105
  14   1.0000      -4.022688      -109.4629
  15   1.0000      -4.021551      -109.4320
  16   1.0000      -4.020037      -109.3908
  17   1.0000      -4.019084      -109.3648
  18   1.0000      -4.015828      -109.2762
  19   1.0000      -2.682023       -72.9816
  20   1.0000      -2.251833       -61.2755
  21   1.0000      -2.250507       -61.2394
  22   1.0000      -2.246887       -61.1409
  23   1.0000      -2.246755       -61.1373
  24   1.0000      -2.246563       -61.1321
  25   1.0000      -2.246290       -61.1246
  26   1.0000      -2.244735       -61.0824
  27   1.0000      -2.244526       -61.0767
  28   1.0000      -2.244250       -61.0691
  29   1.0000      -2.243800       -61.0569
  30   1.0000      -2.243286       -61.0429
  31   1.0000      -2.242933       -61.0333
  32   1.0000      -2.242629       -61.0250
  33   1.0000      -2.241929       -61.0060
  34   1.0000      -2.241482       -60.9938
  35   1.0000      -2.241349       -60.9902
  36   1.0000      -2.240843       -60.9764
  37   1.0000      -2.240692       -60.9723
  38   1.0000      -2.240397       -60.9643
  39   1.0000      -2.240041       -60.9546
  40   1.0000      -2.239398       -60.9371
  41   1.0000      -2.239260       -60.9334
  42   1.0000      -2.238798       -60.9208
  43   1.0000      -2.238166       -60.9036
  44   1.0000      -2.237440       -60.8838
  45   1.0000      -2.236586       -60.8606
  46   1.0000      -2.236336       -60.8538
  47   1.0000      -2.235343       -60.8268
  48   1.0000      -2.234961       -60.8164
  49   1.0000      -2.234699       -60.8093
  50   1.0000      -2.233904       -60.7876
  51   1.0000      -2.233792       -60.7846
  52   1.0000      -2.233350       -60.7725
  53   1.0000      -2.233246       -60.7697
  54   1.0000      -2.232946       -60.7616
  55   1.0000      -2.232402       -60.7468
  56   1.0000      -2.231599       -60.7249
  57   1.0000      -2.231007       -60.7088
  58   1.0000      -2.229598       -60.6705
  59   1.0000      -2.229081       -60.6564
  60   1.0000      -2.228029       -60.6278
  61   1.0000      -2.226913       -60.5974
  62   1.0000      -1.687427       -45.9172
  63   1.0000      -1.677923       -45.6586
  64   1.0000      -1.654214       -45.0134
  65   1.0000      -0.421603       -11.4724
  66   1.0000      -0.390673       -10.6308
  67   1.0000      -0.387446       -10.5429
  68   1.0000      -0.378858       -10.3093
  69   1.0000      -0.375195       -10.2096
  70   1.0000      -0.365861        -9.9556
  71   1.0000      -0.363064        -9.8795
  72   1.0000      -0.361294        -9.8313
  73   1.0000      -0.357938        -9.7400
  74   1.0000      -0.355476        -9.6730
  75   1.0000      -0.353948        -9.6314
  76   1.0000      -0.351780        -9.5724
  77   1.0000      -0.348286        -9.4773
  78   1.0000      -0.348039        -9.4706
  79   1.0000      -0.345318        -9.3966
  80   1.0000      -0.343253        -9.3404
  81   1.0000      -0.342426        -9.3179
  82   1.0000      -0.341994        -9.3061
  83   1.0000      -0.335489        -9.1291
  84   1.0000      -0.334120        -9.0919
  85   1.0000      -0.330726        -8.9995
  86   1.0000      -0.328670        -8.9436
  87   1.0000      -0.327610        -8.9147
  88   1.0000      -0.324766        -8.8373
  89   1.0000      -0.323234        -8.7956
  90   1.0000      -0.321603        -8.7513
  91   1.0000      -0.320871        -8.7313
  92   1.0000      -0.319018        -8.6809
  93   1.0000      -0.317178        -8.6308
  94   1.0000      -0.315377        -8.5818
  95   1.0000      -0.312055        -8.4915
  96   1.0000      -0.303817        -8.2673
  97   1.0000      -0.302009        -8.2181
  98   1.0000      -0.301339        -8.1999
  99   1.0000      -0.299025        -8.1369
 100   1.0000      -0.296039        -8.0556
 101   1.0000      -0.293247        -7.9797
 102   1.0000      -0.292468        -7.9585
 103   1.0000      -0.290852        -7.9145
 104   1.0000      -0.288085        -7.8392
 105   1.0000      -0.283749        -7.7212
 106   1.0000      -0.283630        -7.7180
 107   1.0000      -0.283022        -7.7014
 108   1.0000      -0.281381        -7.6568
 109   1.0000      -0.280851        -7.6423
 110   1.0000      -0.277286        -7.5453
 111   1.0000      -0.276674        -7.5287
 112   1.0000      -0.274348        -7.4654
 113   1.0000      -0.274059        -7.4575
 114   1.0000      -0.272699        -7.4205
 115   1.0000      -0.271883        -7.3983
 116   1.0000      -0.270972        -7.3735
 117   1.0000      -0.268913        -7.3175
 118   1.0000      -0.268130        -7.2962
 119   1.0000      -0.266350        -7.2477
 120   1.0000      -0.264275        -7.1913
 121   1.0000      -0.262763        -7.1502
 122   1.0000      -0.261951        -7.1281
 123   1.0000      -0.261532        -7.1166
 124   1.0000      -0.259939        -7.0733
 125   1.0000      -0.259056        -7.0493
 126   1.0000      -0.255672        -6.9572
 127   1.0000      -0.252520        -6.8714
 128   1.0000      -0.251037        -6.8311
 129   1.0000      -0.249595        -6.7918
 130   1.0000      -0.248901        -6.7729
 131   1.0000      -0.248846        -6.7714
 132   1.0000      -0.246736        -6.7140
 133   1.0000      -0.245225        -6.6729
 134   1.0000      -0.244088        -6.6420
 135   1.0000      -0.243637        -6.6297
 136   1.0000      -0.241536        -6.5725
 137   1.0000      -0.239638        -6.5209
 138   1.0000      -0.235147        -6.3987
 139   1.0000      -0.216634        -5.8949
 140   1.0000      -0.209566        -5.7026
 141   1.0000      -0.208484        -5.6732
 142   1.0000      -0.203559        -5.5391
 143   1.0000      -0.178259        -4.8507
 144   0.0000      -0.145665        -3.9638
 145   0.0000      -0.143926        -3.9164
 146   0.0000      -0.137211        -3.7337
 147   0.0000      -0.130951        -3.5634
 148   0.0000      -0.119826        -3.2606

MULLIKEN ATOMIC CHARGES AND SPIN POPULATIONS
--------------------------------------------
   0 Au:   -0.113005   -0.084793
   1 Au:    0.266958   -0.073896
   2 Au:    0.203508   -0.107812
   3 Au:    0.285293   -0.173279
   4 Au:   -0.220733   -0.061327
   5 Au:    0.533561   -0.055369
   6 Au:    0.522784   -0.050613
   7 Au:    0.426600   -0.074587
   8 Au:    0.406400   -0.056713
   9 Au:    0.379288   -0.119417
  10 Au:    0.526825   -0.082344
  11 Au:   -0.675149   -0.123726
  12 Au:    0.459028   -0.070769
  13 Au:    0.174493   -0.031252
  14 Cr:   -3.175852    3.165895
Sum of atomic charges         :    0.0000000

LOEWDIN ATOMIC CHARGES AND SPIN POPULATIONS
-------------------------------------------
   0 Au:    0.000570   -0.091350
   1 Au:    0.028055   -0.110641
   2 Au:    0.050389   -0.092491
   3 Au:    0.012436   -0.125549
   4 Au:    0.021969   -0.072027
   5 Au:    0.127368   -0.070834
   6 Au:    0.128406   -0.067482
   7 Au:    0.149102   -0.087547
   8 Au:    0.069581   -0.077625
   9 Au:    0.063342   -0.126245
  10 Au:    0.155407   -0.120705
  11 Au:   -0.060953   -0.084909
  12 Au:    0.170156   -0.106143
  13 Au:    0.041395   -0.057577
  14 Cr:   -0.957221    3.291126

  Mayer bond orders larger than 0.100000
B(  0-Au,  3-Au) :   0.3435 B(  0-Au,  4-Au) :   0.2385 B(  0-Au,  6-Au) :   0.1318
B(  0-Au,  9-Au) :   0.1131 B(  0-Au, 12-Au) :   0.2334 B(  0-Au, 13-Au) :   0.3126
B(  0-Au, 14-Cr) :   0.5497 B(  1-Au,  2-Au) :   0.3599 B(  1-Au,  3-Au) :   0.1881
B(  1-Au,  4-Au) :   0.2265 B(  1-Au,  8-Au) :   0.2887 B(  1-Au, 11-Au) :   0.3028
B(  1-Au, 14-Cr) :   0.1770 B(  2-Au,  4-Au) :   0.2447 B(  2-Au,  5-Au) :   0.1599
B(  2-Au,  7-Au) :   0.2518 B(  2-Au, 11-Au) :   0.2200 B(  2-Au, 14-Cr) :   0.5926
B(  3-Au,  4-Au) :   0.3244 B(  3-Au,  8-Au) :   0.2243 B(  3-Au, 11-Au) :   0.1230
B(  3-Au, 13-Au) :   0.2001 B(  4-Au,  5-Au) :   0.2145 B(  4-Au,  6-Au) :   0.1268
B(  4-Au, 14-Cr) :   0.4762 B(  5-Au,  6-Au) :   0.2824 B(  5-Au,  7-Au) :   0.2283
B(  5-Au, 14-Cr) :   0.5497 B(  6-Au, 12-Au) :   0.2636 B(  6-Au, 14-Cr) :   0.6962
B(  7-Au, 10-Au) :   0.2682 B(  7-Au, 14-Cr) :   0.5654 B(  8-Au, 11-Au) :   0.4361
B(  8-Au, 13-Au) :   0.2462 B(  9-Au, 10-Au) :   0.2695 B(  9-Au, 11-Au) :   0.2294
B(  9-Au, 12-Au) :   0.2261 B(  9-Au, 13-Au) :   0.2418 B(  9-Au, 14-Cr) :   0.5112
B( 10-Au, 11-Au) :   0.2754 B( 10-Au, 14-Cr) :   0.6351 B( 11-Au, 13-Au) :   0.3271
B( 11-Au, 14-Cr) :   0.3759 B( 12-Au, 14-Cr) :   0.6468 B( 13-Au, 14-Cr) :   0.2351

FINAL SINGLE POINT ENERGY     -2945.814785354944

DIPOLE MOMENT
-------------
                                X             Y             Z
Electronic contribution:     38.23206     -26.95452     -20.33552
Nuclear contribution   :    -38.54656      27.17516      20.57094
                        -----------------------------------------
Total Dipole Moment    :     -0.31450       0.22064       0.23542
                        -----------------------------------------
Magnitude (a.u.)       :      0.45057
Magnitude (Debye)      :      1.14526

Rotational constants in cm-1:     0.001227     0.000921     0.000862
Rotational constants in MHz :    36.792099    27.596282    25.848922

                             ****ORCA TERMINATED NORMALLY****
TOTAL RUN TIME: 0 days 1 hours 17 minutes 20 seconds 330 msec
