                         Program Version 5.0.3 -  RELEASE  -
|  1> !R2SCAN def2-TZVP VERYSLOWCONV
|  2> !KDIIS
|  3> %scf
|  4>   AutoTRAHIter 200
|  5>   maxiter 400
|  6> end
|  7>
|  8> %pal nprocs 6 end
|  9>
| 10> *xyzfile 0 5 pbe.xyz
| 11>
| 12> $new_job
| 13>
| 14> !R2SCAN def2-TZVP VERYSLOWCONV
| 15> !KDIIS
| 16> %scf
| 17>   AutoTRAHIter 200
| 18>   maxiter 400
| 19> end
| 20>
| 21>
| 22> %pal nprocs 6 end
| 23>
| 24> *xyzfile 0 3 pbe.xyz
| 25>
| 26>
| 27>
| 28>
| 29>
| 30>                          ****END OF INPUT****
 Total Charge           Charge          ....    0
 Multiplicity           Mult            ....    5
 Number of Electrons    NEL             ....  290
FINAL SINGLE POINT ENERGY     -2946.309783490138

CARTESIAN COORDINATES (ANGSTROEM)
---------------------------------
  Au     6.170119    5.779933    6.541651
  Au    10.335173    6.814664    7.944502
  Au     8.825042    8.657259    9.202237
  Au     8.708488    4.837481    6.637906
  Au     7.779314    5.955327    8.995122
  Au     6.554766    7.860943   10.722244
  Au     4.967138    6.278436    9.130146
  Au     6.746144   10.428378    9.624092
  Au    10.602363    6.450465    5.226920
  Au     6.229863    8.428575    5.234446
  Au     7.214062   10.501604    6.926457
  Au     8.871569    8.428386    6.195655
  Au     4.051640    7.523045    6.783016
  Au     7.939746    6.427342    4.413060
  Cr     6.404925    8.226924    7.982618

 Multiplicity           Mult            ....    3
 Number of Electrons    NEL             ....  290
 Basis Dimension        Dim             ....  605

ORBITAL ENERGIES
----------------
                 SPIN UP ORBITALS
  NO   OCC          E(Eh)            E(eV)
   0   1.0000    -215.296400     -5858.5129
   1   1.0000     -24.597324      -669.3272
   2   1.0000     -20.865556      -567.7806
   3   1.0000     -20.863521      -567.7253
   4   1.0000     -20.860832      -567.6521
   5   1.0000      -4.123864      -112.2160
   6   1.0000      -4.123765      -112.2134
   7   1.0000      -4.119823      -112.1061
   8   1.0000      -4.119699      -112.1027
   9   1.0000      -4.119401      -112.0946
  10   1.0000      -4.118711      -112.0758
  11   1.0000      -4.117998      -112.0564
  12   1.0000      -4.117466      -112.0420
  13   1.0000      -4.115109      -111.9778
  14   1.0000      -4.112719      -111.9128
  15   1.0000      -4.111158      -111.8703
  16   1.0000      -4.109959      -111.8377
  17   1.0000      -4.108965      -111.8106
  18   1.0000      -4.104841      -111.6984
  19   1.0000      -2.919054       -79.4315
  20   1.0000      -2.313519       -62.9540
  21   1.0000      -2.313282       -62.9476
  22   1.0000      -2.310341       -62.8676
  23   1.0000      -2.309718       -62.8506
  24   1.0000      -2.309284       -62.8388
  25   1.0000      -2.308831       -62.8265
  26   1.0000      -2.307789       -62.7981
  27   1.0000      -2.307517       -62.7907
  28   1.0000      -2.307283       -62.7844
  29   1.0000      -2.306889       -62.7736
  30   1.0000      -2.306768       -62.7704
  31   1.0000      -2.305979       -62.7489
  32   1.0000      -2.305708       -62.7415
  33   1.0000      -2.305253       -62.7291
  34   1.0000      -2.304698       -62.7140
  35   1.0000      -2.304560       -62.7103
  36   1.0000      -2.304056       -62.6965
  37   1.0000      -2.303721       -62.6874
  38   1.0000      -2.303362       -62.6777
  39   1.0000      -2.303063       -62.6695
  40   1.0000      -2.302528       -62.6550
  41   1.0000      -2.302229       -62.6468
  42   1.0000      -2.301499       -62.6270
  43   1.0000      -2.301234       -62.6198
  44   1.0000      -2.300098       -62.5888
  45   1.0000      -2.299973       -62.5855
  46   1.0000      -2.299456       -62.5714
  47   1.0000      -2.298242       -62.5383
  48   1.0000      -2.297913       -62.5294
  49   1.0000      -2.297630       -62.5217
  50   1.0000      -2.297531       -62.5190
  51   1.0000      -2.296346       -62.4868
  52   1.0000      -2.296232       -62.4837
  53   1.0000      -2.295590       -62.4662
  54   1.0000      -2.295568       -62.4656
  55   1.0000      -2.294813       -62.4450
  56   1.0000      -2.293996       -62.4228
  57   1.0000      -2.293723       -62.4154
  58   1.0000      -2.292190       -62.3737
  59   1.0000      -2.290980       -62.3407
  60   1.0000      -2.289835       -62.3096
  61   1.0000      -2.288636       -62.2769
  62   1.0000      -1.866893       -50.8007
  63   1.0000      -1.866139       -50.7802
  64   1.0000      -1.863817       -50.7170
  65   1.0000      -0.429624       -11.6907
  66   1.0000      -0.396575       -10.7913
  67   1.0000      -0.392848       -10.6899
  68   1.0000      -0.387484       -10.5440
  69   1.0000      -0.384093       -10.4517
  70   1.0000      -0.374210       -10.1828
  71   1.0000      -0.371566       -10.1108
  72   1.0000      -0.368181       -10.0187
  73   1.0000      -0.366338        -9.9686
  74   1.0000      -0.364053        -9.9064
  75   1.0000      -0.362490        -9.8639
  76   1.0000      -0.359860        -9.7923
  77   1.0000      -0.357139        -9.7182
  78   1.0000      -0.356947        -9.7130
  79   1.0000      -0.354339        -9.6421
  80   1.0000      -0.352280        -9.5860
  81   1.0000      -0.350362        -9.5338
  82   1.0000      -0.349820        -9.5191
  83   1.0000      -0.344000        -9.3607
  84   1.0000      -0.341503        -9.2928
  85   1.0000      -0.339268        -9.2319
  86   1.0000      -0.336537        -9.1576
  87   1.0000      -0.336342        -9.1523
  88   1.0000      -0.333046        -9.0626
  89   1.0000      -0.332073        -9.0362
  90   1.0000      -0.329998        -8.9797
  91   1.0000      -0.329346        -8.9619
  92   1.0000      -0.327193        -8.9034
  93   1.0000      -0.324837        -8.8393
  94   1.0000      -0.323668        -8.8075
  95   1.0000      -0.319995        -8.7075
  96   1.0000      -0.314912        -8.5692
  97   1.0000      -0.313701        -8.5362
  98   1.0000      -0.308854        -8.4044
  99   1.0000      -0.306731        -8.3466
 100   1.0000      -0.303939        -8.2706
 101   1.0000      -0.300998        -8.1906
 102   1.0000      -0.300264        -8.1706
 103   1.0000      -0.299749        -8.1566
 104   1.0000      -0.295601        -8.0437
 105   1.0000      -0.291194        -7.9238
 106   1.0000      -0.290897        -7.9157
 107   1.0000      -0.290760        -7.9120
 108   1.0000      -0.287919        -7.8347
 109   1.0000      -0.287631        -7.8268
 110   1.0000      -0.284526        -7.7424
 111   1.0000      -0.283460        -7.7133
 112   1.0000      -0.281440        -7.6584
 113   1.0000      -0.280913        -7.6440
 114   1.0000      -0.279897        -7.6164
 115   1.0000      -0.278648        -7.5824
 116   1.0000      -0.277700        -7.5566
 117   1.0000      -0.275589        -7.4992
 118   1.0000      -0.275269        -7.4904
 119   1.0000      -0.273028        -7.4295
 120   1.0000      -0.271783        -7.3956
 121   1.0000      -0.269492        -7.3332
 122   1.0000      -0.268183        -7.2976
 123   1.0000      -0.267860        -7.2888
 124   1.0000      -0.266242        -7.2448
 125   1.0000      -0.265322        -7.2198
 126   1.0000      -0.260880        -7.0989
 127   1.0000      -0.257989        -7.0203
 128   1.0000      -0.256496        -6.9796
 129   1.0000      -0.255620        -6.9558
 130   1.0000      -0.254657        -6.9296
 131   1.0000      -0.253909        -6.9092
 132   1.0000      -0.251085        -6.8324
 133   1.0000      -0.250702        -6.8219
 134   1.0000      -0.249353        -6.7852
 135   1.0000      -0.247103        -6.7240
 136   1.0000      -0.246800        -6.7158
 137   1.0000      -0.244470        -6.6524
 138   1.0000      -0.240372        -6.5408
 139   1.0000      -0.228015        -6.2046
 140   1.0000      -0.225779        -6.1438
 141   1.0000      -0.224639        -6.1127
 142   1.0000      -0.219436        -5.9711
 143   1.0000      -0.218031        -5.9329
 144   1.0000      -0.208275        -5.6674
 145   1.0000      -0.200122        -5.4456
 146   0.0000      -0.187938        -5.1141
 147   0.0000      -0.175208        -4.7676
 148   0.0000      -0.161561        -4.3963
 149   0.0000      -0.129133        -3.5139
 150   0.0000      -0.124796        -3.3959

                 SPIN DOWN ORBITALS
  NO   OCC          E(Eh)            E(eV)
   0   1.0000    -215.295821     -5858.4971
   1   1.0000     -24.534545      -667.6189
   2   1.0000     -20.820884      -566.5651
   3   1.0000     -20.816502      -566.4458
   4   1.0000     -20.807586      -566.2032
   5   1.0000      -4.124872      -112.2435
   6   1.0000      -4.124156      -112.2240
   7   1.0000      -4.119604      -112.1001
   8   1.0000      -4.119550      -112.0987
   9   1.0000      -4.119304      -112.0920
  10   1.0000      -4.119175      -112.0885
  11   1.0000      -4.118819      -112.0788
  12   1.0000      -4.117628      -112.0463
  13   1.0000      -4.115266      -111.9821
  14   1.0000      -4.113171      -111.9251
  15   1.0000      -4.112018      -111.8937
  16   1.0000      -4.110660      -111.8567
  17   1.0000      -4.109655      -111.8294
  18   1.0000      -4.106015      -111.7304
  19   1.0000      -2.754037       -74.9412
  20   1.0000      -2.314788       -62.9886
  21   1.0000      -2.313931       -62.9653
  22   1.0000      -2.310498       -62.8718
  23   1.0000      -2.310294       -62.8663
  24   1.0000      -2.309686       -62.8498
  25   1.0000      -2.309379       -62.8414
  26   1.0000      -2.307880       -62.8006
  27   1.0000      -2.307432       -62.7884
  28   1.0000      -2.307333       -62.7857
  29   1.0000      -2.306884       -62.7735
  30   1.0000      -2.306572       -62.7650
  31   1.0000      -2.306201       -62.7549
  32   1.0000      -2.305807       -62.7442
  33   1.0000      -2.305309       -62.7306
  34   1.0000      -2.304776       -62.7162
  35   1.0000      -2.304416       -62.7064
  36   1.0000      -2.304047       -62.6963
  37   1.0000      -2.303729       -62.6877
  38   1.0000      -2.303480       -62.6809
  39   1.0000      -2.303108       -62.6708
  40   1.0000      -2.302579       -62.6564
  41   1.0000      -2.302221       -62.6466
  42   1.0000      -2.301750       -62.6338
  43   1.0000      -2.301129       -62.6169
  44   1.0000      -2.300484       -62.5994
  45   1.0000      -2.300355       -62.5958
  46   1.0000      -2.299694       -62.5778
  47   1.0000      -2.298493       -62.5452
  48   1.0000      -2.298372       -62.5419
  49   1.0000      -2.298262       -62.5389
  50   1.0000      -2.297519       -62.5187
  51   1.0000      -2.296995       -62.5044
  52   1.0000      -2.296654       -62.4951
  53   1.0000      -2.296378       -62.4876
  54   1.0000      -2.296053       -62.4788
  55   1.0000      -2.295823       -62.4725
  56   1.0000      -2.294934       -62.4483
  57   1.0000      -2.294438       -62.4348
  58   1.0000      -2.292885       -62.3926
  59   1.0000      -2.292445       -62.3806
  60   1.0000      -2.290956       -62.3401
  61   1.0000      -2.289782       -62.3081
  62   1.0000      -1.714105       -46.6432
  63   1.0000      -1.704930       -46.3935
  64   1.0000      -1.683490       -45.8101
  65   1.0000      -0.425903       -11.5894
  66   1.0000      -0.396451       -10.7880
  67   1.0000      -0.393631       -10.7112
  68   1.0000      -0.385148       -10.4804
  69   1.0000      -0.383041       -10.4231
  70   1.0000      -0.373799       -10.1716
  71   1.0000      -0.371155       -10.0996
  72   1.0000      -0.369529       -10.0554
  73   1.0000      -0.366628        -9.9765
  74   1.0000      -0.363883        -9.9018
  75   1.0000      -0.362434        -9.8623
  76   1.0000      -0.360602        -9.8125
  77   1.0000      -0.357016        -9.7149
  78   1.0000      -0.356706        -9.7065
  79   1.0000      -0.354452        -9.6451
  80   1.0000      -0.352281        -9.5861
  81   1.0000      -0.351365        -9.5611
  82   1.0000      -0.350885        -9.5481
  83   1.0000      -0.344293        -9.3687
  84   1.0000      -0.342880        -9.3302
  85   1.0000      -0.339632        -9.2419
  86   1.0000      -0.337680        -9.1887
  87   1.0000      -0.336455        -9.1554
  88   1.0000      -0.333581        -9.0772
  89   1.0000      -0.331828        -9.0295
  90   1.0000      -0.330395        -8.9905
  91   1.0000      -0.329655        -8.9704
  92   1.0000      -0.327830        -8.9207
  93   1.0000      -0.325979        -8.8703
  94   1.0000      -0.324010        -8.8168
  95   1.0000      -0.320585        -8.7236
  96   1.0000      -0.311894        -8.4871
  97   1.0000      -0.310145        -8.4395
  98   1.0000      -0.309606        -8.4248
  99   1.0000      -0.307374        -8.3641
 100   1.0000      -0.304142        -8.2761
 101   1.0000      -0.301180        -8.1955
 102   1.0000      -0.300699        -8.1824
 103   1.0000      -0.298929        -8.1343
 104   1.0000      -0.296273        -8.0620
 105   1.0000      -0.292295        -7.9538
 106   1.0000      -0.292170        -7.9504
 107   1.0000      -0.291255        -7.9255
 108   1.0000      -0.289568        -7.8795
 109   1.0000      -0.289312        -7.8726
 110   1.0000      -0.285510        -7.7691
 111   1.0000      -0.284871        -7.7517
 112   1.0000      -0.282364        -7.6835
 113   1.0000      -0.281967        -7.6727
 114   1.0000      -0.280354        -7.6288
 115   1.0000      -0.280035        -7.6201
 116   1.0000      -0.278873        -7.5885
 117   1.0000      -0.276849        -7.5335
 118   1.0000      -0.276396        -7.5211
 119   1.0000      -0.274515        -7.4699
 120   1.0000      -0.272474        -7.4144
 121   1.0000      -0.270369        -7.3571
 122   1.0000      -0.269971        -7.3463
 123   1.0000      -0.269506        -7.3336
 124   1.0000      -0.267962        -7.2916
 125   1.0000      -0.266922        -7.2633
 126   1.0000      -0.262958        -7.1554
 127   1.0000      -0.260123        -7.0783
 128   1.0000      -0.258253        -7.0274
 129   1.0000      -0.256893        -6.9904
 130   1.0000      -0.256158        -6.9704
 131   1.0000      -0.256030        -6.9669
 132   1.0000      -0.253242        -6.8911
 133   1.0000      -0.252313        -6.8658
 134   1.0000      -0.251245        -6.8367
 135   1.0000      -0.250621        -6.8198
 136   1.0000      -0.248451        -6.7607
 137   1.0000      -0.246336        -6.7032
 138   1.0000      -0.241490        -6.5713
 139   1.0000      -0.219191        -5.9645
 140   1.0000      -0.211151        -5.7457
 141   1.0000      -0.210582        -5.7302
 142   1.0000      -0.204832        -5.5738
 143   1.0000      -0.178196        -4.8490
 144   0.0000      -0.140425        -3.8211
 145   0.0000      -0.137734        -3.7479
 146   0.0000      -0.132006        -3.5921
 147   0.0000      -0.124860        -3.3976
 148   0.0000      -0.108235        -2.9452

MULLIKEN ATOMIC CHARGES AND SPIN POPULATIONS
--------------------------------------------
   0 Au:   -0.122536   -0.098767
   1 Au:    0.250345   -0.081698
   2 Au:    0.168650   -0.140901
   3 Au:    0.280710   -0.194037
   4 Au:   -0.215721   -0.070149
   5 Au:    0.485971   -0.084744
   6 Au:    0.473260   -0.075098
   7 Au:    0.393131   -0.103671
   8 Au:    0.362369   -0.058099
   9 Au:    0.333528   -0.166343
  10 Au:    0.488224   -0.115465
  11 Au:   -0.620297   -0.119582
  12 Au:    0.423327   -0.098224
  13 Au:    0.159664   -0.035593
  14 Cr:   -2.860626    3.442370
Sum of atomic charges         :   -0.0000000

LOEWDIN ATOMIC CHARGES AND SPIN POPULATIONS
-------------------------------------------
   0 Au:   -0.002216   -0.104649
   1 Au:    0.026473   -0.118521
   2 Au:    0.047429   -0.112454
   3 Au:    0.013644   -0.137245
   4 Au:    0.018824   -0.084167
   5 Au:    0.122481   -0.086919
   6 Au:    0.122629   -0.083222
   7 Au:    0.145860   -0.107536
   8 Au:    0.064834   -0.078995
   9 Au:    0.058258   -0.151864
  10 Au:    0.150931   -0.143830
  11 Au:   -0.059924   -0.093838
  12 Au:    0.164412   -0.125715
  13 Au:    0.041898   -0.064267
  14 Cr:   -0.915533    3.493222

  Mayer bond orders larger than 0.100000
B(  0-Au,  3-Au) :   0.3373 B(  0-Au,  4-Au) :   0.2271 B(  0-Au,  6-Au) :   0.1270
B(  0-Au,  9-Au) :   0.1019 B(  0-Au, 12-Au) :   0.2219 B(  0-Au, 13-Au) :   0.3088
B(  0-Au, 14-Cr) :   0.5278 B(  1-Au,  2-Au) :   0.3538 B(  1-Au,  3-Au) :   0.1667
B(  1-Au,  4-Au) :   0.2174 B(  1-Au,  8-Au) :   0.2800 B(  1-Au, 11-Au) :   0.2909
B(  1-Au, 14-Cr) :   0.1616 B(  2-Au,  4-Au) :   0.2298 B(  2-Au,  5-Au) :   0.1473
B(  2-Au,  7-Au) :   0.2429 B(  2-Au, 11-Au) :   0.2118 B(  2-Au, 14-Cr) :   0.5863
B(  3-Au,  4-Au) :   0.3244 B(  3-Au,  8-Au) :   0.2087 B(  3-Au, 11-Au) :   0.1026
B(  3-Au, 13-Au) :   0.1880 B(  4-Au,  5-Au) :   0.2106 B(  4-Au,  6-Au) :   0.1169
B(  4-Au, 14-Cr) :   0.4317 B(  5-Au,  6-Au) :   0.2702 B(  5-Au,  7-Au) :   0.2216
B(  5-Au, 14-Cr) :   0.5477 B(  6-Au, 12-Au) :   0.2554 B(  6-Au, 14-Cr) :   0.6970
B(  7-Au, 10-Au) :   0.2559 B(  7-Au, 14-Cr) :   0.5524 B(  8-Au, 11-Au) :   0.4358
B(  8-Au, 13-Au) :   0.2321 B(  9-Au, 10-Au) :   0.2584 B(  9-Au, 11-Au) :   0.2163
B(  9-Au, 12-Au) :   0.2178 B(  9-Au, 13-Au) :   0.2263 B(  9-Au, 14-Cr) :   0.5191
B( 10-Au, 11-Au) :   0.2758 B( 10-Au, 14-Cr) :   0.6293 B( 11-Au, 13-Au) :   0.3077
B( 11-Au, 14-Cr) :   0.3460 B( 12-Au, 14-Cr) :   0.6408 B( 13-Au, 14-Cr) :   0.2163

FINAL SINGLE POINT ENERGY     -2946.295809720999

DIPOLE MOMENT
-------------
                                X             Y             Z
Electronic contribution:     38.22075     -26.92943     -20.33610
Nuclear contribution   :    -38.54656      27.17516      20.57094
                        -----------------------------------------
Total Dipole Moment    :     -0.32581       0.24573       0.23484
                        -----------------------------------------
Magnitude (a.u.)       :      0.47083
Magnitude (Debye)      :      1.19676

Rotational constants in cm-1:     0.001227     0.000921     0.000862
Rotational constants in MHz :    36.792099    27.596282    25.848922

                             ****ORCA TERMINATED NORMALLY****
TOTAL RUN TIME: 0 days 0 hours 35 minutes 31 seconds 655 msec
