                         Program Version 5.0.3 -  RELEASE  -
|  1> !RI-B2PLYP def2-TZVP def2-TZVP/C
|  2> !RIJCOSX VERYSLOWCONV
|  3>
|  4> %scf
|  5>   AutoTRAHIter 200
|  6>   maxiter 400
|  7> end
|  8>
|  9>
| 10> %pal nprocs 6 end
| 11>
| 12> *xyzfile 0 5 pbe.xyz
| 13>
| 14> $new_job
| 15>
| 16> !RI-B2PLYP def2-TZVP def2-TZVP/C
| 17> !RIJCOSX VERYSLOWCONV
| 18>
| 19> %scf
| 20>   AutoTRAHIter 200
| 21>   maxiter 400
| 22> end
| 23>
| 24>
| 25> %pal nprocs 6 end
| 26>
| 27> *xyzfile 0 3 pbe.xyz
| 28>
| 29>
| 30>
| 31>
| 32>
| 33>                          ****END OF INPUT****
 Total Charge           Charge          ....    0
 Multiplicity           Mult            ....    5
 Number of Electrons    NEL             ....  252
MP2 TOTAL ENERGY:    -2671.292901365 Eh
FINAL SINGLE POINT ENERGY     -2671.292901365229

CARTESIAN COORDINATES (ANGSTROEM)
---------------------------------
  Au     6.306002    9.597163    7.790382
  Au    10.150131    7.480303    6.837522
  Au     8.038368    5.591456    6.531521
  Au     9.136330    9.822454    7.597557
  Au     5.878180    7.093630    6.973569
  Au     7.694604   11.157672    9.625667
  Au     9.334677    9.008829   10.436538
  Au     6.100856    6.231500    9.944000
  Au    10.371657    6.676603    9.675774
  Au     8.256341    4.817886    9.259542
  Au    10.476260    4.776562    7.588093
  Au     6.496317    8.808820   10.512517
  Cr     8.061433    7.534013    8.557181

 Multiplicity           Mult            ....    3
 Number of Electrons    NEL             ....  252
 Basis Dimension        Dim             ....  525

ORBITAL ENERGIES
----------------
                 SPIN UP ORBITALS
  NO   OCC          E(Eh)            E(eV)
   0   1.0000    -217.743990     -5925.1152
   1   1.0000     -25.429728      -691.9781
   2   1.0000     -21.568907      -586.9198
   3   1.0000     -21.568479      -586.9081
   4   1.0000     -21.563976      -586.7856
   5   1.0000      -4.394444      -119.5789
   6   1.0000      -4.394368      -119.5768
   7   1.0000      -4.392573      -119.5280
   8   1.0000      -4.392529      -119.5268
   9   1.0000      -4.392415      -119.5237
  10   1.0000      -4.392397      -119.5232
  11   1.0000      -4.390113      -119.4611
  12   1.0000      -4.390055      -119.4595
  13   1.0000      -4.389785      -119.4521
  14   1.0000      -4.389726      -119.4505
  15   1.0000      -4.387357      -119.3861
  16   1.0000      -4.387282      -119.3840
  17   1.0000      -3.218524       -87.5805
  18   1.0000      -2.516233       -68.4702
  19   1.0000      -2.515895       -68.4610
  20   1.0000      -2.514990       -68.4364
  21   1.0000      -2.514571       -68.4250
  22   1.0000      -2.514259       -68.4165
  23   1.0000      -2.513463       -68.3948
  24   1.0000      -2.513314       -68.3908
  25   1.0000      -2.513102       -68.3850
  26   1.0000      -2.511926       -68.3530
  27   1.0000      -2.511844       -68.3507
  28   1.0000      -2.511825       -68.3502
  29   1.0000      -2.511352       -68.3374
  30   1.0000      -2.510309       -68.3090
  31   1.0000      -2.510115       -68.3037
  32   1.0000      -2.509952       -68.2993
  33   1.0000      -2.509576       -68.2890
  34   1.0000      -2.509395       -68.2841
  35   1.0000      -2.508854       -68.2694
  36   1.0000      -2.508280       -68.2538
  37   1.0000      -2.508015       -68.2466
  38   1.0000      -2.507704       -68.2381
  39   1.0000      -2.507179       -68.2238
  40   1.0000      -2.506147       -68.1957
  41   1.0000      -2.506065       -68.1935
  42   1.0000      -2.505786       -68.1859
  43   1.0000      -2.505618       -68.1813
  44   1.0000      -2.504443       -68.1494
  45   1.0000      -2.504366       -68.1473
  46   1.0000      -2.503664       -68.1281
  47   1.0000      -2.503289       -68.1180
  48   1.0000      -2.503167       -68.1146
  49   1.0000      -2.502932       -68.1082
  50   1.0000      -2.502335       -68.0920
  51   1.0000      -2.501762       -68.0764
  52   1.0000      -2.500391       -68.0391
  53   1.0000      -2.499430       -68.0130
  54   1.0000      -2.109883       -57.4128
  55   1.0000      -2.101399       -57.1820
  56   1.0000      -2.100583       -57.1598
  57   1.0000      -0.484954       -13.1963
  58   1.0000      -0.470983       -12.8161
  59   1.0000      -0.470552       -12.8044
  60   1.0000      -0.457863       -12.4591
  61   1.0000      -0.456815       -12.4306
  62   1.0000      -0.453160       -12.3311
  63   1.0000      -0.451359       -12.2821
  64   1.0000      -0.448345       -12.2001
  65   1.0000      -0.445905       -12.1337
  66   1.0000      -0.445416       -12.1204
  67   1.0000      -0.443097       -12.0573
  68   1.0000      -0.438906       -11.9432
  69   1.0000      -0.438662       -11.9366
  70   1.0000      -0.436425       -11.8757
  71   1.0000      -0.434316       -11.8183
  72   1.0000      -0.434178       -11.8146
  73   1.0000      -0.431738       -11.7482
  74   1.0000      -0.429219       -11.6796
  75   1.0000      -0.428428       -11.6581
  76   1.0000      -0.422996       -11.5103
  77   1.0000      -0.415611       -11.3094
  78   1.0000      -0.415525       -11.3070
  79   1.0000      -0.411544       -11.1987
  80   1.0000      -0.408004       -11.1024
  81   1.0000      -0.405208       -11.0263
  82   1.0000      -0.404207       -10.9990
  83   1.0000      -0.401965       -10.9380
  84   1.0000      -0.400055       -10.8861
  85   1.0000      -0.398839       -10.8530
  86   1.0000      -0.394828       -10.7438
  87   1.0000      -0.393983       -10.7208
  88   1.0000      -0.389072       -10.5872
  89   1.0000      -0.387329       -10.5398
  90   1.0000      -0.385982       -10.5031
  91   1.0000      -0.385655       -10.4942
  92   1.0000      -0.385637       -10.4937
  93   1.0000      -0.383088       -10.4244
  94   1.0000      -0.380852       -10.3635
  95   1.0000      -0.374661       -10.1951
  96   1.0000      -0.373199       -10.1553
  97   1.0000      -0.373067       -10.1517
  98   1.0000      -0.362348        -9.8600
  99   1.0000      -0.361712        -9.8427
 100   1.0000      -0.359622        -9.7858
 101   1.0000      -0.359359        -9.7786
 102   1.0000      -0.355877        -9.6839
 103   1.0000      -0.355556        -9.6752
 104   1.0000      -0.355200        -9.6655
 105   1.0000      -0.354341        -9.6421
 106   1.0000      -0.352524        -9.5927
 107   1.0000      -0.351381        -9.5616
 108   1.0000      -0.349217        -9.5027
 109   1.0000      -0.347899        -9.4668
 110   1.0000      -0.347782        -9.4636
 111   1.0000      -0.343283        -9.3412
 112   1.0000      -0.341221        -9.2851
 113   1.0000      -0.338810        -9.2195
 114   1.0000      -0.331953        -9.0329
 115   1.0000      -0.326577        -8.8866
 116   1.0000      -0.325642        -8.8612
 117   1.0000      -0.322387        -8.7726
 118   1.0000      -0.319111        -8.6834
 119   1.0000      -0.318523        -8.6674
 120   1.0000      -0.311692        -8.4816
 121   1.0000      -0.306970        -8.3531
 122   1.0000      -0.304802        -8.2941
 123   1.0000      -0.289516        -7.8781
 124   1.0000      -0.265042        -7.2121
 125   1.0000      -0.236357        -6.4316
 126   1.0000      -0.233087        -6.3426
 127   0.0000      -0.119139        -3.2419
 128   0.0000      -0.111577        -3.0362
 129   0.0000      -0.069692        -1.8964
 130   0.0000      -0.066793        -1.8175
 131   0.0000      -0.065532        -1.7832

                 SPIN DOWN ORBITALS
  NO   OCC          E(Eh)            E(eV)
   0   1.0000    -217.742657     -5925.0789
   1   1.0000     -25.359277      -690.0610
   2   1.0000     -21.507743      -585.2554
   3   1.0000     -21.507391      -585.2459
   4   1.0000     -21.491104      -584.8027
   5   1.0000      -4.395682      -119.6126
   6   1.0000      -4.395602      -119.6104
   7   1.0000      -4.393184      -119.5446
   8   1.0000      -4.393125      -119.5430
   9   1.0000      -4.393028      -119.5404
  10   1.0000      -4.392996      -119.5395
  11   1.0000      -4.390398      -119.4688
  12   1.0000      -4.390341      -119.4673
  13   1.0000      -4.390069      -119.4599
  14   1.0000      -4.390012      -119.4583
  15   1.0000      -4.387970      -119.4027
  16   1.0000      -4.387896      -119.4007
  17   1.0000      -3.001506       -81.6751
  18   1.0000      -2.517132       -68.4946
  19   1.0000      -2.516932       -68.4892
  20   1.0000      -2.515160       -68.4410
  21   1.0000      -2.514810       -68.4314
  22   1.0000      -2.514103       -68.4122
  23   1.0000      -2.513440       -68.3942
  24   1.0000      -2.512624       -68.3720
  25   1.0000      -2.512124       -68.3584
  26   1.0000      -2.512089       -68.3574
  27   1.0000      -2.512060       -68.3566
  28   1.0000      -2.511213       -68.3336
  29   1.0000      -2.511134       -68.3314
  30   1.0000      -2.511016       -68.3282
  31   1.0000      -2.510731       -68.3205
  32   1.0000      -2.510156       -68.3048
  33   1.0000      -2.510092       -68.3031
  34   1.0000      -2.509264       -68.2805
  35   1.0000      -2.509172       -68.2781
  36   1.0000      -2.507718       -68.2385
  37   1.0000      -2.507567       -68.2344
  38   1.0000      -2.507532       -68.2334
  39   1.0000      -2.507277       -68.2265
  40   1.0000      -2.506410       -68.2029
  41   1.0000      -2.506185       -68.1968
  42   1.0000      -2.506098       -68.1944
  43   1.0000      -2.505817       -68.1868
  44   1.0000      -2.504712       -68.1567
  45   1.0000      -2.504700       -68.1564
  46   1.0000      -2.504186       -68.1424
  47   1.0000      -2.504160       -68.1417
  48   1.0000      -2.504131       -68.1409
  49   1.0000      -2.503555       -68.1252
  50   1.0000      -2.502777       -68.1040
  51   1.0000      -2.502218       -68.0888
  52   1.0000      -2.500326       -68.0373
  53   1.0000      -2.499262       -68.0084
  54   1.0000      -1.866240       -50.7830
  55   1.0000      -1.866199       -50.7819
  56   1.0000      -1.830615       -49.8136
  57   1.0000      -0.481067       -13.0905
  58   1.0000      -0.469074       -12.7642
  59   1.0000      -0.461455       -12.5568
  60   1.0000      -0.460623       -12.5342
  61   1.0000      -0.455571       -12.3967
  62   1.0000      -0.451819       -12.2946
  63   1.0000      -0.450254       -12.2520
  64   1.0000      -0.446016       -12.1367
  65   1.0000      -0.445944       -12.1347
  66   1.0000      -0.444428       -12.0935
  67   1.0000      -0.441623       -12.0172
  68   1.0000      -0.439274       -11.9532
  69   1.0000      -0.438650       -11.9363
  70   1.0000      -0.435835       -11.8597
  71   1.0000      -0.434600       -11.8261
  72   1.0000      -0.433065       -11.7843
  73   1.0000      -0.429688       -11.6924
  74   1.0000      -0.429558       -11.6889
  75   1.0000      -0.423734       -11.5304
  76   1.0000      -0.415817       -11.3149
  77   1.0000      -0.413429       -11.2500
  78   1.0000      -0.413284       -11.2460
  79   1.0000      -0.409459       -11.1419
  80   1.0000      -0.406912       -11.0726
  81   1.0000      -0.404986       -11.0202
  82   1.0000      -0.404261       -11.0005
  83   1.0000      -0.400948       -10.9104
  84   1.0000      -0.396542       -10.7905
  85   1.0000      -0.396076       -10.7778
  86   1.0000      -0.395349       -10.7580
  87   1.0000      -0.394592       -10.7374
  88   1.0000      -0.388410       -10.5692
  89   1.0000      -0.387088       -10.5332
  90   1.0000      -0.386872       -10.5273
  91   1.0000      -0.384273       -10.4566
  92   1.0000      -0.381745       -10.3878
  93   1.0000      -0.381219       -10.3735
  94   1.0000      -0.377459       -10.2712
  95   1.0000      -0.377174       -10.2634
  96   1.0000      -0.375175       -10.2090
  97   1.0000      -0.373004       -10.1500
  98   1.0000      -0.363027        -9.8785
  99   1.0000      -0.362835        -9.8733
 100   1.0000      -0.361361        -9.8331
 101   1.0000      -0.356905        -9.7119
 102   1.0000      -0.356353        -9.6969
 103   1.0000      -0.355385        -9.6705
 104   1.0000      -0.353565        -9.6210
 105   1.0000      -0.353539        -9.6203
 106   1.0000      -0.352015        -9.5788
 107   1.0000      -0.349585        -9.5127
 108   1.0000      -0.346302        -9.4233
 109   1.0000      -0.345795        -9.4096
 110   1.0000      -0.344140        -9.3645
 111   1.0000      -0.342085        -9.3086
 112   1.0000      -0.342059        -9.3079
 113   1.0000      -0.336725        -9.1627
 114   1.0000      -0.328837        -8.9481
 115   1.0000      -0.326367        -8.8809
 116   1.0000      -0.324456        -8.8289
 117   1.0000      -0.320261        -8.7147
 118   1.0000      -0.312714        -8.5094
 119   1.0000      -0.303238        -8.2515
 120   1.0000      -0.281344        -7.6558
 121   1.0000      -0.242783        -6.6065
 122   1.0000      -0.219681        -5.9778
 123   1.0000      -0.219505        -5.9730
 124   1.0000      -0.213329        -5.8050
 125   0.0000      -0.082665        -2.2494
 126   0.0000      -0.068996        -1.8775
 127   0.0000      -0.058982        -1.6050
 128   0.0000      -0.058066        -1.5801
 129   0.0000      -0.047938        -1.3044

MULLIKEN ATOMIC CHARGES AND SPIN POPULATIONS
--------------------------------------------
   0 Au:    0.277564   -0.213438
   1 Au:    0.266277   -0.141104
   2 Au:    0.276843   -0.211219
   3 Au:    0.263010   -0.140782
   4 Au:    0.342698   -0.048003
   5 Au:    0.347124   -0.078478
   6 Au:    0.267160   -0.141337
   7 Au:    0.344185   -0.047110
   8 Au:    0.262594   -0.140781
   9 Au:    0.278069   -0.212507
  10 Au:    0.347985   -0.078341
  11 Au:    0.276352   -0.212745
  12 Cr:   -3.549863    3.665845
Sum of atomic charges         :   -0.0000000

LOEWDIN ATOMIC CHARGES AND SPIN POPULATIONS
-------------------------------------------
   0 Au:    0.055674   -0.168124
   1 Au:    0.075121   -0.102043
   2 Au:    0.055438   -0.167043
   3 Au:    0.073940   -0.101882
   4 Au:    0.132445   -0.138048
   5 Au:    0.135913   -0.136316
   6 Au:    0.074633   -0.102137
   7 Au:    0.132378   -0.137722
   8 Au:    0.073958   -0.102030
   9 Au:    0.055970   -0.167165
  10 Au:    0.135766   -0.136133
  11 Au:    0.055512   -0.167823
  12 Cr:   -1.056749    3.626465

  Mayer bond orders larger than 0.100000
B(  0-Au,  3-Au) :   0.1499 B(  0-Au,  4-Au) :   0.2839 B(  0-Au,  5-Au) :   0.2261
B(  0-Au, 11-Au) :   0.1181 B(  0-Au, 12-Cr) :   0.4148 B(  1-Au,  2-Au) :   0.1481
B(  1-Au,  3-Au) :   0.3758 B(  1-Au, 10-Au) :   0.1723 B(  1-Au, 12-Cr) :   0.5683
B(  2-Au,  4-Au) :   0.2869 B(  2-Au,  9-Au) :   0.1165 B(  2-Au, 10-Au) :   0.2265
B(  2-Au, 12-Cr) :   0.4174 B(  3-Au,  5-Au) :   0.1734 B(  3-Au, 12-Cr) :   0.5683
B(  4-Au, 12-Cr) :   0.6455 B(  5-Au,  6-Au) :   0.1721 B(  5-Au, 11-Au) :   0.2253
B(  5-Au, 12-Cr) :   0.3628 B(  6-Au,  8-Au) :   0.3752 B(  6-Au, 11-Au) :   0.1486
B(  6-Au, 12-Cr) :   0.5675 B(  7-Au,  9-Au) :   0.2846 B(  7-Au, 11-Au) :   0.2844
B(  7-Au, 12-Cr) :   0.6452 B(  8-Au,  9-Au) :   0.1503 B(  8-Au, 10-Au) :   0.1739
B(  8-Au, 12-Cr) :   0.5690 B(  9-Au, 10-Au) :   0.2260 B(  9-Au, 12-Cr) :   0.4147
B( 10-Au, 12-Cr) :   0.3619 B( 11-Au, 12-Cr) :   0.4174

MP2 TOTAL ENERGY:    -2671.303682623 Eh
FINAL SINGLE POINT ENERGY     -2671.303682623363

DIPOLE MOMENT
-------------
                                X             Y             Z
Electronic contribution:      4.45986       1.94439       0.25696
Nuclear contribution   :     -4.39517      -1.91518      -0.25305
                        -----------------------------------------
Total Dipole Moment    :      0.06470       0.02921       0.00391
                        -----------------------------------------
Magnitude (a.u.)       :      0.07109
Magnitude (Debye)      :      0.18071

Rotational constants in cm-1:     0.001699     0.001131     0.001034
Rotational constants in MHz :    50.926379    33.916632    31.006987

                             ****ORCA TERMINATED NORMALLY****
TOTAL RUN TIME: 0 days 0 hours 48 minutes 45 seconds 300 msec
