                         Program Version 5.0.3 -  RELEASE  -
|  1> !R2SCAN def2-TZVP VERYSLOWCONV
|  2> !KDIIS
|  3> %scf
|  4>   AutoTRAHIter 200
|  5>   maxiter 400
|  6> end
|  7>
|  8> %pal nprocs 6 end
|  9>
| 10> *xyzfile 0 5 pbe.xyz
| 11>
| 12> $new_job
| 13>
| 14> !R2SCAN def2-TZVP VERYSLOWCONV
| 15> !KDIIS
| 16> %scf
| 17>   AutoTRAHIter 200
| 18>   maxiter 400
| 19> end
| 20>
| 21>
| 22> %pal nprocs 6 end
| 23>
| 24> *xyzfile 0 3 pbe.xyz
| 25>
| 26>
| 27>
| 28>
| 29>
| 30>                          ****END OF INPUT****
 Total Charge           Charge          ....    0
 Multiplicity           Mult            ....    5
 Number of Electrons    NEL             ....  252
FINAL SINGLE POINT ENERGY     -2674.578901856233

CARTESIAN COORDINATES (ANGSTROEM)
---------------------------------
  Au     6.306002    9.597163    7.790382
  Au    10.150131    7.480303    6.837522
  Au     8.038368    5.591456    6.531521
  Au     9.136330    9.822454    7.597557
  Au     5.878180    7.093630    6.973569
  Au     7.694604   11.157672    9.625667
  Au     9.334677    9.008829   10.436538
  Au     6.100856    6.231500    9.944000
  Au    10.371657    6.676603    9.675774
  Au     8.256341    4.817886    9.259542
  Au    10.476260    4.776562    7.588093
  Au     6.496317    8.808820   10.512517
  Cr     8.061433    7.534013    8.557181

 Multiplicity           Mult            ....    3
 Number of Electrons    NEL             ....  252
 Basis Dimension        Dim             ....  525

ORBITAL ENERGIES
----------------
                 SPIN UP ORBITALS
  NO   OCC          E(Eh)            E(eV)
   0   1.0000    -215.300834     -5858.6335
   1   1.0000     -24.603053      -669.4831
   2   1.0000     -20.869615      -567.8911
   3   1.0000     -20.869608      -567.8909
   4   1.0000     -20.868571      -567.8627
   5   1.0000      -4.113160      -111.9248
   6   1.0000      -4.113102      -111.9232
   7   1.0000      -4.112858      -111.9166
   8   1.0000      -4.112802      -111.9150
   9   1.0000      -4.110688      -111.8575
  10   1.0000      -4.110678      -111.8572
  11   1.0000      -4.110503      -111.8525
  12   1.0000      -4.110491      -111.8522
  13   1.0000      -4.109906      -111.8362
  14   1.0000      -4.109880      -111.8355
  15   1.0000      -4.108306      -111.7927
  16   1.0000      -4.108261      -111.7915
  17   1.0000      -2.919546       -79.4449
  18   1.0000      -2.305261       -62.7293
  19   1.0000      -2.305018       -62.7227
  20   1.0000      -2.302226       -62.6468
  21   1.0000      -2.301742       -62.6336
  22   1.0000      -2.301688       -62.6321
  23   1.0000      -2.301411       -62.6246
  24   1.0000      -2.300907       -62.6109
  25   1.0000      -2.300896       -62.6106
  26   1.0000      -2.300856       -62.6095
  27   1.0000      -2.300263       -62.5933
  28   1.0000      -2.299522       -62.5732
  29   1.0000      -2.298744       -62.5520
  30   1.0000      -2.298411       -62.5429
  31   1.0000      -2.297985       -62.5313
  32   1.0000      -2.296785       -62.4987
  33   1.0000      -2.296407       -62.4884
  34   1.0000      -2.296298       -62.4855
  35   1.0000      -2.295963       -62.4763
  36   1.0000      -2.295852       -62.4733
  37   1.0000      -2.295519       -62.4642
  38   1.0000      -2.295159       -62.4545
  39   1.0000      -2.294859       -62.4463
  40   1.0000      -2.294597       -62.4392
  41   1.0000      -2.294573       -62.4385
  42   1.0000      -2.294198       -62.4283
  43   1.0000      -2.293875       -62.4195
  44   1.0000      -2.293767       -62.4166
  45   1.0000      -2.293659       -62.4136
  46   1.0000      -2.293076       -62.3978
  47   1.0000      -2.292850       -62.3916
  48   1.0000      -2.292652       -62.3862
  49   1.0000      -2.292610       -62.3851
  50   1.0000      -2.291347       -62.3507
  51   1.0000      -2.291251       -62.3481
  52   1.0000      -2.289224       -62.2930
  53   1.0000      -2.288503       -62.2733
  54   1.0000      -1.866174       -50.7812
  55   1.0000      -1.865569       -50.7647
  56   1.0000      -1.865538       -50.7639
  57   1.0000      -0.416093       -11.3225
  58   1.0000      -0.386864       -10.5271
  59   1.0000      -0.376729       -10.2513
  60   1.0000      -0.370842       -10.0911
  61   1.0000      -0.368754       -10.0343
  62   1.0000      -0.363838        -9.9005
  63   1.0000      -0.362733        -9.8705
  64   1.0000      -0.358737        -9.7617
  65   1.0000      -0.355197        -9.6654
  66   1.0000      -0.352155        -9.5826
  67   1.0000      -0.349566        -9.5122
  68   1.0000      -0.347342        -9.4517
  69   1.0000      -0.343681        -9.3520
  70   1.0000      -0.342684        -9.3249
  71   1.0000      -0.342080        -9.3085
  72   1.0000      -0.338708        -9.2167
  73   1.0000      -0.336994        -9.1701
  74   1.0000      -0.336302        -9.1512
  75   1.0000      -0.335023        -9.1164
  76   1.0000      -0.334980        -9.1153
  77   1.0000      -0.332437        -9.0461
  78   1.0000      -0.326709        -8.8902
  79   1.0000      -0.323959        -8.8154
  80   1.0000      -0.314406        -8.5554
  81   1.0000      -0.313166        -8.5217
  82   1.0000      -0.312129        -8.4935
  83   1.0000      -0.311275        -8.4702
  84   1.0000      -0.308886        -8.4052
  85   1.0000      -0.308390        -8.3917
  86   1.0000      -0.302986        -8.2447
  87   1.0000      -0.301954        -8.2166
  88   1.0000      -0.296861        -8.0780
  89   1.0000      -0.296383        -8.0650
  90   1.0000      -0.295268        -8.0347
  91   1.0000      -0.294427        -8.0118
  92   1.0000      -0.293933        -7.9983
  93   1.0000      -0.292638        -7.9631
  94   1.0000      -0.289289        -7.8719
  95   1.0000      -0.286687        -7.8012
  96   1.0000      -0.286251        -7.7893
  97   1.0000      -0.285512        -7.7692
  98   1.0000      -0.275683        -7.5017
  99   1.0000      -0.273476        -7.4417
 100   1.0000      -0.272926        -7.4267
 101   1.0000      -0.268691        -7.3114
 102   1.0000      -0.268442        -7.3047
 103   1.0000      -0.266697        -7.2572
 104   1.0000      -0.265887        -7.2352
 105   1.0000      -0.264252        -7.1907
 106   1.0000      -0.262778        -7.1506
 107   1.0000      -0.262161        -7.1338
 108   1.0000      -0.261623        -7.1191
 109   1.0000      -0.261167        -7.1067
 110   1.0000      -0.258086        -7.0229
 111   1.0000      -0.255199        -6.9443
 112   1.0000      -0.253657        -6.9024
 113   1.0000      -0.251431        -6.8418
 114   1.0000      -0.248878        -6.7723
 115   1.0000      -0.245641        -6.6842
 116   1.0000      -0.245296        -6.6748
 117   1.0000      -0.243208        -6.6180
 118   1.0000      -0.239211        -6.5093
 119   1.0000      -0.234778        -6.3886
 120   1.0000      -0.232248        -6.3198
 121   1.0000      -0.230889        -6.2828
 122   1.0000      -0.230180        -6.2635
 123   1.0000      -0.215249        -5.8572
 124   1.0000      -0.213822        -5.8184
 125   1.0000      -0.211463        -5.7542
 126   1.0000      -0.204656        -5.5690
 127   0.0000      -0.175440        -4.7740
 128   0.0000      -0.167611        -4.5609
 129   0.0000      -0.164138        -4.4664
 130   0.0000      -0.132162        -3.5963
 131   0.0000      -0.126200        -3.4341

                 SPIN DOWN ORBITALS
  NO   OCC          E(Eh)            E(eV)
   0   1.0000    -215.300214     -5858.6167
   1   1.0000     -24.542479      -667.8348
   2   1.0000     -20.823949      -566.6485
   3   1.0000     -20.823219      -566.6286
   4   1.0000     -20.820669      -566.5592
   5   1.0000      -4.113462      -111.9330
   6   1.0000      -4.113405      -111.9315
   7   1.0000      -4.113162      -111.9248
   8   1.0000      -4.113104      -111.9232
   9   1.0000      -4.110939      -111.8643
  10   1.0000      -4.110922      -111.8639
  11   1.0000      -4.110755      -111.8593
  12   1.0000      -4.110735      -111.8588
  13   1.0000      -4.110452      -111.8511
  14   1.0000      -4.110425      -111.8503
  15   1.0000      -4.108427      -111.7960
  16   1.0000      -4.108381      -111.7947
  17   1.0000      -2.760949       -75.1292
  18   1.0000      -2.305254       -62.7291
  19   1.0000      -2.305013       -62.7226
  20   1.0000      -2.302468       -62.6533
  21   1.0000      -2.301995       -62.6405
  22   1.0000      -2.301846       -62.6364
  23   1.0000      -2.301224       -62.6195
  24   1.0000      -2.301037       -62.6144
  25   1.0000      -2.300913       -62.6110
  26   1.0000      -2.300641       -62.6036
  27   1.0000      -2.300254       -62.5931
  28   1.0000      -2.299768       -62.5799
  29   1.0000      -2.299041       -62.5601
  30   1.0000      -2.298380       -62.5421
  31   1.0000      -2.298082       -62.5340
  32   1.0000      -2.296753       -62.4978
  33   1.0000      -2.296424       -62.4889
  34   1.0000      -2.296384       -62.4878
  35   1.0000      -2.296259       -62.4844
  36   1.0000      -2.295670       -62.4684
  37   1.0000      -2.295627       -62.4672
  38   1.0000      -2.295604       -62.4666
  39   1.0000      -2.295147       -62.4541
  40   1.0000      -2.294888       -62.4471
  41   1.0000      -2.294861       -62.4463
  42   1.0000      -2.294582       -62.4387
  43   1.0000      -2.294286       -62.4307
  44   1.0000      -2.294021       -62.4235
  45   1.0000      -2.293929       -62.4210
  46   1.0000      -2.293406       -62.4067
  47   1.0000      -2.293216       -62.4016
  48   1.0000      -2.293010       -62.3960
  49   1.0000      -2.292945       -62.3942
  50   1.0000      -2.291783       -62.3626
  51   1.0000      -2.291679       -62.3597
  52   1.0000      -2.289194       -62.2921
  53   1.0000      -2.288443       -62.2717
  54   1.0000      -1.710636       -46.5488
  55   1.0000      -1.708196       -46.4824
  56   1.0000      -1.703645       -46.3585
  57   1.0000      -0.411501       -11.1975
  58   1.0000      -0.387791       -10.5523
  59   1.0000      -0.372381       -10.1330
  60   1.0000      -0.372179       -10.1275
  61   1.0000      -0.367695       -10.0055
  62   1.0000      -0.364395        -9.9157
  63   1.0000      -0.360223        -9.8022
  64   1.0000      -0.357964        -9.7407
  65   1.0000      -0.355444        -9.6721
  66   1.0000      -0.351712        -9.5706
  67   1.0000      -0.350577        -9.5397
  68   1.0000      -0.344145        -9.3646
  69   1.0000      -0.343935        -9.3589
  70   1.0000      -0.343708        -9.3528
  71   1.0000      -0.341489        -9.2924
  72   1.0000      -0.339863        -9.2481
  73   1.0000      -0.338342        -9.2067
  74   1.0000      -0.337306        -9.1786
  75   1.0000      -0.336605        -9.1595
  76   1.0000      -0.327119        -8.9013
  77   1.0000      -0.327064        -8.8999
  78   1.0000      -0.325887        -8.8678
  79   1.0000      -0.324425        -8.8281
  80   1.0000      -0.316682        -8.6173
  81   1.0000      -0.314784        -8.5657
  82   1.0000      -0.313338        -8.5264
  83   1.0000      -0.309971        -8.4347
  84   1.0000      -0.309204        -8.4139
  85   1.0000      -0.306277        -8.3342
  86   1.0000      -0.304458        -8.2847
  87   1.0000      -0.303119        -8.2483
  88   1.0000      -0.299039        -8.1373
  89   1.0000      -0.297973        -8.1083
  90   1.0000      -0.294951        -8.0260
  91   1.0000      -0.294684        -8.0188
  92   1.0000      -0.294496        -8.0136
  93   1.0000      -0.292567        -7.9611
  94   1.0000      -0.290799        -7.9130
  95   1.0000      -0.287514        -7.8237
  96   1.0000      -0.286907        -7.8071
  97   1.0000      -0.284919        -7.7530
  98   1.0000      -0.276934        -7.5358
  99   1.0000      -0.275564        -7.4985
 100   1.0000      -0.274173        -7.4606
 101   1.0000      -0.270195        -7.3524
 102   1.0000      -0.269814        -7.3420
 103   1.0000      -0.267258        -7.2725
 104   1.0000      -0.267079        -7.2676
 105   1.0000      -0.266497        -7.2517
 106   1.0000      -0.264649        -7.2015
 107   1.0000      -0.262509        -7.1432
 108   1.0000      -0.262481        -7.1425
 109   1.0000      -0.262142        -7.1332
 110   1.0000      -0.259133        -7.0514
 111   1.0000      -0.257837        -7.0161
 112   1.0000      -0.254937        -6.9372
 113   1.0000      -0.253276        -6.8920
 114   1.0000      -0.251602        -6.8464
 115   1.0000      -0.249440        -6.7876
 116   1.0000      -0.246457        -6.7064
 117   1.0000      -0.244524        -6.6538
 118   1.0000      -0.240175        -6.5355
 119   1.0000      -0.236468        -6.4346
 120   1.0000      -0.233488        -6.3535
 121   1.0000      -0.223769        -6.0891
 122   1.0000      -0.201542        -5.4842
 123   1.0000      -0.199825        -5.4375
 124   1.0000      -0.193368        -5.2618
 125   0.0000      -0.140774        -3.8307
 126   0.0000      -0.128684        -3.5017
 127   0.0000      -0.116407        -3.1676
 128   0.0000      -0.116176        -3.1613
 129   0.0000      -0.106576        -2.9001

MULLIKEN ATOMIC CHARGES AND SPIN POPULATIONS
--------------------------------------------
   0 Au:    0.261815   -0.157801
   1 Au:    0.250764   -0.129601
   2 Au:    0.261158   -0.156713
   3 Au:    0.247650   -0.128903
   4 Au:    0.356813   -0.077968
   5 Au:    0.325561   -0.043198
   6 Au:    0.250700   -0.129626
   7 Au:    0.358082   -0.077482
   8 Au:    0.248239   -0.129229
   9 Au:    0.261675   -0.156940
  10 Au:    0.325945   -0.042897
  11 Au:    0.261494   -0.157795
  12 Cr:   -3.409897    3.388153
Sum of atomic charges         :    0.0000000

LOEWDIN ATOMIC CHARGES AND SPIN POPULATIONS
-------------------------------------------
   0 Au:    0.063573   -0.118802
   1 Au:    0.096680   -0.098053
   2 Au:    0.063725   -0.117761
   3 Au:    0.095730   -0.097911
   4 Au:    0.142201   -0.108970
   5 Au:    0.097298   -0.086948
   6 Au:    0.096206   -0.098146
   7 Au:    0.142176   -0.108763
   8 Au:    0.095760   -0.098171
   9 Au:    0.064032   -0.117994
  10 Au:    0.097043   -0.086679
  11 Au:    0.063696   -0.118520
  12 Cr:   -1.118121    3.256719

  Mayer bond orders larger than 0.100000
B(  0-Au,  3-Au) :   0.1572 B(  0-Au,  4-Au) :   0.3167 B(  0-Au,  5-Au) :   0.2525
B(  0-Au, 11-Au) :   0.1410 B(  0-Au, 12-Cr) :   0.4976 B(  1-Au,  2-Au) :   0.1553
B(  1-Au,  3-Au) :   0.3851 B(  1-Au, 10-Au) :   0.2019 B(  1-Au, 12-Cr) :   0.6513
B(  2-Au,  4-Au) :   0.3189 B(  2-Au,  9-Au) :   0.1386 B(  2-Au, 10-Au) :   0.2528
B(  2-Au, 12-Cr) :   0.5021 B(  3-Au,  5-Au) :   0.2034 B(  3-Au, 12-Cr) :   0.6521
B(  4-Au, 12-Cr) :   0.6585 B(  5-Au,  6-Au) :   0.2024 B(  5-Au, 11-Au) :   0.2514
B(  5-Au, 12-Cr) :   0.3202 B(  6-Au,  8-Au) :   0.3844 B(  6-Au, 11-Au) :   0.1562
B(  6-Au, 12-Cr) :   0.6509 B(  7-Au,  9-Au) :   0.3178 B(  7-Au, 11-Au) :   0.3165
B(  7-Au, 12-Cr) :   0.6585 B(  8-Au,  9-Au) :   0.1576 B(  8-Au, 10-Au) :   0.2033
B(  8-Au, 12-Cr) :   0.6520 B(  9-Au, 10-Au) :   0.2523 B(  9-Au, 12-Cr) :   0.4984
B( 10-Au, 12-Cr) :   0.3198 B( 11-Au, 12-Cr) :   0.5011

FINAL SINGLE POINT ENERGY     -2674.592630916588

DIPOLE MOMENT
-------------
                                X             Y             Z
Electronic contribution:      4.50588       1.96342       0.25914
Nuclear contribution   :     -4.39517      -1.91518      -0.25305
                        -----------------------------------------
Total Dipole Moment    :      0.11071       0.04824       0.00608
                        -----------------------------------------
Magnitude (a.u.)       :      0.12092
Magnitude (Debye)      :      0.30735

Rotational constants in cm-1:     0.001699     0.001131     0.001034
Rotational constants in MHz :    50.926379    33.916632    31.006987

                             ****ORCA TERMINATED NORMALLY****
TOTAL RUN TIME: 0 days 0 hours 13 minutes 13 seconds 451 msec
