                         Program Version 5.0.3 -  RELEASE  -
|  1> %pal nprocs 1 end
|  2>
|  3> !PBE def2-TZVP OPT UNO
|  4> !SLOWCONV KDIIS
|  5>
|  6> %geom maxiter 300 end
|  7>
|  8> *xyzfile 0 5 1.xyz                           ****END OF INPUT****
 Total Charge           Charge          ....    0
 Multiplicity           Mult            ....    5
 Number of Electrons    NEL             ....  214
FINAL SINGLE POINT ENERGY     -2402.480734112640
FINAL SINGLE POINT ENERGY     -2402.482652845989
FINAL SINGLE POINT ENERGY     -2402.483010895929
FINAL SINGLE POINT ENERGY     -2402.483169430198
FINAL SINGLE POINT ENERGY     -2402.483353168252
FINAL SINGLE POINT ENERGY     -2402.483438593324
FINAL SINGLE POINT ENERGY     -2402.483547641443
FINAL SINGLE POINT ENERGY     -2402.483639865447
FINAL SINGLE POINT ENERGY     -2402.483678521359
FINAL SINGLE POINT ENERGY     -2402.483693215092
FINAL SINGLE POINT ENERGY     -2402.483699848367
FINAL SINGLE POINT ENERGY     -2402.483708706502
FINAL SINGLE POINT ENERGY     -2402.483720654848
FINAL SINGLE POINT ENERGY     -2402.483728612378
FINAL SINGLE POINT ENERGY     -2402.483735300363
                    ***********************HURRAY********************

CARTESIAN COORDINATES (ANGSTROEM)
---------------------------------
  Au    10.403558    5.440320    7.810247
  Au     8.553476    3.466189    8.573691
  Au    10.245123    4.481904   10.536539
  Au     7.577303    4.191161   11.285099
  Au     8.861205    6.583079   11.999990
  Au     6.010365    4.741350    8.961433
  Au     8.079530    8.524694   10.362126
  Au     7.372447    9.826476    8.027754
  Au     9.124053    7.749233    7.525863
  Au     6.306813    7.339358    8.342165
  Cr     8.344437    6.025103    9.427401

 Multiplicity           Mult            ....    5
 Number of Electrons    NEL             ....  214
 Basis Dimension        Dim             ....  445

ORBITAL ENERGIES
----------------
                 SPIN UP ORBITALS
  NO   OCC          E(Eh)            E(eV)
   0   1.0000    -214.486404     -5836.4718
   1   1.0000     -24.289145      -660.9412
   2   1.0000     -20.653536      -562.0113
   3   1.0000     -20.652044      -561.9707
   4   1.0000     -20.651298      -561.9504
   5   1.0000      -4.028822      -109.6298
   6   1.0000      -4.025388      -109.5364
   7   1.0000      -4.021917      -109.4419
   8   1.0000      -4.020858      -109.4131
   9   1.0000      -4.020142      -109.3936
  10   1.0000      -4.019943      -109.3882
  11   1.0000      -4.019087      -109.3649
  12   1.0000      -4.017774      -109.3292
  13   1.0000      -4.016270      -109.2883
  14   1.0000      -4.016209      -109.2866
  15   1.0000      -2.793680       -76.0199
  16   1.0000      -2.247442       -61.1560
  17   1.0000      -2.244083       -61.0646
  18   1.0000      -2.242258       -61.0149
  19   1.0000      -2.238649       -60.9167
  20   1.0000      -2.238598       -60.9154
  21   1.0000      -2.238335       -60.9082
  22   1.0000      -2.237681       -60.8904
  23   1.0000      -2.237488       -60.8851
  24   1.0000      -2.236625       -60.8617
  25   1.0000      -2.236076       -60.8467
  26   1.0000      -2.235584       -60.8333
  27   1.0000      -2.235483       -60.8306
  28   1.0000      -2.235133       -60.8211
  29   1.0000      -2.234115       -60.7933
  30   1.0000      -2.233880       -60.7870
  31   1.0000      -2.233475       -60.7759
  32   1.0000      -2.233256       -60.7700
  33   1.0000      -2.231673       -60.7269
  34   1.0000      -2.231576       -60.7243
  35   1.0000      -2.230194       -60.6867
  36   1.0000      -2.229966       -60.6804
  37   1.0000      -2.229688       -60.6729
  38   1.0000      -2.229374       -60.6644
  39   1.0000      -2.228857       -60.6503
  40   1.0000      -2.228352       -60.6365
  41   1.0000      -2.227533       -60.6143
  42   1.0000      -2.226262       -60.5797
  43   1.0000      -2.225452       -60.5576
  44   1.0000      -2.224924       -60.5433
  45   1.0000      -2.224819       -60.5404
  46   1.0000      -1.785645       -48.5899
  47   1.0000      -1.783139       -48.5217
  48   1.0000      -1.781439       -48.4754
  49   1.0000      -0.407683       -11.0936
  50   1.0000      -0.382140       -10.3985
  51   1.0000      -0.362660        -9.8685
  52   1.0000      -0.361175        -9.8281
  53   1.0000      -0.356464        -9.6999
  54   1.0000      -0.355891        -9.6843
  55   1.0000      -0.354983        -9.6596
  56   1.0000      -0.352255        -9.5853
  57   1.0000      -0.338734        -9.2174
  58   1.0000      -0.332362        -9.0440
  59   1.0000      -0.331028        -9.0077
  60   1.0000      -0.327027        -8.8989
  61   1.0000      -0.325398        -8.8545
  62   1.0000      -0.322440        -8.7740
  63   1.0000      -0.322153        -8.7662
  64   1.0000      -0.319274        -8.6879
  65   1.0000      -0.316390        -8.6094
  66   1.0000      -0.314045        -8.5456
  67   1.0000      -0.313744        -8.5374
  68   1.0000      -0.311785        -8.4841
  69   1.0000      -0.310098        -8.4382
  70   1.0000      -0.308110        -8.3841
  71   1.0000      -0.305519        -8.3136
  72   1.0000      -0.298555        -8.1241
  73   1.0000      -0.297012        -8.0821
  74   1.0000      -0.289859        -7.8875
  75   1.0000      -0.288568        -7.8523
  76   1.0000      -0.285375        -7.7654
  77   1.0000      -0.281959        -7.6725
  78   1.0000      -0.280570        -7.6347
  79   1.0000      -0.277795        -7.5592
  80   1.0000      -0.275007        -7.4833
  81   1.0000      -0.273517        -7.4428
  82   1.0000      -0.272620        -7.4184
  83   1.0000      -0.271640        -7.3917
  84   1.0000      -0.270231        -7.3534
  85   1.0000      -0.268548        -7.3076
  86   1.0000      -0.268147        -7.2966
  87   1.0000      -0.266739        -7.2583
  88   1.0000      -0.263822        -7.1790
  89   1.0000      -0.261307        -7.1105
  90   1.0000      -0.259083        -7.0500
  91   1.0000      -0.256848        -6.9892
  92   1.0000      -0.254516        -6.9257
  93   1.0000      -0.253931        -6.9098
  94   1.0000      -0.253408        -6.8956
  95   1.0000      -0.252868        -6.8809
  96   1.0000      -0.247866        -6.7448
  97   1.0000      -0.247394        -6.7319
  98   1.0000      -0.240095        -6.5333
  99   1.0000      -0.238080        -6.4785
 100   1.0000      -0.236029        -6.4227
 101   1.0000      -0.235051        -6.3961
 102   1.0000      -0.234672        -6.3858
 103   1.0000      -0.216399        -5.8885
 104   1.0000      -0.205259        -5.5854
 105   1.0000      -0.203060        -5.5256
 106   1.0000      -0.198748        -5.4082
 107   1.0000      -0.198103        -5.3907
 108   1.0000      -0.186806        -5.0833
 109   0.0000      -0.160172        -4.3585
 110   0.0000      -0.158228        -4.3056
 111   0.0000      -0.132855        -3.6152
 112   0.0000      -0.131369        -3.5747
 113   0.0000      -0.130000        -3.5375

                 SPIN DOWN ORBITALS
  NO   OCC          E(Eh)            E(eV)
   0   1.0000    -214.485961     -5836.4597
   1   1.0000     -24.242409      -659.6695
   2   1.0000     -20.619210      -561.0772
   3   1.0000     -20.615351      -560.9722
   4   1.0000     -20.615166      -560.9672
   5   1.0000      -4.027431      -109.5920
   6   1.0000      -4.024234      -109.5050
   7   1.0000      -4.019977      -109.3891
   8   1.0000      -4.019892      -109.3868
   9   1.0000      -4.019283      -109.3702
  10   1.0000      -4.018678      -109.3538
  11   1.0000      -4.017827      -109.3306
  12   1.0000      -4.017248      -109.3149
  13   1.0000      -4.014571      -109.2420
  14   1.0000      -4.014512      -109.2404
  15   1.0000      -2.667366       -72.5827
  16   1.0000      -2.245622       -61.1065
  17   1.0000      -2.242296       -61.0160
  18   1.0000      -2.240645       -60.9710
  19   1.0000      -2.237810       -60.8939
  20   1.0000      -2.237190       -60.8770
  21   1.0000      -2.236391       -60.8553
  22   1.0000      -2.236175       -60.8494
  23   1.0000      -2.235558       -60.8326
  24   1.0000      -2.235153       -60.8216
  25   1.0000      -2.234915       -60.8151
  26   1.0000      -2.234585       -60.8061
  27   1.0000      -2.234269       -60.7976
  28   1.0000      -2.233740       -60.7832
  29   1.0000      -2.233061       -60.7647
  30   1.0000      -2.232491       -60.7492
  31   1.0000      -2.232096       -60.7384
  32   1.0000      -2.231808       -60.7306
  33   1.0000      -2.229571       -60.6697
  34   1.0000      -2.229365       -60.6641
  35   1.0000      -2.229008       -60.6544
  36   1.0000      -2.228741       -60.6471
  37   1.0000      -2.228293       -60.6349
  38   1.0000      -2.228103       -60.6298
  39   1.0000      -2.227762       -60.6205
  40   1.0000      -2.227515       -60.6138
  41   1.0000      -2.227118       -60.6030
  42   1.0000      -2.225146       -60.5493
  43   1.0000      -2.224238       -60.5246
  44   1.0000      -2.223365       -60.5008
  45   1.0000      -2.223271       -60.4983
  46   1.0000      -1.665938       -45.3325
  47   1.0000      -1.656122       -45.0654
  48   1.0000      -1.654859       -45.0310
  49   1.0000      -0.399369       -10.8674
  50   1.0000      -0.379636       -10.3304
  51   1.0000      -0.358682        -9.7602
  52   1.0000      -0.357046        -9.7157
  53   1.0000      -0.352545        -9.5932
  54   1.0000      -0.351092        -9.5537
  55   1.0000      -0.350218        -9.5299
  56   1.0000      -0.347725        -9.4621
  57   1.0000      -0.337626        -9.1873
  58   1.0000      -0.329506        -8.9663
  59   1.0000      -0.326611        -8.8875
  60   1.0000      -0.322712        -8.7814
  61   1.0000      -0.321913        -8.7597
  62   1.0000      -0.320509        -8.7215
  63   1.0000      -0.318159        -8.6575
  64   1.0000      -0.313974        -8.5437
  65   1.0000      -0.312993        -8.5170
  66   1.0000      -0.312404        -8.5010
  67   1.0000      -0.310651        -8.4532
  68   1.0000      -0.308845        -8.4041
  69   1.0000      -0.306589        -8.3427
  70   1.0000      -0.302341        -8.2271
  71   1.0000      -0.302162        -8.2222
  72   1.0000      -0.297499        -8.0953
  73   1.0000      -0.295049        -8.0287
  74   1.0000      -0.287988        -7.8366
  75   1.0000      -0.286229        -7.7887
  76   1.0000      -0.284540        -7.7427
  77   1.0000      -0.279454        -7.6043
  78   1.0000      -0.278571        -7.5803
  79   1.0000      -0.276699        -7.5294
  80   1.0000      -0.273622        -7.4456
  81   1.0000      -0.271811        -7.3964
  82   1.0000      -0.271168        -7.3789
  83   1.0000      -0.269870        -7.3435
  84   1.0000      -0.268790        -7.3141
  85   1.0000      -0.267414        -7.2767
  86   1.0000      -0.266981        -7.2649
  87   1.0000      -0.265716        -7.2305
  88   1.0000      -0.262624        -7.1464
  89   1.0000      -0.259720        -7.0673
  90   1.0000      -0.258145        -7.0245
  91   1.0000      -0.255757        -6.9595
  92   1.0000      -0.253104        -6.8873
  93   1.0000      -0.252571        -6.8728
  94   1.0000      -0.251940        -6.8556
  95   1.0000      -0.250646        -6.8204
  96   1.0000      -0.246778        -6.7152
  97   1.0000      -0.245746        -6.6871
  98   1.0000      -0.237984        -6.4759
  99   1.0000      -0.235698        -6.4137
 100   1.0000      -0.234438        -6.3794
 101   1.0000      -0.233856        -6.3635
 102   1.0000      -0.231625        -6.3028
 103   1.0000      -0.205556        -5.5935
 104   1.0000      -0.187769        -5.1095
 105   0.0000      -0.183631        -4.9969
 106   0.0000      -0.141690        -3.8556
 107   0.0000      -0.138648        -3.7728
 108   0.0000      -0.134302        -3.6546
 109   0.0000      -0.103950        -2.8286

MULLIKEN ATOMIC CHARGES AND SPIN POPULATIONS
--------------------------------------------
   0 Au:    0.245216    0.036361
   1 Au:    0.465998    0.008841
   2 Au:    0.508409    0.109155
   3 Au:    0.459430   -0.005533
   4 Au:    0.242099    0.037248
   5 Au:    0.233809    0.072418
   6 Au:    0.146612   -0.040492
   7 Au:    0.300750    0.114846
   8 Au:    0.138538   -0.055587
   9 Au:    0.200449    0.095911
  10 Cr:   -2.941310    3.626831
Sum of atomic charges         :   -0.0000000

LOEWDIN ATOMIC CHARGES AND SPIN POPULATIONS
-------------------------------------------
   0 Au:    0.119204    0.045406
   1 Au:    0.089726    0.018561
   2 Au:    0.096775    0.068435
   3 Au:    0.085340    0.010103
   4 Au:    0.120371    0.048661
   5 Au:    0.142198    0.108856
   6 Au:    0.058994    0.014391
   7 Au:    0.096878    0.066514
   8 Au:    0.057850    0.007235
   9 Au:    0.063024    0.083980
  10 Cr:   -0.930359    3.527857

  Mayer bond orders larger than 0.100000
B(  0-Au,  1-Au) :   0.2181 B(  0-Au,  2-Au) :   0.1852 B(  0-Au,  8-Au) :   0.4654
B(  0-Au, 10-Cr) :   0.5375 B(  1-Au,  2-Au) :   0.1803 B(  1-Au,  3-Au) :   0.1096
B(  1-Au,  5-Au) :   0.1912 B(  1-Au, 10-Cr) :   0.7265 B(  2-Au,  3-Au) :   0.1819
B(  2-Au,  4-Au) :   0.1790 B(  2-Au,  9-Au) :   0.1145 B(  2-Au, 10-Cr) :   0.6411
B(  3-Au,  4-Au) :   0.2194 B(  3-Au,  5-Au) :   0.1951 B(  3-Au, 10-Cr) :   0.7254
B(  4-Au,  6-Au) :   0.4636 B(  4-Au, 10-Cr) :   0.5353 B(  5-Au,  9-Au) :   0.4593
B(  5-Au, 10-Cr) :   0.5011 B(  6-Au,  7-Au) :   0.2984 B(  6-Au,  9-Au) :   0.1157
B(  6-Au, 10-Cr) :   0.7469 B(  7-Au,  8-Au) :   0.2966 B(  7-Au,  9-Au) :   0.3603
B(  7-Au, 10-Cr) :   0.3332 B(  8-Au,  9-Au) :   0.1052 B(  8-Au, 10-Cr) :   0.7558
B(  9-Au, 10-Cr) :   0.6287

FINAL SINGLE POINT ENERGY     -2402.483737475208

DIPOLE MOMENT
-------------
                                X             Y             Z
Electronic contribution:     -3.29974       7.14997      -2.95894
Nuclear contribution   :      3.18232      -7.31445       2.96777
                        -----------------------------------------
Total Dipole Moment    :     -0.11741      -0.16448       0.00883
                        -----------------------------------------
Magnitude (a.u.)       :      0.20228
Magnitude (Debye)      :      0.51417

Rotational constants in cm-1:     0.002241     0.001381     0.001346
Rotational constants in MHz :    67.190558    41.411432    40.339302

                             ****ORCA TERMINATED NORMALLY****
TOTAL RUN TIME: 0 days 2 hours 3 minutes 4 seconds 716 msec
