                         Program Version 5.0.3 -  RELEASE  -
|  1> !RI-B2PLYP def2-TZVP def2-TZVP/C
|  2> !RIJCOSX VERYSLOWCONV
|  3>
|  4> %scf
|  5>   AutoTRAHIter 200
|  6>   maxiter 400
|  7> end
|  8>
|  9>
| 10> %pal nprocs 6 end
| 11>
| 12> *xyzfile 0 6 pbe.xyz
| 13>
| 14> $new_job
| 15>
| 16> !RI-B2PLYP def2-TZVP def2-TZVP/C
| 17> !RIJCOSX VERYSLOWCONV
| 18>
| 19> %scf
| 20>   AutoTRAHIter 200
| 21>   maxiter 400
| 22> end
| 23>
| 24>
| 25> %pal nprocs 6 end
| 26>
| 27> *xyzfile 0 4 pbe.xyz
| 28>
| 29>
| 30>
| 31>
| 32>
| 33>                          ****END OF INPUT****
 Total Charge           Charge          ....    0
 Multiplicity           Mult            ....    6
 Number of Electrons    NEL             ....  291
MP2 TOTAL ENERGY:    -3049.059432183 Eh
FINAL SINGLE POINT ENERGY     -3049.059432183223

CARTESIAN COORDINATES (ANGSTROEM)
---------------------------------
  Au    10.141559    6.062446    7.325908
  Au     8.929715    6.467295    4.871551
  Au     7.498457    5.065640    6.825714
  Au     8.112620    9.171542    9.115041
  Au     5.812080    7.698489    9.696937
  Au     5.549626    5.090994    8.730824
  Au     8.208022    6.383200    9.236496
  Au     9.580498    8.685439    6.632091
  Au     6.077009    6.523351    4.822625
  Au     4.465147    7.092544    7.205922
  Au     7.463465   10.514713    6.665270
  Au     7.716857    8.873040    4.446776
  Au     5.122620    9.122646    5.395206
  Au     5.165619    9.781208    8.075575
  Mn     7.070067    7.762721    7.057478

 Multiplicity           Mult            ....    4
 Number of Electrons    NEL             ....  291
 Basis Dimension        Dim             ....  605

ORBITAL ENERGIES
----------------
                 SPIN UP ORBITALS
  NO   OCC          E(Eh)            E(eV)
   0   1.0000    -237.629661     -6466.2318
   1   1.0000     -28.130006      -765.4564
   2   1.0000     -24.048176      -654.3841
   3   1.0000     -24.048008      -654.3796
   4   1.0000     -24.047659      -654.3701
   5   1.0000      -4.408923      -119.9729
   6   1.0000      -4.404634      -119.8562
   7   1.0000      -4.403741      -119.8319
   8   1.0000      -4.402902      -119.8091
   9   1.0000      -4.400946      -119.7558
  10   1.0000      -4.400765      -119.7509
  11   1.0000      -4.400199      -119.7355
  12   1.0000      -4.399913      -119.7277
  13   1.0000      -4.398940      -119.7013
  14   1.0000      -4.398211      -119.6814
  15   1.0000      -4.395401      -119.6049
  16   1.0000      -4.394905      -119.5914
  17   1.0000      -4.388229      -119.4098
  18   1.0000      -4.386585      -119.3651
  19   1.0000      -3.608047       -98.1799
  20   1.0000      -2.528682       -68.8089
  21   1.0000      -2.527272       -68.7706
  22   1.0000      -2.525269       -68.7161
  23   1.0000      -2.525165       -68.7132
  24   1.0000      -2.525063       -68.7105
  25   1.0000      -2.523106       -68.6572
  26   1.0000      -2.522767       -68.6480
  27   1.0000      -2.521851       -68.6231
  28   1.0000      -2.521415       -68.6112
  29   1.0000      -2.521222       -68.6059
  30   1.0000      -2.521065       -68.6017
  31   1.0000      -2.520506       -68.5864
  32   1.0000      -2.519959       -68.5716
  33   1.0000      -2.519283       -68.5532
  34   1.0000      -2.519210       -68.5512
  35   1.0000      -2.518748       -68.5386
  36   1.0000      -2.518582       -68.5341
  37   1.0000      -2.518040       -68.5194
  38   1.0000      -2.517988       -68.5179
  39   1.0000      -2.517586       -68.5070
  40   1.0000      -2.517275       -68.4985
  41   1.0000      -2.516891       -68.4881
  42   1.0000      -2.515897       -68.4610
  43   1.0000      -2.515486       -68.4498
  44   1.0000      -2.515390       -68.4472
  45   1.0000      -2.514863       -68.4329
  46   1.0000      -2.514744       -68.4297
  47   1.0000      -2.514196       -68.4147
  48   1.0000      -2.513067       -68.3840
  49   1.0000      -2.512838       -68.3778
  50   1.0000      -2.512597       -68.3712
  51   1.0000      -2.512265       -68.3622
  52   1.0000      -2.511866       -68.3513
  53   1.0000      -2.510674       -68.3189
  54   1.0000      -2.510435       -68.3124
  55   1.0000      -2.509812       -68.2955
  56   1.0000      -2.505418       -68.1759
  57   1.0000      -2.504832       -68.1599
  58   1.0000      -2.503974       -68.1366
  59   1.0000      -2.503934       -68.1355
  60   1.0000      -2.503456       -68.1225
  61   1.0000      -2.502027       -68.0836
  62   1.0000      -2.410408       -65.5905
  63   1.0000      -2.410295       -65.5875
  64   1.0000      -2.409180       -65.5571
  65   1.0000      -0.520687       -14.1686
  66   1.0000      -0.518890       -14.1197
  67   1.0000      -0.517401       -14.0792
  68   1.0000      -0.516386       -14.0516
  69   1.0000      -0.515457       -14.0263
  70   1.0000      -0.514200       -13.9921
  71   1.0000      -0.469859       -12.7855
  72   1.0000      -0.467531       -12.7222
  73   1.0000      -0.462122       -12.5750
  74   1.0000      -0.459899       -12.5145
  75   1.0000      -0.458867       -12.4864
  76   1.0000      -0.457321       -12.4443
  77   1.0000      -0.456273       -12.4158
  78   1.0000      -0.454465       -12.3666
  79   1.0000      -0.453286       -12.3345
  80   1.0000      -0.452502       -12.3132
  81   1.0000      -0.452209       -12.3052
  82   1.0000      -0.451276       -12.2798
  83   1.0000      -0.450573       -12.2607
  84   1.0000      -0.448432       -12.2025
  85   1.0000      -0.445950       -12.1349
  86   1.0000      -0.445295       -12.1171
  87   1.0000      -0.442762       -12.0482
  88   1.0000      -0.440959       -11.9991
  89   1.0000      -0.437921       -11.9164
  90   1.0000      -0.436468       -11.8769
  91   1.0000      -0.430827       -11.7234
  92   1.0000      -0.428132       -11.6501
  93   1.0000      -0.426789       -11.6135
  94   1.0000      -0.424925       -11.5628
  95   1.0000      -0.422650       -11.5009
  96   1.0000      -0.421720       -11.4756
  97   1.0000      -0.419434       -11.4134
  98   1.0000      -0.414595       -11.2817
  99   1.0000      -0.414183       -11.2705
 100   1.0000      -0.409562       -11.1447
 101   1.0000      -0.407617       -11.0918
 102   1.0000      -0.404511       -11.0073
 103   1.0000      -0.401606       -10.9283
 104   1.0000      -0.399127       -10.8608
 105   1.0000      -0.397400       -10.8138
 106   1.0000      -0.392309       -10.6753
 107   1.0000      -0.386693       -10.5224
 108   1.0000      -0.380029       -10.3411
 109   1.0000      -0.378621       -10.3028
 110   1.0000      -0.377688       -10.2774
 111   1.0000      -0.374187       -10.1821
 112   1.0000      -0.372335       -10.1317
 113   1.0000      -0.370926       -10.0934
 114   1.0000      -0.370585       -10.0841
 115   1.0000      -0.369482       -10.0541
 116   1.0000      -0.368786       -10.0352
 117   1.0000      -0.366795        -9.9810
 118   1.0000      -0.365855        -9.9554
 119   1.0000      -0.365363        -9.9420
 120   1.0000      -0.364798        -9.9267
 121   1.0000      -0.364399        -9.9158
 122   1.0000      -0.361152        -9.8275
 123   1.0000      -0.359353        -9.7785
 124   1.0000      -0.357089        -9.7169
 125   1.0000      -0.355448        -9.6722
 126   1.0000      -0.353892        -9.6299
 127   1.0000      -0.351671        -9.5694
 128   1.0000      -0.350852        -9.5472
 129   1.0000      -0.348802        -9.4914
 130   1.0000      -0.346199        -9.4206
 131   1.0000      -0.345124        -9.3913
 132   1.0000      -0.343102        -9.3363
 133   1.0000      -0.342478        -9.3193
 134   1.0000      -0.341331        -9.2881
 135   1.0000      -0.337954        -9.1962
 136   1.0000      -0.336351        -9.1526
 137   1.0000      -0.333200        -9.0668
 138   1.0000      -0.330768        -9.0006
 139   1.0000      -0.325615        -8.8604
 140   1.0000      -0.320085        -8.7100
 141   1.0000      -0.318007        -8.6534
 142   1.0000      -0.314047        -8.5457
 143   1.0000      -0.295173        -8.0321
 144   1.0000      -0.233865        -6.3638
 145   1.0000      -0.219061        -5.9610
 146   1.0000      -0.212804        -5.7907
 147   0.0000      -0.129735        -3.5303
 148   0.0000      -0.125402        -3.4124
 149   0.0000      -0.081957        -2.2302
 150   0.0000      -0.057267        -1.5583
 151   0.0000      -0.052123        -1.4183

                 SPIN DOWN ORBITALS
  NO   OCC          E(Eh)            E(eV)
   0   1.0000    -237.627671     -6466.1777
   1   1.0000     -28.029140      -762.7117
   2   1.0000     -23.955914      -651.8735
   3   1.0000     -23.955259      -651.8557
   4   1.0000     -23.954758      -651.8421
   5   1.0000      -4.409197      -119.9804
   6   1.0000      -4.404895      -119.8633
   7   1.0000      -4.403766      -119.8326
   8   1.0000      -4.403227      -119.8179
   9   1.0000      -4.402337      -119.7937
  10   1.0000      -4.400814      -119.7522
  11   1.0000      -4.400568      -119.7456
  12   1.0000      -4.400526      -119.7444
  13   1.0000      -4.398792      -119.6972
  14   1.0000      -4.398639      -119.6931
  15   1.0000      -4.396343      -119.6306
  16   1.0000      -4.395963      -119.6202
  17   1.0000      -4.389437      -119.4427
  18   1.0000      -4.387634      -119.3936
  19   1.0000      -3.324626       -90.4677
  20   1.0000      -2.527309       -68.7716
  21   1.0000      -2.527032       -68.7640
  22   1.0000      -2.524992       -68.7085
  23   1.0000      -2.524617       -68.6983
  24   1.0000      -2.524154       -68.6857
  25   1.0000      -2.522871       -68.6508
  26   1.0000      -2.522649       -68.6448
  27   1.0000      -2.521424       -68.6114
  28   1.0000      -2.521188       -68.6050
  29   1.0000      -2.520908       -68.5974
  30   1.0000      -2.520758       -68.5933
  31   1.0000      -2.520519       -68.5868
  32   1.0000      -2.520228       -68.5789
  33   1.0000      -2.519498       -68.5590
  34   1.0000      -2.519011       -68.5458
  35   1.0000      -2.518876       -68.5421
  36   1.0000      -2.518639       -68.5356
  37   1.0000      -2.518305       -68.5266
  38   1.0000      -2.517897       -68.5155
  39   1.0000      -2.517665       -68.5091
  40   1.0000      -2.517539       -68.5057
  41   1.0000      -2.517005       -68.4912
  42   1.0000      -2.515930       -68.4619
  43   1.0000      -2.515860       -68.4600
  44   1.0000      -2.515669       -68.4548
  45   1.0000      -2.515052       -68.4381
  46   1.0000      -2.514999       -68.4366
  47   1.0000      -2.514651       -68.4271
  48   1.0000      -2.513885       -68.4063
  49   1.0000      -2.513117       -68.3854
  50   1.0000      -2.513005       -68.3823
  51   1.0000      -2.512632       -68.3722
  52   1.0000      -2.512184       -68.3600
  53   1.0000      -2.511900       -68.3523
  54   1.0000      -2.511651       -68.3455
  55   1.0000      -2.510855       -68.3238
  56   1.0000      -2.507132       -68.2225
  57   1.0000      -2.506159       -68.1960
  58   1.0000      -2.505742       -68.1847
  59   1.0000      -2.505204       -68.1701
  60   1.0000      -2.504498       -68.1509
  61   1.0000      -2.503416       -68.1214
  62   1.0000      -2.086666       -56.7811
  63   1.0000      -2.085522       -56.7499
  64   1.0000      -2.084546       -56.7234
  65   1.0000      -0.512582       -13.9481
  66   1.0000      -0.471994       -12.8436
  67   1.0000      -0.470949       -12.8152
  68   1.0000      -0.468890       -12.7591
  69   1.0000      -0.465296       -12.6613
  70   1.0000      -0.464053       -12.6275
  71   1.0000      -0.463479       -12.6119
  72   1.0000      -0.462858       -12.5950
  73   1.0000      -0.461576       -12.5601
  74   1.0000      -0.460965       -12.5435
  75   1.0000      -0.459306       -12.4984
  76   1.0000      -0.458523       -12.4770
  77   1.0000      -0.457609       -12.4522
  78   1.0000      -0.455763       -12.4019
  79   1.0000      -0.454606       -12.3704
  80   1.0000      -0.453600       -12.3431
  81   1.0000      -0.452227       -12.3057
  82   1.0000      -0.451023       -12.2730
  83   1.0000      -0.450301       -12.2533
  84   1.0000      -0.448714       -12.2101
  85   1.0000      -0.445500       -12.1227
  86   1.0000      -0.443371       -12.0647
  87   1.0000      -0.439374       -11.9560
  88   1.0000      -0.430310       -11.7093
  89   1.0000      -0.430011       -11.7012
  90   1.0000      -0.427635       -11.6365
  91   1.0000      -0.426200       -11.5975
  92   1.0000      -0.424162       -11.5420
  93   1.0000      -0.418011       -11.3747
  94   1.0000      -0.416419       -11.3313
  95   1.0000      -0.413926       -11.2635
  96   1.0000      -0.411566       -11.1993
  97   1.0000      -0.409552       -11.1445
  98   1.0000      -0.406340       -11.0571
  99   1.0000      -0.401933       -10.9372
 100   1.0000      -0.399710       -10.8767
 101   1.0000      -0.396580       -10.7915
 102   1.0000      -0.393674       -10.7124
 103   1.0000      -0.389508       -10.5991
 104   1.0000      -0.387943       -10.5565
 105   1.0000      -0.384759       -10.4698
 106   1.0000      -0.378656       -10.3038
 107   1.0000      -0.376258       -10.2385
 108   1.0000      -0.375215       -10.2101
 109   1.0000      -0.374761       -10.1978
 110   1.0000      -0.372727       -10.1424
 111   1.0000      -0.371697       -10.1144
 112   1.0000      -0.370993       -10.0952
 113   1.0000      -0.368788       -10.0352
 114   1.0000      -0.367463        -9.9992
 115   1.0000      -0.367238        -9.9930
 116   1.0000      -0.366733        -9.9793
 117   1.0000      -0.363083        -9.8800
 118   1.0000      -0.362421        -9.8620
 119   1.0000      -0.358909        -9.7664
 120   1.0000      -0.357873        -9.7382
 121   1.0000      -0.356490        -9.7006
 122   1.0000      -0.354436        -9.6447
 123   1.0000      -0.353044        -9.6068
 124   1.0000      -0.351274        -9.5586
 125   1.0000      -0.349103        -9.4996
 126   1.0000      -0.347634        -9.4596
 127   1.0000      -0.347165        -9.4468
 128   1.0000      -0.345604        -9.4044
 129   1.0000      -0.344239        -9.3672
 130   1.0000      -0.340433        -9.2637
 131   1.0000      -0.338653        -9.2152
 132   1.0000      -0.335909        -9.1405
 133   1.0000      -0.333219        -9.0673
 134   1.0000      -0.327935        -8.9236
 135   1.0000      -0.322754        -8.7826
 136   1.0000      -0.322018        -8.7626
 137   1.0000      -0.320457        -8.7201
 138   1.0000      -0.315150        -8.5757
 139   1.0000      -0.242612        -6.6018
 140   1.0000      -0.231604        -6.3023
 141   1.0000      -0.226680        -6.1683
 142   1.0000      -0.224713        -6.1148
 143   1.0000      -0.220013        -5.9869
 144   0.0000      -0.081714        -2.2235
 145   0.0000      -0.060614        -1.6494
 146   0.0000      -0.056892        -1.5481
 147   0.0000      -0.051623        -1.4047
 148   0.0000      -0.049137        -1.3371

MULLIKEN ATOMIC CHARGES AND SPIN POPULATIONS
--------------------------------------------
   0 Au:    0.242120   -0.012390
   1 Au:    0.172012   -0.016436
   2 Au:    0.064854   -0.247436
   3 Au:    0.236816   -0.113780
   4 Au:    0.184273   -0.050394
   5 Au:    0.236603    0.026101
   6 Au:    0.067492   -0.093561
   7 Au:    0.128075   -0.152127
   8 Au:    0.185066   -0.074652
   9 Au:    0.154586   -0.167101
  10 Au:    0.228955   -0.129106
  11 Au:    0.233812   -0.182612
  12 Au:    0.232076   -0.075584
  13 Au:    0.211990   -0.101260
  14 Mn:   -2.578732    4.390336
Sum of atomic charges         :    0.0000000

LOEWDIN ATOMIC CHARGES AND SPIN POPULATIONS
-------------------------------------------
   0 Au:    0.068971   -0.064600
   1 Au:    0.006743   -0.068274
   2 Au:   -0.008261   -0.142994
   3 Au:    0.073085   -0.134059
   4 Au:   -0.015514   -0.047021
   5 Au:    0.080009   -0.056966
   6 Au:   -0.014547   -0.077945
   7 Au:    0.014599   -0.116365
   8 Au:    0.070165   -0.143173
   9 Au:    0.009311   -0.107969
  10 Au:    0.054385   -0.150015
  11 Au:    0.015655   -0.112554
  12 Au:    0.039141   -0.112139
  13 Au:    0.040544   -0.102518
  14 Mn:   -0.434286    4.436593

  Mayer bond orders larger than 0.100000
B(  0-Au,  1-Au) :   0.2370 B(  0-Au,  2-Au) :   0.2126 B(  0-Au,  6-Au) :   0.2785
B(  0-Au,  7-Au) :   0.2540 B(  0-Au, 14-Mn) :   0.2146 B(  1-Au,  2-Au) :   0.2000
B(  1-Au,  7-Au) :   0.1888 B(  1-Au,  8-Au) :   0.1704 B(  1-Au, 11-Au) :   0.2322
B(  1-Au, 14-Mn) :   0.2988 B(  2-Au,  5-Au) :   0.3104 B(  2-Au,  6-Au) :   0.2122
B(  2-Au,  8-Au) :   0.1134 B(  2-Au, 14-Mn) :   0.3754 B(  3-Au,  4-Au) :   0.1988
B(  3-Au,  6-Au) :   0.2072 B(  3-Au, 10-Au) :   0.1058 B(  3-Au, 14-Mn) :   0.5264
B(  4-Au,  5-Au) :   0.2141 B(  4-Au,  6-Au) :   0.1767 B(  4-Au,  9-Au) :   0.1716
B(  4-Au, 13-Au) :   0.2603 B(  4-Au, 14-Mn) :   0.3522 B(  5-Au,  6-Au) :   0.1198
B(  5-Au,  9-Au) :   0.3067 B(  5-Au, 14-Mn) :   0.2328 B(  6-Au, 14-Mn) :   0.4258
B(  7-Au, 10-Au) :   0.2325 B(  7-Au, 11-Au) :   0.1486 B(  7-Au, 14-Mn) :   0.4211
B(  8-Au, 11-Au) :   0.1480 B(  8-Au, 12-Au) :   0.1698 B(  8-Au, 14-Mn) :   0.5228
B(  9-Au, 12-Au) :   0.1871 B(  9-Au, 13-Au) :   0.1662 B(  9-Au, 14-Mn) :   0.4212
B( 10-Au, 11-Au) :   0.2069 B( 10-Au, 12-Au) :   0.1150 B( 10-Au, 13-Au) :   0.1778
B( 10-Au, 14-Mn) :   0.4027 B( 11-Au, 12-Au) :   0.1788 B( 11-Au, 14-Mn) :   0.3793
B( 12-Au, 13-Au) :   0.2194 B( 12-Au, 14-Mn) :   0.3850 B( 13-Au, 14-Mn) :   0.3667

MP2 TOTAL ENERGY:    -3049.068359446 Eh
FINAL SINGLE POINT ENERGY     -3049.068359446414

DIPOLE MOMENT
-------------
                                X             Y             Z
Electronic contribution:      2.27073      -5.56703       0.57322
Nuclear contribution   :     -2.24835       5.59390      -0.62898
                        -----------------------------------------
Total Dipole Moment    :      0.02238       0.02687      -0.05577
                        -----------------------------------------
Magnitude (a.u.)       :      0.06582
Magnitude (Debye)      :      0.16731

Rotational constants in cm-1:     0.001129     0.001103     0.000964
Rotational constants in MHz :    33.837069    33.061021    28.906723

                             ****ORCA TERMINATED NORMALLY****
TOTAL RUN TIME: 0 days 1 hours 34 minutes 45 seconds 536 msec
