                         Program Version 5.0.3 -  RELEASE  -
|  1> !PBE def2-TZVP VERYSLOWCONV
|  2> !KDIIS
|  3>
|  4> %scf
|  5>   AutoTRAHIter 200
|  6>   maxiter 400
|  7> end
|  8>
|  9>
| 10> %pal nprocs 6 end
| 11>
| 12> *xyzfile 0 6 pbe.xyz
| 13>
| 14> $new_job
| 15>
| 16> !PBE def2-TZVP VERYSLOWCONV
| 17> !KDIIS
| 18>
| 19> %scf
| 20>   AutoTRAHIter 200
| 21>   maxiter 400
| 22> end
| 23>
| 24>
| 25> %pal nprocs 6 end
| 26>
| 27> *xyzfile 0 4 pbe.xyz
| 28>
| 29>
| 30>
| 31>
| 32>
| 33>                          ****END OF INPUT****
 Total Charge           Charge          ....    0
 Multiplicity           Mult            ....    6
 Number of Electrons    NEL             ....  291
FINAL SINGLE POINT ENERGY     -3052.359173292167

CARTESIAN COORDINATES (ANGSTROEM)
---------------------------------
  Au    10.141559    6.062446    7.325908
  Au     8.929715    6.467295    4.871551
  Au     7.498457    5.065640    6.825714
  Au     8.112620    9.171542    9.115041
  Au     5.812080    7.698489    9.696937
  Au     5.549626    5.090994    8.730824
  Au     8.208022    6.383200    9.236496
  Au     9.580498    8.685439    6.632091
  Au     6.077009    6.523351    4.822625
  Au     4.465147    7.092544    7.205922
  Au     7.463465   10.514713    6.665270
  Au     7.716857    8.873040    4.446776
  Au     5.122620    9.122646    5.395206
  Au     5.165619    9.781208    8.075575
  Mn     7.070067    7.762721    7.057478

 Multiplicity           Mult            ....    4
 Number of Electrons    NEL             ....  291
 Basis Dimension        Dim             ....  605

ORBITAL ENERGIES
----------------
                 SPIN UP ORBITALS
  NO   OCC          E(Eh)            E(eV)
   0   1.0000    -234.207754     -6373.1170
   1   1.0000     -26.901141      -732.0173
   2   1.0000     -23.050479      -627.2354
   3   1.0000     -23.049945      -627.2209
   4   1.0000     -23.048959      -627.1941
   5   1.0000      -4.037411      -109.8635
   6   1.0000      -4.033525      -109.7578
   7   1.0000      -4.032740      -109.7364
   8   1.0000      -4.031490      -109.7024
   9   1.0000      -4.030434      -109.6737
  10   1.0000      -4.030402      -109.6728
  11   1.0000      -4.029435      -109.6465
  12   1.0000      -4.029250      -109.6415
  13   1.0000      -4.029114      -109.6378
  14   1.0000      -4.027045      -109.5815
  15   1.0000      -4.026737      -109.5731
  16   1.0000      -4.024625      -109.5156
  17   1.0000      -4.019295      -109.3706
  18   1.0000      -4.018435      -109.3472
  19   1.0000      -3.109671       -84.6185
  20   1.0000      -2.251896       -61.2772
  21   1.0000      -2.251406       -61.2639
  22   1.0000      -2.249137       -61.2021
  23   1.0000      -2.249098       -61.2011
  24   1.0000      -2.248461       -61.1837
  25   1.0000      -2.247436       -61.1558
  26   1.0000      -2.246681       -61.1353
  27   1.0000      -2.246009       -61.1170
  28   1.0000      -2.245878       -61.1134
  29   1.0000      -2.245103       -61.0924
  30   1.0000      -2.244904       -61.0869
  31   1.0000      -2.244792       -61.0839
  32   1.0000      -2.244654       -61.0801
  33   1.0000      -2.243914       -61.0600
  34   1.0000      -2.243746       -61.0554
  35   1.0000      -2.243527       -61.0495
  36   1.0000      -2.243222       -61.0412
  37   1.0000      -2.242987       -61.0348
  38   1.0000      -2.242790       -61.0294
  39   1.0000      -2.242413       -61.0192
  40   1.0000      -2.242269       -61.0153
  41   1.0000      -2.241863       -61.0042
  42   1.0000      -2.241393       -60.9914
  43   1.0000      -2.241053       -60.9821
  44   1.0000      -2.240938       -60.9790
  45   1.0000      -2.240660       -60.9714
  46   1.0000      -2.240522       -60.9677
  47   1.0000      -2.240300       -60.9617
  48   1.0000      -2.239697       -60.9452
  49   1.0000      -2.239133       -60.9299
  50   1.0000      -2.238796       -60.9207
  51   1.0000      -2.237676       -60.8902
  52   1.0000      -2.237522       -60.8861
  53   1.0000      -2.237486       -60.8851
  54   1.0000      -2.236909       -60.8694
  55   1.0000      -2.235474       -60.8303
  56   1.0000      -2.232529       -60.7502
  57   1.0000      -2.232139       -60.7396
  58   1.0000      -2.231975       -60.7351
  59   1.0000      -2.231575       -60.7242
  60   1.0000      -2.231082       -60.7108
  61   1.0000      -2.229700       -60.6732
  62   1.0000      -2.013457       -54.7890
  63   1.0000      -2.012628       -54.7664
  64   1.0000      -2.010854       -54.7181
  65   1.0000      -0.437548       -11.9063
  66   1.0000      -0.390055       -10.6139
  67   1.0000      -0.389143       -10.5891
  68   1.0000      -0.382771       -10.4157
  69   1.0000      -0.375518       -10.2184
  70   1.0000      -0.374111       -10.1801
  71   1.0000      -0.371804       -10.1173
  72   1.0000      -0.371020       -10.0960
  73   1.0000      -0.366919        -9.9844
  74   1.0000      -0.364518        -9.9190
  75   1.0000      -0.357364        -9.7244
  76   1.0000      -0.354215        -9.6387
  77   1.0000      -0.353029        -9.6064
  78   1.0000      -0.352777        -9.5995
  79   1.0000      -0.350822        -9.5464
  80   1.0000      -0.350635        -9.5413
  81   1.0000      -0.347752        -9.4628
  82   1.0000      -0.347404        -9.4533
  83   1.0000      -0.345729        -9.4078
  84   1.0000      -0.345009        -9.3882
  85   1.0000      -0.342802        -9.3281
  86   1.0000      -0.339955        -9.2507
  87   1.0000      -0.335695        -9.1347
  88   1.0000      -0.332273        -9.0416
  89   1.0000      -0.331211        -9.0127
  90   1.0000      -0.328864        -8.9489
  91   1.0000      -0.327273        -8.9056
  92   1.0000      -0.325537        -8.8583
  93   1.0000      -0.319608        -8.6970
  94   1.0000      -0.316289        -8.6067
  95   1.0000      -0.315162        -8.5760
  96   1.0000      -0.314340        -8.5536
  97   1.0000      -0.310172        -8.4402
  98   1.0000      -0.308639        -8.3985
  99   1.0000      -0.307057        -8.3554
 100   1.0000      -0.306717        -8.3462
 101   1.0000      -0.301593        -8.2068
 102   1.0000      -0.300183        -8.1684
 103   1.0000      -0.295816        -8.0496
 104   1.0000      -0.294221        -8.0062
 105   1.0000      -0.289073        -7.8661
 106   1.0000      -0.285824        -7.7777
 107   1.0000      -0.285466        -7.7679
 108   1.0000      -0.282599        -7.6899
 109   1.0000      -0.280499        -7.6328
 110   1.0000      -0.278971        -7.5912
 111   1.0000      -0.276515        -7.5244
 112   1.0000      -0.275545        -7.4979
 113   1.0000      -0.273817        -7.4509
 114   1.0000      -0.273045        -7.4299
 115   1.0000      -0.271711        -7.3936
 116   1.0000      -0.270248        -7.3538
 117   1.0000      -0.268985        -7.3194
 118   1.0000      -0.267549        -7.2804
 119   1.0000      -0.265316        -7.2196
 120   1.0000      -0.263716        -7.1761
 121   1.0000      -0.263190        -7.1618
 122   1.0000      -0.260314        -7.0835
 123   1.0000      -0.259413        -7.0590
 124   1.0000      -0.258747        -7.0409
 125   1.0000      -0.257612        -7.0100
 126   1.0000      -0.256712        -6.9855
 127   1.0000      -0.255346        -6.9483
 128   1.0000      -0.253864        -6.9080
 129   1.0000      -0.252891        -6.8815
 130   1.0000      -0.252208        -6.8629
 131   1.0000      -0.251791        -6.8516
 132   1.0000      -0.250850        -6.8260
 133   1.0000      -0.249084        -6.7779
 134   1.0000      -0.248886        -6.7725
 135   1.0000      -0.247260        -6.7283
 136   1.0000      -0.246564        -6.7094
 137   1.0000      -0.245993        -6.6938
 138   1.0000      -0.244721        -6.6592
 139   1.0000      -0.242896        -6.6095
 140   1.0000      -0.241984        -6.5847
 141   1.0000      -0.241218        -6.5639
 142   1.0000      -0.238683        -6.4949
 143   1.0000      -0.234480        -6.3805
 144   1.0000      -0.213106        -5.7989
 145   1.0000      -0.201815        -5.4917
 146   1.0000      -0.196325        -5.3423
 147   0.0000      -0.190135        -5.1738
 148   0.0000      -0.186616        -5.0781
 149   0.0000      -0.143138        -3.8950
 150   0.0000      -0.125846        -3.4244
 151   0.0000      -0.121505        -3.3063

                 SPIN DOWN ORBITALS
  NO   OCC          E(Eh)            E(eV)
   0   1.0000    -234.207071     -6373.0984
   1   1.0000     -26.835890      -730.2417
   2   1.0000     -23.001878      -625.9129
   3   1.0000     -23.000113      -625.8649
   4   1.0000     -22.998765      -625.8282
   5   1.0000      -4.037167      -109.8569
   6   1.0000      -4.033270      -109.7509
   7   1.0000      -4.032446      -109.7284
   8   1.0000      -4.031590      -109.7051
   9   1.0000      -4.031132      -109.6927
  10   1.0000      -4.030403      -109.6728
  11   1.0000      -4.029602      -109.6510
  12   1.0000      -4.029555      -109.6498
  13   1.0000      -4.029015      -109.6351
  14   1.0000      -4.027446      -109.5924
  15   1.0000      -4.026752      -109.5735
  16   1.0000      -4.025181      -109.5308
  17   1.0000      -4.020283      -109.3975
  18   1.0000      -4.019513      -109.3765
  19   1.0000      -2.949790       -80.2679
  20   1.0000      -2.251682       -61.2714
  21   1.0000      -2.250792       -61.2472
  22   1.0000      -2.248811       -61.1933
  23   1.0000      -2.248720       -61.1908
  24   1.0000      -2.248465       -61.1838
  25   1.0000      -2.247347       -61.1534
  26   1.0000      -2.246964       -61.1430
  27   1.0000      -2.246214       -61.1226
  28   1.0000      -2.245450       -61.1018
  29   1.0000      -2.245392       -61.1002
  30   1.0000      -2.245038       -61.0906
  31   1.0000      -2.244848       -61.0854
  32   1.0000      -2.244667       -61.0805
  33   1.0000      -2.244018       -61.0628
  34   1.0000      -2.243891       -61.0594
  35   1.0000      -2.243508       -61.0489
  36   1.0000      -2.243318       -61.0438
  37   1.0000      -2.243142       -61.0390
  38   1.0000      -2.242839       -61.0307
  39   1.0000      -2.242496       -61.0214
  40   1.0000      -2.242302       -61.0161
  41   1.0000      -2.242035       -61.0089
  42   1.0000      -2.241522       -60.9949
  43   1.0000      -2.241473       -60.9936
  44   1.0000      -2.241187       -60.9858
  45   1.0000      -2.240841       -60.9764
  46   1.0000      -2.240589       -60.9695
  47   1.0000      -2.240472       -60.9663
  48   1.0000      -2.240215       -60.9594
  49   1.0000      -2.239455       -60.9387
  50   1.0000      -2.239058       -60.9279
  51   1.0000      -2.238395       -60.9098
  52   1.0000      -2.237912       -60.8967
  53   1.0000      -2.237731       -60.8918
  54   1.0000      -2.236785       -60.8660
  55   1.0000      -2.236127       -60.8481
  56   1.0000      -2.233544       -60.7778
  57   1.0000      -2.233394       -60.7737
  58   1.0000      -2.233216       -60.7689
  59   1.0000      -2.232749       -60.7562
  60   1.0000      -2.232003       -60.7359
  61   1.0000      -2.230778       -60.7026
  62   1.0000      -1.858736       -50.5788
  63   1.0000      -1.854940       -50.4755
  64   1.0000      -1.852434       -50.4073
  65   1.0000      -0.431673       -11.7464
  66   1.0000      -0.389491       -10.5986
  67   1.0000      -0.388780       -10.5792
  68   1.0000      -0.381895       -10.3919
  69   1.0000      -0.369300       -10.0492
  70   1.0000      -0.368060       -10.0154
  71   1.0000      -0.365675        -9.9505
  72   1.0000      -0.365396        -9.9429
  73   1.0000      -0.363071        -9.8797
  74   1.0000      -0.362329        -9.8595
  75   1.0000      -0.358009        -9.7419
  76   1.0000      -0.354023        -9.6335
  77   1.0000      -0.353840        -9.6285
  78   1.0000      -0.353164        -9.6101
  79   1.0000      -0.351971        -9.5776
  80   1.0000      -0.351004        -9.5513
  81   1.0000      -0.348283        -9.4773
  82   1.0000      -0.347529        -9.4567
  83   1.0000      -0.346043        -9.4163
  84   1.0000      -0.345730        -9.4078
  85   1.0000      -0.342620        -9.3232
  86   1.0000      -0.340166        -9.2564
  87   1.0000      -0.336342        -9.1523
  88   1.0000      -0.331870        -9.0307
  89   1.0000      -0.329737        -8.9726
  90   1.0000      -0.327726        -8.9179
  91   1.0000      -0.327490        -8.9115
  92   1.0000      -0.324874        -8.8403
  93   1.0000      -0.317484        -8.6392
  94   1.0000      -0.316159        -8.6031
  95   1.0000      -0.314197        -8.5497
  96   1.0000      -0.311328        -8.4717
  97   1.0000      -0.309855        -8.4316
  98   1.0000      -0.307380        -8.3642
  99   1.0000      -0.305152        -8.3036
 100   1.0000      -0.301782        -8.2119
 101   1.0000      -0.300543        -8.1782
 102   1.0000      -0.298886        -8.1331
 103   1.0000      -0.292536        -7.9603
 104   1.0000      -0.290064        -7.8930
 105   1.0000      -0.288984        -7.8636
 106   1.0000      -0.285145        -7.7592
 107   1.0000      -0.283081        -7.7030
 108   1.0000      -0.280800        -7.6410
 109   1.0000      -0.278789        -7.5862
 110   1.0000      -0.277458        -7.5500
 111   1.0000      -0.276532        -7.5248
 112   1.0000      -0.276012        -7.5107
 113   1.0000      -0.274190        -7.4611
 114   1.0000      -0.272622        -7.4184
 115   1.0000      -0.272213        -7.4073
 116   1.0000      -0.271256        -7.3813
 117   1.0000      -0.269671        -7.3381
 118   1.0000      -0.267743        -7.2857
 119   1.0000      -0.264969        -7.2102
 120   1.0000      -0.263967        -7.1829
 121   1.0000      -0.262888        -7.1536
 122   1.0000      -0.260438        -7.0869
 123   1.0000      -0.259875        -7.0715
 124   1.0000      -0.258944        -7.0462
 125   1.0000      -0.257625        -7.0103
 126   1.0000      -0.256405        -6.9771
 127   1.0000      -0.255103        -6.9417
 128   1.0000      -0.253770        -6.9054
 129   1.0000      -0.252879        -6.8812
 130   1.0000      -0.251458        -6.8425
 131   1.0000      -0.250523        -6.8171
 132   1.0000      -0.248084        -6.7507
 133   1.0000      -0.247416        -6.7325
 134   1.0000      -0.246371        -6.7041
 135   1.0000      -0.245529        -6.6812
 136   1.0000      -0.243376        -6.6226
 137   1.0000      -0.241072        -6.5599
 138   1.0000      -0.236804        -6.4438
 139   1.0000      -0.219958        -5.9854
 140   1.0000      -0.212172        -5.7735
 141   1.0000      -0.208176        -5.6647
 142   1.0000      -0.204539        -5.5658
 143   1.0000      -0.201519        -5.4836
 144   0.0000      -0.143772        -3.9122
 145   0.0000      -0.134243        -3.6529
 146   0.0000      -0.132447        -3.6041
 147   0.0000      -0.130839        -3.5603
 148   0.0000      -0.130187        -3.5426

MULLIKEN ATOMIC CHARGES AND SPIN POPULATIONS
--------------------------------------------
   0 Au:    0.277207   -0.033765
   1 Au:    0.201539   -0.023853
   2 Au:    0.071486   -0.161104
   3 Au:    0.287410   -0.064538
   4 Au:    0.210068   -0.032936
   5 Au:    0.275411   -0.012476
   6 Au:    0.078883   -0.030749
   7 Au:    0.157769   -0.094533
   8 Au:    0.243267   -0.044876
   9 Au:    0.179811   -0.109491
  10 Au:    0.271232   -0.082558
  11 Au:    0.240980   -0.127756
  12 Au:    0.267464   -0.044497
  13 Au:    0.234889   -0.062280
  14 Mn:   -2.997417    3.925411
Sum of atomic charges         :    0.0000000

LOEWDIN ATOMIC CHARGES AND SPIN POPULATIONS
-------------------------------------------
   0 Au:    0.069152   -0.067066
   1 Au:    0.020449   -0.059536
   2 Au:    0.012168   -0.093846
   3 Au:    0.088766   -0.077890
   4 Au:    0.003314   -0.026380
   5 Au:    0.082271   -0.067502
   6 Au:    0.005178   -0.037396
   7 Au:    0.038979   -0.072449
   8 Au:    0.083919   -0.089559
   9 Au:    0.034938   -0.068513
  10 Au:    0.067278   -0.101317
  11 Au:    0.032047   -0.086919
  12 Au:    0.050125   -0.073052
  13 Au:    0.053008   -0.075181
  14 Mn:   -0.641593    3.996604

  Mayer bond orders larger than 0.100000
B(  0-Au,  1-Au) :   0.2635 B(  0-Au,  2-Au) :   0.2422 B(  0-Au,  6-Au) :   0.3203
B(  0-Au,  7-Au) :   0.2922 B(  0-Au, 14-Mn) :   0.2003 B(  1-Au,  2-Au) :   0.2408
B(  1-Au,  7-Au) :   0.1954 B(  1-Au,  8-Au) :   0.1903 B(  1-Au, 11-Au) :   0.2769
B(  1-Au, 14-Mn) :   0.2939 B(  2-Au,  5-Au) :   0.3554 B(  2-Au,  6-Au) :   0.2123
B(  2-Au,  8-Au) :   0.1379 B(  2-Au, 14-Mn) :   0.4204 B(  3-Au,  4-Au) :   0.2174
B(  3-Au,  6-Au) :   0.2291 B(  3-Au,  7-Au) :   0.1048 B(  3-Au, 10-Au) :   0.1344
B(  3-Au, 14-Mn) :   0.5508 B(  4-Au,  5-Au) :   0.2494 B(  4-Au,  6-Au) :   0.2125
B(  4-Au,  9-Au) :   0.1761 B(  4-Au, 13-Au) :   0.3040 B(  4-Au, 14-Mn) :   0.3526
B(  5-Au,  6-Au) :   0.1502 B(  5-Au,  9-Au) :   0.3336 B(  5-Au, 14-Mn) :   0.2183
B(  6-Au, 14-Mn) :   0.4492 B(  7-Au, 10-Au) :   0.2533 B(  7-Au, 11-Au) :   0.1737
B(  7-Au, 14-Mn) :   0.4590 B(  8-Au,  9-Au) :   0.1015 B(  8-Au, 11-Au) :   0.1684
B(  8-Au, 12-Au) :   0.2014 B(  8-Au, 14-Mn) :   0.5368 B(  9-Au, 12-Au) :   0.2211
B(  9-Au, 13-Au) :   0.1871 B(  9-Au, 14-Mn) :   0.4611 B( 10-Au, 11-Au) :   0.2397
B( 10-Au, 12-Au) :   0.1207 B( 10-Au, 13-Au) :   0.2161 B( 10-Au, 14-Mn) :   0.4192
B( 11-Au, 12-Au) :   0.2195 B( 11-Au, 14-Mn) :   0.3957 B( 12-Au, 13-Au) :   0.2427
B( 12-Au, 14-Mn) :   0.3900 B( 13-Au, 14-Mn) :   0.3872

FINAL SINGLE POINT ENERGY     -3052.369269539264

DIPOLE MOMENT
-------------
                                X             Y             Z
Electronic contribution:      2.26824      -5.60968       0.58810
Nuclear contribution   :     -2.24835       5.59390      -0.62898
                        -----------------------------------------
Total Dipole Moment    :      0.01990      -0.01579      -0.04088
                        -----------------------------------------
Magnitude (a.u.)       :      0.04813
Magnitude (Debye)      :      0.12233

Rotational constants in cm-1:     0.001129     0.001103     0.000964
Rotational constants in MHz :    33.837069    33.061021    28.906723

                             ****ORCA TERMINATED NORMALLY****
TOTAL RUN TIME: 0 days 0 hours 10 minutes 50 seconds 141 msec
