                         Program Version 5.0.3 -  RELEASE  -
|  1> !R2SCAN def2-TZVP VERYSLOWCONV
|  2> !KDIIS
|  3> %scf
|  4>   AutoTRAHIter 200
|  5>   maxiter 400
|  6> end
|  7>
|  8> %pal nprocs 6 end
|  9>
| 10> *xyzfile 0 6 pbe.xyz
| 11>
| 12> $new_job
| 13>
| 14> !R2SCAN def2-TZVP VERYSLOWCONV
| 15> !KDIIS
| 16> %scf
| 17>   AutoTRAHIter 200
| 18>   maxiter 400
| 19> end
| 20>
| 21>
| 22> %pal nprocs 6 end
| 23>
| 24> *xyzfile 0 4 pbe.xyz
| 25>
| 26>
| 27>
| 28>
| 29>
| 30>                          ****END OF INPUT****
 Total Charge           Charge          ....    0
 Multiplicity           Mult            ....    6
 Number of Electrons    NEL             ....  291
FINAL SINGLE POINT ENERGY     -3052.860124778822

CARTESIAN COORDINATES (ANGSTROEM)
---------------------------------
  Au    10.141559    6.062446    7.325908
  Au     8.929715    6.467295    4.871551
  Au     7.498457    5.065640    6.825714
  Au     8.112620    9.171542    9.115041
  Au     5.812080    7.698489    9.696937
  Au     5.549626    5.090994    8.730824
  Au     8.208022    6.383200    9.236496
  Au     9.580498    8.685439    6.632091
  Au     6.077009    6.523351    4.822625
  Au     4.465147    7.092544    7.205922
  Au     7.463465   10.514713    6.665270
  Au     7.716857    8.873040    4.446776
  Au     5.122620    9.122646    5.395206
  Au     5.165619    9.781208    8.075575
  Mn     7.070067    7.762721    7.057478

 Multiplicity           Mult            ....    4
 Number of Electrons    NEL             ....  291
 Basis Dimension        Dim             ....  605

ORBITAL ENERGIES
----------------
                 SPIN UP ORBITALS
  NO   OCC          E(Eh)            E(eV)
   0   1.0000    -235.049863     -6396.0319
   1   1.0000     -27.226790      -740.8786
   2   1.0000     -23.274137      -633.3215
   3   1.0000     -23.273769      -633.3115
   4   1.0000     -23.273082      -633.2928
   5   1.0000      -4.128612      -112.3452
   6   1.0000      -4.124639      -112.2371
   7   1.0000      -4.123897      -112.2169
   8   1.0000      -4.122821      -112.1877
   9   1.0000      -4.121177      -112.1429
  10   1.0000      -4.121176      -112.1429
  11   1.0000      -4.120615      -112.1276
  12   1.0000      -4.120259      -112.1180
  13   1.0000      -4.120068      -112.1127
  14   1.0000      -4.118381      -112.0669
  15   1.0000      -4.117375      -112.0395
  16   1.0000      -4.115474      -111.9877
  17   1.0000      -4.109937      -111.8371
  18   1.0000      -4.108972      -111.8108
  19   1.0000      -3.248321       -88.3913
  20   1.0000      -2.316031       -63.0224
  21   1.0000      -2.315507       -63.0082
  22   1.0000      -2.313228       -62.9461
  23   1.0000      -2.313166       -62.9445
  24   1.0000      -2.312650       -62.9304
  25   1.0000      -2.311433       -62.8973
  26   1.0000      -2.310680       -62.8768
  27   1.0000      -2.309914       -62.8560
  28   1.0000      -2.309581       -62.8469
  29   1.0000      -2.309078       -62.8332
  30   1.0000      -2.309010       -62.8314
  31   1.0000      -2.308750       -62.8243
  32   1.0000      -2.308542       -62.8186
  33   1.0000      -2.307932       -62.8020
  34   1.0000      -2.307722       -62.7963
  35   1.0000      -2.307412       -62.7879
  36   1.0000      -2.307066       -62.7784
  37   1.0000      -2.306886       -62.7735
  38   1.0000      -2.306773       -62.7705
  39   1.0000      -2.306336       -62.7586
  40   1.0000      -2.306130       -62.7530
  41   1.0000      -2.305655       -62.7401
  42   1.0000      -2.304909       -62.7198
  43   1.0000      -2.304789       -62.7165
  44   1.0000      -2.304650       -62.7127
  45   1.0000      -2.304296       -62.7031
  46   1.0000      -2.304199       -62.7004
  47   1.0000      -2.303761       -62.6885
  48   1.0000      -2.303519       -62.6819
  49   1.0000      -2.302900       -62.6651
  50   1.0000      -2.302150       -62.6447
  51   1.0000      -2.301253       -62.6203
  52   1.0000      -2.301118       -62.6166
  53   1.0000      -2.301008       -62.6136
  54   1.0000      -2.300957       -62.6122
  55   1.0000      -2.299101       -62.5617
  56   1.0000      -2.295740       -62.4703
  57   1.0000      -2.295436       -62.4620
  58   1.0000      -2.295080       -62.4523
  59   1.0000      -2.294810       -62.4449
  60   1.0000      -2.294469       -62.4357
  61   1.0000      -2.292907       -62.3932
  62   1.0000      -2.105990       -57.3069
  63   1.0000      -2.105432       -57.2917
  64   1.0000      -2.103517       -57.2396
  65   1.0000      -0.443181       -12.0596
  66   1.0000      -0.395790       -10.7700
  67   1.0000      -0.395138       -10.7522
  68   1.0000      -0.391320       -10.6483
  69   1.0000      -0.385773       -10.4974
  70   1.0000      -0.384708       -10.4684
  71   1.0000      -0.382902       -10.4193
  72   1.0000      -0.381469       -10.3803
  73   1.0000      -0.377816       -10.2809
  74   1.0000      -0.373498       -10.1634
  75   1.0000      -0.366785        -9.9807
  76   1.0000      -0.364040        -9.9060
  77   1.0000      -0.362857        -9.8738
  78   1.0000      -0.362046        -9.8518
  79   1.0000      -0.360285        -9.8039
  80   1.0000      -0.359851        -9.7920
  81   1.0000      -0.357461        -9.7270
  82   1.0000      -0.356825        -9.7097
  83   1.0000      -0.355461        -9.6726
  84   1.0000      -0.354557        -9.6480
  85   1.0000      -0.352489        -9.5917
  86   1.0000      -0.349592        -9.5129
  87   1.0000      -0.345341        -9.3972
  88   1.0000      -0.342992        -9.3333
  89   1.0000      -0.340310        -9.2603
  90   1.0000      -0.338443        -9.2095
  91   1.0000      -0.336495        -9.1565
  92   1.0000      -0.335448        -9.1280
  93   1.0000      -0.329722        -8.9722
  94   1.0000      -0.326513        -8.8849
  95   1.0000      -0.324791        -8.8380
  96   1.0000      -0.324064        -8.8182
  97   1.0000      -0.320160        -8.7120
  98   1.0000      -0.318507        -8.6670
  99   1.0000      -0.317675        -8.6444
 100   1.0000      -0.315644        -8.5891
 101   1.0000      -0.310473        -8.4484
 102   1.0000      -0.309057        -8.4099
 103   1.0000      -0.306710        -8.3460
 104   1.0000      -0.304137        -8.2760
 105   1.0000      -0.298893        -8.1333
 106   1.0000      -0.297720        -8.1014
 107   1.0000      -0.294522        -8.0143
 108   1.0000      -0.291852        -7.9417
 109   1.0000      -0.290249        -7.8981
 110   1.0000      -0.287889        -7.8339
 111   1.0000      -0.285452        -7.7676
 112   1.0000      -0.284206        -7.7336
 113   1.0000      -0.282460        -7.6861
 114   1.0000      -0.282014        -7.6740
 115   1.0000      -0.280496        -7.6327
 116   1.0000      -0.278611        -7.5814
 117   1.0000      -0.277049        -7.5389
 118   1.0000      -0.276708        -7.5296
 119   1.0000      -0.275386        -7.4936
 120   1.0000      -0.273707        -7.4479
 121   1.0000      -0.272189        -7.4066
 122   1.0000      -0.270264        -7.3543
 123   1.0000      -0.269132        -7.3234
 124   1.0000      -0.267729        -7.2853
 125   1.0000      -0.266909        -7.2630
 126   1.0000      -0.266175        -7.2430
 127   1.0000      -0.265007        -7.2112
 128   1.0000      -0.263282        -7.1643
 129   1.0000      -0.262131        -7.1330
 130   1.0000      -0.261117        -7.1053
 131   1.0000      -0.260649        -7.0926
 132   1.0000      -0.259573        -7.0633
 133   1.0000      -0.259044        -7.0489
 134   1.0000      -0.257324        -7.0021
 135   1.0000      -0.257180        -6.9982
 136   1.0000      -0.255979        -6.9655
 137   1.0000      -0.253720        -6.9041
 138   1.0000      -0.253460        -6.8970
 139   1.0000      -0.251535        -6.8446
 140   1.0000      -0.248921        -6.7735
 141   1.0000      -0.247978        -6.7478
 142   1.0000      -0.245754        -6.6873
 143   1.0000      -0.241769        -6.5789
 144   1.0000      -0.215520        -5.8646
 145   1.0000      -0.203482        -5.5370
 146   1.0000      -0.198169        -5.3925
 147   0.0000      -0.189219        -5.1489
 148   0.0000      -0.185526        -5.0484
 149   0.0000      -0.138752        -3.7756
 150   0.0000      -0.121799        -3.3143
 151   0.0000      -0.116855        -3.1798

                 SPIN DOWN ORBITALS
  NO   OCC          E(Eh)            E(eV)
   0   1.0000    -235.048872     -6396.0050
   1   1.0000     -27.139204      -738.4953
   2   1.0000     -23.207620      -631.5114
   3   1.0000     -23.206401      -631.4783
   4   1.0000     -23.205432      -631.4519
   5   1.0000      -4.128602      -112.3450
   6   1.0000      -4.124587      -112.2357
   7   1.0000      -4.123767      -112.2134
   8   1.0000      -4.123098      -112.1952
   9   1.0000      -4.122196      -112.1707
  10   1.0000      -4.121313      -112.1466
  11   1.0000      -4.120831      -112.1335
  12   1.0000      -4.120597      -112.1272
  13   1.0000      -4.120339      -112.1201
  14   1.0000      -4.118266      -112.0637
  15   1.0000      -4.118204      -112.0620
  16   1.0000      -4.116281      -112.0097
  17   1.0000      -4.111137      -111.8697
  18   1.0000      -4.110224      -111.8449
  19   1.0000      -3.039522       -82.7096
  20   1.0000      -2.315680       -63.0129
  21   1.0000      -2.315043       -62.9955
  22   1.0000      -2.313019       -62.9405
  23   1.0000      -2.312734       -62.9327
  24   1.0000      -2.312720       -62.9323
  25   1.0000      -2.311223       -62.8916
  26   1.0000      -2.311007       -62.8857
  27   1.0000      -2.309759       -62.8517
  28   1.0000      -2.309565       -62.8465
  29   1.0000      -2.309394       -62.8418
  30   1.0000      -2.309076       -62.8331
  31   1.0000      -2.308954       -62.8298
  32   1.0000      -2.308731       -62.8238
  33   1.0000      -2.308149       -62.8079
  34   1.0000      -2.307954       -62.8026
  35   1.0000      -2.307539       -62.7913
  36   1.0000      -2.307274       -62.7841
  37   1.0000      -2.307005       -62.7768
  38   1.0000      -2.306934       -62.7749
  39   1.0000      -2.306517       -62.7635
  40   1.0000      -2.306287       -62.7573
  41   1.0000      -2.305897       -62.7467
  42   1.0000      -2.305333       -62.7313
  43   1.0000      -2.305081       -62.7244
  44   1.0000      -2.304789       -62.7165
  45   1.0000      -2.304727       -62.7148
  46   1.0000      -2.304455       -62.7074
  47   1.0000      -2.304229       -62.7013
  48   1.0000      -2.304102       -62.6978
  49   1.0000      -2.303297       -62.6759
  50   1.0000      -2.302911       -62.6654
  51   1.0000      -2.301946       -62.6391
  52   1.0000      -2.301680       -62.6319
  53   1.0000      -2.301667       -62.6315
  54   1.0000      -2.300869       -62.6098
  55   1.0000      -2.299994       -62.5860
  56   1.0000      -2.297236       -62.5110
  57   1.0000      -2.296864       -62.5008
  58   1.0000      -2.296701       -62.4964
  59   1.0000      -2.296194       -62.4826
  60   1.0000      -2.295573       -62.4657
  61   1.0000      -2.294220       -62.4289
  62   1.0000      -1.899800       -51.6962
  63   1.0000      -1.897263       -51.6271
  64   1.0000      -1.895539       -51.5802
  65   1.0000      -0.438054       -11.9201
  66   1.0000      -0.395819       -10.7708
  67   1.0000      -0.395236       -10.7549
  68   1.0000      -0.389321       -10.5940
  69   1.0000      -0.377299       -10.2668
  70   1.0000      -0.376627       -10.2485
  71   1.0000      -0.374617       -10.1938
  72   1.0000      -0.373676       -10.1682
  73   1.0000      -0.371905       -10.1200
  74   1.0000      -0.371299       -10.1036
  75   1.0000      -0.367653       -10.0043
  76   1.0000      -0.363834        -9.9004
  77   1.0000      -0.363738        -9.8978
  78   1.0000      -0.362920        -9.8756
  79   1.0000      -0.361581        -9.8391
  80   1.0000      -0.360721        -9.8157
  81   1.0000      -0.358096        -9.7443
  82   1.0000      -0.357378        -9.7247
  83   1.0000      -0.355843        -9.6830
  84   1.0000      -0.355422        -9.6715
  85   1.0000      -0.352296        -9.5865
  86   1.0000      -0.349753        -9.5173
  87   1.0000      -0.346019        -9.4156
  88   1.0000      -0.341396        -9.2899
  89   1.0000      -0.339292        -9.2326
  90   1.0000      -0.337370        -9.1803
  91   1.0000      -0.337165        -9.1747
  92   1.0000      -0.334585        -9.1045
  93   1.0000      -0.326906        -8.8956
  94   1.0000      -0.325542        -8.8585
  95   1.0000      -0.323472        -8.8021
  96   1.0000      -0.320817        -8.7299
  97   1.0000      -0.319107        -8.6833
  98   1.0000      -0.316592        -8.6149
  99   1.0000      -0.314005        -8.5445
 100   1.0000      -0.310863        -8.4590
 101   1.0000      -0.309348        -8.4178
 102   1.0000      -0.307630        -8.3710
 103   1.0000      -0.301457        -8.2031
 104   1.0000      -0.299048        -8.1375
 105   1.0000      -0.297690        -8.1006
 106   1.0000      -0.293480        -7.9860
 107   1.0000      -0.291517        -7.9326
 108   1.0000      -0.289438        -7.8760
 109   1.0000      -0.287442        -7.8217
 110   1.0000      -0.286030        -7.7833
 111   1.0000      -0.285192        -7.7605
 112   1.0000      -0.284818        -7.7503
 113   1.0000      -0.282638        -7.6910
 114   1.0000      -0.281107        -7.6493
 115   1.0000      -0.281067        -7.6482
 116   1.0000      -0.279986        -7.6188
 117   1.0000      -0.277951        -7.5634
 118   1.0000      -0.276343        -7.5197
 119   1.0000      -0.273310        -7.4371
 120   1.0000      -0.272470        -7.4143
 121   1.0000      -0.271317        -7.3829
 122   1.0000      -0.268878        -7.3165
 123   1.0000      -0.268289        -7.3005
 124   1.0000      -0.267019        -7.2660
 125   1.0000      -0.265781        -7.2323
 126   1.0000      -0.264766        -7.2046
 127   1.0000      -0.263093        -7.1591
 128   1.0000      -0.262203        -7.1349
 129   1.0000      -0.260803        -7.0968
 130   1.0000      -0.258948        -7.0463
 131   1.0000      -0.258134        -7.0242
 132   1.0000      -0.255517        -6.9530
 133   1.0000      -0.254871        -6.9354
 134   1.0000      -0.253381        -6.8949
 135   1.0000      -0.252461        -6.8698
 136   1.0000      -0.250822        -6.8252
 137   1.0000      -0.248121        -6.7517
 138   1.0000      -0.243757        -6.6330
 139   1.0000      -0.222041        -6.0421
 140   1.0000      -0.213667        -5.8142
 141   1.0000      -0.209325        -5.6960
 142   1.0000      -0.205990        -5.6053
 143   1.0000      -0.202651        -5.5144
 144   0.0000      -0.138146        -3.7592
 145   0.0000      -0.126150        -3.4327
 146   0.0000      -0.120935        -3.2908
 147   0.0000      -0.117288        -3.1916
 148   0.0000      -0.114971        -3.1285

MULLIKEN ATOMIC CHARGES AND SPIN POPULATIONS
--------------------------------------------
   0 Au:    0.246977   -0.037561
   1 Au:    0.178119   -0.028730
   2 Au:    0.074401   -0.189927
   3 Au:    0.253808   -0.084858
   4 Au:    0.193800   -0.043032
   5 Au:    0.241454   -0.010473
   6 Au:    0.066310   -0.044655
   7 Au:    0.143127   -0.114167
   8 Au:    0.210393   -0.059211
   9 Au:    0.164940   -0.130571
  10 Au:    0.245567   -0.103557
  11 Au:    0.224491   -0.152597
  12 Au:    0.239530   -0.055271
  13 Au:    0.208416   -0.080278
  14 Mn:   -2.691334    4.134887
Sum of atomic charges         :    0.0000000

LOEWDIN ATOMIC CHARGES AND SPIN POPULATIONS
-------------------------------------------
   0 Au:    0.064814   -0.073680
   1 Au:    0.014602   -0.067367
   2 Au:    0.008073   -0.110941
   3 Au:    0.082767   -0.094685
   4 Au:   -0.002472   -0.035213
   5 Au:    0.076693   -0.071818
   6 Au:   -0.001189   -0.049413
   7 Au:    0.033360   -0.086936
   8 Au:    0.078165   -0.105970
   9 Au:    0.029325   -0.082359
  10 Au:    0.062323   -0.118802
  11 Au:    0.026834   -0.100771
  12 Au:    0.044654   -0.086040
  13 Au:    0.047017   -0.088563
  14 Mn:   -0.564967    4.172558

  Mayer bond orders larger than 0.100000
B(  0-Au,  1-Au) :   0.2509 B(  0-Au,  2-Au) :   0.2306 B(  0-Au,  6-Au) :   0.3118
B(  0-Au,  7-Au) :   0.2809 B(  0-Au, 14-Mn) :   0.1907 B(  1-Au,  2-Au) :   0.2227
B(  1-Au,  7-Au) :   0.1828 B(  1-Au,  8-Au) :   0.1802 B(  1-Au, 11-Au) :   0.2643
B(  1-Au, 14-Mn) :   0.2827 B(  2-Au,  5-Au) :   0.3497 B(  2-Au,  6-Au) :   0.1990
B(  2-Au,  8-Au) :   0.1285 B(  2-Au, 14-Mn) :   0.4087 B(  3-Au,  4-Au) :   0.2129
B(  3-Au,  6-Au) :   0.2291 B(  3-Au, 10-Au) :   0.1183 B(  3-Au, 14-Mn) :   0.5520
B(  4-Au,  5-Au) :   0.2319 B(  4-Au,  6-Au) :   0.1937 B(  4-Au,  9-Au) :   0.1626
B(  4-Au, 13-Au) :   0.2946 B(  4-Au, 14-Mn) :   0.3447 B(  5-Au,  6-Au) :   0.1318
B(  5-Au,  9-Au) :   0.3319 B(  5-Au, 14-Mn) :   0.2075 B(  6-Au, 14-Mn) :   0.4428
B(  7-Au, 10-Au) :   0.2507 B(  7-Au, 11-Au) :   0.1602 B(  7-Au, 14-Mn) :   0.4519
B(  8-Au, 11-Au) :   0.1580 B(  8-Au, 12-Au) :   0.1897 B(  8-Au, 14-Mn) :   0.5388
B(  9-Au, 12-Au) :   0.2086 B(  9-Au, 13-Au) :   0.1776 B(  9-Au, 14-Mn) :   0.4545
B( 10-Au, 11-Au) :   0.2302 B( 10-Au, 12-Au) :   0.1095 B( 10-Au, 13-Au) :   0.1994
B( 10-Au, 14-Mn) :   0.4097 B( 11-Au, 12-Au) :   0.2039 B( 11-Au, 14-Mn) :   0.3856
B( 12-Au, 13-Au) :   0.2332 B( 12-Au, 14-Mn) :   0.3819 B( 13-Au, 14-Mn) :   0.3735

FINAL SINGLE POINT ENERGY     -3052.868890261228

DIPOLE MOMENT
-------------
                                X             Y             Z
Electronic contribution:      2.26886      -5.59663       0.58230
Nuclear contribution   :     -2.24835       5.59390      -0.62898
                        -----------------------------------------
Total Dipole Moment    :      0.02051      -0.00274      -0.04668
                        -----------------------------------------
Magnitude (a.u.)       :      0.05106
Magnitude (Debye)      :      0.12979

Rotational constants in cm-1:     0.001129     0.001103     0.000964
Rotational constants in MHz :    33.837069    33.061021    28.906723

                             ****ORCA TERMINATED NORMALLY****
TOTAL RUN TIME: 0 days 0 hours 18 minutes 3 seconds 449 msec
