                         Program Version 5.0.3 -  RELEASE  -
|  1> !RI-B2PLYP def2-TZVP def2-TZVP/C
|  2> !RIJCOSX VERYSLOWCONV
|  3>
|  4> %scf
|  5>   AutoTRAHIter 200
|  6>   maxiter 400
|  7> end
|  8>
|  9>
| 10> %pal nprocs 6 end
| 11>
| 12> *xyzfile 0 5 pbe.xyz
| 13>
| 14> $new_job
| 15>
| 16> !RI-B2PLYP def2-TZVP def2-TZVP/C
| 17> !RIJCOSX VERYSLOWCONV
| 18>
| 19> %scf
| 20>   AutoTRAHIter 200
| 21>   maxiter 400
| 22> end
| 23>
| 24>
| 25> %pal nprocs 6 end
| 26>
| 27> *xyzfile 0 3 pbe.xyz
| 28>
| 29>
| 30>
| 31>
| 32>
| 33>                          ****END OF INPUT****
 Total Charge           Charge          ....    0
 Multiplicity           Mult            ....    5
 Number of Electrons    NEL             ....  216
MP2 TOTAL ENERGY:    -2619.358693692 Eh
FINAL SINGLE POINT ENERGY     -2619.358693692091

CARTESIAN COORDINATES (ANGSTROEM)
---------------------------------
  Au     6.989877    6.828196    7.636510
  Au     8.527556    4.771606    8.084420
  Au    10.162749    2.638091    8.111101
  Au     8.353427    8.042387    5.220853
  Au     6.022225    9.061814    6.371986
  Au     8.334218    9.430548    7.747540
  Au    10.687750    6.821280    5.077246
  Au    11.184208    4.826437    7.053060
  Au    12.376678    7.184855    7.373716
  Au    10.783326    9.033607    8.632733
  Fe     9.616086    7.066753    7.400963

 Multiplicity           Mult            ....    3
 Number of Electrons    NEL             ....  216
 Basis Dimension        Dim             ....  445

ORBITAL ENERGIES
----------------
                 SPIN UP ORBITALS
  NO   OCC          E(Eh)            E(eV)
   0   1.0000    -258.333204     -7029.6039
   1   1.0000     -30.895430      -840.7074
   2   1.0000     -26.612850      -724.1725
   3   1.0000     -26.587835      -723.4918
   4   1.0000     -26.579545      -723.2662
   5   1.0000      -4.404020      -119.8395
   6   1.0000      -4.399724      -119.7226
   7   1.0000      -4.397832      -119.6711
   8   1.0000      -4.397115      -119.6516
   9   1.0000      -4.396167      -119.6258
  10   1.0000      -4.392923      -119.5375
  11   1.0000      -4.392310      -119.5208
  12   1.0000      -4.389437      -119.4426
  13   1.0000      -4.388731      -119.4234
  14   1.0000      -4.374365      -119.0325
  15   1.0000      -3.907981      -106.3416
  16   1.0000      -2.656906       -72.2981
  17   1.0000      -2.604427       -70.8701
  18   1.0000      -2.587307       -70.4042
  19   1.0000      -2.525845       -68.7317
  20   1.0000      -2.524405       -68.6925
  21   1.0000      -2.521719       -68.6195
  22   1.0000      -2.520564       -68.5880
  23   1.0000      -2.519882       -68.5695
  24   1.0000      -2.517476       -68.5040
  25   1.0000      -2.517213       -68.4969
  26   1.0000      -2.515977       -68.4632
  27   1.0000      -2.515651       -68.4544
  28   1.0000      -2.515368       -68.4466
  29   1.0000      -2.514899       -68.4339
  30   1.0000      -2.514544       -68.4242
  31   1.0000      -2.514375       -68.4196
  32   1.0000      -2.511660       -68.3457
  33   1.0000      -2.510704       -68.3197
  34   1.0000      -2.510085       -68.3029
  35   1.0000      -2.509617       -68.2902
  36   1.0000      -2.509078       -68.2755
  37   1.0000      -2.508712       -68.2655
  38   1.0000      -2.508279       -68.2538
  39   1.0000      -2.508002       -68.2462
  40   1.0000      -2.507367       -68.2289
  41   1.0000      -2.505896       -68.1889
  42   1.0000      -2.504768       -68.1582
  43   1.0000      -2.503551       -68.1251
  44   1.0000      -2.500647       -68.0461
  45   1.0000      -2.499895       -68.0256
  46   1.0000      -2.494850       -67.8883
  47   1.0000      -2.490976       -67.7829
  48   1.0000      -2.486825       -67.6699
  49   1.0000      -0.556666       -15.1477
  50   1.0000      -0.551593       -15.0096
  51   1.0000      -0.545328       -14.8391
  52   1.0000      -0.528122       -14.3709
  53   1.0000      -0.492075       -13.3900
  54   1.0000      -0.484164       -13.1748
  55   1.0000      -0.476151       -12.9567
  56   1.0000      -0.464970       -12.6525
  57   1.0000      -0.461511       -12.5584
  58   1.0000      -0.452803       -12.3214
  59   1.0000      -0.448625       -12.2077
  60   1.0000      -0.444171       -12.0865
  61   1.0000      -0.439713       -11.9652
  62   1.0000      -0.436580       -11.8799
  63   1.0000      -0.434427       -11.8214
  64   1.0000      -0.430446       -11.7130
  65   1.0000      -0.430264       -11.7081
  66   1.0000      -0.425147       -11.5688
  67   1.0000      -0.418168       -11.3789
  68   1.0000      -0.417433       -11.3589
  69   1.0000      -0.410513       -11.1706
  70   1.0000      -0.406852       -11.0710
  71   1.0000      -0.405477       -11.0336
  72   1.0000      -0.400932       -10.9099
  73   1.0000      -0.396189       -10.7809
  74   1.0000      -0.394767       -10.7422
  75   1.0000      -0.390740       -10.6326
  76   1.0000      -0.390630       -10.6296
  77   1.0000      -0.387008       -10.5310
  78   1.0000      -0.385861       -10.4998
  79   1.0000      -0.384380       -10.4595
  80   1.0000      -0.382869       -10.4184
  81   1.0000      -0.378278       -10.2935
  82   1.0000      -0.376851       -10.2546
  83   1.0000      -0.372413       -10.1339
  84   1.0000      -0.371005       -10.0956
  85   1.0000      -0.370051       -10.0696
  86   1.0000      -0.369258       -10.0480
  87   1.0000      -0.366921        -9.9844
  88   1.0000      -0.366334        -9.9685
  89   1.0000      -0.364467        -9.9176
  90   1.0000      -0.362674        -9.8689
  91   1.0000      -0.360316        -9.8047
  92   1.0000      -0.359808        -9.7909
  93   1.0000      -0.358211        -9.7474
  94   1.0000      -0.352399        -9.5893
  95   1.0000      -0.351733        -9.5711
  96   1.0000      -0.349998        -9.5239
  97   1.0000      -0.348148        -9.4736
  98   1.0000      -0.344923        -9.3858
  99   1.0000      -0.340022        -9.2525
 100   1.0000      -0.335812        -9.1379
 101   1.0000      -0.333287        -9.0692
 102   1.0000      -0.327870        -8.9218
 103   1.0000      -0.321668        -8.7530
 104   1.0000      -0.318355        -8.6629
 105   1.0000      -0.311980        -8.4894
 106   1.0000      -0.293154        -7.9771
 107   1.0000      -0.255058        -6.9405
 108   1.0000      -0.234393        -6.3782
 109   0.0000      -0.136040        -3.7018
 110   0.0000      -0.089061        -2.4235
 111   0.0000      -0.070256        -1.9118
 112   0.0000      -0.059583        -1.6213
 113   0.0000      -0.048845        -1.3292

                 SPIN DOWN ORBITALS
  NO   OCC          E(Eh)            E(eV)
   0   1.0000    -258.331157     -7029.5482
   1   1.0000     -30.802453      -838.1773
   2   1.0000     -26.513883      -721.4794
   3   1.0000     -26.506876      -721.2888
   4   1.0000     -26.504835      -721.2332
   5   1.0000      -4.404613      -119.8556
   6   1.0000      -4.400937      -119.7556
   7   1.0000      -4.398251      -119.6825
   8   1.0000      -4.396888      -119.6454
   9   1.0000      -4.396539      -119.6359
  10   1.0000      -4.394465      -119.5795
  11   1.0000      -4.393381      -119.5500
  12   1.0000      -4.388867      -119.4271
  13   1.0000      -4.388372      -119.4137
  14   1.0000      -4.375047      -119.0511
  15   1.0000      -3.662882       -99.6721
  16   1.0000      -2.525865       -68.7323
  17   1.0000      -2.525226       -68.7149
  18   1.0000      -2.522311       -68.6356
  19   1.0000      -2.519935       -68.5709
  20   1.0000      -2.519504       -68.5592
  21   1.0000      -2.517758       -68.5117
  22   1.0000      -2.517092       -68.4936
  23   1.0000      -2.515693       -68.4555
  24   1.0000      -2.515236       -68.4430
  25   1.0000      -2.514931       -68.4347
  26   1.0000      -2.514361       -68.4192
  27   1.0000      -2.513917       -68.4072
  28   1.0000      -2.513701       -68.4013
  29   1.0000      -2.512327       -68.3639
  30   1.0000      -2.510831       -68.3232
  31   1.0000      -2.510750       -68.3210
  32   1.0000      -2.509709       -68.2926
  33   1.0000      -2.509139       -68.2771
  34   1.0000      -2.508897       -68.2706
  35   1.0000      -2.507962       -68.2451
  36   1.0000      -2.507779       -68.2401
  37   1.0000      -2.507300       -68.2271
  38   1.0000      -2.505441       -68.1765
  39   1.0000      -2.504724       -68.1570
  40   1.0000      -2.504626       -68.1543
  41   1.0000      -2.499794       -68.0229
  42   1.0000      -2.499103       -68.0041
  43   1.0000      -2.495475       -67.9053
  44   1.0000      -2.491568       -67.7990
  45   1.0000      -2.487093       -67.6772
  46   1.0000      -2.342666       -63.7472
  47   1.0000      -2.338959       -63.6463
  48   1.0000      -2.327557       -63.3361
  49   1.0000      -0.491794       -13.3824
  50   1.0000      -0.479790       -13.0557
  51   1.0000      -0.473507       -12.8848
  52   1.0000      -0.466291       -12.6884
  53   1.0000      -0.461946       -12.5702
  54   1.0000      -0.457776       -12.4567
  55   1.0000      -0.450766       -12.2660
  56   1.0000      -0.444469       -12.0946
  57   1.0000      -0.441969       -12.0266
  58   1.0000      -0.439625       -11.9628
  59   1.0000      -0.435589       -11.8530
  60   1.0000      -0.434697       -11.8287
  61   1.0000      -0.432520       -11.7695
  62   1.0000      -0.425455       -11.5772
  63   1.0000      -0.423564       -11.5258
  64   1.0000      -0.422842       -11.5061
  65   1.0000      -0.416708       -11.3392
  66   1.0000      -0.415276       -11.3002
  67   1.0000      -0.412789       -11.2326
  68   1.0000      -0.409402       -11.1404
  69   1.0000      -0.404488       -11.0067
  70   1.0000      -0.396402       -10.7866
  71   1.0000      -0.395634       -10.7657
  72   1.0000      -0.393624       -10.7111
  73   1.0000      -0.391480       -10.6527
  74   1.0000      -0.389472       -10.5981
  75   1.0000      -0.387295       -10.5388
  76   1.0000      -0.385816       -10.4986
  77   1.0000      -0.381107       -10.3704
  78   1.0000      -0.378293       -10.2939
  79   1.0000      -0.375464       -10.2169
  80   1.0000      -0.372502       -10.1363
  81   1.0000      -0.370413       -10.0795
  82   1.0000      -0.369598       -10.0573
  83   1.0000      -0.368988       -10.0407
  84   1.0000      -0.366565        -9.9747
  85   1.0000      -0.364684        -9.9236
  86   1.0000      -0.363254        -9.8846
  87   1.0000      -0.361969        -9.8497
  88   1.0000      -0.360596        -9.8123
  89   1.0000      -0.356883        -9.7113
  90   1.0000      -0.353636        -9.6229
  91   1.0000      -0.352905        -9.6030
  92   1.0000      -0.350592        -9.5401
  93   1.0000      -0.346697        -9.4341
  94   1.0000      -0.345367        -9.3979
  95   1.0000      -0.341845        -9.3021
  96   1.0000      -0.336853        -9.1662
  97   1.0000      -0.331930        -9.0323
  98   1.0000      -0.329820        -8.9749
  99   1.0000      -0.328480        -8.9384
 100   1.0000      -0.323524        -8.8035
 101   1.0000      -0.313921        -8.5422
 102   1.0000      -0.301989        -8.2175
 103   1.0000      -0.281705        -7.6656
 104   1.0000      -0.244406        -6.6506
 105   1.0000      -0.240160        -6.5351
 106   1.0000      -0.190714        -5.1896
 107   0.0000      -0.079340        -2.1589
 108   0.0000      -0.069439        -1.8895
 109   0.0000      -0.058904        -1.6029
 110   0.0000      -0.042044        -1.1441
 111   0.0000      -0.029283        -0.7968

MULLIKEN ATOMIC CHARGES AND SPIN POPULATIONS
--------------------------------------------
   0 Au:    0.135923   -0.087886
   1 Au:   -0.176545   -0.000806
   2 Au:    0.293448   -0.105940
   3 Au:   -0.026542   -0.373170
   4 Au:    0.342528   -0.203078
   5 Au:   -0.065552   -0.219718
   6 Au:    0.203735   -0.032962
   7 Au:   -0.154845   -0.127941
   8 Au:    0.258149   -0.422056
   9 Au:    0.160494   -0.089157
  10 Fe:   -0.970793    3.662715
Sum of atomic charges         :   -0.0000000

LOEWDIN ATOMIC CHARGES AND SPIN POPULATIONS
-------------------------------------------
   0 Au:   -0.023948   -0.085001
   1 Au:   -0.053241   -0.018870
   2 Au:    0.091472   -0.075365
   3 Au:   -0.035343   -0.237175
   4 Au:    0.121435   -0.172719
   5 Au:   -0.073358   -0.166250
   6 Au:    0.102618   -0.182667
   7 Au:   -0.108049   -0.109750
   8 Au:    0.036962   -0.329734
   9 Au:    0.051488   -0.188750
  10 Fe:   -0.110036    3.566281

  Mayer bond orders larger than 0.100000
B(  0-Au,  1-Au) :   0.5083 B(  0-Au,  3-Au) :   0.1136 B(  0-Au,  4-Au) :   0.2542
B(  0-Au,  5-Au) :   0.1191 B(  0-Au, 10-Fe) :   0.5048 B(  1-Au,  2-Au) :   0.4517
B(  1-Au,  7-Au) :   0.2726 B(  1-Au, 10-Fe) :   0.5603 B(  2-Au,  7-Au) :   0.5506
B(  3-Au,  4-Au) :   0.3654 B(  3-Au,  5-Au) :   0.1458 B(  3-Au,  6-Au) :   0.3496
B(  3-Au, 10-Fe) :   0.3395 B(  4-Au,  5-Au) :   0.3373 B(  5-Au,  9-Au) :   0.3463
B(  5-Au, 10-Fe) :   0.4882 B(  6-Au,  7-Au) :   0.2213 B(  6-Au,  8-Au) :   0.1119
B(  6-Au, 10-Fe) :   0.5140 B(  7-Au,  8-Au) :   0.2215 B(  7-Au, 10-Fe) :   0.3211
B(  8-Au,  9-Au) :   0.3033 B(  8-Au, 10-Fe) :   0.4172 B(  9-Au, 10-Fe) :   0.5478

MP2 TOTAL ENERGY:    -2619.327225462 Eh
FINAL SINGLE POINT ENERGY     -2619.327225462274

DIPOLE MOMENT
-------------
                                X             Y             Z
Electronic contribution:    -10.42413      -7.54138     -10.57374
Nuclear contribution   :     10.37419       7.68436      10.22883
                        -----------------------------------------
Total Dipole Moment    :     -0.04993       0.14298      -0.34491
                        -----------------------------------------
Magnitude (a.u.)       :      0.37669
Magnitude (Debye)      :      0.95747

Rotational constants in cm-1:     0.002153     0.001288     0.001054
Rotational constants in MHz :    64.540103    38.613376    31.598429

                             ****ORCA TERMINATED NORMALLY****
TOTAL RUN TIME: 0 days 0 hours 30 minutes 23 seconds 786 msec
