                         Program Version 5.0.3 -  RELEASE  -
|  1> !PBE def2-TZVP VERYSLOWCONV
|  2>
|  3> %scf
|  4>   AutoTRAHIter 200
|  5>   maxiter 400
|  6> end
|  7>
|  8>
|  9> %pal nprocs 6 end
| 10>
| 11> *xyzfile 0 5 pbe.xyz
| 12>
| 13> $new_job
| 14>
| 15> !PBE def2-TZVP VERYSLOWCONV
| 16>
| 17> %scf
| 18>   AutoTRAHIter 200
| 19>   maxiter 400
| 20> end
| 21>
| 22>
| 23> %pal nprocs 6 end
| 24>
| 25> *xyzfile 0 3 pbe.xyz
| 26>
| 27>
| 28>
| 29>
| 30>
| 31>                          ****END OF INPUT****
 Total Charge           Charge          ....    0
 Multiplicity           Mult            ....    5
 Number of Electrons    NEL             ....  216
FINAL SINGLE POINT ENERGY     -2621.742310856529

CARTESIAN COORDINATES (ANGSTROEM)
---------------------------------
  Au     6.989877    6.828196    7.636510
  Au     8.527556    4.771606    8.084420
  Au    10.162749    2.638091    8.111101
  Au     8.353427    8.042387    5.220853
  Au     6.022225    9.061814    6.371986
  Au     8.334218    9.430548    7.747540
  Au    10.687750    6.821280    5.077246
  Au    11.184208    4.826437    7.053060
  Au    12.376678    7.184855    7.373716
  Au    10.783326    9.033607    8.632733
  Fe     9.616086    7.066753    7.400963

 Multiplicity           Mult            ....    3
 Number of Electrons    NEL             ....  216
 Basis Dimension        Dim             ....  445

ORBITAL ENERGIES
----------------
                 SPIN UP ORBITALS
  NO   OCC          E(Eh)            E(eV)
   0   1.0000    -254.738211     -6931.7791
   1   1.0000     -29.573798      -804.7439
   2   1.0000     -25.517452      -694.3652
   3   1.0000     -25.509739      -694.1553
   4   1.0000     -25.501916      -693.9424
   5   1.0000      -4.027047      -109.5815
   6   1.0000      -4.024170      -109.5032
   7   1.0000      -4.024025      -109.4993
   8   1.0000      -4.023524      -109.4857
   9   1.0000      -4.022970      -109.4706
  10   1.0000      -4.020607      -109.4063
  11   1.0000      -4.019622      -109.3795
  12   1.0000      -4.017371      -109.3182
  13   1.0000      -4.016230      -109.2872
  14   1.0000      -4.005797      -109.0033
  15   1.0000      -3.350019       -91.1587
  16   1.0000      -2.247341       -61.1532
  17   1.0000      -2.243924       -61.0603
  18   1.0000      -2.242873       -61.0317
  19   1.0000      -2.242367       -61.0179
  20   1.0000      -2.240521       -60.9677
  21   1.0000      -2.239509       -60.9401
  22   1.0000      -2.239119       -60.9295
  23   1.0000      -2.238923       -60.9242
  24   1.0000      -2.237887       -60.8960
  25   1.0000      -2.237247       -60.8786
  26   1.0000      -2.236579       -60.8604
  27   1.0000      -2.235727       -60.8372
  28   1.0000      -2.234913       -60.8151
  29   1.0000      -2.234542       -60.8050
  30   1.0000      -2.234173       -60.7949
  31   1.0000      -2.232810       -60.7578
  32   1.0000      -2.232145       -60.7398
  33   1.0000      -2.231103       -60.7114
  34   1.0000      -2.230632       -60.6986
  35   1.0000      -2.230557       -60.6966
  36   1.0000      -2.230464       -60.6940
  37   1.0000      -2.229971       -60.6806
  38   1.0000      -2.229893       -60.6785
  39   1.0000      -2.229193       -60.6594
  40   1.0000      -2.227246       -60.6064
  41   1.0000      -2.224753       -60.5386
  42   1.0000      -2.222289       -60.4716
  43   1.0000      -2.221624       -60.4535
  44   1.0000      -2.219218       -60.3880
  45   1.0000      -2.211887       -60.1885
  46   1.0000      -2.179122       -59.2969
  47   1.0000      -2.163825       -58.8807
  48   1.0000      -2.149142       -58.4811
  49   1.0000      -0.406830       -11.0704
  50   1.0000      -0.385062       -10.4781
  51   1.0000      -0.374591       -10.1932
  52   1.0000      -0.369313       -10.0495
  53   1.0000      -0.360878        -9.8200
  54   1.0000      -0.359177        -9.7737
  55   1.0000      -0.350356        -9.5337
  56   1.0000      -0.343496        -9.3470
  57   1.0000      -0.338583        -9.2133
  58   1.0000      -0.336498        -9.1566
  59   1.0000      -0.331594        -9.0231
  60   1.0000      -0.330834        -9.0024
  61   1.0000      -0.327140        -8.9019
  62   1.0000      -0.325187        -8.8488
  63   1.0000      -0.321028        -8.7356
  64   1.0000      -0.320375        -8.7179
  65   1.0000      -0.317034        -8.6269
  66   1.0000      -0.315305        -8.5799
  67   1.0000      -0.312646        -8.5075
  68   1.0000      -0.309453        -8.4206
  69   1.0000      -0.305593        -8.3156
  70   1.0000      -0.299670        -8.1544
  71   1.0000      -0.297996        -8.1089
  72   1.0000      -0.294878        -8.0240
  73   1.0000      -0.293055        -7.9744
  74   1.0000      -0.290432        -7.9030
  75   1.0000      -0.288435        -7.8487
  76   1.0000      -0.285620        -7.7721
  77   1.0000      -0.280940        -7.6448
  78   1.0000      -0.277997        -7.5647
  79   1.0000      -0.276621        -7.5272
  80   1.0000      -0.274028        -7.4567
  81   1.0000      -0.272070        -7.4034
  82   1.0000      -0.271228        -7.3805
  83   1.0000      -0.269959        -7.3460
  84   1.0000      -0.268858        -7.3160
  85   1.0000      -0.267392        -7.2761
  86   1.0000      -0.267001        -7.2655
  87   1.0000      -0.263692        -7.1754
  88   1.0000      -0.263306        -7.1649
  89   1.0000      -0.260449        -7.0872
  90   1.0000      -0.258957        -7.0466
  91   1.0000      -0.257208        -6.9990
  92   1.0000      -0.256618        -6.9829
  93   1.0000      -0.255359        -6.9487
  94   1.0000      -0.253163        -6.8889
  95   1.0000      -0.250639        -6.8202
  96   1.0000      -0.249770        -6.7966
  97   1.0000      -0.247012        -6.7215
  98   1.0000      -0.243483        -6.6255
  99   1.0000      -0.242027        -6.5859
 100   1.0000      -0.240580        -6.5465
 101   1.0000      -0.239719        -6.5231
 102   1.0000      -0.239512        -6.5174
 103   1.0000      -0.236236        -6.4283
 104   1.0000      -0.232817        -6.3353
 105   1.0000      -0.230710        -6.2779
 106   1.0000      -0.220445        -5.9986
 107   1.0000      -0.218331        -5.9411
 108   1.0000      -0.206330        -5.6145
 109   0.0000      -0.195255        -5.3132
 110   0.0000      -0.159696        -4.3456
 111   0.0000      -0.136251        -3.7076
 112   0.0000      -0.125430        -3.4131
 113   0.0000      -0.119191        -3.2434

                 SPIN DOWN ORBITALS
  NO   OCC          E(Eh)            E(eV)
   0   1.0000    -254.737563     -6931.7615
   1   1.0000     -29.520152      -803.2842
   2   1.0000     -25.474331      -693.1918
   3   1.0000     -25.469219      -693.0527
   4   1.0000     -25.464044      -692.9119
   5   1.0000      -4.026969      -109.5794
   6   1.0000      -4.024583      -109.5145
   7   1.0000      -4.024247      -109.5053
   8   1.0000      -4.024111      -109.5016
   9   1.0000      -4.022883      -109.4682
  10   1.0000      -4.020282      -109.3974
  11   1.0000      -4.020161      -109.3941
  12   1.0000      -4.016806      -109.3028
  13   1.0000      -4.016133      -109.2845
  14   1.0000      -4.006024      -109.0094
  15   1.0000      -3.227572       -87.8267
  16   1.0000      -2.247556       -61.1591
  17   1.0000      -2.244717       -61.0818
  18   1.0000      -2.242799       -61.0297
  19   1.0000      -2.242226       -61.0141
  20   1.0000      -2.240523       -60.9677
  21   1.0000      -2.239831       -60.9489
  22   1.0000      -2.239122       -60.9296
  23   1.0000      -2.238794       -60.9207
  24   1.0000      -2.238274       -60.9065
  25   1.0000      -2.237375       -60.8821
  26   1.0000      -2.236253       -60.8515
  27   1.0000      -2.235700       -60.8365
  28   1.0000      -2.234935       -60.8157
  29   1.0000      -2.234452       -60.8025
  30   1.0000      -2.233803       -60.7849
  31   1.0000      -2.232561       -60.7511
  32   1.0000      -2.232443       -60.7478
  33   1.0000      -2.231161       -60.7130
  34   1.0000      -2.230799       -60.7031
  35   1.0000      -2.230495       -60.6949
  36   1.0000      -2.230388       -60.6920
  37   1.0000      -2.230358       -60.6911
  38   1.0000      -2.230223       -60.6874
  39   1.0000      -2.229492       -60.6676
  40   1.0000      -2.227307       -60.6081
  41   1.0000      -2.225007       -60.5455
  42   1.0000      -2.221999       -60.4637
  43   1.0000      -2.221072       -60.4384
  44   1.0000      -2.219481       -60.3951
  45   1.0000      -2.212074       -60.1936
  46   1.0000      -2.051907       -55.8352
  47   1.0000      -2.043474       -55.6058
  48   1.0000      -2.036831       -55.4250
  49   1.0000      -0.405382       -11.0310
  50   1.0000      -0.386037       -10.5046
  51   1.0000      -0.373896       -10.1742
  52   1.0000      -0.366921        -9.9844
  53   1.0000      -0.360638        -9.8135
  54   1.0000      -0.356229        -9.6935
  55   1.0000      -0.347135        -9.4460
  56   1.0000      -0.340474        -9.2648
  57   1.0000      -0.338028        -9.1982
  58   1.0000      -0.334353        -9.0982
  59   1.0000      -0.330383        -8.9902
  60   1.0000      -0.329357        -8.9623
  61   1.0000      -0.326231        -8.8772
  62   1.0000      -0.319642        -8.6979
  63   1.0000      -0.318968        -8.6795
  64   1.0000      -0.314848        -8.5675
  65   1.0000      -0.313277        -8.5247
  66   1.0000      -0.312166        -8.4945
  67   1.0000      -0.310832        -8.4582
  68   1.0000      -0.307834        -8.3766
  69   1.0000      -0.305685        -8.3181
  70   1.0000      -0.299343        -8.1455
  71   1.0000      -0.296209        -8.0602
  72   1.0000      -0.292547        -7.9606
  73   1.0000      -0.291536        -7.9331
  74   1.0000      -0.290208        -7.8969
  75   1.0000      -0.287598        -7.8259
  76   1.0000      -0.285440        -7.7672
  77   1.0000      -0.281522        -7.6606
  78   1.0000      -0.277832        -7.5602
  79   1.0000      -0.275262        -7.4903
  80   1.0000      -0.273830        -7.4513
  81   1.0000      -0.272935        -7.4269
  82   1.0000      -0.270697        -7.3660
  83   1.0000      -0.269334        -7.3290
  84   1.0000      -0.268593        -7.3088
  85   1.0000      -0.267474        -7.2783
  86   1.0000      -0.266773        -7.2593
  87   1.0000      -0.263336        -7.1657
  88   1.0000      -0.261744        -7.1224
  89   1.0000      -0.259754        -7.0683
  90   1.0000      -0.259304        -7.0560
  91   1.0000      -0.257516        -7.0074
  92   1.0000      -0.256505        -6.9798
  93   1.0000      -0.253647        -6.9021
  94   1.0000      -0.251991        -6.8570
  95   1.0000      -0.251629        -6.8472
  96   1.0000      -0.248786        -6.7698
  97   1.0000      -0.245375        -6.6770
  98   1.0000      -0.241503        -6.5716
  99   1.0000      -0.239817        -6.5258
 100   1.0000      -0.238431        -6.4880
 101   1.0000      -0.231629        -6.3029
 102   1.0000      -0.229110        -6.2344
 103   1.0000      -0.218734        -5.9521
 104   1.0000      -0.210865        -5.7379
 105   1.0000      -0.183728        -4.9995
 106   1.0000      -0.167722        -4.5640
 107   0.0000      -0.155121        -4.2211
 108   0.0000      -0.149285        -4.0622
 109   0.0000      -0.146638        -3.9902
 110   0.0000      -0.134415        -3.6576
 111   0.0000      -0.126556        -3.4438

MULLIKEN ATOMIC CHARGES AND SPIN POPULATIONS
--------------------------------------------
   0 Au:    0.103149   -0.107495
   1 Au:   -0.103352    0.028290
   2 Au:    0.297758   -0.057358
   3 Au:    0.030354   -0.170947
   4 Au:    0.356728   -0.091349
   5 Au:    0.032000   -0.104116
   6 Au:    0.202168   -0.038831
   7 Au:   -0.027019   -0.057826
   8 Au:    0.229625   -0.297066
   9 Au:    0.200724   -0.045292
  10 Fe:   -1.322135    2.941990
Sum of atomic charges         :   -0.0000000

LOEWDIN ATOMIC CHARGES AND SPIN POPULATIONS
-------------------------------------------
   0 Au:    0.018088   -0.085444
   1 Au:    0.001122    0.002922
   2 Au:    0.085328   -0.045610
   3 Au:    0.009508   -0.109820
   4 Au:    0.090814   -0.099214
   5 Au:   -0.023320   -0.078342
   6 Au:    0.113340   -0.106978
   7 Au:   -0.066038   -0.055273
   8 Au:    0.067161   -0.227489
   9 Au:    0.104796   -0.102445
  10 Fe:   -0.400799    2.907693

  Mayer bond orders larger than 0.100000
B(  0-Au,  1-Au) :   0.5250 B(  0-Au,  3-Au) :   0.1432 B(  0-Au,  4-Au) :   0.2855
B(  0-Au,  5-Au) :   0.1459 B(  0-Au, 10-Fe) :   0.5541 B(  1-Au,  2-Au) :   0.4539
B(  1-Au,  7-Au) :   0.2572 B(  1-Au, 10-Fe) :   0.5831 B(  2-Au,  7-Au) :   0.5676
B(  3-Au,  4-Au) :   0.3623 B(  3-Au,  5-Au) :   0.1871 B(  3-Au,  6-Au) :   0.4160
B(  3-Au, 10-Fe) :   0.5229 B(  4-Au,  5-Au) :   0.4012 B(  5-Au,  9-Au) :   0.4281
B(  5-Au, 10-Fe) :   0.5543 B(  6-Au,  7-Au) :   0.1976 B(  6-Au,  8-Au) :   0.1572
B(  6-Au, 10-Fe) :   0.5717 B(  7-Au,  8-Au) :   0.3256 B(  7-Au, 10-Fe) :   0.3679
B(  8-Au,  9-Au) :   0.2745 B(  8-Au, 10-Fe) :   0.5128 B(  9-Au, 10-Fe) :   0.5901

FINAL SINGLE POINT ENERGY     -2621.718140852414

DIPOLE MOMENT
-------------
                                X             Y             Z
Electronic contribution:    -10.34562      -7.62667     -10.39521
Nuclear contribution   :     10.37419       7.68436      10.22883
                        -----------------------------------------
Total Dipole Moment    :      0.02857       0.05769      -0.16638
                        -----------------------------------------
Magnitude (a.u.)       :      0.17840
Magnitude (Debye)      :      0.45345

Rotational constants in cm-1:     0.002153     0.001288     0.001054
Rotational constants in MHz :    64.540103    38.613376    31.598429

                             ****ORCA TERMINATED NORMALLY****
TOTAL RUN TIME: 0 days 0 hours 2 minutes 39 seconds 592 msec
