                         Program Version 5.0.3 -  RELEASE  -
|  1> !R2SCAN def2-TZVP VERYSLOWCONV
|  2>
|  3> %scf
|  4>   AutoTRAHIter 400
|  5>   maxiter 800
|  6> end
|  7>
|  8> %pal nprocs 6 end
|  9>
| 10> *xyzfile 0 5 pbe.xyz
| 11>
| 12> $new_job
| 13>
| 14> !R2SCAN def2-TZVP VERYSLOWCONV
| 15> %scf
| 16>   AutoTRAHIter 400
| 17>   maxiter 800
| 18> end
| 19>
| 20>
| 21> %pal nprocs 6 end
| 22>
| 23> *xyzfile 0 3 pbe.xyz
| 24>
| 25>
| 26>
| 27>
| 28>
| 29>                          ****END OF INPUT****
 Total Charge           Charge          ....    0
 Multiplicity           Mult            ....    5
 Number of Electrons    NEL             ....  216
FINAL SINGLE POINT ENERGY     -2622.144209711991

CARTESIAN COORDINATES (ANGSTROEM)
---------------------------------
  Au     6.989877    6.828196    7.636510
  Au     8.527556    4.771606    8.084420
  Au    10.162749    2.638091    8.111101
  Au     8.353427    8.042387    5.220853
  Au     6.022225    9.061814    6.371986
  Au     8.334218    9.430548    7.747540
  Au    10.687750    6.821280    5.077246
  Au    11.184208    4.826437    7.053060
  Au    12.376678    7.184855    7.373716
  Au    10.783326    9.033607    8.632733
  Fe     9.616086    7.066753    7.400963

 Multiplicity           Mult            ....    3
 Number of Electrons    NEL             ....  216
 Basis Dimension        Dim             ....  445

ORBITAL ENERGIES
----------------
                 SPIN UP ORBITALS
  NO   OCC          E(Eh)            E(eV)
   0   1.0000    -255.618956     -6955.7454
   1   1.0000     -29.915895      -814.0529
   2   1.0000     -25.756496      -700.8699
   3   1.0000     -25.744857      -700.5532
   4   1.0000     -25.738342      -700.3759
   5   1.0000      -4.118068      -112.0583
   6   1.0000      -4.116294      -112.0100
   7   1.0000      -4.114508      -111.9614
   8   1.0000      -4.114166      -111.9522
   9   1.0000      -4.113833      -111.9431
  10   1.0000      -4.111617      -111.8828
  11   1.0000      -4.110893      -111.8631
  12   1.0000      -4.108753      -111.8048
  13   1.0000      -4.107420      -111.7686
  14   1.0000      -4.096607      -111.4743
  15   1.0000      -3.494982       -95.1033
  16   1.0000      -2.310846       -62.8813
  17   1.0000      -2.307563       -62.7920
  18   1.0000      -2.307135       -62.7803
  19   1.0000      -2.306419       -62.7608
  20   1.0000      -2.305125       -62.7256
  21   1.0000      -2.303093       -62.6704
  22   1.0000      -2.302649       -62.6583
  23   1.0000      -2.302539       -62.6553
  24   1.0000      -2.301251       -62.6202
  25   1.0000      -2.300881       -62.6101
  26   1.0000      -2.300476       -62.5991
  27   1.0000      -2.299448       -62.5712
  28   1.0000      -2.298498       -62.5453
  29   1.0000      -2.298259       -62.5388
  30   1.0000      -2.298051       -62.5331
  31   1.0000      -2.296612       -62.4940
  32   1.0000      -2.296188       -62.4824
  33   1.0000      -2.295196       -62.4555
  34   1.0000      -2.295055       -62.4516
  35   1.0000      -2.294551       -62.4379
  36   1.0000      -2.294426       -62.4345
  37   1.0000      -2.294230       -62.4292
  38   1.0000      -2.293748       -62.4161
  39   1.0000      -2.292685       -62.3871
  40   1.0000      -2.291672       -62.3596
  41   1.0000      -2.287937       -62.2579
  42   1.0000      -2.286370       -62.2153
  43   1.0000      -2.286104       -62.2081
  44   1.0000      -2.282567       -62.1118
  45   1.0000      -2.279822       -62.0371
  46   1.0000      -2.275783       -61.9272
  47   1.0000      -2.256206       -61.3945
  48   1.0000      -2.244147       -61.0663
  49   1.0000      -0.413000       -11.2383
  50   1.0000      -0.391886       -10.6638
  51   1.0000      -0.383039       -10.4230
  52   1.0000      -0.378750       -10.3063
  53   1.0000      -0.371067       -10.0972
  54   1.0000      -0.370338       -10.0774
  55   1.0000      -0.361233        -9.8297
  56   1.0000      -0.354236        -9.6392
  57   1.0000      -0.350516        -9.5380
  58   1.0000      -0.346330        -9.4241
  59   1.0000      -0.341017        -9.2795
  60   1.0000      -0.340637        -9.2692
  61   1.0000      -0.338332        -9.2065
  62   1.0000      -0.337186        -9.1753
  63   1.0000      -0.332047        -9.0354
  64   1.0000      -0.331334        -9.0161
  65   1.0000      -0.326784        -8.8922
  66   1.0000      -0.325248        -8.8504
  67   1.0000      -0.321906        -8.7595
  68   1.0000      -0.318423        -8.6647
  69   1.0000      -0.314910        -8.5691
  70   1.0000      -0.309633        -8.4255
  71   1.0000      -0.308024        -8.3818
  72   1.0000      -0.303768        -8.2660
  73   1.0000      -0.302542        -8.2326
  74   1.0000      -0.299760        -8.1569
  75   1.0000      -0.296857        -8.0779
  76   1.0000      -0.294785        -8.0215
  77   1.0000      -0.290025        -7.8920
  78   1.0000      -0.287339        -7.8189
  79   1.0000      -0.286282        -7.7901
  80   1.0000      -0.283172        -7.7055
  81   1.0000      -0.280575        -7.6348
  82   1.0000      -0.280261        -7.6263
  83   1.0000      -0.279375        -7.6022
  84   1.0000      -0.277873        -7.5613
  85   1.0000      -0.276040        -7.5114
  86   1.0000      -0.275914        -7.5080
  87   1.0000      -0.273768        -7.4496
  88   1.0000      -0.272169        -7.4061
  89   1.0000      -0.269789        -7.3413
  90   1.0000      -0.267819        -7.2877
  91   1.0000      -0.266419        -7.2496
  92   1.0000      -0.265647        -7.2286
  93   1.0000      -0.263836        -7.1794
  94   1.0000      -0.262384        -7.1398
  95   1.0000      -0.261894        -7.1265
  96   1.0000      -0.258696        -7.0395
  97   1.0000      -0.257928        -7.0186
  98   1.0000      -0.254350        -6.9212
  99   1.0000      -0.252709        -6.8766
 100   1.0000      -0.250123        -6.8062
 101   1.0000      -0.249216        -6.7815
 102   1.0000      -0.246523        -6.7082
 103   1.0000      -0.243565        -6.6277
 104   1.0000      -0.241209        -6.5636
 105   1.0000      -0.237942        -6.4747
 106   1.0000      -0.233307        -6.3486
 107   1.0000      -0.223405        -6.0792
 108   1.0000      -0.210125        -5.7178
 109   0.0000      -0.194508        -5.2928
 110   0.0000      -0.155484        -4.2309
 111   0.0000      -0.130892        -3.5617
 112   0.0000      -0.119378        -3.2484
 113   0.0000      -0.113566        -3.0903

                 SPIN DOWN ORBITALS
  NO   OCC          E(Eh)            E(eV)
   0   1.0000    -255.617985     -6955.7190
   1   1.0000     -29.841207      -812.0205
   2   1.0000     -25.694344      -699.1786
   3   1.0000     -25.689087      -699.0356
   4   1.0000     -25.685322      -698.9331
   5   1.0000      -4.118231      -112.0628
   6   1.0000      -4.116638      -112.0194
   7   1.0000      -4.115089      -111.9773
   8   1.0000      -4.114725      -111.9674
   9   1.0000      -4.114609      -111.9642
  10   1.0000      -4.111799      -111.8877
  11   1.0000      -4.111530      -111.8804
  12   1.0000      -4.107876      -111.7810
  13   1.0000      -4.107686      -111.7758
  14   1.0000      -4.097014      -111.4854
  15   1.0000      -3.326811       -90.5271
  16   1.0000      -2.311415       -62.8968
  17   1.0000      -2.307773       -62.7977
  18   1.0000      -2.307280       -62.7843
  19   1.0000      -2.306470       -62.7622
  20   1.0000      -2.305220       -62.7282
  21   1.0000      -2.303661       -62.6858
  22   1.0000      -2.302643       -62.6581
  23   1.0000      -2.302440       -62.6526
  24   1.0000      -2.302045       -62.6418
  25   1.0000      -2.301007       -62.6136
  26   1.0000      -2.300381       -62.5965
  27   1.0000      -2.299578       -62.5747
  28   1.0000      -2.298536       -62.5464
  29   1.0000      -2.297991       -62.5315
  30   1.0000      -2.297805       -62.5264
  31   1.0000      -2.296667       -62.4955
  32   1.0000      -2.296418       -62.4887
  33   1.0000      -2.295547       -62.4650
  34   1.0000      -2.295251       -62.4570
  35   1.0000      -2.294883       -62.4469
  36   1.0000      -2.294770       -62.4439
  37   1.0000      -2.294456       -62.4353
  38   1.0000      -2.293864       -62.4192
  39   1.0000      -2.293027       -62.3964
  40   1.0000      -2.291811       -62.3633
  41   1.0000      -2.288347       -62.2691
  42   1.0000      -2.286299       -62.2134
  43   1.0000      -2.285310       -62.1865
  44   1.0000      -2.282975       -62.1229
  45   1.0000      -2.276043       -61.9343
  46   1.0000      -2.103242       -57.2321
  47   1.0000      -2.093924       -56.9786
  48   1.0000      -2.088409       -56.8285
  49   1.0000      -0.412708       -11.2304
  50   1.0000      -0.393525       -10.7084
  51   1.0000      -0.382230       -10.4010
  52   1.0000      -0.376861       -10.2549
  53   1.0000      -0.370091       -10.0707
  54   1.0000      -0.365594        -9.9483
  55   1.0000      -0.356314        -9.6958
  56   1.0000      -0.349625        -9.5138
  57   1.0000      -0.347755        -9.4629
  58   1.0000      -0.344230        -9.3670
  59   1.0000      -0.340248        -9.2586
  60   1.0000      -0.338898        -9.2219
  61   1.0000      -0.336097        -9.1457
  62   1.0000      -0.329327        -8.9614
  63   1.0000      -0.328575        -8.9410
  64   1.0000      -0.324254        -8.8234
  65   1.0000      -0.322402        -8.7730
  66   1.0000      -0.321669        -8.7531
  67   1.0000      -0.320320        -8.7164
  68   1.0000      -0.316782        -8.6201
  69   1.0000      -0.315099        -8.5743
  70   1.0000      -0.308552        -8.3961
  71   1.0000      -0.305203        -8.3050
  72   1.0000      -0.301508        -8.2044
  73   1.0000      -0.300522        -8.1776
  74   1.0000      -0.299478        -8.1492
  75   1.0000      -0.296207        -8.0602
  76   1.0000      -0.294642        -8.0176
  77   1.0000      -0.290597        -7.9076
  78   1.0000      -0.287077        -7.8118
  79   1.0000      -0.283758        -7.7214
  80   1.0000      -0.282756        -7.6942
  81   1.0000      -0.281920        -7.6714
  82   1.0000      -0.279770        -7.6129
  83   1.0000      -0.278282        -7.5724
  84   1.0000      -0.277565        -7.5529
  85   1.0000      -0.276479        -7.5234
  86   1.0000      -0.275453        -7.4954
  87   1.0000      -0.271574        -7.3899
  88   1.0000      -0.270571        -7.3626
  89   1.0000      -0.268264        -7.2998
  90   1.0000      -0.267705        -7.2846
  91   1.0000      -0.265958        -7.2371
  92   1.0000      -0.265048        -7.2123
  93   1.0000      -0.261645        -7.1197
  94   1.0000      -0.260414        -7.0862
  95   1.0000      -0.259156        -7.0520
  96   1.0000      -0.256510        -6.9800
  97   1.0000      -0.252414        -6.8685
  98   1.0000      -0.248762        -6.7692
  99   1.0000      -0.247222        -6.7273
 100   1.0000      -0.246440        -6.7060
 101   1.0000      -0.237915        -6.4740
 102   1.0000      -0.234877        -6.3913
 103   1.0000      -0.222092        -6.0434
 104   1.0000      -0.213642        -5.8135
 105   1.0000      -0.183840        -5.0025
 106   1.0000      -0.171424        -4.6647
 107   0.0000      -0.146581        -3.9887
 108   0.0000      -0.143008        -3.8914
 109   0.0000      -0.136905        -3.7254
 110   0.0000      -0.118667        -3.2291
 111   0.0000      -0.115268        -3.1366

MULLIKEN ATOMIC CHARGES AND SPIN POPULATIONS
--------------------------------------------
   0 Au:    0.103854   -0.115591
   1 Au:   -0.108951    0.044665
   2 Au:    0.278389   -0.084123
   3 Au:    0.027294   -0.214569
   4 Au:    0.316250   -0.126981
   5 Au:    0.022855   -0.110151
   6 Au:    0.189098   -0.059380
   7 Au:   -0.042228   -0.057593
   8 Au:    0.218672   -0.354865
   9 Au:    0.188090   -0.069811
  10 Fe:   -1.193323    3.148399
Sum of atomic charges         :   -0.0000000

LOEWDIN ATOMIC CHARGES AND SPIN POPULATIONS
-------------------------------------------
   0 Au:    0.008782   -0.086082
   1 Au:   -0.007606    0.008800
   2 Au:    0.080886   -0.061267
   3 Au:    0.003917   -0.142986
   4 Au:    0.088054   -0.120186
   5 Au:   -0.027986   -0.092930
   6 Au:    0.108933   -0.138006
   7 Au:   -0.071017   -0.067430
   8 Au:    0.059576   -0.268098
   9 Au:    0.094783   -0.134553
  10 Fe:   -0.338322    3.102736

  Mayer bond orders larger than 0.100000
B(  0-Au,  1-Au) :   0.5379 B(  0-Au,  3-Au) :   0.1174 B(  0-Au,  4-Au) :   0.2656
B(  0-Au,  5-Au) :   0.1178 B(  0-Au, 10-Fe) :   0.5283 B(  1-Au,  2-Au) :   0.4417
B(  1-Au,  7-Au) :   0.2362 B(  1-Au, 10-Fe) :   0.5764 B(  2-Au,  7-Au) :   0.5594
B(  3-Au,  4-Au) :   0.3654 B(  3-Au,  5-Au) :   0.1548 B(  3-Au,  6-Au) :   0.4154
B(  3-Au, 10-Fe) :   0.4731 B(  4-Au,  5-Au) :   0.3942 B(  5-Au,  9-Au) :   0.4245
B(  5-Au, 10-Fe) :   0.5414 B(  6-Au,  7-Au) :   0.1862 B(  6-Au,  8-Au) :   0.1384
B(  6-Au, 10-Fe) :   0.5483 B(  7-Au,  8-Au) :   0.2995 B(  7-Au, 10-Fe) :   0.3610
B(  8-Au,  9-Au) :   0.2720 B(  8-Au, 10-Fe) :   0.4706 B(  9-Au, 10-Fe) :   0.5703

FINAL SINGLE POINT ENERGY     -2622.117109459996

DIPOLE MOMENT
-------------
                                X             Y             Z
Electronic contribution:    -10.34794      -7.62481     -10.42394
Nuclear contribution   :     10.37419       7.68436      10.22883
                        -----------------------------------------
Total Dipole Moment    :      0.02626       0.05954      -0.19511
                        -----------------------------------------
Magnitude (a.u.)       :      0.20568
Magnitude (Debye)      :      0.52279

Rotational constants in cm-1:     0.002153     0.001288     0.001054
Rotational constants in MHz :    64.540103    38.613376    31.598429

                             ****ORCA TERMINATED NORMALLY****
TOTAL RUN TIME: 0 days 0 hours 5 minutes 41 seconds 749 msec
