                         Program Version 5.0.3 -  RELEASE  -
|  1> !RI-B2PLYP def2-TZVP def2-TZVP/C
|  2> !RIJCOSX VERYSLOWCONV
|  3>
|  4> %scf
|  5>   AutoTRAHIter 200
|  6>   maxiter 400
|  7> end
|  8>
|  9>
| 10> %pal nprocs 6 end
| 11>
| 12> *xyzfile 0 5 pbe.xyz
| 13>
| 14> $new_job
| 15>
| 16> !RI-B2PLYP def2-TZVP def2-TZVP/C
| 17> !RIJCOSX VERYSLOWCONV
| 18>
| 19> %scf
| 20>   AutoTRAHIter 200
| 21>   maxiter 400
| 22> end
| 23>
| 24>
| 25> %pal nprocs 6 end
| 26>
| 27> *xyzfile 0 3 pbe.xyz
| 28>
| 29>
| 30>
| 31>
| 32>
| 33>                          ****END OF INPUT****
 Total Charge           Charge          ....    0
 Multiplicity           Mult            ....    5
 Number of Electrons    NEL             ....  330
MP2 TOTAL ENERGY:    -3432.970802821 Eh
FINAL SINGLE POINT ENERGY     -3432.970802821252

CARTESIAN COORDINATES (ANGSTROEM)
---------------------------------
  Au     7.601548    6.389867    9.609934
  Au     5.727820    8.487832    9.220021
  Au     9.772119    7.507355    6.931755
  Au     9.624628   10.301767    6.795076
  Au     8.499877    8.976350    8.979840
  Au     9.804725    8.773597    4.427493
  Au     8.113453   11.041506    4.587198
  Au     6.881474   10.079631    7.001247
  Au     8.562744    5.079395    7.339004
  Au     7.270663    8.652696    3.281239
  Au     8.154414    6.529438    4.834599
  Au     5.437340   10.300877    4.646408
  Au     5.412480    7.473066    4.976204
  Au     4.496381    6.506011    7.640148
  Au     4.251838    9.208038    6.913606
  Au     6.108609    4.993887    6.001953
  Fe     7.008060    7.297289    7.234636

 Multiplicity           Mult            ....    3
 Number of Electrons    NEL             ....  330
 Basis Dimension        Dim             ....  685

ORBITAL ENERGIES
----------------
                 SPIN UP ORBITALS
  NO   OCC          E(Eh)            E(eV)
   0   1.0000    -258.342773     -7029.8642
   1   1.0000     -30.901536      -840.8735
   2   1.0000     -26.613225      -724.1827
   3   1.0000     -26.605505      -723.9726
   4   1.0000     -26.580794      -723.3002
   5   1.0000      -4.411391      -120.0401
   6   1.0000      -4.410910      -120.0270
   7   1.0000      -4.409927      -120.0002
   8   1.0000      -4.409035      -119.9759
   9   1.0000      -4.406091      -119.8958
  10   1.0000      -4.404839      -119.8618
  11   1.0000      -4.402115      -119.7876
  12   1.0000      -4.401664      -119.7754
  13   1.0000      -4.398363      -119.6855
  14   1.0000      -4.398217      -119.6816
  15   1.0000      -4.394964      -119.5931
  16   1.0000      -4.394811      -119.5889
  17   1.0000      -4.391631      -119.5024
  18   1.0000      -4.384994      -119.3218
  19   1.0000      -4.382761      -119.2610
  20   1.0000      -4.381807      -119.2350
  21   1.0000      -3.913770      -106.4991
  22   1.0000      -2.650470       -72.1230
  23   1.0000      -2.634971       -71.7012
  24   1.0000      -2.582257       -70.2668
  25   1.0000      -2.531312       -68.8805
  26   1.0000      -2.531139       -68.8758
  27   1.0000      -2.530947       -68.8706
  28   1.0000      -2.529621       -68.8345
  29   1.0000      -2.529426       -68.8292
  30   1.0000      -2.528434       -68.8022
  31   1.0000      -2.527751       -68.7836
  32   1.0000      -2.527397       -68.7740
  33   1.0000      -2.526070       -68.7379
  34   1.0000      -2.525730       -68.7286
  35   1.0000      -2.524713       -68.7009
  36   1.0000      -2.524544       -68.6963
  37   1.0000      -2.524157       -68.6858
  38   1.0000      -2.523921       -68.6794
  39   1.0000      -2.523599       -68.6706
  40   1.0000      -2.523149       -68.6584
  41   1.0000      -2.522430       -68.6388
  42   1.0000      -2.521202       -68.6054
  43   1.0000      -2.520795       -68.5943
  44   1.0000      -2.519713       -68.5649
  45   1.0000      -2.518692       -68.5371
  46   1.0000      -2.518333       -68.5273
  47   1.0000      -2.517391       -68.5017
  48   1.0000      -2.517211       -68.4968
  49   1.0000      -2.517084       -68.4933
  50   1.0000      -2.515893       -68.4609
  51   1.0000      -2.515395       -68.4474
  52   1.0000      -2.514592       -68.4255
  53   1.0000      -2.513256       -68.3892
  54   1.0000      -2.513181       -68.3871
  55   1.0000      -2.512622       -68.3719
  56   1.0000      -2.512373       -68.3651
  57   1.0000      -2.511925       -68.3529
  58   1.0000      -2.511583       -68.3436
  59   1.0000      -2.511346       -68.3372
  60   1.0000      -2.510955       -68.3266
  61   1.0000      -2.510736       -68.3206
  62   1.0000      -2.507958       -68.2450
  63   1.0000      -2.504910       -68.1621
  64   1.0000      -2.504262       -68.1444
  65   1.0000      -2.502951       -68.1088
  66   1.0000      -2.501548       -68.0706
  67   1.0000      -2.501130       -68.0592
  68   1.0000      -2.499698       -68.0202
  69   1.0000      -2.499385       -68.0117
  70   1.0000      -2.498789       -67.9955
  71   1.0000      -2.498087       -67.9764
  72   1.0000      -2.496805       -67.9415
  73   1.0000      -0.567463       -15.4414
  74   1.0000      -0.564906       -15.3719
  75   1.0000      -0.544785       -14.8244
  76   1.0000      -0.540372       -14.7043
  77   1.0000      -0.521312       -14.1856
  78   1.0000      -0.493487       -13.4285
  79   1.0000      -0.477564       -12.9952
  80   1.0000      -0.476949       -12.9784
  81   1.0000      -0.473639       -12.8884
  82   1.0000      -0.468736       -12.7550
  83   1.0000      -0.467093       -12.7103
  84   1.0000      -0.466106       -12.6834
  85   1.0000      -0.465331       -12.6623
  86   1.0000      -0.462722       -12.5913
  87   1.0000      -0.461994       -12.5715
  88   1.0000      -0.459164       -12.4945
  89   1.0000      -0.456946       -12.4341
  90   1.0000      -0.454745       -12.3742
  91   1.0000      -0.452083       -12.3018
  92   1.0000      -0.451099       -12.2750
  93   1.0000      -0.448970       -12.2171
  94   1.0000      -0.447972       -12.1899
  95   1.0000      -0.444443       -12.0939
  96   1.0000      -0.443007       -12.0548
  97   1.0000      -0.442161       -12.0318
  98   1.0000      -0.439284       -11.9535
  99   1.0000      -0.437036       -11.8924
 100   1.0000      -0.436918       -11.8891
 101   1.0000      -0.435500       -11.8506
 102   1.0000      -0.433796       -11.8042
 103   1.0000      -0.430633       -11.7181
 104   1.0000      -0.428480       -11.6595
 105   1.0000      -0.427376       -11.6295
 106   1.0000      -0.424657       -11.5555
 107   1.0000      -0.421481       -11.4691
 108   1.0000      -0.420956       -11.4548
 109   1.0000      -0.417747       -11.3675
 110   1.0000      -0.412381       -11.2215
 111   1.0000      -0.411937       -11.2094
 112   1.0000      -0.409679       -11.1479
 113   1.0000      -0.408871       -11.1260
 114   1.0000      -0.403882       -10.9902
 115   1.0000      -0.402292       -10.9469
 116   1.0000      -0.398825       -10.8526
 117   1.0000      -0.397458       -10.8154
 118   1.0000      -0.396209       -10.7814
 119   1.0000      -0.392311       -10.6753
 120   1.0000      -0.391813       -10.6618
 121   1.0000      -0.387269       -10.5381
 122   1.0000      -0.386684       -10.5222
 123   1.0000      -0.384900       -10.4737
 124   1.0000      -0.383559       -10.4372
 125   1.0000      -0.382435       -10.4066
 126   1.0000      -0.378172       -10.2906
 127   1.0000      -0.377510       -10.2726
 128   1.0000      -0.374616       -10.1938
 129   1.0000      -0.372077       -10.1247
 130   1.0000      -0.371193       -10.1007
 131   1.0000      -0.369690       -10.0598
 132   1.0000      -0.369433       -10.0528
 133   1.0000      -0.368203       -10.0193
 134   1.0000      -0.367482        -9.9997
 135   1.0000      -0.365733        -9.9521
 136   1.0000      -0.363636        -9.8951
 137   1.0000      -0.363504        -9.8915
 138   1.0000      -0.361013        -9.8237
 139   1.0000      -0.358808        -9.7637
 140   1.0000      -0.357005        -9.7146
 141   1.0000      -0.355384        -9.6705
 142   1.0000      -0.352597        -9.5946
 143   1.0000      -0.352039        -9.5795
 144   1.0000      -0.350906        -9.5486
 145   1.0000      -0.348553        -9.4846
 146   1.0000      -0.347469        -9.4551
 147   1.0000      -0.345529        -9.4023
 148   1.0000      -0.344371        -9.3708
 149   1.0000      -0.341466        -9.2918
 150   1.0000      -0.338405        -9.2085
 151   1.0000      -0.337761        -9.1909
 152   1.0000      -0.336391        -9.1537
 153   1.0000      -0.334727        -9.1084
 154   1.0000      -0.333950        -9.0872
 155   1.0000      -0.328434        -8.9371
 156   1.0000      -0.327271        -8.9055
 157   1.0000      -0.326108        -8.8739
 158   1.0000      -0.323786        -8.8107
 159   1.0000      -0.318499        -8.6668
 160   1.0000      -0.315123        -8.5749
 161   1.0000      -0.312534        -8.5045
 162   1.0000      -0.248151        -6.7525
 163   1.0000      -0.237255        -6.4560
 164   1.0000      -0.230369        -6.2687
 165   1.0000      -0.225547        -6.1374
 166   0.0000      -0.133720        -3.6387
 167   0.0000      -0.092255        -2.5104
 168   0.0000      -0.083226        -2.2647
 169   0.0000      -0.079046        -2.1509
 170   0.0000      -0.072289        -1.9671

                 SPIN DOWN ORBITALS
  NO   OCC          E(Eh)            E(eV)
   0   1.0000    -258.340806     -7029.8107
   1   1.0000     -30.809205      -838.3611
   2   1.0000     -26.519167      -721.6232
   3   1.0000     -26.516974      -721.5636
   4   1.0000     -26.510427      -721.3854
   5   1.0000      -4.412027      -120.0574
   6   1.0000      -4.411389      -120.0400
   7   1.0000      -4.410133      -120.0058
   8   1.0000      -4.409718      -119.9945
   9   1.0000      -4.406607      -119.9099
  10   1.0000      -4.404799      -119.8607
  11   1.0000      -4.402670      -119.8027
  12   1.0000      -4.401751      -119.7777
  13   1.0000      -4.399447      -119.7150
  14   1.0000      -4.398687      -119.6944
  15   1.0000      -4.395701      -119.6131
  16   1.0000      -4.395307      -119.6024
  17   1.0000      -4.392102      -119.5152
  18   1.0000      -4.385609      -119.3385
  19   1.0000      -4.382689      -119.2590
  20   1.0000      -4.382537      -119.2549
  21   1.0000      -3.670683       -99.8844
  22   1.0000      -2.532761       -68.9199
  23   1.0000      -2.531023       -68.8726
  24   1.0000      -2.530769       -68.8657
  25   1.0000      -2.529548       -68.8325
  26   1.0000      -2.529274       -68.8250
  27   1.0000      -2.528179       -68.7952
  28   1.0000      -2.527949       -68.7890
  29   1.0000      -2.527431       -68.7749
  30   1.0000      -2.526124       -68.7393
  31   1.0000      -2.525667       -68.7269
  32   1.0000      -2.525075       -68.7108
  33   1.0000      -2.525012       -68.7091
  34   1.0000      -2.524368       -68.6915
  35   1.0000      -2.523723       -68.6740
  36   1.0000      -2.523558       -68.6695
  37   1.0000      -2.523081       -68.6565
  38   1.0000      -2.522583       -68.6430
  39   1.0000      -2.522102       -68.6299
  40   1.0000      -2.520382       -68.5831
  41   1.0000      -2.519393       -68.5562
  42   1.0000      -2.518501       -68.5319
  43   1.0000      -2.518070       -68.5202
  44   1.0000      -2.517757       -68.5116
  45   1.0000      -2.517516       -68.5051
  46   1.0000      -2.517195       -68.4964
  47   1.0000      -2.516498       -68.4774
  48   1.0000      -2.516022       -68.4644
  49   1.0000      -2.515557       -68.4518
  50   1.0000      -2.513966       -68.4085
  51   1.0000      -2.513465       -68.3949
  52   1.0000      -2.512998       -68.3822
  53   1.0000      -2.512831       -68.3776
  54   1.0000      -2.512348       -68.3645
  55   1.0000      -2.511703       -68.3469
  56   1.0000      -2.511648       -68.3454
  57   1.0000      -2.511556       -68.3429
  58   1.0000      -2.511148       -68.3318
  59   1.0000      -2.507856       -68.2422
  60   1.0000      -2.505302       -68.1727
  61   1.0000      -2.504774       -68.1584
  62   1.0000      -2.503579       -68.1258
  63   1.0000      -2.501895       -68.0800
  64   1.0000      -2.501218       -68.0616
  65   1.0000      -2.500137       -68.0322
  66   1.0000      -2.499511       -68.0152
  67   1.0000      -2.499051       -68.0026
  68   1.0000      -2.498120       -67.9773
  69   1.0000      -2.496982       -67.9463
  70   1.0000      -2.352130       -64.0047
  71   1.0000      -2.343292       -63.7642
  72   1.0000      -2.339708       -63.6667
  73   1.0000      -0.516243       -14.0477
  74   1.0000      -0.485074       -13.1995
  75   1.0000      -0.478664       -13.0251
  76   1.0000      -0.477821       -13.0022
  77   1.0000      -0.475766       -12.9462
  78   1.0000      -0.472013       -12.8441
  79   1.0000      -0.470073       -12.7913
  80   1.0000      -0.469311       -12.7706
  81   1.0000      -0.467597       -12.7240
  82   1.0000      -0.466514       -12.6945
  83   1.0000      -0.464912       -12.6509
  84   1.0000      -0.463433       -12.6106
  85   1.0000      -0.460019       -12.5178
  86   1.0000      -0.457670       -12.4538
  87   1.0000      -0.455724       -12.4009
  88   1.0000      -0.454497       -12.3675
  89   1.0000      -0.451274       -12.2798
  90   1.0000      -0.449058       -12.2195
  91   1.0000      -0.447394       -12.1742
  92   1.0000      -0.446403       -12.1472
  93   1.0000      -0.444468       -12.0946
  94   1.0000      -0.443812       -12.0767
  95   1.0000      -0.442137       -12.0312
  96   1.0000      -0.440667       -11.9911
  97   1.0000      -0.438472       -11.9314
  98   1.0000      -0.436229       -11.8704
  99   1.0000      -0.434202       -11.8152
 100   1.0000      -0.430944       -11.7266
 101   1.0000      -0.429029       -11.6745
 102   1.0000      -0.427138       -11.6230
 103   1.0000      -0.423851       -11.5336
 104   1.0000      -0.420793       -11.4503
 105   1.0000      -0.415482       -11.3058
 106   1.0000      -0.414321       -11.2743
 107   1.0000      -0.412573       -11.2267
 108   1.0000      -0.411025       -11.1846
 109   1.0000      -0.406839       -11.0707
 110   1.0000      -0.404641       -11.0109
 111   1.0000      -0.403002       -10.9663
 112   1.0000      -0.401212       -10.9175
 113   1.0000      -0.399125       -10.8607
 114   1.0000      -0.397240       -10.8094
 115   1.0000      -0.394455       -10.7337
 116   1.0000      -0.393515       -10.7081
 117   1.0000      -0.391809       -10.6617
 118   1.0000      -0.391431       -10.6514
 119   1.0000      -0.388510       -10.5719
 120   1.0000      -0.387677       -10.5492
 121   1.0000      -0.384584       -10.4651
 122   1.0000      -0.381206       -10.3732
 123   1.0000      -0.377709       -10.2780
 124   1.0000      -0.376990       -10.2584
 125   1.0000      -0.375902       -10.2288
 126   1.0000      -0.373700       -10.1689
 127   1.0000      -0.372380       -10.1330
 128   1.0000      -0.371326       -10.1043
 129   1.0000      -0.368668       -10.0320
 130   1.0000      -0.367824       -10.0090
 131   1.0000      -0.367246        -9.9933
 132   1.0000      -0.366044        -9.9606
 133   1.0000      -0.363318        -9.8864
 134   1.0000      -0.361265        -9.8305
 135   1.0000      -0.359180        -9.7738
 136   1.0000      -0.357199        -9.7199
 137   1.0000      -0.354931        -9.6582
 138   1.0000      -0.353630        -9.6228
 139   1.0000      -0.352194        -9.5837
 140   1.0000      -0.351232        -9.5575
 141   1.0000      -0.349508        -9.5106
 142   1.0000      -0.348958        -9.4956
 143   1.0000      -0.346214        -9.4210
 144   1.0000      -0.343991        -9.3605
 145   1.0000      -0.341487        -9.2923
 146   1.0000      -0.340640        -9.2693
 147   1.0000      -0.338742        -9.2176
 148   1.0000      -0.337368        -9.1802
 149   1.0000      -0.335907        -9.1405
 150   1.0000      -0.334053        -9.0900
 151   1.0000      -0.331288        -9.0148
 152   1.0000      -0.330153        -8.9839
 153   1.0000      -0.328947        -8.9511
 154   1.0000      -0.325947        -8.8695
 155   1.0000      -0.321574        -8.7505
 156   1.0000      -0.320421        -8.7191
 157   1.0000      -0.318472        -8.6661
 158   1.0000      -0.266503        -7.2519
 159   1.0000      -0.247663        -6.7393
 160   1.0000      -0.240697        -6.5497
 161   1.0000      -0.235386        -6.4052
 162   1.0000      -0.224382        -6.1057
 163   1.0000      -0.169292        -4.6067
 164   0.0000      -0.095036        -2.5861
 165   0.0000      -0.083663        -2.2766
 166   0.0000      -0.080410        -2.1881
 167   0.0000      -0.067661        -1.8412
 168   0.0000      -0.065901        -1.7933

MULLIKEN ATOMIC CHARGES AND SPIN POPULATIONS
--------------------------------------------
   0 Au:    0.263671   -0.250641
   1 Au:    0.376074   -0.068708
   2 Au:   -0.078131   -0.147550
   3 Au:    0.244852   -0.100696
   4 Au:    0.193958   -0.042693
   5 Au:    0.166807   -0.112638
   6 Au:    0.228075   -0.036384
   7 Au:   -0.854566   -0.092209
   8 Au:    0.346625   -0.006211
   9 Au:    0.219159   -0.097348
  10 Au:   -0.187744   -0.085530
  11 Au:    0.232779   -0.135366
  12 Au:   -0.315487   -0.114386
  13 Au:    0.279564   -0.160005
  14 Au:    0.217788   -0.072439
  15 Au:    0.360670   -0.018814
  16 Fe:   -1.694095    3.541620
Sum of atomic charges         :   -0.0000000

LOEWDIN ATOMIC CHARGES AND SPIN POPULATIONS
-------------------------------------------
   0 Au:    0.052750   -0.170685
   1 Au:    0.054736   -0.079998
   2 Au:   -0.025841   -0.114553
   3 Au:    0.027556   -0.100679
   4 Au:    0.047654   -0.091548
   5 Au:   -0.014405   -0.078581
   6 Au:   -0.012982   -0.080730
   7 Au:   -0.086218   -0.069310
   8 Au:    0.080491   -0.088476
   9 Au:   -0.013042   -0.084994
  10 Au:   -0.028298   -0.046953
  11 Au:    0.026838   -0.142088
  12 Au:   -0.048998   -0.090977
  13 Au:    0.047358   -0.112606
  14 Au:    0.041978   -0.120245
  15 Au:    0.098702   -0.059206
  16 Fe:   -0.248277    3.531630

  Mayer bond orders larger than 0.100000
B(  0-Au,  1-Au) :   0.1037 B(  0-Au,  4-Au) :   0.1509 B(  0-Au,  8-Au) :   0.1625
B(  0-Au, 16-Fe) :   0.5285 B(  1-Au,  4-Au) :   0.1464 B(  1-Au,  7-Au) :   0.1794
B(  1-Au, 13-Au) :   0.1632 B(  1-Au, 14-Au) :   0.1654 B(  1-Au, 16-Fe) :   0.4462
B(  2-Au,  3-Au) :   0.1838 B(  2-Au,  4-Au) :   0.1459 B(  2-Au,  5-Au) :   0.2262
B(  2-Au,  8-Au) :   0.2619 B(  2-Au, 10-Au) :   0.1953 B(  2-Au, 16-Fe) :   0.4319
B(  3-Au,  4-Au) :   0.2327 B(  3-Au,  5-Au) :   0.2512 B(  3-Au,  6-Au) :   0.2474
B(  3-Au,  7-Au) :   0.4079 B(  4-Au,  7-Au) :   0.3238 B(  4-Au, 16-Fe) :   0.3581
B(  5-Au,  6-Au) :   0.2142 B(  5-Au,  9-Au) :   0.1499 B(  5-Au, 10-Au) :   0.2855
B(  6-Au,  7-Au) :   0.3263 B(  6-Au,  9-Au) :   0.2213 B(  6-Au, 11-Au) :   0.2866
B(  7-Au, 11-Au) :   0.3821 B(  7-Au, 12-Au) :   0.1307 B(  7-Au, 14-Au) :   0.3734
B(  7-Au, 16-Fe) :   0.3521 B(  8-Au, 10-Au) :   0.1778 B(  8-Au, 15-Au) :   0.1272
B(  8-Au, 16-Fe) :   0.3960 B(  9-Au, 10-Au) :   0.2674 B(  9-Au, 11-Au) :   0.2431
B(  9-Au, 12-Au) :   0.2616 B( 10-Au, 12-Au) :   0.2260 B( 10-Au, 15-Au) :   0.2223
B( 10-Au, 16-Fe) :   0.4087 B( 11-Au, 12-Au) :   0.2163 B( 11-Au, 14-Au) :   0.2533
B( 12-Au, 13-Au) :   0.1204 B( 12-Au, 14-Au) :   0.2024 B( 12-Au, 15-Au) :   0.2635
B( 12-Au, 16-Fe) :   0.4249 B( 13-Au, 14-Au) :   0.1760 B( 13-Au, 15-Au) :   0.1523
B( 13-Au, 16-Fe) :   0.4827 B( 14-Au, 16-Fe) :   0.1562 B( 15-Au, 16-Fe) :   0.3679

MP2 TOTAL ENERGY:    -3432.933910763 Eh
FINAL SINGLE POINT ENERGY     -3432.933910762878

DIPOLE MOMENT
-------------
                                X             Y             Z
Electronic contribution:      8.28738      31.85744     -29.50478
Nuclear contribution   :     -8.59043     -32.40039      30.06511
                        -----------------------------------------
Total Dipole Moment    :     -0.30305      -0.54295       0.56032
                        -----------------------------------------
Magnitude (a.u.)       :      0.83702
Magnitude (Debye)      :      2.12752

Rotational constants in cm-1:     0.000957     0.000796     0.000738
Rotational constants in MHz :    28.693721    23.877524    22.123531

                             ****ORCA TERMINATED NORMALLY****
TOTAL RUN TIME: 0 days 1 hours 38 minutes 7 seconds 868 msec
