                         Program Version 5.0.3 -  RELEASE  -
|  1> !PBE def2-TZVP VERYSLOWCONV
|  2>
|  3> %scf
|  4>   AutoTRAHIter 200
|  5>   maxiter 400
|  6> end
|  7>
|  8>
|  9> %pal nprocs 6 end
| 10>
| 11> *xyzfile 0 5 pbe.xyz
| 12>
| 13> $new_job
| 14>
| 15> !PBE def2-TZVP VERYSLOWCONV
| 16>
| 17> %scf
| 18>   AutoTRAHIter 200
| 19>   maxiter 400
| 20> end
| 21>
| 22>
| 23> %pal nprocs 6 end
| 24>
| 25> *xyzfile 0 3 pbe.xyz
| 26>
| 27>
| 28>
| 29>
| 30>
| 31>                          ****END OF INPUT****
 Total Charge           Charge          ....    0
 Multiplicity           Mult            ....    5
 Number of Electrons    NEL             ....  330
FINAL SINGLE POINT ENERGY     -3436.752558846677

CARTESIAN COORDINATES (ANGSTROEM)
---------------------------------
  Au     7.601548    6.389867    9.609934
  Au     5.727820    8.487832    9.220021
  Au     9.772119    7.507355    6.931755
  Au     9.624628   10.301767    6.795076
  Au     8.499877    8.976350    8.979840
  Au     9.804725    8.773597    4.427493
  Au     8.113453   11.041506    4.587198
  Au     6.881474   10.079631    7.001247
  Au     8.562744    5.079395    7.339004
  Au     7.270663    8.652696    3.281239
  Au     8.154414    6.529438    4.834599
  Au     5.437340   10.300877    4.646408
  Au     5.412480    7.473066    4.976204
  Au     4.496381    6.506011    7.640148
  Au     4.251838    9.208038    6.913606
  Au     6.108609    4.993887    6.001953
  Fe     7.008060    7.297289    7.234636

 Multiplicity           Mult            ....    3
 Number of Electrons    NEL             ....  330
 Basis Dimension        Dim             ....  685

ORBITAL ENERGIES
----------------
                 SPIN UP ORBITALS
  NO   OCC          E(Eh)            E(eV)
   0   1.0000    -254.740143     -6931.8317
   1   1.0000     -29.572484      -804.7082
   2   1.0000     -25.513444      -694.2561
   3   1.0000     -25.509953      -694.1611
   4   1.0000     -25.502285      -693.9524
   5   1.0000      -4.036428      -109.8368
   6   1.0000      -4.036168      -109.8297
   7   1.0000      -4.035847      -109.8210
   8   1.0000      -4.035579      -109.8137
   9   1.0000      -4.033880      -109.7675
  10   1.0000      -4.030788      -109.6833
  11   1.0000      -4.029887      -109.6588
  12   1.0000      -4.028618      -109.6243
  13   1.0000      -4.027859      -109.6036
  14   1.0000      -4.027695      -109.5992
  15   1.0000      -4.026913      -109.5779
  16   1.0000      -4.026309      -109.5614
  17   1.0000      -4.022817      -109.4664
  18   1.0000      -4.016911      -109.3057
  19   1.0000      -4.015573      -109.2693
  20   1.0000      -4.015476      -109.2666
  21   1.0000      -3.349607       -91.1474
  22   1.0000      -2.252915       -61.3049
  23   1.0000      -2.252272       -61.2874
  24   1.0000      -2.251688       -61.2715
  25   1.0000      -2.251337       -61.2620
  26   1.0000      -2.250328       -61.2345
  27   1.0000      -2.249846       -61.2214
  28   1.0000      -2.249366       -61.2084
  29   1.0000      -2.248721       -61.1908
  30   1.0000      -2.248379       -61.1815
  31   1.0000      -2.247588       -61.1600
  32   1.0000      -2.246792       -61.1383
  33   1.0000      -2.246533       -61.1313
  34   1.0000      -2.246454       -61.1291
  35   1.0000      -2.245892       -61.1138
  36   1.0000      -2.245279       -61.0971
  37   1.0000      -2.244812       -61.0844
  38   1.0000      -2.244368       -61.0724
  39   1.0000      -2.243681       -61.0537
  40   1.0000      -2.243576       -61.0508
  41   1.0000      -2.242523       -61.0222
  42   1.0000      -2.242386       -61.0184
  43   1.0000      -2.242198       -61.0133
  44   1.0000      -2.241873       -61.0045
  45   1.0000      -2.241645       -60.9983
  46   1.0000      -2.241048       -60.9820
  47   1.0000      -2.240929       -60.9788
  48   1.0000      -2.240822       -60.9759
  49   1.0000      -2.240181       -60.9584
  50   1.0000      -2.239855       -60.9496
  51   1.0000      -2.239438       -60.9382
  52   1.0000      -2.239269       -60.9336
  53   1.0000      -2.239030       -60.9271
  54   1.0000      -2.238965       -60.9253
  55   1.0000      -2.238736       -60.9191
  56   1.0000      -2.237971       -60.8983
  57   1.0000      -2.237056       -60.8734
  58   1.0000      -2.236715       -60.8641
  59   1.0000      -2.235405       -60.8284
  60   1.0000      -2.232671       -60.7541
  61   1.0000      -2.232103       -60.7386
  62   1.0000      -2.231459       -60.7211
  63   1.0000      -2.230918       -60.7064
  64   1.0000      -2.229774       -60.6752
  65   1.0000      -2.229605       -60.6706
  66   1.0000      -2.228264       -60.6341
  67   1.0000      -2.226635       -60.5898
  68   1.0000      -2.225054       -60.5468
  69   1.0000      -2.224558       -60.5333
  70   1.0000      -2.173795       -59.1520
  71   1.0000      -2.167112       -58.9701
  72   1.0000      -2.150985       -58.5313
  73   1.0000      -0.433858       -11.8059
  74   1.0000      -0.396394       -10.7864
  75   1.0000      -0.390512       -10.6264
  76   1.0000      -0.388444       -10.5701
  77   1.0000      -0.378744       -10.3061
  78   1.0000      -0.374721       -10.1967
  79   1.0000      -0.371544       -10.1102
  80   1.0000      -0.368703       -10.0329
  81   1.0000      -0.366295        -9.9674
  82   1.0000      -0.363825        -9.9002
  83   1.0000      -0.360973        -9.8226
  84   1.0000      -0.359555        -9.7840
  85   1.0000      -0.358849        -9.7648
  86   1.0000      -0.356153        -9.6914
  87   1.0000      -0.353577        -9.6213
  88   1.0000      -0.351180        -9.5561
  89   1.0000      -0.349925        -9.5219
  90   1.0000      -0.348136        -9.4733
  91   1.0000      -0.345973        -9.4144
  92   1.0000      -0.344612        -9.3774
  93   1.0000      -0.342691        -9.3251
  94   1.0000      -0.341255        -9.2860
  95   1.0000      -0.340148        -9.2559
  96   1.0000      -0.338786        -9.2188
  97   1.0000      -0.337389        -9.1808
  98   1.0000      -0.336318        -9.1517
  99   1.0000      -0.332601        -9.0505
 100   1.0000      -0.328762        -8.9461
 101   1.0000      -0.326290        -8.8788
 102   1.0000      -0.325621        -8.8606
 103   1.0000      -0.323997        -8.8164
 104   1.0000      -0.322779        -8.7833
 105   1.0000      -0.318650        -8.6709
 106   1.0000      -0.315801        -8.5934
 107   1.0000      -0.313371        -8.5273
 108   1.0000      -0.311798        -8.4845
 109   1.0000      -0.309746        -8.4286
 110   1.0000      -0.309296        -8.4164
 111   1.0000      -0.306723        -8.3464
 112   1.0000      -0.304609        -8.2888
 113   1.0000      -0.304118        -8.2755
 114   1.0000      -0.301665        -8.2087
 115   1.0000      -0.299575        -8.1518
 116   1.0000      -0.296574        -8.0702
 117   1.0000      -0.295180        -8.0323
 118   1.0000      -0.294522        -8.0143
 119   1.0000      -0.292900        -7.9702
 120   1.0000      -0.290440        -7.9033
 121   1.0000      -0.287377        -7.8199
 122   1.0000      -0.284973        -7.7545
 123   1.0000      -0.282018        -7.6741
 124   1.0000      -0.280254        -7.6261
 125   1.0000      -0.278380        -7.5751
 126   1.0000      -0.276693        -7.5292
 127   1.0000      -0.275726        -7.5029
 128   1.0000      -0.275120        -7.4864
 129   1.0000      -0.273783        -7.4500
 130   1.0000      -0.272344        -7.4108
 131   1.0000      -0.271796        -7.3959
 132   1.0000      -0.270043        -7.3482
 133   1.0000      -0.268404        -7.3037
 134   1.0000      -0.265995        -7.2381
 135   1.0000      -0.264163        -7.1882
 136   1.0000      -0.262422        -7.1409
 137   1.0000      -0.261563        -7.1175
 138   1.0000      -0.259461        -7.0603
 139   1.0000      -0.259006        -7.0479
 140   1.0000      -0.258365        -7.0305
 141   1.0000      -0.257751        -7.0138
 142   1.0000      -0.257061        -6.9950
 143   1.0000      -0.256389        -6.9767
 144   1.0000      -0.254751        -6.9321
 145   1.0000      -0.252759        -6.8779
 146   1.0000      -0.251200        -6.8355
 147   1.0000      -0.251150        -6.8341
 148   1.0000      -0.250196        -6.8082
 149   1.0000      -0.248391        -6.7591
 150   1.0000      -0.248058        -6.7500
 151   1.0000      -0.247428        -6.7329
 152   1.0000      -0.246505        -6.7077
 153   1.0000      -0.245162        -6.6712
 154   1.0000      -0.243590        -6.6284
 155   1.0000      -0.241546        -6.5728
 156   1.0000      -0.240084        -6.5330
 157   1.0000      -0.238537        -6.4909
 158   1.0000      -0.236636        -6.4392
 159   1.0000      -0.233607        -6.3568
 160   1.0000      -0.230567        -6.2740
 161   1.0000      -0.228294        -6.2122
 162   1.0000      -0.217963        -5.9311
 163   1.0000      -0.212427        -5.7804
 164   1.0000      -0.208986        -5.6868
 165   1.0000      -0.204139        -5.5549
 166   0.0000      -0.191855        -5.2206
 167   0.0000      -0.151278        -4.1165
 168   0.0000      -0.149470        -4.0673
 169   0.0000      -0.141937        -3.8623
 170   0.0000      -0.135098        -3.6762

                 SPIN DOWN ORBITALS
  NO   OCC          E(Eh)            E(eV)
   0   1.0000    -254.739537     -6931.8152
   1   1.0000     -29.519348      -803.2623
   2   1.0000     -25.471412      -693.1124
   3   1.0000     -25.469425      -693.0583
   4   1.0000     -25.464517      -692.9247
   5   1.0000      -4.036361      -109.8350
   6   1.0000      -4.036182      -109.8301
   7   1.0000      -4.036096      -109.8278
   8   1.0000      -4.035687      -109.8166
   9   1.0000      -4.034037      -109.7717
  10   1.0000      -4.030889      -109.6861
  11   1.0000      -4.029728      -109.6545
  12   1.0000      -4.029461      -109.6472
  13   1.0000      -4.027802      -109.6021
  14   1.0000      -4.027648      -109.5979
  15   1.0000      -4.027451      -109.5925
  16   1.0000      -4.026912      -109.5779
  17   1.0000      -4.022389      -109.4548
  18   1.0000      -4.017246      -109.3148
  19   1.0000      -4.015857      -109.2770
  20   1.0000      -4.015619      -109.2705
  21   1.0000      -3.228403       -87.8493
  22   1.0000      -2.253517       -61.3213
  23   1.0000      -2.252330       -61.2890
  24   1.0000      -2.251797       -61.2745
  25   1.0000      -2.251092       -61.2553
  26   1.0000      -2.250550       -61.2406
  27   1.0000      -2.249683       -61.2170
  28   1.0000      -2.249618       -61.2152
  29   1.0000      -2.248769       -61.1921
  30   1.0000      -2.248387       -61.1817
  31   1.0000      -2.247199       -61.1494
  32   1.0000      -2.246783       -61.1381
  33   1.0000      -2.246727       -61.1365
  34   1.0000      -2.246234       -61.1231
  35   1.0000      -2.246009       -61.1170
  36   1.0000      -2.245140       -61.0934
  37   1.0000      -2.245066       -61.0913
  38   1.0000      -2.244589       -61.0784
  39   1.0000      -2.244126       -61.0658
  40   1.0000      -2.243422       -61.0466
  41   1.0000      -2.242555       -61.0230
  42   1.0000      -2.242241       -61.0145
  43   1.0000      -2.242221       -61.0139
  44   1.0000      -2.242039       -61.0090
  45   1.0000      -2.241869       -61.0044
  46   1.0000      -2.241731       -61.0006
  47   1.0000      -2.241292       -60.9886
  48   1.0000      -2.241121       -60.9840
  49   1.0000      -2.240378       -60.9638
  50   1.0000      -2.240224       -60.9596
  51   1.0000      -2.240047       -60.9548
  52   1.0000      -2.239856       -60.9496
  53   1.0000      -2.239599       -60.9426
  54   1.0000      -2.238659       -60.9170
  55   1.0000      -2.238555       -60.9142
  56   1.0000      -2.238088       -60.9015
  57   1.0000      -2.237383       -60.8823
  58   1.0000      -2.237319       -60.8805
  59   1.0000      -2.235089       -60.8199
  60   1.0000      -2.233083       -60.7653
  61   1.0000      -2.231905       -60.7332
  62   1.0000      -2.231818       -60.7309
  63   1.0000      -2.231142       -60.7125
  64   1.0000      -2.230223       -60.6874
  65   1.0000      -2.229913       -60.6790
  66   1.0000      -2.228367       -60.6370
  67   1.0000      -2.226823       -60.5949
  68   1.0000      -2.225228       -60.5515
  69   1.0000      -2.224731       -60.5380
  70   1.0000      -2.049115       -55.7592
  71   1.0000      -2.047043       -55.7029
  72   1.0000      -2.039364       -55.4939
  73   1.0000      -0.431164       -11.7326
  74   1.0000      -0.396907       -10.8004
  75   1.0000      -0.390682       -10.6310
  76   1.0000      -0.387982       -10.5575
  77   1.0000      -0.374356       -10.1867
  78   1.0000      -0.372773       -10.1437
  79   1.0000      -0.371613       -10.1121
  80   1.0000      -0.368413       -10.0250
  81   1.0000      -0.365778        -9.9533
  82   1.0000      -0.363678        -9.8962
  83   1.0000      -0.360612        -9.8128
  84   1.0000      -0.359930        -9.7942
  85   1.0000      -0.359079        -9.7710
  86   1.0000      -0.355026        -9.6607
  87   1.0000      -0.351019        -9.5517
  88   1.0000      -0.350180        -9.5289
  89   1.0000      -0.349427        -9.5084
  90   1.0000      -0.347373        -9.4525
  91   1.0000      -0.345466        -9.4006
  92   1.0000      -0.343965        -9.3598
  93   1.0000      -0.342028        -9.3071
  94   1.0000      -0.340678        -9.2703
  95   1.0000      -0.340116        -9.2550
  96   1.0000      -0.338756        -9.2180
  97   1.0000      -0.336955        -9.1690
  98   1.0000      -0.335855        -9.1391
  99   1.0000      -0.332160        -9.0385
 100   1.0000      -0.329363        -8.9624
 101   1.0000      -0.326526        -8.8852
 102   1.0000      -0.325949        -8.8695
 103   1.0000      -0.324659        -8.8344
 104   1.0000      -0.322066        -8.7639
 105   1.0000      -0.319534        -8.6950
 106   1.0000      -0.314786        -8.5658
 107   1.0000      -0.312274        -8.4974
 108   1.0000      -0.310776        -8.4566
 109   1.0000      -0.308496        -8.3946
 110   1.0000      -0.306086        -8.3290
 111   1.0000      -0.305539        -8.3141
 112   1.0000      -0.303252        -8.2519
 113   1.0000      -0.302457        -8.2303
 114   1.0000      -0.301147        -8.1946
 115   1.0000      -0.296831        -8.0772
 116   1.0000      -0.295718        -8.0469
 117   1.0000      -0.293281        -7.9806
 118   1.0000      -0.292358        -7.9555
 119   1.0000      -0.290484        -7.9045
 120   1.0000      -0.289137        -7.8678
 121   1.0000      -0.286708        -7.8017
 122   1.0000      -0.284679        -7.7465
 123   1.0000      -0.281566        -7.6618
 124   1.0000      -0.279229        -7.5982
 125   1.0000      -0.278014        -7.5651
 126   1.0000      -0.276430        -7.5220
 127   1.0000      -0.275403        -7.4941
 128   1.0000      -0.274871        -7.4796
 129   1.0000      -0.273509        -7.4426
 130   1.0000      -0.272305        -7.4098
 131   1.0000      -0.271758        -7.3949
 132   1.0000      -0.270508        -7.3609
 133   1.0000      -0.267909        -7.2902
 134   1.0000      -0.266451        -7.2505
 135   1.0000      -0.264197        -7.1892
 136   1.0000      -0.262652        -7.1471
 137   1.0000      -0.261806        -7.1241
 138   1.0000      -0.259922        -7.0728
 139   1.0000      -0.258901        -7.0450
 140   1.0000      -0.258418        -7.0319
 141   1.0000      -0.258106        -7.0234
 142   1.0000      -0.257388        -7.0039
 143   1.0000      -0.257065        -6.9951
 144   1.0000      -0.254290        -6.9196
 145   1.0000      -0.252349        -6.8668
 146   1.0000      -0.251029        -6.8308
 147   1.0000      -0.250665        -6.8209
 148   1.0000      -0.248748        -6.7688
 149   1.0000      -0.248312        -6.7569
 150   1.0000      -0.247589        -6.7372
 151   1.0000      -0.245407        -6.6779
 152   1.0000      -0.243488        -6.6256
 153   1.0000      -0.242244        -6.5918
 154   1.0000      -0.240154        -6.5349
 155   1.0000      -0.237588        -6.4651
 156   1.0000      -0.234165        -6.3720
 157   1.0000      -0.225988        -6.1495
 158   1.0000      -0.217989        -5.9318
 159   1.0000      -0.215207        -5.8561
 160   1.0000      -0.211683        -5.7602
 161   1.0000      -0.204666        -5.5692
 162   1.0000      -0.174840        -4.7577
 163   1.0000      -0.171734        -4.6731
 164   0.0000      -0.156268        -4.2523
 165   0.0000      -0.152290        -4.1440
 166   0.0000      -0.151883        -4.1329
 167   0.0000      -0.145105        -3.9485
 168   0.0000      -0.139287        -3.7902

MULLIKEN ATOMIC CHARGES AND SPIN POPULATIONS
--------------------------------------------
   0 Au:    0.359162   -0.041320
   1 Au:    0.401203   -0.056508
   2 Au:   -0.062333   -0.076688
   3 Au:    0.282437   -0.061413
   4 Au:    0.231479   -0.026713
   5 Au:    0.191554   -0.050276
   6 Au:    0.223225   -0.066086
   7 Au:   -0.860894   -0.100651
   8 Au:    0.390084   -0.000622
   9 Au:    0.203466   -0.057828
  10 Au:   -0.153406   -0.073831
  11 Au:    0.261893   -0.060445
  12 Au:   -0.312888   -0.070508
  13 Au:    0.355761   -0.034064
  14 Au:    0.247208   -0.074502
  15 Au:    0.401428   -0.007176
  16 Fe:   -2.159378    2.858632
Sum of atomic charges         :   -0.0000000

LOEWDIN ATOMIC CHARGES AND SPIN POPULATIONS
-------------------------------------------
   0 Au:    0.114101   -0.038142
   1 Au:    0.075094   -0.046386
   2 Au:    0.005076   -0.062664
   3 Au:    0.032995   -0.080063
   4 Au:    0.062892   -0.055164
   5 Au:   -0.004023   -0.050475
   6 Au:   -0.006616   -0.065751
   7 Au:   -0.068516   -0.062538
   8 Au:    0.098245   -0.044910
   9 Au:   -0.002609   -0.050386
  10 Au:   -0.008280   -0.037818
  11 Au:    0.039424   -0.082922
  12 Au:   -0.023233   -0.049831
  13 Au:    0.091651   -0.036680
  14 Au:    0.050042   -0.093879
  15 Au:    0.107673   -0.036983
  16 Fe:   -0.563915    2.894593

  Mayer bond orders larger than 0.100000
B(  0-Au,  1-Au) :   0.1440 B(  0-Au,  4-Au) :   0.1907 B(  0-Au,  8-Au) :   0.2101
B(  0-Au, 16-Fe) :   0.5956 B(  1-Au,  4-Au) :   0.1635 B(  1-Au,  7-Au) :   0.2014
B(  1-Au, 13-Au) :   0.1621 B(  1-Au, 14-Au) :   0.1962 B(  1-Au, 16-Fe) :   0.4654
B(  2-Au,  3-Au) :   0.2467 B(  2-Au,  4-Au) :   0.1505 B(  2-Au,  5-Au) :   0.3138
B(  2-Au,  8-Au) :   0.2962 B(  2-Au, 10-Au) :   0.2179 B(  2-Au, 16-Fe) :   0.4070
B(  3-Au,  4-Au) :   0.2745 B(  3-Au,  5-Au) :   0.2261 B(  3-Au,  6-Au) :   0.2914
B(  3-Au,  7-Au) :   0.4162 B(  4-Au,  7-Au) :   0.3305 B(  4-Au, 16-Fe) :   0.3571
B(  5-Au,  6-Au) :   0.2451 B(  5-Au,  9-Au) :   0.2277 B(  5-Au, 10-Au) :   0.3003
B(  6-Au,  7-Au) :   0.3607 B(  6-Au,  9-Au) :   0.2111 B(  6-Au, 11-Au) :   0.3052
B(  7-Au, 11-Au) :   0.4049 B(  7-Au, 12-Au) :   0.1239 B(  7-Au, 14-Au) :   0.3619
B(  7-Au, 16-Fe) :   0.4131 B(  8-Au, 10-Au) :   0.1804 B(  8-Au, 15-Au) :   0.1667
B(  8-Au, 16-Fe) :   0.4067 B(  9-Au, 10-Au) :   0.3099 B(  9-Au, 11-Au) :   0.2123
B(  9-Au, 12-Au) :   0.3390 B(  9-Au, 16-Fe) :   0.1014 B( 10-Au, 12-Au) :   0.2144
B( 10-Au, 15-Au) :   0.2442 B( 10-Au, 16-Fe) :   0.4144 B( 11-Au, 12-Au) :   0.2587
B( 11-Au, 14-Au) :   0.3010 B( 12-Au, 13-Au) :   0.1669 B( 12-Au, 14-Au) :   0.2065
B( 12-Au, 15-Au) :   0.2800 B( 12-Au, 16-Fe) :   0.4358 B( 13-Au, 14-Au) :   0.2254
B( 13-Au, 15-Au) :   0.2084 B( 13-Au, 16-Fe) :   0.5064 B( 14-Au, 16-Fe) :   0.1532
B( 15-Au, 16-Fe) :   0.3790

FINAL SINGLE POINT ENERGY     -3436.731729709909

DIPOLE MOMENT
-------------
                                X             Y             Z
Electronic contribution:      8.27582      31.95486     -29.51072
Nuclear contribution   :     -8.59043     -32.40039      30.06511
                        -----------------------------------------
Total Dipole Moment    :     -0.31460      -0.44553       0.55439
                        -----------------------------------------
Magnitude (a.u.)       :      0.77770
Magnitude (Debye)      :      1.97676

Rotational constants in cm-1:     0.000957     0.000796     0.000738
Rotational constants in MHz :    28.693721    23.877524    22.123531

                             ****ORCA TERMINATED NORMALLY****
TOTAL RUN TIME: 0 days 0 hours 23 minutes 50 seconds 403 msec
