                         Program Version 5.0.3 -  RELEASE  -
|  1> !R2SCAN def2-TZVP VERYSLOWCONV
|  2> !KDIIS
|  3> %scf
|  4>   AutoTRAHIter 200
|  5>   maxiter 400
|  6> end
|  7>
|  8> %pal nprocs 6 end
|  9>
| 10> *xyzfile 0 5 pbe.xyz
| 11>
| 12> $new_job
| 13>
| 14> !R2SCAN def2-TZVP KDIIS SLOWCONV
| 15>
| 16> %scf
| 17>   AutoTRAHIter 200
| 18>   maxiter 400
| 19> end
| 20>
| 21>
| 22> %pal nprocs 6 end
| 23>
| 24> *xyzfile 0 3 pbe.xyz
| 25>
| 26>
| 27>
| 28>
| 29>
| 30>                          ****END OF INPUT****
 Total Charge           Charge          ....    0
 Multiplicity           Mult            ....    5
 Number of Electrons    NEL             ....  330
FINAL SINGLE POINT ENERGY     -3437.294797363439

CARTESIAN COORDINATES (ANGSTROEM)
---------------------------------
  Au     7.601548    6.389867    9.609934
  Au     5.727820    8.487832    9.220021
  Au     9.772119    7.507355    6.931755
  Au     9.624628   10.301767    6.795076
  Au     8.499877    8.976350    8.979840
  Au     9.804725    8.773597    4.427493
  Au     8.113453   11.041506    4.587198
  Au     6.881474   10.079631    7.001247
  Au     8.562744    5.079395    7.339004
  Au     7.270663    8.652696    3.281239
  Au     8.154414    6.529438    4.834599
  Au     5.437340   10.300877    4.646408
  Au     5.412480    7.473066    4.976204
  Au     4.496381    6.506011    7.640148
  Au     4.251838    9.208038    6.913606
  Au     6.108609    4.993887    6.001953
  Fe     7.008060    7.297289    7.234636

 Multiplicity           Mult            ....    3
 Number of Electrons    NEL             ....  330
 Basis Dimension        Dim             ....  685

ORBITAL ENERGIES
----------------
                 SPIN UP ORBITALS
  NO   OCC          E(Eh)            E(eV)
   0   1.0000    -255.617691     -6955.7110
   1   1.0000     -29.909628      -813.8823
   2   1.0000     -25.746022      -700.5849
   3   1.0000     -25.741707      -700.4675
   4   1.0000     -25.734422      -700.2692
   5   1.0000      -4.127173      -112.3061
   6   1.0000      -4.126912      -112.2990
   7   1.0000      -4.126831      -112.2968
   8   1.0000      -4.126524      -112.2884
   9   1.0000      -4.124670      -112.2380
  10   1.0000      -4.121668      -112.1563
  11   1.0000      -4.120858      -112.1342
  12   1.0000      -4.119041      -112.0848
  13   1.0000      -4.118618      -112.0733
  14   1.0000      -4.118562      -112.0718
  15   1.0000      -4.117439      -112.0412
  16   1.0000      -4.116849      -112.0252
  17   1.0000      -4.113455      -111.9328
  18   1.0000      -4.107063      -111.7589
  19   1.0000      -4.105576      -111.7184
  20   1.0000      -4.105418      -111.7141
  21   1.0000      -3.488355       -94.9230
  22   1.0000      -2.316661       -63.0396
  23   1.0000      -2.315822       -63.0167
  24   1.0000      -2.315177       -62.9992
  25   1.0000      -2.315052       -62.9958
  26   1.0000      -2.314047       -62.9684
  27   1.0000      -2.313576       -62.9556
  28   1.0000      -2.312942       -62.9384
  29   1.0000      -2.312277       -62.9203
  30   1.0000      -2.311793       -62.9071
  31   1.0000      -2.311362       -62.8953
  32   1.0000      -2.310387       -62.8688
  33   1.0000      -2.310193       -62.8635
  34   1.0000      -2.310087       -62.8607
  35   1.0000      -2.309537       -62.8457
  36   1.0000      -2.309034       -62.8320
  37   1.0000      -2.308487       -62.8171
  38   1.0000      -2.308139       -62.8077
  39   1.0000      -2.307593       -62.7928
  40   1.0000      -2.307316       -62.7852
  41   1.0000      -2.306253       -62.7563
  42   1.0000      -2.306002       -62.7495
  43   1.0000      -2.305765       -62.7430
  44   1.0000      -2.305524       -62.7365
  45   1.0000      -2.305376       -62.7325
  46   1.0000      -2.304274       -62.7025
  47   1.0000      -2.304052       -62.6964
  48   1.0000      -2.303998       -62.6950
  49   1.0000      -2.303635       -62.6851
  50   1.0000      -2.303431       -62.6795
  51   1.0000      -2.302682       -62.6592
  52   1.0000      -2.302633       -62.6578
  53   1.0000      -2.302376       -62.6508
  54   1.0000      -2.302334       -62.6497
  55   1.0000      -2.302169       -62.6452
  56   1.0000      -2.301410       -62.6246
  57   1.0000      -2.300658       -62.6041
  58   1.0000      -2.300212       -62.5919
  59   1.0000      -2.298726       -62.5515
  60   1.0000      -2.295624       -62.4671
  61   1.0000      -2.295444       -62.4622
  62   1.0000      -2.294285       -62.4307
  63   1.0000      -2.293621       -62.4126
  64   1.0000      -2.292335       -62.3776
  65   1.0000      -2.292228       -62.3747
  66   1.0000      -2.291014       -62.3417
  67   1.0000      -2.289837       -62.3096
  68   1.0000      -2.288166       -62.2642
  69   1.0000      -2.287543       -62.2472
  70   1.0000      -2.265042       -61.6349
  71   1.0000      -2.256661       -61.4069
  72   1.0000      -2.240589       -60.9695
  73   1.0000      -0.438740       -11.9387
  74   1.0000      -0.402224       -10.9451
  75   1.0000      -0.396162       -10.7801
  76   1.0000      -0.393885       -10.7182
  77   1.0000      -0.388710       -10.5773
  78   1.0000      -0.383938       -10.4475
  79   1.0000      -0.379390       -10.3237
  80   1.0000      -0.377504       -10.2724
  81   1.0000      -0.374726       -10.1968
  82   1.0000      -0.372908       -10.1473
  83   1.0000      -0.370018       -10.0687
  84   1.0000      -0.368269       -10.0211
  85   1.0000      -0.367815       -10.0088
  86   1.0000      -0.365894        -9.9565
  87   1.0000      -0.362648        -9.8682
  88   1.0000      -0.360428        -9.8077
  89   1.0000      -0.358824        -9.7641
  90   1.0000      -0.357224        -9.7206
  91   1.0000      -0.355214        -9.6659
  92   1.0000      -0.353824        -9.6280
  93   1.0000      -0.351914        -9.5761
  94   1.0000      -0.350519        -9.5381
  95   1.0000      -0.349209        -9.5025
  96   1.0000      -0.348000        -9.4696
  97   1.0000      -0.346248        -9.4219
  98   1.0000      -0.345130        -9.3915
  99   1.0000      -0.342217        -9.3122
 100   1.0000      -0.337347        -9.1797
 101   1.0000      -0.335542        -9.1306
 102   1.0000      -0.334632        -9.1058
 103   1.0000      -0.332481        -9.0473
 104   1.0000      -0.331780        -9.0282
 105   1.0000      -0.326861        -8.8943
 106   1.0000      -0.325620        -8.8606
 107   1.0000      -0.322750        -8.7825
 108   1.0000      -0.321713        -8.7543
 109   1.0000      -0.319002        -8.6805
 110   1.0000      -0.318273        -8.6607
 111   1.0000      -0.315529        -8.5860
 112   1.0000      -0.313619        -8.5340
 113   1.0000      -0.313007        -8.5173
 114   1.0000      -0.310808        -8.4575
 115   1.0000      -0.308352        -8.3907
 116   1.0000      -0.305943        -8.3251
 117   1.0000      -0.304136        -8.2760
 118   1.0000      -0.303141        -8.2489
 119   1.0000      -0.301620        -8.2075
 120   1.0000      -0.300197        -8.1688
 121   1.0000      -0.296262        -8.0617
 122   1.0000      -0.293365        -7.9829
 123   1.0000      -0.290863        -7.9148
 124   1.0000      -0.289709        -7.8834
 125   1.0000      -0.286884        -7.8065
 126   1.0000      -0.285417        -7.7666
 127   1.0000      -0.284434        -7.7398
 128   1.0000      -0.283278        -7.7084
 129   1.0000      -0.281987        -7.6733
 130   1.0000      -0.280574        -7.6348
 131   1.0000      -0.280068        -7.6210
 132   1.0000      -0.278252        -7.5716
 133   1.0000      -0.276945        -7.5360
 134   1.0000      -0.274067        -7.4577
 135   1.0000      -0.272604        -7.4179
 136   1.0000      -0.270506        -7.3608
 137   1.0000      -0.269624        -7.3369
 138   1.0000      -0.268750        -7.3131
 139   1.0000      -0.267099        -7.2681
 140   1.0000      -0.266965        -7.2645
 141   1.0000      -0.265894        -7.2353
 142   1.0000      -0.265001        -7.2110
 143   1.0000      -0.263669        -7.1748
 144   1.0000      -0.263298        -7.1647
 145   1.0000      -0.262430        -7.1411
 146   1.0000      -0.259970        -7.0741
 147   1.0000      -0.258952        -7.0464
 148   1.0000      -0.258644        -7.0381
 149   1.0000      -0.256903        -6.9907
 150   1.0000      -0.255745        -6.9592
 151   1.0000      -0.255592        -6.9550
 152   1.0000      -0.253822        -6.9069
 153   1.0000      -0.253559        -6.8997
 154   1.0000      -0.251204        -6.8356
 155   1.0000      -0.248528        -6.7628
 156   1.0000      -0.247748        -6.7416
 157   1.0000      -0.245559        -6.6820
 158   1.0000      -0.242977        -6.6117
 159   1.0000      -0.241238        -6.5644
 160   1.0000      -0.240136        -6.5344
 161   1.0000      -0.238678        -6.4948
 162   1.0000      -0.222129        -6.0444
 163   1.0000      -0.214684        -5.8418
 164   1.0000      -0.210966        -5.7407
 165   1.0000      -0.206179        -5.6104
 166   0.0000      -0.190503        -5.1839
 167   0.0000      -0.147449        -4.0123
 168   0.0000      -0.145899        -3.9701
 169   0.0000      -0.138830        -3.7778
 170   0.0000      -0.131465        -3.5773

                 SPIN DOWN ORBITALS
  NO   OCC          E(Eh)            E(eV)
   0   1.0000    -255.616789     -6955.6865
   1   1.0000     -29.837407      -811.9171
   2   1.0000     -25.688140      -699.0098
   3   1.0000     -25.686217      -698.9575
   4   1.0000     -25.682552      -698.8578
   5   1.0000      -4.127650      -112.3191
   6   1.0000      -4.127283      -112.3091
   7   1.0000      -4.127102      -112.3042
   8   1.0000      -4.126528      -112.2885
   9   1.0000      -4.124992      -112.2467
  10   1.0000      -4.121898      -112.1625
  11   1.0000      -4.120828      -112.1334
  12   1.0000      -4.120091      -112.1134
  13   1.0000      -4.118674      -112.0748
  14   1.0000      -4.118655      -112.0743
  15   1.0000      -4.118086      -112.0588
  16   1.0000      -4.117585      -112.0452
  17   1.0000      -4.113168      -111.9250
  18   1.0000      -4.107502      -111.7708
  19   1.0000      -4.105854      -111.7260
  20   1.0000      -4.105677      -111.7211
  21   1.0000      -3.325704       -90.4970
  22   1.0000      -2.317819       -63.0711
  23   1.0000      -2.315921       -63.0194
  24   1.0000      -2.315317       -63.0030
  25   1.0000      -2.315076       -62.9964
  26   1.0000      -2.314259       -62.9742
  27   1.0000      -2.313406       -62.9510
  28   1.0000      -2.313327       -62.9488
  29   1.0000      -2.312440       -62.9247
  30   1.0000      -2.311939       -62.9111
  31   1.0000      -2.311007       -62.8857
  32   1.0000      -2.310518       -62.8724
  33   1.0000      -2.310476       -62.8713
  34   1.0000      -2.310035       -62.8592
  35   1.0000      -2.309698       -62.8501
  36   1.0000      -2.308983       -62.8306
  37   1.0000      -2.308857       -62.8272
  38   1.0000      -2.308691       -62.8227
  39   1.0000      -2.307958       -62.8027
  40   1.0000      -2.307206       -62.7823
  41   1.0000      -2.306200       -62.7549
  42   1.0000      -2.305906       -62.7469
  43   1.0000      -2.305757       -62.7428
  44   1.0000      -2.305623       -62.7392
  45   1.0000      -2.305571       -62.7378
  46   1.0000      -2.305393       -62.7329
  47   1.0000      -2.304652       -62.7128
  48   1.0000      -2.304364       -62.7049
  49   1.0000      -2.303933       -62.6932
  50   1.0000      -2.303683       -62.6864
  51   1.0000      -2.303550       -62.6828
  52   1.0000      -2.303424       -62.6793
  53   1.0000      -2.303184       -62.6728
  54   1.0000      -2.302244       -62.6472
  55   1.0000      -2.302096       -62.6432
  56   1.0000      -2.301473       -62.6263
  57   1.0000      -2.301087       -62.6158
  58   1.0000      -2.300943       -62.6118
  59   1.0000      -2.298507       -62.5456
  60   1.0000      -2.295939       -62.4757
  61   1.0000      -2.295470       -62.4629
  62   1.0000      -2.294736       -62.4429
  63   1.0000      -2.293819       -62.4180
  64   1.0000      -2.292841       -62.3914
  65   1.0000      -2.292574       -62.3841
  66   1.0000      -2.291124       -62.3447
  67   1.0000      -2.290043       -62.3152
  68   1.0000      -2.288367       -62.2696
  69   1.0000      -2.287755       -62.2530
  70   1.0000      -2.098139       -57.0933
  71   1.0000      -2.095793       -57.0294
  72   1.0000      -2.089873       -56.8683
  73   1.0000      -0.436701       -11.8832
  74   1.0000      -0.403464       -10.9788
  75   1.0000      -0.396626       -10.7928
  76   1.0000      -0.394072       -10.7233
  77   1.0000      -0.382720       -10.4144
  78   1.0000      -0.380866       -10.3639
  79   1.0000      -0.379926       -10.3383
  80   1.0000      -0.377365       -10.2686
  81   1.0000      -0.374259       -10.1841
  82   1.0000      -0.372716       -10.1421
  83   1.0000      -0.369482       -10.0541
  84   1.0000      -0.368814       -10.0359
  85   1.0000      -0.367698       -10.0056
  86   1.0000      -0.363727        -9.8975
  87   1.0000      -0.360392        -9.8068
  88   1.0000      -0.359247        -9.7756
  89   1.0000      -0.358419        -9.7531
  90   1.0000      -0.356286        -9.6950
  91   1.0000      -0.354389        -9.6434
  92   1.0000      -0.353389        -9.6162
  93   1.0000      -0.351252        -9.5580
  94   1.0000      -0.349854        -9.5200
  95   1.0000      -0.349307        -9.5051
  96   1.0000      -0.347989        -9.4693
  97   1.0000      -0.345815        -9.4101
  98   1.0000      -0.344953        -9.3866
  99   1.0000      -0.341281        -9.2867
 100   1.0000      -0.338358        -9.2072
 101   1.0000      -0.335581        -9.1316
 102   1.0000      -0.335013        -9.1162
 103   1.0000      -0.333338        -9.0706
 104   1.0000      -0.331210        -9.0127
 105   1.0000      -0.327887        -8.9223
 106   1.0000      -0.323743        -8.8095
 107   1.0000      -0.321269        -8.7422
 108   1.0000      -0.319816        -8.7026
 109   1.0000      -0.317100        -8.6287
 110   1.0000      -0.314914        -8.5692
 111   1.0000      -0.314072        -8.5463
 112   1.0000      -0.311907        -8.4874
 113   1.0000      -0.310967        -8.4618
 114   1.0000      -0.309822        -8.4307
 115   1.0000      -0.305368        -8.3095
 116   1.0000      -0.304161        -8.2766
 117   1.0000      -0.301845        -8.2136
 118   1.0000      -0.300961        -8.1896
 119   1.0000      -0.298760        -8.1297
 120   1.0000      -0.297908        -8.1065
 121   1.0000      -0.295228        -8.0336
 122   1.0000      -0.293067        -7.9748
 123   1.0000      -0.290112        -7.8944
 124   1.0000      -0.287790        -7.8312
 125   1.0000      -0.286390        -7.7931
 126   1.0000      -0.284991        -7.7550
 127   1.0000      -0.283688        -7.7195
 128   1.0000      -0.283363        -7.7107
 129   1.0000      -0.281619        -7.6633
 130   1.0000      -0.280409        -7.6303
 131   1.0000      -0.279920        -7.6170
 132   1.0000      -0.278837        -7.5875
 133   1.0000      -0.276142        -7.5142
 134   1.0000      -0.274543        -7.4707
 135   1.0000      -0.272203        -7.4070
 136   1.0000      -0.270773        -7.3681
 137   1.0000      -0.269624        -7.3368
 138   1.0000      -0.267634        -7.2827
 139   1.0000      -0.266903        -7.2628
 140   1.0000      -0.266041        -7.2393
 141   1.0000      -0.265818        -7.2333
 142   1.0000      -0.265179        -7.2159
 143   1.0000      -0.264770        -7.2048
 144   1.0000      -0.261635        -7.1195
 145   1.0000      -0.259882        -7.0718
 146   1.0000      -0.258442        -7.0326
 147   1.0000      -0.258191        -7.0257
 148   1.0000      -0.255777        -6.9600
 149   1.0000      -0.255375        -6.9491
 150   1.0000      -0.254580        -6.9275
 151   1.0000      -0.252501        -6.8709
 152   1.0000      -0.250493        -6.8163
 153   1.0000      -0.249135        -6.7793
 154   1.0000      -0.247069        -6.7231
 155   1.0000      -0.244293        -6.6475
 156   1.0000      -0.240853        -6.5539
 157   1.0000      -0.229813        -6.2535
 158   1.0000      -0.220726        -6.0062
 159   1.0000      -0.217388        -5.9154
 160   1.0000      -0.213688        -5.8148
 161   1.0000      -0.205318        -5.5870
 162   1.0000      -0.176606        -4.8057
 163   1.0000      -0.171505        -4.6669
 164   0.0000      -0.150268        -4.0890
 165   0.0000      -0.144865        -3.9420
 166   0.0000      -0.141488        -3.8501
 167   0.0000      -0.141085        -3.8391
 168   0.0000      -0.129426        -3.5219

MULLIKEN ATOMIC CHARGES AND SPIN POPULATIONS
--------------------------------------------
   0 Au:    0.315713   -0.060613
   1 Au:    0.373803   -0.069855
   2 Au:   -0.056672   -0.084960
   3 Au:    0.266745   -0.069380
   4 Au:    0.207673   -0.034753
   5 Au:    0.171341   -0.063370
   6 Au:    0.197953   -0.065939
   7 Au:   -0.794607   -0.098586
   8 Au:    0.356056   -0.008406
   9 Au:    0.188761   -0.068199
  10 Au:   -0.147425   -0.086596
  11 Au:    0.246277   -0.068637
  12 Au:   -0.287136   -0.082812
  13 Au:    0.321855   -0.037199
  14 Au:    0.218832   -0.085758
  15 Au:    0.367720   -0.016479
  16 Fe:   -1.946891    3.001540
Sum of atomic charges         :   -0.0000000

LOEWDIN ATOMIC CHARGES AND SPIN POPULATIONS
-------------------------------------------
   0 Au:    0.105523   -0.050046
   1 Au:    0.069709   -0.055178
   2 Au:    0.001793   -0.070711
   3 Au:    0.031513   -0.086514
   4 Au:    0.057748   -0.064908
   5 Au:   -0.006944   -0.057424
   6 Au:   -0.009035   -0.068050
   7 Au:   -0.067326   -0.069171
   8 Au:    0.092069   -0.055434
   9 Au:   -0.004092   -0.056399
  10 Au:   -0.011618   -0.047774
  11 Au:    0.037997   -0.091295
  12 Au:   -0.026318   -0.060651
  13 Au:    0.085292   -0.040037
  14 Au:    0.044857   -0.103565
  15 Au:    0.102539   -0.045914
  16 Fe:   -0.503707    3.023071

  Mayer bond orders larger than 0.100000
B(  0-Au,  1-Au) :   0.1370 B(  0-Au,  4-Au) :   0.1780 B(  0-Au,  8-Au) :   0.2018
B(  0-Au, 16-Fe) :   0.5842 B(  1-Au,  4-Au) :   0.1523 B(  1-Au,  7-Au) :   0.1954
B(  1-Au, 13-Au) :   0.1550 B(  1-Au, 14-Au) :   0.1857 B(  1-Au, 16-Fe) :   0.4491
B(  2-Au,  3-Au) :   0.2330 B(  2-Au,  4-Au) :   0.1373 B(  2-Au,  5-Au) :   0.3006
B(  2-Au,  8-Au) :   0.2919 B(  2-Au, 10-Au) :   0.2072 B(  2-Au, 16-Fe) :   0.3982
B(  3-Au,  4-Au) :   0.2665 B(  3-Au,  5-Au) :   0.2137 B(  3-Au,  6-Au) :   0.2770
B(  3-Au,  7-Au) :   0.4055 B(  4-Au,  7-Au) :   0.3246 B(  4-Au, 16-Fe) :   0.3431
B(  5-Au,  6-Au) :   0.2285 B(  5-Au,  9-Au) :   0.2095 B(  5-Au, 10-Au) :   0.2918
B(  6-Au,  7-Au) :   0.3539 B(  6-Au,  9-Au) :   0.1925 B(  6-Au, 11-Au) :   0.2940
B(  7-Au, 11-Au) :   0.3960 B(  7-Au, 12-Au) :   0.1001 B(  7-Au, 14-Au) :   0.3534
B(  7-Au, 16-Fe) :   0.3974 B(  8-Au, 10-Au) :   0.1736 B(  8-Au, 15-Au) :   0.1517
B(  8-Au, 16-Fe) :   0.3907 B(  9-Au, 10-Au) :   0.3057 B(  9-Au, 11-Au) :   0.1948
B(  9-Au, 12-Au) :   0.3295 B( 10-Au, 12-Au) :   0.2022 B( 10-Au, 15-Au) :   0.2315
B( 10-Au, 16-Fe) :   0.4029 B( 11-Au, 12-Au) :   0.2471 B( 11-Au, 14-Au) :   0.2897
B( 12-Au, 13-Au) :   0.1533 B( 12-Au, 14-Au) :   0.1944 B( 12-Au, 15-Au) :   0.2752
B( 12-Au, 16-Fe) :   0.4184 B( 13-Au, 14-Au) :   0.2081 B( 13-Au, 15-Au) :   0.2028
B( 13-Au, 16-Fe) :   0.5055 B( 14-Au, 16-Fe) :   0.1412 B( 15-Au, 16-Fe) :   0.3680

FINAL SINGLE POINT ENERGY     -3437.270710644997

DIPOLE MOMENT
-------------
                                X             Y             Z
Electronic contribution:      8.27287      31.93648     -29.50242
Nuclear contribution   :     -8.59043     -32.40039      30.06511
                        -----------------------------------------
Total Dipole Moment    :     -0.31756      -0.46391       0.56269
                        -----------------------------------------
Magnitude (a.u.)       :      0.79541
Magnitude (Debye)      :      2.02177

Rotational constants in cm-1:     0.000957     0.000796     0.000738
Rotational constants in MHz :    28.693721    23.877524    22.123531

                             ****ORCA TERMINATED NORMALLY****
TOTAL RUN TIME: 0 days 0 hours 6 minutes 24 seconds 919 msec
