                         Program Version 5.0.3 -  RELEASE  -
|  1> !CASSCF def2-TZVP def2-TZVP/C
|  2> !MOREAD RIJCOSX
|  3> %maxcore 6000
|  4> %moinp "pbe.qro"
|  5> %pal nprocs 2 end
|  6>
|  7> %casscf
|  8>  mult 5,3
|  9>  bweight 1,1
| 10>  nroots 5,45
| 11>  nel 6
| 12>  norb 5
| 13> end
| 14>
| 15>
| 16> *xyzfile 0 5 pbe.xyz
| 17>
| 18>
| 19>                          ****END OF INPUT****

CARTESIAN COORDINATES (ANGSTROEM)
---------------------------------
  Au     8.462613    8.150554    9.455856
  Au     5.787510    7.627012    9.654160
  Au     6.406256    9.991877    8.243397
  Au     9.021972    9.635580    7.145110
  Au     7.274901   11.505329    6.093720
  Au    10.096574    7.029278    7.508187
  Au     4.269827    7.953950    7.315767
  Au     5.508208    5.485356    7.813462
  Au     8.078563    5.209808    6.924530
  Au     8.702347    7.187217    5.035746
  Au     6.451647   11.026963    3.418750
  Au    11.030553    8.705975    5.415092
  Au     6.841113    8.218167    3.266013
  Au     8.860405    9.955025    4.297236
  Au     5.948490    6.442927    5.193031
  Au     5.603112    9.368692    5.474320
  Fe     7.052183    7.637247    7.261428

 Total Charge           Charge          ....    0
 Multiplicity           Mult            ....    5
 Number of Electrons    NEL             ....  330
 Basis Dimension        Dim             ....  685

ORBITAL ENERGIES
----------------

  NO   OCC          E(Eh)            E(eV)
   0   2.0000    -261.399869     -7113.0520
   1   2.0000     -31.961850      -869.7262
   2   2.0000     -27.442397      -746.7456
   3   2.0000     -27.441639      -746.7250
   4   2.0000     -27.441548      -746.7225
   5   2.0000      -4.721003      -128.4650
   6   2.0000      -4.720974      -128.4642
   7   2.0000      -4.719731      -128.4304
   8   2.0000      -4.719594      -128.4267
   9   2.0000      -4.716993      -128.3559
  10   2.0000      -4.715602      -128.3181
  11   2.0000      -4.714778      -128.2956
  12   2.0000      -4.714616      -128.2912
  13   2.0000      -4.712353      -128.2296
  14   2.0000      -4.712275      -128.2275
  15   2.0000      -4.710202      -128.1711
  16   2.0000      -4.709474      -128.1513
  17   2.0000      -4.709405      -128.1494
  18   2.0000      -4.709393      -128.1491
  19   2.0000      -4.707400      -128.0949
  20   2.0000      -4.702199      -127.9533
  21   2.0000      -4.195799      -114.1735
  22   2.0000      -2.776174       -75.5435
  23   2.0000      -2.774942       -75.5100
  24   2.0000      -2.774306       -75.4927
  25   2.0000      -2.759981       -75.1029
  26   2.0000      -2.759166       -75.0807
  27   2.0000      -2.759109       -75.0792
  28   2.0000      -2.758781       -75.0702
  29   2.0000      -2.758286       -75.0568
  30   2.0000      -2.757476       -75.0347
  31   2.0000      -2.757230       -75.0281
  32   2.0000      -2.756225       -75.0007
  33   2.0000      -2.755903       -74.9919
  34   2.0000      -2.755401       -74.9783
  35   2.0000      -2.754012       -74.9405
  36   2.0000      -2.753523       -74.9272
  37   2.0000      -2.753381       -74.9233
  38   2.0000      -2.753136       -74.9166
  39   2.0000      -2.752941       -74.9113
  40   2.0000      -2.752786       -74.9071
  41   2.0000      -2.752468       -74.8985
  42   2.0000      -2.751736       -74.8785
  43   2.0000      -2.751069       -74.8604
  44   2.0000      -2.751052       -74.8599
  45   2.0000      -2.750539       -74.8460
  46   2.0000      -2.750432       -74.8431
  47   2.0000      -2.749580       -74.8199
  48   2.0000      -2.749502       -74.8178
  49   2.0000      -2.749022       -74.8047
  50   2.0000      -2.747809       -74.7717
  51   2.0000      -2.747178       -74.7545
  52   2.0000      -2.746877       -74.7463
  53   2.0000      -2.746626       -74.7395
  54   2.0000      -2.746058       -74.7240
  55   2.0000      -2.746030       -74.7233
  56   2.0000      -2.745696       -74.7142
  57   2.0000      -2.745661       -74.7132
  58   2.0000      -2.745262       -74.7024
  59   2.0000      -2.745065       -74.6970
  60   2.0000      -2.744628       -74.6851
  61   2.0000      -2.744534       -74.6826
  62   2.0000      -2.744469       -74.6808
  63   2.0000      -2.744278       -74.6756
  64   2.0000      -2.743721       -74.6605
  65   2.0000      -2.743131       -74.6444
  66   2.0000      -2.742654       -74.6314
  67   2.0000      -2.742039       -74.6147
  68   2.0000      -2.741406       -74.5974
  69   2.0000      -2.740804       -74.5811
  70   2.0000      -2.737959       -74.5036
  71   2.0000      -2.737049       -74.4789
  72   2.0000      -2.735110       -74.4261
  73   2.0000      -0.589090       -16.0300
  74   2.0000      -0.565139       -15.3782
  75   2.0000      -0.562325       -15.3016
  76   2.0000      -0.557343       -15.1661
  77   2.0000      -0.554478       -15.0881
  78   2.0000      -0.553656       -15.0657
  79   2.0000      -0.553026       -15.0486
  80   2.0000      -0.551408       -15.0046
  81   2.0000      -0.550436       -14.9781
  82   2.0000      -0.548385       -14.9223
  83   2.0000      -0.547952       -14.9105
  84   2.0000      -0.546600       -14.8737
  85   2.0000      -0.543488       -14.7891
  86   2.0000      -0.540845       -14.7171
  87   2.0000      -0.539980       -14.6936
  88   2.0000      -0.539810       -14.6890
  89   2.0000      -0.537730       -14.6324
  90   2.0000      -0.534652       -14.5486
  91   2.0000      -0.533353       -14.5133
  92   2.0000      -0.530917       -14.4470
  93   2.0000      -0.529394       -14.4055
  94   2.0000      -0.526911       -14.3380
  95   2.0000      -0.522664       -14.2224
  96   2.0000      -0.519299       -14.1308
  97   2.0000      -0.518512       -14.1094
  98   2.0000      -0.516596       -14.0573
  99   2.0000      -0.511973       -13.9315
 100   2.0000      -0.510188       -13.8829
 101   2.0000      -0.508418       -13.8348
 102   2.0000      -0.504603       -13.7310
 103   2.0000      -0.502542       -13.6749
 104   2.0000      -0.498557       -13.5664
 105   2.0000      -0.495581       -13.4854
 106   2.0000      -0.493539       -13.4299
 107   2.0000      -0.493430       -13.4269
 108   2.0000      -0.488377       -13.2894
 109   2.0000      -0.486321       -13.2335
 110   2.0000      -0.482789       -13.1373
 111   2.0000      -0.481811       -13.1108
 112   2.0000      -0.477905       -13.0044
 113   2.0000      -0.477316       -12.9884
 114   2.0000      -0.475109       -12.9284
 115   2.0000      -0.474463       -12.9108
 116   2.0000      -0.467721       -12.7273
 117   2.0000      -0.467172       -12.7124
 118   2.0000      -0.465308       -12.6617
 119   2.0000      -0.464961       -12.6522
 120   2.0000      -0.463253       -12.6057
 121   2.0000      -0.460097       -12.5199
 122   2.0000      -0.459802       -12.5118
 123   2.0000      -0.457925       -12.4608
 124   2.0000      -0.452452       -12.3118
 125   2.0000      -0.452161       -12.3039
 126   2.0000      -0.451692       -12.2912
 127   2.0000      -0.450126       -12.2485
 128   2.0000      -0.449992       -12.2449
 129   2.0000      -0.446671       -12.1545
 130   2.0000      -0.446407       -12.1474
 131   2.0000      -0.443197       -12.0600
 132   2.0000      -0.442809       -12.0494
 133   2.0000      -0.442042       -12.0286
 134   2.0000      -0.440877       -11.9969
 135   2.0000      -0.438648       -11.9362
 136   2.0000      -0.437913       -11.9162
 137   2.0000      -0.437361       -11.9012
 138   2.0000      -0.434279       -11.8173
 139   2.0000      -0.433169       -11.7871
 140   2.0000      -0.431535       -11.7427
 141   2.0000      -0.428916       -11.6714
 142   2.0000      -0.427684       -11.6379
 143   2.0000      -0.421887       -11.4801
 144   2.0000      -0.421698       -11.4750
 145   2.0000      -0.418406       -11.3854
 146   2.0000      -0.417507       -11.3610
 147   2.0000      -0.410194       -11.1619
 148   2.0000      -0.409329       -11.1384
 149   2.0000      -0.404893       -11.0177
 150   2.0000      -0.403687       -10.9849
 151   2.0000      -0.403234       -10.9726
 152   2.0000      -0.398768       -10.8510
 153   2.0000      -0.394520       -10.7354
 154   2.0000      -0.387968       -10.5571
 155   2.0000      -0.372120       -10.1259
 156   2.0000      -0.358012        -9.7420
 157   2.0000      -0.268218        -7.2986
 158   2.0000      -0.257932        -7.0187
 159   2.0000      -0.255893        -6.9632
 160   2.0000      -0.223025        -6.0688
 161   2.0000      -0.216827        -5.9002
 162   1.2000      -0.276988        -7.5372
 163   1.2000      -0.272990        -7.4284
 164   1.2000      -0.271500        -7.3879
 165   1.2000      -0.264554        -7.1989
 166   1.2000      -0.277523        -7.5518
 167   0.0000      -0.030201        -0.8218
 168   0.0000      -0.019750        -0.5374
 169   0.0000      -0.014332        -0.3900
 170   0.0000      -0.010761        -0.2928
 171   0.0000      -0.005947        -0.1618

MULLIKEN ATOMIC CHARGES AND SPIN DENSITIES
------------------------------------------
   0 Au:    0.353083    0.008054
   1 Au:    0.281438    0.006956
   2 Au:    0.161135    0.008400
   3 Au:   -0.613627    0.008180
   4 Au:    0.401177    0.003126
   5 Au:    0.248170    0.003751
   6 Au:    0.488253    0.005507
   7 Au:    0.281961    0.006967
   8 Au:    0.352259    0.008093
   9 Au:   -0.616234    0.008193
  10 Au:    0.598742    0.000948
  11 Au:    0.543909    0.002616
  12 Au:    0.399396    0.003133
  13 Au:   -0.270732    0.002240
  14 Au:    0.163470    0.008392
  15 Au:   -0.991285    0.004436
  16 Fe:   -1.781114    2.911007
Sum of atomic charges       :    0.0000000

LOEWDIN ATOMIC CHARGES AND SPIN DENSITIES
-----------------------------------------
   0 Au:    0.073956    0.010394
   1 Au:    0.060214    0.008755
   2 Au:    0.003222    0.010757
   3 Au:   -0.141116    0.009812
   4 Au:    0.055083    0.002976
   5 Au:   -0.038689    0.006241
   6 Au:    0.045064    0.007320
   7 Au:    0.060513    0.008771
   8 Au:    0.074074    0.010428
   9 Au:   -0.141383    0.009827
  10 Au:    0.143090    0.001806
  11 Au:    0.176136    0.003620
  12 Au:    0.054753    0.002976
  13 Au:   -0.074580    0.002692
  14 Au:    0.003804    0.010763
  15 Au:   -0.176675    0.006821
  16 Fe:   -0.177467    2.886043

  Mayer bond orders larger than 0.100000
B(  0-Au,  1-Au) :   0.1348 B(  0-Au,  3-Au) :   0.2874 B(  0-Au,  5-Au) :   0.1568
B(  0-Au, 16-Fe) :   0.4052 B(  1-Au,  2-Au) :   0.2824 B(  1-Au,  6-Au) :   0.1392
B(  1-Au, 16-Fe) :   0.4082 B(  2-Au,  3-Au) :   0.2087 B(  2-Au,  4-Au) :   0.2899
B(  2-Au, 15-Au) :   0.1779 B(  2-Au, 16-Fe) :   0.4110 B(  3-Au,  4-Au) :   0.2671
B(  3-Au,  5-Au) :   0.2336 B(  3-Au,  9-Au) :   0.1649 B(  3-Au, 11-Au) :   0.2099
B(  3-Au, 13-Au) :   0.3221 B(  3-Au, 16-Fe) :   0.4255 B(  4-Au, 10-Au) :   0.1070
B(  4-Au, 13-Au) :   0.1270 B(  4-Au, 15-Au) :   0.2259 B(  5-Au,  8-Au) :   0.1568
B(  5-Au,  9-Au) :   0.2325 B(  5-Au, 11-Au) :   0.1485 B(  5-Au, 16-Fe) :   0.2751
B(  6-Au,  7-Au) :   0.1405 B(  6-Au, 15-Au) :   0.3629 B(  6-Au, 16-Fe) :   0.2395
B(  7-Au,  8-Au) :   0.1337 B(  7-Au, 14-Au) :   0.2809 B(  7-Au, 16-Fe) :   0.4081
B(  8-Au,  9-Au) :   0.2870 B(  8-Au, 16-Fe) :   0.4056 B(  9-Au, 11-Au) :   0.2127
B(  9-Au, 12-Au) :   0.2666 B(  9-Au, 13-Au) :   0.3235 B(  9-Au, 14-Au) :   0.2106
B(  9-Au, 16-Fe) :   0.4257 B( 10-Au, 12-Au) :   0.1075 B( 10-Au, 13-Au) :   0.2105
B( 10-Au, 15-Au) :   0.3392 B( 11-Au, 13-Au) :   0.2871 B( 12-Au, 13-Au) :   0.1270
B( 12-Au, 14-Au) :   0.2903 B( 12-Au, 15-Au) :   0.2271 B( 13-Au, 15-Au) :   0.3657
B( 14-Au, 15-Au) :   0.1744 B( 14-Au, 16-Fe) :   0.4112 B( 15-Au, 16-Fe) :   0.3520

FINAL SINGLE POINT ENERGY     -3419.390337433871

DIPOLE MOMENT
-------------
                                X             Y             Z
Electronic contribution:     13.28498      27.08307     -33.40233
Nuclear contribution   :    -13.17855     -27.02548      33.31843
                        -----------------------------------------
Total Dipole Moment    :      0.10643       0.05760      -0.08390
                        -----------------------------------------
Magnitude (a.u.)       :      0.14726
Magnitude (Debye)      :      0.37430

Rotational constants in cm-1:     0.000973     0.000783     0.000700
Rotational constants in MHz :    29.169773    23.488234    20.979870

                             ****ORCA TERMINATED NORMALLY****
TOTAL RUN TIME: 0 days 1 hours 49 minutes 43 seconds 962 msec
