                         Program Version 5.0.3 -  RELEASE  -
|  1> %pal nprocs 1 end
|  2>
|  3> !PBE def2-TZVP OPT UNO
|  4> !SLOWCONV
|  5>
|  6> *xyzfile 0 5 0.xyz                           ****END OF INPUT****
 Total Charge           Charge          ....    0
 Multiplicity           Mult            ....    5
 Number of Electrons    NEL             ....  330
FINAL SINGLE POINT ENERGY     -3436.757515377237
FINAL SINGLE POINT ENERGY     -3436.759786661584
FINAL SINGLE POINT ENERGY     -3436.760173327487
FINAL SINGLE POINT ENERGY     -3436.760668549427
FINAL SINGLE POINT ENERGY     -3436.761104148572
FINAL SINGLE POINT ENERGY     -3436.761636214855
FINAL SINGLE POINT ENERGY     -3436.761993436276
FINAL SINGLE POINT ENERGY     -3436.762242841857
FINAL SINGLE POINT ENERGY     -3436.762397121633
FINAL SINGLE POINT ENERGY     -3436.762467313970
FINAL SINGLE POINT ENERGY     -3436.762507271219
FINAL SINGLE POINT ENERGY     -3436.762535305594
FINAL SINGLE POINT ENERGY     -3436.762549341023
FINAL SINGLE POINT ENERGY     -3436.762556981835
FINAL SINGLE POINT ENERGY     -3436.762566218458
FINAL SINGLE POINT ENERGY     -3436.762574264328
FINAL SINGLE POINT ENERGY     -3436.762577726810
                    ***********************HURRAY********************

CARTESIAN COORDINATES (ANGSTROEM)
---------------------------------
  Au     7.722206    9.747631    8.327318
  Au     4.837493    8.971830    8.873584
  Au     7.152397    5.990227    9.613166
  Au     4.735771    6.841996   10.647861
  Au     3.796102    8.012834    6.492862
  Au     6.869665    8.652049   10.737040
  Au     5.576466   10.329929    6.609694
  Au     4.812886    5.902193    8.056915
  Au     5.296595    5.912859    5.316292
  Au     5.709863    8.571842    4.407863
  Au     9.388266    7.617816    6.932962
  Au     8.084259    9.582362    5.541721
  Au     7.938822    6.767410    4.732386
  Au     9.315550    7.918423    9.688873
  Au     7.401721    5.120490    6.952643
  Au     9.631819    5.379527    8.548681
  Fe     6.539907    7.750953    6.935006

 Multiplicity           Mult            ....    5
 Number of Electrons    NEL             ....  330
 Basis Dimension        Dim             ....  685

ORBITAL ENERGIES
----------------
                 SPIN UP ORBITALS
  NO   OCC          E(Eh)            E(eV)
   0   1.0000    -254.759532     -6932.3593
   1   1.0000     -29.595715      -805.3404
   2   1.0000     -25.544045      -695.0888
   3   1.0000     -25.526074      -694.5998
   4   1.0000     -25.522715      -694.5084
   5   1.0000      -4.038695      -109.8985
   6   1.0000      -4.036606      -109.8416
   7   1.0000      -4.034689      -109.7895
   8   1.0000      -4.034599      -109.7870
   9   1.0000      -4.032225      -109.7224
  10   1.0000      -4.032120      -109.7196
  11   1.0000      -4.030589      -109.6779
  12   1.0000      -4.029786      -109.6561
  13   1.0000      -4.029415      -109.6460
  14   1.0000      -4.027886      -109.6044
  15   1.0000      -4.026840      -109.5759
  16   1.0000      -4.026591      -109.5691
  17   1.0000      -4.023889      -109.4956
  18   1.0000      -4.023627      -109.4885
  19   1.0000      -4.023483      -109.4845
  20   1.0000      -4.023398      -109.4822
  21   1.0000      -3.377099       -91.8955
  22   1.0000      -2.255274       -61.3691
  23   1.0000      -2.252959       -61.3061
  24   1.0000      -2.251474       -61.2657
  25   1.0000      -2.251094       -61.2554
  26   1.0000      -2.250024       -61.2263
  27   1.0000      -2.249008       -61.1986
  28   1.0000      -2.248664       -61.1893
  29   1.0000      -2.248427       -61.1828
  30   1.0000      -2.248309       -61.1796
  31   1.0000      -2.248181       -61.1761
  32   1.0000      -2.248085       -61.1735
  33   1.0000      -2.247793       -61.1655
  34   1.0000      -2.246605       -61.1332
  35   1.0000      -2.246164       -61.1212
  36   1.0000      -2.245179       -61.0944
  37   1.0000      -2.245080       -61.0917
  38   1.0000      -2.244689       -61.0811
  39   1.0000      -2.244282       -61.0700
  40   1.0000      -2.244167       -61.0669
  41   1.0000      -2.244048       -61.0637
  42   1.0000      -2.243163       -61.0396
  43   1.0000      -2.243130       -61.0387
  44   1.0000      -2.241751       -61.0011
  45   1.0000      -2.241523       -60.9950
  46   1.0000      -2.241317       -60.9893
  47   1.0000      -2.241107       -60.9836
  48   1.0000      -2.240449       -60.9657
  49   1.0000      -2.240314       -60.9621
  50   1.0000      -2.240259       -60.9605
  51   1.0000      -2.240042       -60.9546
  52   1.0000      -2.239568       -60.9417
  53   1.0000      -2.239496       -60.9398
  54   1.0000      -2.239193       -60.9315
  55   1.0000      -2.238887       -60.9232
  56   1.0000      -2.238859       -60.9224
  57   1.0000      -2.238499       -60.9127
  58   1.0000      -2.238139       -60.9029
  59   1.0000      -2.237718       -60.8914
  60   1.0000      -2.237651       -60.8896
  61   1.0000      -2.237117       -60.8751
  62   1.0000      -2.236706       -60.8639
  63   1.0000      -2.236123       -60.8480
  64   1.0000      -2.235975       -60.8440
  65   1.0000      -2.235853       -60.8407
  66   1.0000      -2.234716       -60.8097
  67   1.0000      -2.234588       -60.8062
  68   1.0000      -2.234088       -60.7926
  69   1.0000      -2.233525       -60.7773
  70   1.0000      -2.217285       -60.3354
  71   1.0000      -2.181037       -59.3490
  72   1.0000      -2.174181       -59.1625
  73   1.0000      -0.442484       -12.0406
  74   1.0000      -0.399639       -10.8747
  75   1.0000      -0.397302       -10.8111
  76   1.0000      -0.393021       -10.6946
  77   1.0000      -0.384513       -10.4631
  78   1.0000      -0.381436       -10.3794
  79   1.0000      -0.377493       -10.2721
  80   1.0000      -0.375485       -10.2175
  81   1.0000      -0.371422       -10.1069
  82   1.0000      -0.368483       -10.0269
  83   1.0000      -0.366750        -9.9798
  84   1.0000      -0.366570        -9.9749
  85   1.0000      -0.361818        -9.8456
  86   1.0000      -0.358447        -9.7539
  87   1.0000      -0.355303        -9.6683
  88   1.0000      -0.354172        -9.6375
  89   1.0000      -0.352296        -9.5864
  90   1.0000      -0.349344        -9.5061
  91   1.0000      -0.347563        -9.4577
  92   1.0000      -0.347454        -9.4547
  93   1.0000      -0.346696        -9.4341
  94   1.0000      -0.345734        -9.4079
  95   1.0000      -0.343903        -9.3581
  96   1.0000      -0.343589        -9.3495
  97   1.0000      -0.343346        -9.3429
  98   1.0000      -0.337670        -9.1885
  99   1.0000      -0.335917        -9.1408
 100   1.0000      -0.334343        -9.0979
 101   1.0000      -0.334125        -9.0920
 102   1.0000      -0.328757        -8.9459
 103   1.0000      -0.327945        -8.9238
 104   1.0000      -0.325714        -8.8631
 105   1.0000      -0.324278        -8.8241
 106   1.0000      -0.321179        -8.7397
 107   1.0000      -0.316959        -8.6249
 108   1.0000      -0.315987        -8.5984
 109   1.0000      -0.312793        -8.5115
 110   1.0000      -0.311178        -8.4676
 111   1.0000      -0.306272        -8.3341
 112   1.0000      -0.303480        -8.2581
 113   1.0000      -0.302593        -8.2340
 114   1.0000      -0.301148        -8.1947
 115   1.0000      -0.297755        -8.1023
 116   1.0000      -0.297227        -8.0880
 117   1.0000      -0.296490        -8.0679
 118   1.0000      -0.293973        -7.9994
 119   1.0000      -0.290803        -7.9132
 120   1.0000      -0.289592        -7.8802
 121   1.0000      -0.289097        -7.8667
 122   1.0000      -0.283643        -7.7183
 123   1.0000      -0.281705        -7.6656
 124   1.0000      -0.280223        -7.6253
 125   1.0000      -0.279410        -7.6031
 126   1.0000      -0.279221        -7.5980
 127   1.0000      -0.277114        -7.5407
 128   1.0000      -0.276170        -7.5150
 129   1.0000      -0.275821        -7.5055
 130   1.0000      -0.274281        -7.4636
 131   1.0000      -0.273134        -7.4324
 132   1.0000      -0.272100        -7.4042
 133   1.0000      -0.271109        -7.3773
 134   1.0000      -0.268710        -7.3120
 135   1.0000      -0.268428        -7.3043
 136   1.0000      -0.268266        -7.2999
 137   1.0000      -0.266501        -7.2519
 138   1.0000      -0.264968        -7.2101
 139   1.0000      -0.264587        -7.1998
 140   1.0000      -0.261160        -7.1065
 141   1.0000      -0.260555        -7.0901
 142   1.0000      -0.259599        -7.0640
 143   1.0000      -0.259056        -7.0493
 144   1.0000      -0.258015        -7.0209
 145   1.0000      -0.257734        -7.0133
 146   1.0000      -0.256058        -6.9677
 147   1.0000      -0.255061        -6.9406
 148   1.0000      -0.254785        -6.9330
 149   1.0000      -0.254090        -6.9141
 150   1.0000      -0.253872        -6.9082
 151   1.0000      -0.253428        -6.8961
 152   1.0000      -0.251144        -6.8340
 153   1.0000      -0.249409        -6.7868
 154   1.0000      -0.248491        -6.7618
 155   1.0000      -0.245928        -6.6920
 156   1.0000      -0.244462        -6.6521
 157   1.0000      -0.243961        -6.6385
 158   1.0000      -0.242620        -6.6020
 159   1.0000      -0.240138        -6.5345
 160   1.0000      -0.239787        -6.5249
 161   1.0000      -0.229943        -6.2571
 162   1.0000      -0.222840        -6.0638
 163   1.0000      -0.216648        -5.8953
 164   1.0000      -0.211102        -5.7444
 165   1.0000      -0.201538        -5.4841
 166   1.0000      -0.199011        -5.4154
 167   0.0000      -0.156869        -4.2686
 168   0.0000      -0.141398        -3.8476
 169   0.0000      -0.138188        -3.7603
 170   0.0000      -0.134897        -3.6707
 171   0.0000      -0.132471        -3.6047

                 SPIN DOWN ORBITALS
  NO   OCC          E(Eh)            E(eV)
   0   1.0000    -254.758847     -6932.3407
   1   1.0000     -29.535997      -803.7153
   2   1.0000     -25.493328      -693.7087
   3   1.0000     -25.483100      -693.4304
   4   1.0000     -25.481173      -693.3780
   5   1.0000      -4.037585      -109.8683
   6   1.0000      -4.036000      -109.8252
   7   1.0000      -4.034062      -109.7724
   8   1.0000      -4.033978      -109.7701
   9   1.0000      -4.031749      -109.7095
  10   1.0000      -4.031646      -109.7067
  11   1.0000      -4.030044      -109.6631
  12   1.0000      -4.029354      -109.6443
  13   1.0000      -4.029020      -109.6352
  14   1.0000      -4.027244      -109.5869
  15   1.0000      -4.026492      -109.5664
  16   1.0000      -4.026251      -109.5599
  17   1.0000      -4.023794      -109.4930
  18   1.0000      -4.023535      -109.4860
  19   1.0000      -4.023302      -109.4796
  20   1.0000      -4.023226      -109.4775
  21   1.0000      -3.241105       -88.1950
  22   1.0000      -2.253923       -61.3324
  23   1.0000      -2.252168       -61.2846
  24   1.0000      -2.250830       -61.2482
  25   1.0000      -2.249476       -61.2113
  26   1.0000      -2.248946       -61.1969
  27   1.0000      -2.248409       -61.1823
  28   1.0000      -2.248104       -61.1740
  29   1.0000      -2.247898       -61.1684
  30   1.0000      -2.247819       -61.1663
  31   1.0000      -2.247442       -61.1560
  32   1.0000      -2.247419       -61.1554
  33   1.0000      -2.247285       -61.1517
  34   1.0000      -2.245882       -61.1136
  35   1.0000      -2.245329       -61.0985
  36   1.0000      -2.244638       -61.0797
  37   1.0000      -2.244485       -61.0755
  38   1.0000      -2.244173       -61.0671
  39   1.0000      -2.243815       -61.0573
  40   1.0000      -2.243657       -61.0530
  41   1.0000      -2.243564       -61.0505
  42   1.0000      -2.242833       -61.0306
  43   1.0000      -2.242704       -61.0271
  44   1.0000      -2.241389       -60.9913
  45   1.0000      -2.241168       -60.9853
  46   1.0000      -2.240926       -60.9787
  47   1.0000      -2.240330       -60.9625
  48   1.0000      -2.239990       -60.9532
  49   1.0000      -2.239772       -60.9473
  50   1.0000      -2.239703       -60.9454
  51   1.0000      -2.239512       -60.9402
  52   1.0000      -2.239201       -60.9318
  53   1.0000      -2.239087       -60.9287
  54   1.0000      -2.238712       -60.9185
  55   1.0000      -2.238590       -60.9151
  56   1.0000      -2.238441       -60.9111
  57   1.0000      -2.238256       -60.9060
  58   1.0000      -2.237759       -60.8925
  59   1.0000      -2.237393       -60.8826
  60   1.0000      -2.237364       -60.8818
  61   1.0000      -2.236862       -60.8681
  62   1.0000      -2.236532       -60.8591
  63   1.0000      -2.235978       -60.8441
  64   1.0000      -2.235814       -60.8396
  65   1.0000      -2.235729       -60.8373
  66   1.0000      -2.234533       -60.8047
  67   1.0000      -2.234409       -60.8014
  68   1.0000      -2.233989       -60.7899
  69   1.0000      -2.233443       -60.7751
  70   1.0000      -2.066948       -56.2445
  71   1.0000      -2.054447       -55.9043
  72   1.0000      -2.051826       -55.8330
  73   1.0000      -0.437715       -11.9108
  74   1.0000      -0.398235       -10.8365
  75   1.0000      -0.395626       -10.7655
  76   1.0000      -0.392198       -10.6723
  77   1.0000      -0.377531       -10.2732
  78   1.0000      -0.375142       -10.2081
  79   1.0000      -0.372165       -10.1271
  80   1.0000      -0.369281       -10.0487
  81   1.0000      -0.369200       -10.0464
  82   1.0000      -0.366385        -9.9698
  83   1.0000      -0.363647        -9.8953
  84   1.0000      -0.361956        -9.8493
  85   1.0000      -0.359163        -9.7733
  86   1.0000      -0.356459        -9.6997
  87   1.0000      -0.352540        -9.5931
  88   1.0000      -0.351876        -9.5750
  89   1.0000      -0.350568        -9.5394
  90   1.0000      -0.348554        -9.4846
  91   1.0000      -0.346547        -9.4300
  92   1.0000      -0.346406        -9.4262
  93   1.0000      -0.345780        -9.4092
  94   1.0000      -0.344931        -9.3861
  95   1.0000      -0.342839        -9.3291
  96   1.0000      -0.342732        -9.3262
  97   1.0000      -0.342272        -9.3137
  98   1.0000      -0.336258        -9.1500
  99   1.0000      -0.335108        -9.1188
 100   1.0000      -0.333296        -9.0695
 101   1.0000      -0.332508        -9.0480
 102   1.0000      -0.327506        -8.9119
 103   1.0000      -0.325766        -8.8646
 104   1.0000      -0.322848        -8.7851
 105   1.0000      -0.318776        -8.6743
 106   1.0000      -0.318580        -8.6690
 107   1.0000      -0.316360        -8.6086
 108   1.0000      -0.311911        -8.4875
 109   1.0000      -0.308894        -8.4054
 110   1.0000      -0.307262        -8.3610
 111   1.0000      -0.304078        -8.2744
 112   1.0000      -0.300794        -8.1850
 113   1.0000      -0.296806        -8.0765
 114   1.0000      -0.295712        -8.0467
 115   1.0000      -0.292487        -7.9590
 116   1.0000      -0.291084        -7.9208
 117   1.0000      -0.289625        -7.8811
 118   1.0000      -0.289411        -7.8753
 119   1.0000      -0.287372        -7.8198
 120   1.0000      -0.284924        -7.7532
 121   1.0000      -0.283099        -7.7035
 122   1.0000      -0.281066        -7.6482
 123   1.0000      -0.279091        -7.5945
 124   1.0000      -0.278633        -7.5820
 125   1.0000      -0.277849        -7.5606
 126   1.0000      -0.276210        -7.5160
 127   1.0000      -0.275812        -7.5052
 128   1.0000      -0.274301        -7.4641
 129   1.0000      -0.273760        -7.4494
 130   1.0000      -0.272361        -7.4113
 131   1.0000      -0.272008        -7.4017
 132   1.0000      -0.270053        -7.3485
 133   1.0000      -0.269688        -7.3386
 134   1.0000      -0.267734        -7.2854
 135   1.0000      -0.266731        -7.2581
 136   1.0000      -0.266305        -7.2465
 137   1.0000      -0.265340        -7.2203
 138   1.0000      -0.263581        -7.1724
 139   1.0000      -0.260841        -7.0979
 140   1.0000      -0.258622        -7.0375
 141   1.0000      -0.257431        -7.0051
 142   1.0000      -0.257221        -6.9994
 143   1.0000      -0.255862        -6.9624
 144   1.0000      -0.254568        -6.9272
 145   1.0000      -0.254318        -6.9203
 146   1.0000      -0.253428        -6.8961
 147   1.0000      -0.253019        -6.8850
 148   1.0000      -0.250532        -6.8173
 149   1.0000      -0.249140        -6.7794
 150   1.0000      -0.248178        -6.7533
 151   1.0000      -0.245431        -6.6785
 152   1.0000      -0.244141        -6.6434
 153   1.0000      -0.243623        -6.6293
 154   1.0000      -0.242792        -6.6067
 155   1.0000      -0.240835        -6.5535
 156   1.0000      -0.231086        -6.2882
 157   1.0000      -0.229070        -6.2333
 158   1.0000      -0.219630        -5.9764
 159   1.0000      -0.215633        -5.8677
 160   1.0000      -0.209755        -5.7077
 161   1.0000      -0.206626        -5.6226
 162   1.0000      -0.178452        -4.8559
 163   0.0000      -0.170925        -4.6511
 164   0.0000      -0.165571        -4.5054
 165   0.0000      -0.160089        -4.3562
 166   0.0000      -0.151684        -4.1275
 167   0.0000      -0.145765        -3.9665

MULLIKEN ATOMIC CHARGES AND SPIN POPULATIONS
--------------------------------------------
   0 Au:   -0.107829    0.079816
   1 Au:   -0.225445    0.075561
   2 Au:   -0.601848    0.057138
   3 Au:    0.506502    0.033765
   4 Au:    0.343626    0.041007
   5 Au:    0.244675    0.036426
   6 Au:    0.374114    0.047591
   7 Au:   -0.004777    0.073291
   8 Au:    0.419559    0.038164
   9 Au:    0.231931    0.050505
  10 Au:   -0.223069    0.077718
  11 Au:    0.374429    0.047618
  12 Au:    0.343175    0.039229
  13 Au:    0.243717    0.041063
  14 Au:   -0.003445    0.073123
  15 Au:    0.506219    0.035886
  16 Fe:   -2.421535    3.152099
Sum of atomic charges         :   -0.0000000

LOEWDIN ATOMIC CHARGES AND SPIN POPULATIONS
-------------------------------------------
   0 Au:    0.019710    0.070523
   1 Au:   -0.040316    0.051442
   2 Au:   -0.082873    0.051340
   3 Au:    0.101395    0.042242
   4 Au:    0.071742    0.031210
   5 Au:    0.018478    0.038207
   6 Au:    0.073837    0.037462
   7 Au:    0.006126    0.055781
   8 Au:    0.079237    0.035950
   9 Au:    0.052817    0.039862
  10 Au:   -0.039620    0.053475
  11 Au:    0.074319    0.037997
  12 Au:    0.071785    0.030238
  13 Au:    0.018852    0.040687
  14 Au:    0.006065    0.055365
  15 Au:    0.101387    0.044248
  16 Fe:   -0.532940    3.283971

  Mayer bond orders larger than 0.100000
B(  0-Au,  1-Au) :   0.1233 B(  0-Au,  5-Au) :   0.2979 B(  0-Au,  6-Au) :   0.2191
B(  0-Au, 10-Au) :   0.1213 B(  0-Au, 11-Au) :   0.2171 B(  0-Au, 13-Au) :   0.2985
B(  0-Au, 16-Fe) :   0.5307 B(  1-Au,  2-Au) :   0.1214 B(  1-Au,  3-Au) :   0.2453
B(  1-Au,  4-Au) :   0.2391 B(  1-Au,  5-Au) :   0.3087 B(  1-Au,  6-Au) :   0.2893
B(  1-Au,  7-Au) :   0.1388 B(  1-Au, 16-Fe) :   0.4179 B(  2-Au,  3-Au) :   0.3763
B(  2-Au,  5-Au) :   0.2659 B(  2-Au,  7-Au) :   0.2548 B(  2-Au, 10-Au) :   0.1206
B(  2-Au, 13-Au) :   0.2676 B(  2-Au, 14-Au) :   0.2552 B(  2-Au, 15-Au) :   0.3744
B(  2-Au, 16-Fe) :   0.2000 B(  3-Au,  5-Au) :   0.2017 B(  3-Au,  7-Au) :   0.2745
B(  4-Au,  6-Au) :   0.1211 B(  4-Au,  7-Au) :   0.1868 B(  4-Au,  8-Au) :   0.1821
B(  4-Au,  9-Au) :   0.1718 B(  4-Au, 16-Fe) :   0.3722 B(  5-Au, 13-Au) :   0.2683
B(  6-Au,  9-Au) :   0.2103 B(  6-Au, 11-Au) :   0.1757 B(  6-Au, 16-Fe) :   0.3713
B(  7-Au,  8-Au) :   0.2290 B(  7-Au, 14-Au) :   0.1427 B(  7-Au, 16-Fe) :   0.4931
B(  8-Au,  9-Au) :   0.1879 B(  8-Au, 12-Au) :   0.1815 B(  8-Au, 14-Au) :   0.2292
B(  8-Au, 16-Fe) :   0.3769 B(  9-Au, 11-Au) :   0.2107 B(  9-Au, 12-Au) :   0.1705
B(  9-Au, 16-Fe) :   0.4473 B( 10-Au, 11-Au) :   0.2913 B( 10-Au, 12-Au) :   0.2386
B( 10-Au, 13-Au) :   0.3100 B( 10-Au, 14-Au) :   0.1380 B( 10-Au, 15-Au) :   0.2477
B( 10-Au, 16-Fe) :   0.4191 B( 11-Au, 12-Au) :   0.1180 B( 11-Au, 16-Fe) :   0.3725
B( 12-Au, 14-Au) :   0.1873 B( 12-Au, 16-Fe) :   0.3727 B( 13-Au, 15-Au) :   0.1995
B( 14-Au, 15-Au) :   0.2757 B( 14-Au, 16-Fe) :   0.4913

FINAL SINGLE POINT ENERGY     -3436.762579894665

DIPOLE MOMENT
-------------
                                X             Y             Z
Electronic contribution:      8.65627      -6.57214      25.17293
Nuclear contribution   :     -8.68665       6.44872     -25.16442
                        -----------------------------------------
Total Dipole Moment    :     -0.03038      -0.12342       0.00851
                        -----------------------------------------
Magnitude (a.u.)       :      0.12739
Magnitude (Debye)      :      0.32380

Rotational constants in cm-1:     0.000949     0.000833     0.000742
Rotational constants in MHz :    28.443922    24.982853    22.258270

                             ****ORCA TERMINATED NORMALLY****
TOTAL RUN TIME: 0 days 7 hours 24 minutes 24 seconds 433 msec
