                         Program Version 5.0.3 -  RELEASE  -
|  1> !RI-B2PLYP def2-TZVP def2-TZVP/C
|  2> !RIJCOSX VERYSLOWCONV
|  3>
|  4> %scf
|  5>   AutoTRAHIter 200
|  6>   maxiter 400
|  7> end
|  8>
|  9>
| 10> %pal nprocs 6 end
| 11>
| 12> *xyzfile 0 5 pbe.xyz
| 13>
| 14> $new_job
| 15>
| 16> !RI-B2PLYP def2-TZVP def2-TZVP/C
| 17> !RIJCOSX VERYSLOWCONV
| 18>
| 19> %scf
| 20>   AutoTRAHIter 200
| 21>   maxiter 400
| 22> end
| 23>
| 24>
| 25> %pal nprocs 6 end
| 26>
| 27> *xyzfile 0 3 pbe.xyz
| 28>
| 29>
| 30>
| 31>
| 32>
| 33>                          ****END OF INPUT****
 Total Charge           Charge          ....    0
 Multiplicity           Mult            ....    5
 Number of Electrons    NEL             ....  328
MP2 TOTAL ENERGY:    -3213.733746878 Eh
FINAL SINGLE POINT ENERGY     -3213.733746877943

CARTESIAN COORDINATES (ANGSTROEM)
---------------------------------
  Au     6.503245    9.030521    5.878520
  Au    10.345597    7.711710    8.320027
  Au    11.831774    9.892552    7.336758
  Au     9.245296    9.440252    6.355253
  Au     9.129319    6.709534    6.062937
  Au     6.517008    6.313770    5.260838
  Au     7.364189   11.050231    7.587838
  Au     9.796516   10.520356    9.014628
  Au     9.241500    8.335729   10.778548
  Au     6.493436    7.721497   10.592312
  Au     7.394729   10.355984   10.276399
  Au     5.350315    9.375376    8.627934
  Au     5.805256    5.513632    9.122598
  Au     7.679155    4.691350    7.269016
  Au     8.639169    5.883003    9.604501
  Au     4.710381    7.139358    7.179563
  Cr     7.391445    7.583800    7.949174

 Multiplicity           Mult            ....    3
 Number of Electrons    NEL             ....  328
 Basis Dimension        Dim             ....  685

ORBITAL ENERGIES
----------------
                 SPIN UP ORBITALS
  NO   OCC          E(Eh)            E(eV)
   0   1.0000    -217.772998     -5925.9045
   1   1.0000     -25.457997      -692.7473
   2   1.0000     -21.598407      -587.7225
   3   1.0000     -21.596788      -587.6785
   4   1.0000     -21.591443      -587.5330
   5   1.0000      -4.408952      -119.9737
   6   1.0000      -4.408307      -119.9561
   7   1.0000      -4.405062      -119.8678
   8   1.0000      -4.404391      -119.8496
   9   1.0000      -4.404123      -119.8423
  10   1.0000      -4.402391      -119.7951
  11   1.0000      -4.401837      -119.7801
  12   1.0000      -4.397156      -119.6527
  13   1.0000      -4.397066      -119.6502
  14   1.0000      -4.396769      -119.6422
  15   1.0000      -4.394601      -119.5832
  16   1.0000      -4.394476      -119.5798
  17   1.0000      -4.394302      -119.5750
  18   1.0000      -4.393543      -119.5544
  19   1.0000      -4.390886      -119.4821
  20   1.0000      -4.374622      -119.0395
  21   1.0000      -3.247106       -88.3583
  22   1.0000      -2.528214       -68.7962
  23   1.0000      -2.527582       -68.7790
  24   1.0000      -2.527022       -68.7638
  25   1.0000      -2.526423       -68.7475
  26   1.0000      -2.525269       -68.7161
  27   1.0000      -2.524672       -68.6998
  28   1.0000      -2.523937       -68.6798
  29   1.0000      -2.523850       -68.6775
  30   1.0000      -2.523658       -68.6722
  31   1.0000      -2.523089       -68.6567
  32   1.0000      -2.522722       -68.6468
  33   1.0000      -2.522259       -68.6342
  34   1.0000      -2.521448       -68.6121
  35   1.0000      -2.520493       -68.5861
  36   1.0000      -2.520161       -68.5771
  37   1.0000      -2.519655       -68.5633
  38   1.0000      -2.519184       -68.5505
  39   1.0000      -2.518405       -68.5293
  40   1.0000      -2.517978       -68.5177
  41   1.0000      -2.517736       -68.5111
  42   1.0000      -2.516896       -68.4882
  43   1.0000      -2.516814       -68.4860
  44   1.0000      -2.516624       -68.4808
  45   1.0000      -2.516412       -68.4750
  46   1.0000      -2.515834       -68.4593
  47   1.0000      -2.515321       -68.4454
  48   1.0000      -2.514255       -68.4163
  49   1.0000      -2.513990       -68.4091
  50   1.0000      -2.513055       -68.3837
  51   1.0000      -2.512837       -68.3778
  52   1.0000      -2.512099       -68.3577
  53   1.0000      -2.511925       -68.3529
  54   1.0000      -2.511543       -68.3426
  55   1.0000      -2.511354       -68.3374
  56   1.0000      -2.511194       -68.3331
  57   1.0000      -2.510892       -68.3248
  58   1.0000      -2.510609       -68.3171
  59   1.0000      -2.510124       -68.3039
  60   1.0000      -2.509887       -68.2975
  61   1.0000      -2.509762       -68.2941
  62   1.0000      -2.509258       -68.2804
  63   1.0000      -2.509092       -68.2759
  64   1.0000      -2.508209       -68.2518
  65   1.0000      -2.506713       -68.2111
  66   1.0000      -2.505800       -68.1863
  67   1.0000      -2.494245       -67.8719
  68   1.0000      -2.490341       -67.7656
  69   1.0000      -2.490078       -67.7585
  70   1.0000      -2.139343       -58.2145
  71   1.0000      -2.129991       -57.9600
  72   1.0000      -2.126730       -57.8713
  73   1.0000      -0.500067       -13.6075
  74   1.0000      -0.486126       -13.2282
  75   1.0000      -0.479473       -13.0471
  76   1.0000      -0.477444       -12.9919
  77   1.0000      -0.474482       -12.9113
  78   1.0000      -0.470083       -12.7916
  79   1.0000      -0.466101       -12.6832
  80   1.0000      -0.465047       -12.6546
  81   1.0000      -0.464242       -12.6327
  82   1.0000      -0.462435       -12.5835
  83   1.0000      -0.461760       -12.5651
  84   1.0000      -0.459235       -12.4964
  85   1.0000      -0.458564       -12.4781
  86   1.0000      -0.457005       -12.4357
  87   1.0000      -0.455824       -12.4036
  88   1.0000      -0.454327       -12.3629
  89   1.0000      -0.453330       -12.3357
  90   1.0000      -0.452498       -12.3131
  91   1.0000      -0.451659       -12.2903
  92   1.0000      -0.451227       -12.2785
  93   1.0000      -0.449349       -12.2274
  94   1.0000      -0.447755       -12.1840
  95   1.0000      -0.445347       -12.1185
  96   1.0000      -0.437912       -11.9162
  97   1.0000      -0.435936       -11.8624
  98   1.0000      -0.434696       -11.8287
  99   1.0000      -0.433812       -11.8046
 100   1.0000      -0.430981       -11.7276
 101   1.0000      -0.429539       -11.6883
 102   1.0000      -0.427375       -11.6295
 103   1.0000      -0.422296       -11.4912
 104   1.0000      -0.421884       -11.4800
 105   1.0000      -0.419162       -11.4060
 106   1.0000      -0.416409       -11.3311
 107   1.0000      -0.414658       -11.2834
 108   1.0000      -0.413597       -11.2545
 109   1.0000      -0.411679       -11.2024
 110   1.0000      -0.410040       -11.1578
 111   1.0000      -0.408752       -11.1227
 112   1.0000      -0.406223       -11.0539
 113   1.0000      -0.401229       -10.9180
 114   1.0000      -0.396825       -10.7982
 115   1.0000      -0.393633       -10.7113
 116   1.0000      -0.391533       -10.6541
 117   1.0000      -0.390597       -10.6287
 118   1.0000      -0.389030       -10.5860
 119   1.0000      -0.384144       -10.4531
 120   1.0000      -0.382165       -10.3992
 121   1.0000      -0.379664       -10.3312
 122   1.0000      -0.377646       -10.2763
 123   1.0000      -0.375571       -10.2198
 124   1.0000      -0.375030       -10.2051
 125   1.0000      -0.373600       -10.1662
 126   1.0000      -0.372828       -10.1452
 127   1.0000      -0.368323       -10.0226
 128   1.0000      -0.367302        -9.9948
 129   1.0000      -0.366402        -9.9703
 130   1.0000      -0.365263        -9.9393
 131   1.0000      -0.363653        -9.8955
 132   1.0000      -0.362639        -9.8679
 133   1.0000      -0.360761        -9.8168
 134   1.0000      -0.359668        -9.7871
 135   1.0000      -0.359369        -9.7789
 136   1.0000      -0.358712        -9.7611
 137   1.0000      -0.356631        -9.7044
 138   1.0000      -0.354473        -9.6457
 139   1.0000      -0.353993        -9.6326
 140   1.0000      -0.351976        -9.5777
 141   1.0000      -0.350922        -9.5491
 142   1.0000      -0.349949        -9.5226
 143   1.0000      -0.349346        -9.5062
 144   1.0000      -0.348094        -9.4721
 145   1.0000      -0.345789        -9.4094
 146   1.0000      -0.344579        -9.3765
 147   1.0000      -0.343193        -9.3388
 148   1.0000      -0.342682        -9.3249
 149   1.0000      -0.339439        -9.2366
 150   1.0000      -0.338297        -9.2055
 151   1.0000      -0.337658        -9.1881
 152   1.0000      -0.335297        -9.1239
 153   1.0000      -0.333910        -9.0862
 154   1.0000      -0.331277        -9.0145
 155   1.0000      -0.330754        -9.0003
 156   1.0000      -0.324601        -8.8328
 157   1.0000      -0.317990        -8.6529
 158   1.0000      -0.311957        -8.4888
 159   1.0000      -0.310309        -8.4439
 160   1.0000      -0.308214        -8.3869
 161   1.0000      -0.249829        -6.7982
 162   1.0000      -0.243732        -6.6323
 163   1.0000      -0.234734        -6.3874
 164   1.0000      -0.232493        -6.3265
 165   0.0000      -0.130031        -3.5383
 166   0.0000      -0.097997        -2.6666
 167   0.0000      -0.080412        -2.1881
 168   0.0000      -0.074487        -2.0269
 169   0.0000      -0.072739        -1.9793

                 SPIN DOWN ORBITALS
  NO   OCC          E(Eh)            E(eV)
   0   1.0000    -217.771718     -5925.8697
   1   1.0000     -25.387315      -690.8240
   2   1.0000     -21.540314      -586.1418
   3   1.0000     -21.535220      -586.0031
   4   1.0000     -21.515245      -585.4596
   5   1.0000      -4.409479      -119.9880
   6   1.0000      -4.408831      -119.9704
   7   1.0000      -4.405477      -119.8791
   8   1.0000      -4.405392      -119.8768
   9   1.0000      -4.405129      -119.8697
  10   1.0000      -4.403563      -119.8270
  11   1.0000      -4.403078      -119.8138
  12   1.0000      -4.397537      -119.6631
  13   1.0000      -4.397324      -119.6573
  14   1.0000      -4.397200      -119.6539
  15   1.0000      -4.394989      -119.5937
  16   1.0000      -4.394890      -119.5910
  17   1.0000      -4.394669      -119.5850
  18   1.0000      -4.394015      -119.5672
  19   1.0000      -4.391385      -119.4957
  20   1.0000      -4.376702      -119.0961
  21   1.0000      -3.031620       -82.4946
  22   1.0000      -2.528395       -68.8011
  23   1.0000      -2.527901       -68.7877
  24   1.0000      -2.527283       -68.7709
  25   1.0000      -2.526590       -68.7520
  26   1.0000      -2.525883       -68.7328
  27   1.0000      -2.524951       -68.7074
  28   1.0000      -2.524577       -68.6972
  29   1.0000      -2.524419       -68.6929
  30   1.0000      -2.524170       -68.6862
  31   1.0000      -2.523824       -68.6767
  32   1.0000      -2.523607       -68.6708
  33   1.0000      -2.522132       -68.6307
  34   1.0000      -2.521851       -68.6230
  35   1.0000      -2.521642       -68.6174
  36   1.0000      -2.520689       -68.5914
  37   1.0000      -2.520562       -68.5880
  38   1.0000      -2.519484       -68.5586
  39   1.0000      -2.519224       -68.5516
  40   1.0000      -2.519041       -68.5466
  41   1.0000      -2.518157       -68.5225
  42   1.0000      -2.517401       -68.5020
  43   1.0000      -2.517209       -68.4967
  44   1.0000      -2.516674       -68.4822
  45   1.0000      -2.515970       -68.4630
  46   1.0000      -2.515551       -68.4516
  47   1.0000      -2.515285       -68.4444
  48   1.0000      -2.514712       -68.4288
  49   1.0000      -2.514245       -68.4161
  50   1.0000      -2.513259       -68.3893
  51   1.0000      -2.512958       -68.3811
  52   1.0000      -2.512447       -68.3672
  53   1.0000      -2.512376       -68.3652
  54   1.0000      -2.512113       -68.3581
  55   1.0000      -2.511998       -68.3549
  56   1.0000      -2.511539       -68.3424
  57   1.0000      -2.511010       -68.3281
  58   1.0000      -2.510861       -68.3240
  59   1.0000      -2.510460       -68.3131
  60   1.0000      -2.510360       -68.3104
  61   1.0000      -2.510218       -68.3065
  62   1.0000      -2.510096       -68.3032
  63   1.0000      -2.509682       -68.2919
  64   1.0000      -2.508646       -68.2637
  65   1.0000      -2.507187       -68.2240
  66   1.0000      -2.506089       -68.1942
  67   1.0000      -2.495956       -67.9184
  68   1.0000      -2.491579       -67.7993
  69   1.0000      -2.491308       -67.7919
  70   1.0000      -1.907086       -51.8944
  71   1.0000      -1.896277       -51.6003
  72   1.0000      -1.849388       -50.3244
  73   1.0000      -0.497913       -13.5489
  74   1.0000      -0.478167       -13.0116
  75   1.0000      -0.472240       -12.8503
  76   1.0000      -0.467672       -12.7260
  77   1.0000      -0.466722       -12.7002
  78   1.0000      -0.466369       -12.6905
  79   1.0000      -0.463939       -12.6244
  80   1.0000      -0.463215       -12.6047
  81   1.0000      -0.462403       -12.5826
  82   1.0000      -0.461530       -12.5589
  83   1.0000      -0.460820       -12.5395
  84   1.0000      -0.459914       -12.5149
  85   1.0000      -0.458901       -12.4873
  86   1.0000      -0.457008       -12.4358
  87   1.0000      -0.456605       -12.4248
  88   1.0000      -0.455162       -12.3856
  89   1.0000      -0.454198       -12.3594
  90   1.0000      -0.454071       -12.3559
  91   1.0000      -0.453510       -12.3406
  92   1.0000      -0.452707       -12.3188
  93   1.0000      -0.449412       -12.2291
  94   1.0000      -0.446562       -12.1516
  95   1.0000      -0.442630       -12.0446
  96   1.0000      -0.439187       -11.9509
  97   1.0000      -0.436717       -11.8837
  98   1.0000      -0.435514       -11.8509
  99   1.0000      -0.434919       -11.8348
 100   1.0000      -0.431884       -11.7521
 101   1.0000      -0.430936       -11.7264
 102   1.0000      -0.429408       -11.6848
 103   1.0000      -0.424139       -11.5414
 104   1.0000      -0.422113       -11.4863
 105   1.0000      -0.419883       -11.4256
 106   1.0000      -0.415651       -11.3104
 107   1.0000      -0.413478       -11.2513
 108   1.0000      -0.410668       -11.1748
 109   1.0000      -0.410404       -11.1677
 110   1.0000      -0.408529       -11.1166
 111   1.0000      -0.406170       -11.0524
 112   1.0000      -0.399742       -10.8775
 113   1.0000      -0.397657       -10.8208
 114   1.0000      -0.392791       -10.6884
 115   1.0000      -0.391088       -10.6420
 116   1.0000      -0.389029       -10.5860
 117   1.0000      -0.386654       -10.5214
 118   1.0000      -0.383960       -10.4481
 119   1.0000      -0.382452       -10.4070
 120   1.0000      -0.378834       -10.3086
 121   1.0000      -0.378273       -10.2933
 122   1.0000      -0.378028       -10.2867
 123   1.0000      -0.376567       -10.2469
 124   1.0000      -0.375238       -10.2107
 125   1.0000      -0.371453       -10.1077
 126   1.0000      -0.369978       -10.0676
 127   1.0000      -0.367954       -10.0125
 128   1.0000      -0.366643        -9.9769
 129   1.0000      -0.366118        -9.9626
 130   1.0000      -0.365009        -9.9324
 131   1.0000      -0.363707        -9.8970
 132   1.0000      -0.361689        -9.8420
 133   1.0000      -0.361024        -9.8240
 134   1.0000      -0.360341        -9.8054
 135   1.0000      -0.358308        -9.7501
 136   1.0000      -0.356168        -9.6918
 137   1.0000      -0.355213        -9.6658
 138   1.0000      -0.353058        -9.6072
 139   1.0000      -0.352684        -9.5970
 140   1.0000      -0.351801        -9.5730
 141   1.0000      -0.350764        -9.5448
 142   1.0000      -0.347631        -9.4595
 143   1.0000      -0.346167        -9.4197
 144   1.0000      -0.345797        -9.4096
 145   1.0000      -0.343725        -9.3532
 146   1.0000      -0.341351        -9.2886
 147   1.0000      -0.340325        -9.2607
 148   1.0000      -0.339049        -9.2260
 149   1.0000      -0.337046        -9.1715
 150   1.0000      -0.333891        -9.0856
 151   1.0000      -0.333351        -9.0709
 152   1.0000      -0.328783        -8.9466
 153   1.0000      -0.322476        -8.7750
 154   1.0000      -0.319488        -8.6937
 155   1.0000      -0.319258        -8.6875
 156   1.0000      -0.310559        -8.4507
 157   1.0000      -0.272177        -7.4063
 158   1.0000      -0.247581        -6.7370
 159   1.0000      -0.245366        -6.6767
 160   1.0000      -0.235570        -6.4102
 161   1.0000      -0.224015        -6.0958
 162   1.0000      -0.184345        -5.0163
 163   0.0000      -0.078424        -2.1340
 164   0.0000      -0.076695        -2.0870
 165   0.0000      -0.075577        -2.0566
 166   0.0000      -0.068941        -1.8760
 167   0.0000      -0.064428        -1.7532

MULLIKEN ATOMIC CHARGES AND SPIN POPULATIONS
--------------------------------------------
   0 Au:    0.417775   -0.082437
   1 Au:    0.010238   -0.021202
   2 Au:    0.425580   -0.478805
   3 Au:    0.048831   -0.038433
   4 Au:    0.288194   -0.029991
   5 Au:    0.425849   -0.051118
   6 Au:    0.326489    0.010040
   7 Au:   -0.150566    0.053655
   8 Au:    0.335235    0.000668
   9 Au:    0.294984   -0.219350
  10 Au:    0.344648   -0.013450
  11 Au:    0.293481   -0.223334
  12 Au:    0.454057   -0.068368
  13 Au:    0.398351   -0.037359
  14 Au:    0.442214   -0.088331
  15 Au:    0.435357   -0.061342
  16 Cr:   -4.790719    3.349154
Sum of atomic charges         :    0.0000000

LOEWDIN ATOMIC CHARGES AND SPIN POPULATIONS
-------------------------------------------
   0 Au:    0.088890   -0.109852
   1 Au:   -0.018975   -0.106286
   2 Au:    0.108737   -0.305343
   3 Au:   -0.017740   -0.109801
   4 Au:    0.104258   -0.088352
   5 Au:    0.112019   -0.060520
   6 Au:    0.091742   -0.050124
   7 Au:   -0.053027   -0.030508
   8 Au:    0.094375   -0.051830
   9 Au:    0.071177   -0.133003
  10 Au:    0.060212   -0.046147
  11 Au:    0.073156   -0.132483
  12 Au:    0.113652   -0.107981
  13 Au:    0.102582   -0.056626
  14 Au:    0.095619   -0.113797
  15 Au:    0.106179   -0.102776
  16 Cr:   -1.132857    3.605428

  Mayer bond orders larger than 0.100000
B(  0-Au,  3-Au) :   0.1849 B(  0-Au,  5-Au) :   0.2440 B(  0-Au,  6-Au) :   0.1491
B(  0-Au, 11-Au) :   0.1063 B(  0-Au, 14-Au) :   0.1195 B(  0-Au, 15-Au) :   0.1406
B(  0-Au, 16-Cr) :   0.5223 B(  1-Au,  2-Au) :   0.2538 B(  1-Au,  3-Au) :   0.2589
B(  1-Au,  4-Au) :   0.1617 B(  1-Au,  7-Au) :   0.2438 B(  1-Au,  8-Au) :   0.2002
B(  1-Au, 14-Au) :   0.1917 B(  1-Au, 16-Cr) :   0.4929 B(  2-Au,  3-Au) :   0.2533
B(  2-Au,  7-Au) :   0.3080 B(  3-Au,  4-Au) :   0.1454 B(  3-Au,  6-Au) :   0.2024
B(  3-Au,  7-Au) :   0.2458 B(  3-Au, 16-Cr) :   0.4655 B(  4-Au,  5-Au) :   0.2033
B(  4-Au, 13-Au) :   0.2148 B(  4-Au, 16-Cr) :   0.6410 B(  5-Au, 13-Au) :   0.1899
B(  5-Au, 15-Au) :   0.2060 B(  5-Au, 16-Cr) :   0.2985 B(  6-Au,  7-Au) :   0.1776
B(  6-Au, 10-Au) :   0.1684 B(  6-Au, 11-Au) :   0.1267 B(  6-Au, 16-Cr) :   0.4634
B(  7-Au,  8-Au) :   0.1750 B(  7-Au, 10-Au) :   0.3150 B(  7-Au, 16-Cr) :   0.3663
B(  8-Au,  9-Au) :   0.1349 B(  8-Au, 10-Au) :   0.1730 B(  8-Au, 14-Au) :   0.1506
B(  8-Au, 16-Cr) :   0.4421 B(  9-Au, 10-Au) :   0.1424 B(  9-Au, 11-Au) :   0.1709
B(  9-Au, 12-Au) :   0.1730 B(  9-Au, 14-Au) :   0.1100 B(  9-Au, 16-Cr) :   0.5070
B( 10-Au, 11-Au) :   0.1401 B( 10-Au, 16-Cr) :   0.3753 B( 11-Au, 15-Au) :   0.1715
B( 11-Au, 16-Cr) :   0.5079 B( 12-Au, 13-Au) :   0.2081 B( 12-Au, 14-Au) :   0.1393
B( 12-Au, 15-Au) :   0.2289 B( 12-Au, 16-Cr) :   0.3823 B( 13-Au, 14-Au) :   0.2390
B( 13-Au, 16-Cr) :   0.3114 B( 14-Au, 16-Cr) :   0.5218 B( 15-Au, 16-Cr) :   0.3974

MP2 TOTAL ENERGY:    -3213.710148992 Eh
FINAL SINGLE POINT ENERGY     -3213.710148991547

DIPOLE MOMENT
-------------
                                X             Y             Z
Electronic contribution:     16.72495      18.03103       4.53342
Nuclear contribution   :    -17.16907     -18.40493      -4.58993
                        -----------------------------------------
Total Dipole Moment    :     -0.44412      -0.37390      -0.05651
                        -----------------------------------------
Magnitude (a.u.)       :      0.58330
Magnitude (Debye)      :      1.48262

Rotational constants in cm-1:     0.000981     0.000754     0.000714
Rotational constants in MHz :    29.398088    22.617518    21.417188

                             ****ORCA TERMINATED NORMALLY****
TOTAL RUN TIME: 0 days 2 hours 14 minutes 44 seconds 202 msec
