                         Program Version 5.0.3 -  RELEASE  -
|  1> !PBE def2-TZVP VERYSLOWCONV
|  2>
|  3> %scf
|  4>   AutoTRAHIter 200
|  5>   maxiter 400
|  6> end
|  7>
|  8>
|  9> %pal nprocs 6 end
| 10>
| 11> *xyzfile 0 5 pbe.xyz
| 12>
| 13> $new_job
| 14>
| 15> !PBE def2-TZVP VERYSLOWCONV
| 16>
| 17> %scf
| 18>   AutoTRAHIter 200
| 19>   maxiter 400
| 20> end
| 21>
| 22>
| 23> %pal nprocs 6 end
| 24>
| 25> *xyzfile 0 3 pbe.xyz
| 26>
| 27>
| 28>
| 29>
| 30>
| 31>                          ****END OF INPUT****
 Total Charge           Charge          ....    0
 Multiplicity           Mult            ....    5
 Number of Electrons    NEL             ....  328
FINAL SINGLE POINT ENERGY     -3217.502867223201

CARTESIAN COORDINATES (ANGSTROEM)
---------------------------------
  Au     6.503245    9.030521    5.878520
  Au    10.345597    7.711710    8.320027
  Au    11.831774    9.892552    7.336758
  Au     9.245296    9.440252    6.355253
  Au     9.129319    6.709534    6.062937
  Au     6.517008    6.313770    5.260838
  Au     7.364189   11.050231    7.587838
  Au     9.796516   10.520356    9.014628
  Au     9.241500    8.335729   10.778548
  Au     6.493436    7.721497   10.592312
  Au     7.394729   10.355984   10.276399
  Au     5.350315    9.375376    8.627934
  Au     5.805256    5.513632    9.122598
  Au     7.679155    4.691350    7.269016
  Au     8.639169    5.883003    9.604501
  Au     4.710381    7.139358    7.179563
  Cr     7.391445    7.583800    7.949174

 Multiplicity           Mult            ....    3
 Number of Electrons    NEL             ....  328
 Basis Dimension        Dim             ....  685

ORBITAL ENERGIES
----------------
                 SPIN UP ORBITALS
  NO   OCC          E(Eh)            E(eV)
   0   1.0000    -214.503493     -5836.9368
   1   1.0000     -24.302589      -661.3071
   2   1.0000     -20.669363      -562.4420
   3   1.0000     -20.667462      -562.3902
   4   1.0000     -20.660981      -562.2139
   5   1.0000      -4.039367      -109.9168
   6   1.0000      -4.038337      -109.8887
   7   1.0000      -4.036297      -109.8332
   8   1.0000      -4.033847      -109.7666
   9   1.0000      -4.033403      -109.7545
  10   1.0000      -4.031975      -109.7156
  11   1.0000      -4.031523      -109.7033
  12   1.0000      -4.028245      -109.6141
  13   1.0000      -4.026816      -109.5752
  14   1.0000      -4.026160      -109.5574
  15   1.0000      -4.024250      -109.5054
  16   1.0000      -4.024160      -109.5030
  17   1.0000      -4.022970      -109.4706
  18   1.0000      -4.022791      -109.4657
  19   1.0000      -4.022097      -109.4468
  20   1.0000      -4.007857      -109.0593
  21   1.0000      -2.807022       -76.3829
  22   1.0000      -2.254279       -61.3420
  23   1.0000      -2.253874       -61.3310
  24   1.0000      -2.253269       -61.3146
  25   1.0000      -2.252788       -61.3015
  26   1.0000      -2.251911       -61.2776
  27   1.0000      -2.250781       -61.2469
  28   1.0000      -2.249133       -61.2020
  29   1.0000      -2.248824       -61.1936
  30   1.0000      -2.248400       -61.1821
  31   1.0000      -2.248247       -61.1779
  32   1.0000      -2.247790       -61.1655
  33   1.0000      -2.246901       -61.1413
  34   1.0000      -2.246731       -61.1367
  35   1.0000      -2.246357       -61.1265
  36   1.0000      -2.245386       -61.1001
  37   1.0000      -2.245041       -61.0907
  38   1.0000      -2.244601       -61.0787
  39   1.0000      -2.244224       -61.0684
  40   1.0000      -2.244119       -61.0656
  41   1.0000      -2.243185       -61.0402
  42   1.0000      -2.242967       -61.0342
  43   1.0000      -2.242760       -61.0286
  44   1.0000      -2.241046       -60.9820
  45   1.0000      -2.240956       -60.9795
  46   1.0000      -2.240191       -60.9587
  47   1.0000      -2.240052       -60.9549
  48   1.0000      -2.239841       -60.9492
  49   1.0000      -2.239601       -60.9426
  50   1.0000      -2.239472       -60.9391
  51   1.0000      -2.239322       -60.9350
  52   1.0000      -2.238865       -60.9226
  53   1.0000      -2.237422       -60.8834
  54   1.0000      -2.237358       -60.8816
  55   1.0000      -2.237186       -60.8769
  56   1.0000      -2.236899       -60.8691
  57   1.0000      -2.236350       -60.8542
  58   1.0000      -2.235876       -60.8413
  59   1.0000      -2.235600       -60.8338
  60   1.0000      -2.235233       -60.8238
  61   1.0000      -2.234920       -60.8153
  62   1.0000      -2.234285       -60.7980
  63   1.0000      -2.234047       -60.7915
  64   1.0000      -2.233792       -60.7846
  65   1.0000      -2.232517       -60.7499
  66   1.0000      -2.231481       -60.7217
  67   1.0000      -2.224267       -60.5254
  68   1.0000      -2.218804       -60.3767
  69   1.0000      -2.218082       -60.3571
  70   1.0000      -1.800830       -49.0031
  71   1.0000      -1.799046       -48.9545
  72   1.0000      -1.789739       -48.7013
  73   1.0000      -0.429403       -11.6846
  74   1.0000      -0.393051       -10.6955
  75   1.0000      -0.386850       -10.5267
  76   1.0000      -0.386362       -10.5135
  77   1.0000      -0.372176       -10.1274
  78   1.0000      -0.370687       -10.0869
  79   1.0000      -0.370399       -10.0791
  80   1.0000      -0.369742       -10.0612
  81   1.0000      -0.367054        -9.9880
  82   1.0000      -0.366816        -9.9816
  83   1.0000      -0.361881        -9.8473
  84   1.0000      -0.359794        -9.7905
  85   1.0000      -0.356498        -9.7008
  86   1.0000      -0.355182        -9.6650
  87   1.0000      -0.354352        -9.6424
  88   1.0000      -0.353129        -9.6091
  89   1.0000      -0.351811        -9.5733
  90   1.0000      -0.350982        -9.5507
  91   1.0000      -0.350471        -9.5368
  92   1.0000      -0.348670        -9.4878
  93   1.0000      -0.345676        -9.4063
  94   1.0000      -0.343018        -9.3340
  95   1.0000      -0.342780        -9.3275
  96   1.0000      -0.336960        -9.1691
  97   1.0000      -0.335295        -9.1238
  98   1.0000      -0.334413        -9.0998
  99   1.0000      -0.333019        -9.0619
 100   1.0000      -0.332473        -9.0471
 101   1.0000      -0.327822        -8.9205
 102   1.0000      -0.327041        -8.8992
 103   1.0000      -0.324902        -8.8410
 104   1.0000      -0.321221        -8.7409
 105   1.0000      -0.319498        -8.6940
 106   1.0000      -0.316327        -8.6077
 107   1.0000      -0.313952        -8.5431
 108   1.0000      -0.312923        -8.5151
 109   1.0000      -0.312419        -8.5014
 110   1.0000      -0.311398        -8.4736
 111   1.0000      -0.306979        -8.3533
 112   1.0000      -0.306495        -8.3402
 113   1.0000      -0.299819        -8.1585
 114   1.0000      -0.296132        -8.0582
 115   1.0000      -0.292696        -7.9647
 116   1.0000      -0.292047        -7.9470
 117   1.0000      -0.289769        -7.8850
 118   1.0000      -0.288844        -7.8599
 119   1.0000      -0.285809        -7.7773
 120   1.0000      -0.284230        -7.7343
 121   1.0000      -0.282585        -7.6895
 122   1.0000      -0.281290        -7.6543
 123   1.0000      -0.280925        -7.6443
 124   1.0000      -0.280235        -7.6256
 125   1.0000      -0.275031        -7.4840
 126   1.0000      -0.274400        -7.4668
 127   1.0000      -0.273405        -7.4397
 128   1.0000      -0.271435        -7.3861
 129   1.0000      -0.270896        -7.3715
 130   1.0000      -0.270181        -7.3520
 131   1.0000      -0.268147        -7.2967
 132   1.0000      -0.267374        -7.2756
 133   1.0000      -0.266390        -7.2488
 134   1.0000      -0.265659        -7.2289
 135   1.0000      -0.264561        -7.1991
 136   1.0000      -0.264208        -7.1895
 137   1.0000      -0.261407        -7.1132
 138   1.0000      -0.260467        -7.0877
 139   1.0000      -0.259029        -7.0485
 140   1.0000      -0.258383        -7.0310
 141   1.0000      -0.257956        -7.0193
 142   1.0000      -0.257140        -6.9971
 143   1.0000      -0.254632        -6.9289
 144   1.0000      -0.254110        -6.9147
 145   1.0000      -0.253553        -6.8995
 146   1.0000      -0.252049        -6.8586
 147   1.0000      -0.249869        -6.7993
 148   1.0000      -0.247860        -6.7446
 149   1.0000      -0.247277        -6.7287
 150   1.0000      -0.245964        -6.6930
 151   1.0000      -0.244265        -6.6468
 152   1.0000      -0.243725        -6.6321
 153   1.0000      -0.243260        -6.6194
 154   1.0000      -0.239912        -6.5283
 155   1.0000      -0.236766        -6.4427
 156   1.0000      -0.232717        -6.3326
 157   1.0000      -0.227461        -6.1895
 158   1.0000      -0.227004        -6.1771
 159   1.0000      -0.226721        -6.1694
 160   1.0000      -0.222591        -6.0570
 161   1.0000      -0.221662        -6.0317
 162   1.0000      -0.208162        -5.6644
 163   1.0000      -0.201714        -5.4889
 164   1.0000      -0.199790        -5.4366
 165   0.0000      -0.185865        -5.0576
 166   0.0000      -0.184263        -5.0141
 167   0.0000      -0.159275        -4.3341
 168   0.0000      -0.138807        -3.7771
 169   0.0000      -0.136807        -3.7227

                 SPIN DOWN ORBITALS
  NO   OCC          E(Eh)            E(eV)
   0   1.0000    -214.503091     -5836.9258
   1   1.0000     -24.255510      -660.0260
   2   1.0000     -20.636357      -561.5438
   3   1.0000     -20.633120      -561.4557
   4   1.0000     -20.620457      -561.1112
   5   1.0000      -4.039528      -109.9211
   6   1.0000      -4.038445      -109.8917
   7   1.0000      -4.036502      -109.8388
   8   1.0000      -4.034169      -109.7753
   9   1.0000      -4.033654      -109.7613
  10   1.0000      -4.032605      -109.7327
  11   1.0000      -4.032211      -109.7220
  12   1.0000      -4.028630      -109.6246
  13   1.0000      -4.026944      -109.5787
  14   1.0000      -4.026317      -109.5616
  15   1.0000      -4.024646      -109.5162
  16   1.0000      -4.024504      -109.5123
  17   1.0000      -4.023503      -109.4851
  18   1.0000      -4.022821      -109.4665
  19   1.0000      -4.022243      -109.4508
  20   1.0000      -4.009047      -109.0917
  21   1.0000      -2.680109       -72.9295
  22   1.0000      -2.254453       -61.3468
  23   1.0000      -2.253979       -61.3339
  24   1.0000      -2.253257       -61.3142
  25   1.0000      -2.252979       -61.3067
  26   1.0000      -2.252368       -61.2901
  27   1.0000      -2.251001       -61.2529
  28   1.0000      -2.249622       -61.2153
  29   1.0000      -2.249180       -61.2033
  30   1.0000      -2.248752       -61.1917
  31   1.0000      -2.248422       -61.1827
  32   1.0000      -2.248256       -61.1782
  33   1.0000      -2.247300       -61.1522
  34   1.0000      -2.247046       -61.1452
  35   1.0000      -2.246746       -61.1371
  36   1.0000      -2.246169       -61.1214
  37   1.0000      -2.245768       -61.1104
  38   1.0000      -2.244981       -61.0890
  39   1.0000      -2.244795       -61.0840
  40   1.0000      -2.244549       -61.0773
  41   1.0000      -2.243532       -61.0496
  42   1.0000      -2.243391       -61.0458
  43   1.0000      -2.243036       -61.0361
  44   1.0000      -2.241391       -60.9913
  45   1.0000      -2.240856       -60.9768
  46   1.0000      -2.240395       -60.9642
  47   1.0000      -2.240227       -60.9597
  48   1.0000      -2.240131       -60.9571
  49   1.0000      -2.240040       -60.9546
  50   1.0000      -2.239750       -60.9467
  51   1.0000      -2.239676       -60.9447
  52   1.0000      -2.239126       -60.9297
  53   1.0000      -2.238045       -60.9003
  54   1.0000      -2.237803       -60.8937
  55   1.0000      -2.237470       -60.8847
  56   1.0000      -2.237346       -60.8813
  57   1.0000      -2.236611       -60.8613
  58   1.0000      -2.236034       -60.8456
  59   1.0000      -2.235795       -60.8391
  60   1.0000      -2.235523       -60.8317
  61   1.0000      -2.235024       -60.8181
  62   1.0000      -2.234585       -60.8062
  63   1.0000      -2.234356       -60.7999
  64   1.0000      -2.233892       -60.7873
  65   1.0000      -2.232540       -60.7505
  66   1.0000      -2.231830       -60.7312
  67   1.0000      -2.225657       -60.5632
  68   1.0000      -2.220080       -60.4115
  69   1.0000      -2.219236       -60.3885
  70   1.0000      -1.685310       -45.8596
  71   1.0000      -1.679034       -45.6888
  72   1.0000      -1.649744       -44.8918
  73   1.0000      -0.425360       -11.5746
  74   1.0000      -0.392204       -10.6724
  75   1.0000      -0.387386       -10.5413
  76   1.0000      -0.386837       -10.5264
  77   1.0000      -0.372430       -10.1343
  78   1.0000      -0.369875       -10.0648
  79   1.0000      -0.368189       -10.0189
  80   1.0000      -0.367549       -10.0015
  81   1.0000      -0.366733        -9.9793
  82   1.0000      -0.364094        -9.9075
  83   1.0000      -0.361503        -9.8370
  84   1.0000      -0.359934        -9.7943
  85   1.0000      -0.357046        -9.7157
  86   1.0000      -0.354903        -9.6574
  87   1.0000      -0.354805        -9.6547
  88   1.0000      -0.352659        -9.5963
  89   1.0000      -0.352016        -9.5788
  90   1.0000      -0.351651        -9.5689
  91   1.0000      -0.350568        -9.5394
  92   1.0000      -0.349595        -9.5130
  93   1.0000      -0.346695        -9.4340
  94   1.0000      -0.343765        -9.3543
  95   1.0000      -0.341904        -9.3037
  96   1.0000      -0.337650        -9.1879
  97   1.0000      -0.335906        -9.1405
  98   1.0000      -0.335091        -9.1183
  99   1.0000      -0.333779        -9.0826
 100   1.0000      -0.332951        -9.0601
 101   1.0000      -0.328785        -8.9467
 102   1.0000      -0.327996        -8.9252
 103   1.0000      -0.325841        -8.8666
 104   1.0000      -0.321760        -8.7555
 105   1.0000      -0.320089        -8.7101
 106   1.0000      -0.315828        -8.5941
 107   1.0000      -0.314106        -8.5473
 108   1.0000      -0.313456        -8.5296
 109   1.0000      -0.311889        -8.4869
 110   1.0000      -0.311437        -8.4746
 111   1.0000      -0.307530        -8.3683
 112   1.0000      -0.302972        -8.2443
 113   1.0000      -0.300466        -8.1761
 114   1.0000      -0.296235        -8.0610
 115   1.0000      -0.293380        -7.9833
 116   1.0000      -0.292562        -7.9610
 117   1.0000      -0.289888        -7.8883
 118   1.0000      -0.288269        -7.8442
 119   1.0000      -0.287288        -7.8175
 120   1.0000      -0.285406        -7.7663
 121   1.0000      -0.283472        -7.7137
 122   1.0000      -0.282542        -7.6884
 123   1.0000      -0.281712        -7.6658
 124   1.0000      -0.281056        -7.6479
 125   1.0000      -0.275686        -7.5018
 126   1.0000      -0.275448        -7.4953
 127   1.0000      -0.275015        -7.4835
 128   1.0000      -0.272441        -7.4135
 129   1.0000      -0.271794        -7.3959
 130   1.0000      -0.270683        -7.3656
 131   1.0000      -0.269045        -7.3211
 132   1.0000      -0.268418        -7.3040
 133   1.0000      -0.267293        -7.2734
 134   1.0000      -0.266691        -7.2570
 135   1.0000      -0.265662        -7.2290
 136   1.0000      -0.265277        -7.2186
 137   1.0000      -0.262573        -7.1450
 138   1.0000      -0.261632        -7.1194
 139   1.0000      -0.259692        -7.0666
 140   1.0000      -0.259493        -7.0612
 141   1.0000      -0.259228        -7.0540
 142   1.0000      -0.258343        -7.0299
 143   1.0000      -0.255240        -6.9454
 144   1.0000      -0.254788        -6.9331
 145   1.0000      -0.254401        -6.9226
 146   1.0000      -0.253060        -6.8861
 147   1.0000      -0.250809        -6.8249
 148   1.0000      -0.249283        -6.7833
 149   1.0000      -0.248637        -6.7658
 150   1.0000      -0.246740        -6.7141
 151   1.0000      -0.245531        -6.6813
 152   1.0000      -0.245171        -6.6715
 153   1.0000      -0.244059        -6.6412
 154   1.0000      -0.241407        -6.5690
 155   1.0000      -0.237879        -6.4730
 156   1.0000      -0.231521        -6.3000
 157   1.0000      -0.228512        -6.2181
 158   1.0000      -0.221898        -6.0382
 159   1.0000      -0.219500        -5.9729
 160   1.0000      -0.214326        -5.8321
 161   1.0000      -0.204464        -5.5637
 162   1.0000      -0.172374        -4.6905
 163   0.0000      -0.141485        -3.8500
 164   0.0000      -0.140490        -3.8229
 165   0.0000      -0.139082        -3.7846
 166   0.0000      -0.130540        -3.5522
 167   0.0000      -0.129505        -3.5240

MULLIKEN ATOMIC CHARGES AND SPIN POPULATIONS
--------------------------------------------
   0 Au:    0.437125   -0.055331
   1 Au:    0.000072   -0.061881
   2 Au:    0.457837   -0.328202
   3 Au:    0.039586   -0.074092
   4 Au:    0.338131   -0.063902
   5 Au:    0.431359   -0.027989
   6 Au:    0.341365   -0.005814
   7 Au:   -0.111393    0.020445
   8 Au:    0.344486   -0.009632
   9 Au:    0.284907   -0.124359
  10 Au:    0.370439   -0.042452
  11 Au:    0.281374   -0.129670
  12 Au:    0.479460   -0.051314
  13 Au:    0.406282   -0.015922
  14 Au:    0.462792   -0.061533
  15 Au:    0.460965   -0.047126
  16 Cr:   -5.024785    3.078773
Sum of atomic charges         :   -0.0000000

LOEWDIN ATOMIC CHARGES AND SPIN POPULATIONS
-------------------------------------------
   0 Au:    0.110100   -0.083297
   1 Au:   -0.008302   -0.093114
   2 Au:    0.107209   -0.260260
   3 Au:   -0.009339   -0.096835
   4 Au:    0.125442   -0.080222
   5 Au:    0.113349   -0.046373
   6 Au:    0.092264   -0.043642
   7 Au:   -0.046330   -0.031827
   8 Au:    0.094267   -0.043673
   9 Au:    0.089124   -0.105377
  10 Au:    0.062455   -0.046961
  11 Au:    0.090667   -0.104933
  12 Au:    0.122342   -0.084325
  13 Au:    0.108044   -0.039565
  14 Au:    0.115132   -0.083401
  15 Au:    0.117494   -0.082300
  16 Cr:   -1.283917    3.326102

  Mayer bond orders larger than 0.100000
B(  0-Au,  3-Au) :   0.2314 B(  0-Au,  5-Au) :   0.2853 B(  0-Au,  6-Au) :   0.1707
B(  0-Au, 11-Au) :   0.1235 B(  0-Au, 14-Au) :   0.1249 B(  0-Au, 15-Au) :   0.1550
B(  0-Au, 16-Cr) :   0.5771 B(  1-Au,  2-Au) :   0.3334 B(  1-Au,  3-Au) :   0.2297
B(  1-Au,  4-Au) :   0.2006 B(  1-Au,  7-Au) :   0.2574 B(  1-Au,  8-Au) :   0.2272
B(  1-Au, 14-Au) :   0.2396 B(  1-Au, 16-Cr) :   0.4871 B(  2-Au,  3-Au) :   0.3327
B(  2-Au,  7-Au) :   0.3671 B(  3-Au,  4-Au) :   0.1845 B(  3-Au,  6-Au) :   0.2323
B(  3-Au,  7-Au) :   0.2627 B(  3-Au, 16-Cr) :   0.4520 B(  4-Au,  5-Au) :   0.2388
B(  4-Au, 13-Au) :   0.2484 B(  4-Au, 16-Cr) :   0.6762 B(  5-Au, 13-Au) :   0.2359
B(  5-Au, 15-Au) :   0.2540 B(  5-Au, 16-Cr) :   0.3105 B(  6-Au,  7-Au) :   0.2100
B(  6-Au, 10-Au) :   0.2096 B(  6-Au, 11-Au) :   0.1802 B(  6-Au, 16-Cr) :   0.4319
B(  7-Au,  8-Au) :   0.2080 B(  7-Au, 10-Au) :   0.3519 B(  7-Au, 16-Cr) :   0.3470
B(  8-Au,  9-Au) :   0.1928 B(  8-Au, 10-Au) :   0.2151 B(  8-Au, 14-Au) :   0.1724
B(  8-Au, 16-Cr) :   0.4078 B(  9-Au, 10-Au) :   0.1722 B(  9-Au, 11-Au) :   0.1877
B(  9-Au, 12-Au) :   0.2287 B(  9-Au, 14-Au) :   0.1255 B(  9-Au, 16-Cr) :   0.5745
B( 10-Au, 11-Au) :   0.1688 B( 10-Au, 16-Cr) :   0.3347 B( 11-Au, 15-Au) :   0.2254
B( 11-Au, 16-Cr) :   0.5799 B( 12-Au, 13-Au) :   0.2533 B( 12-Au, 14-Au) :   0.1582
B( 12-Au, 15-Au) :   0.2640 B( 12-Au, 16-Cr) :   0.4127 B( 13-Au, 14-Au) :   0.2764
B( 13-Au, 16-Cr) :   0.3290 B( 14-Au, 16-Cr) :   0.5797 B( 15-Au, 16-Cr) :   0.4333

FINAL SINGLE POINT ENERGY     -3217.491300940068

DIPOLE MOMENT
-------------
                                X             Y             Z
Electronic contribution:     16.74424      18.06141       4.53794
Nuclear contribution   :    -17.16907     -18.40493      -4.58993
                        -----------------------------------------
Total Dipole Moment    :     -0.42482      -0.34352      -0.05199
                        -----------------------------------------
Magnitude (a.u.)       :      0.54880
Magnitude (Debye)      :      1.39495

Rotational constants in cm-1:     0.000981     0.000754     0.000714
Rotational constants in MHz :    29.398088    22.617518    21.417188

                             ****ORCA TERMINATED NORMALLY****
TOTAL RUN TIME: 0 days 1 hours 28 minutes 54 seconds 984 msec
