                         Program Version 5.0.3 -  RELEASE  -
|  1> !R2SCAN def2-TZVP VERYSLOWCONV
|  2> !KDIIS
|  3> %scf
|  4>   AutoTRAHIter 200
|  5>   maxiter 400
|  6> end
|  7>
|  8> %pal nprocs 6 end
|  9>
| 10> *xyzfile 0 5 pbe.xyz
| 11>
| 12> $new_job
| 13>
| 14> !R2SCAN def2-TZVP VERYSLOWCONV
| 15> !KDIIS
| 16> %scf
| 17>   AutoTRAHIter 200
| 18>   maxiter 400
| 19> end
| 20>
| 21>
| 22> %pal nprocs 6 end
| 23>
| 24> *xyzfile 0 3 pbe.xyz
| 25>
| 26>
| 27>
| 28>
| 29>
| 30>                          ****END OF INPUT****
 Total Charge           Charge          ....    0
 Multiplicity           Mult            ....    5
 Number of Electrons    NEL             ....  328
FINAL SINGLE POINT ENERGY     -3218.034980210830

CARTESIAN COORDINATES (ANGSTROEM)
---------------------------------
  Au     6.503245    9.030521    5.878520
  Au    10.345597    7.711710    8.320027
  Au    11.831774    9.892552    7.336758
  Au     9.245296    9.440252    6.355253
  Au     9.129319    6.709534    6.062937
  Au     6.517008    6.313770    5.260838
  Au     7.364189   11.050231    7.587838
  Au     9.796516   10.520356    9.014628
  Au     9.241500    8.335729   10.778548
  Au     6.493436    7.721497   10.592312
  Au     7.394729   10.355984   10.276399
  Au     5.350315    9.375376    8.627934
  Au     5.805256    5.513632    9.122598
  Au     7.679155    4.691350    7.269016
  Au     8.639169    5.883003    9.604501
  Au     4.710381    7.139358    7.179563
  Cr     7.391445    7.583800    7.949174

 Multiplicity           Mult            ....    3
 Number of Electrons    NEL             ....  328
 Basis Dimension        Dim             ....  685

ORBITAL ENERGIES
----------------
                 SPIN UP ORBITALS
  NO   OCC          E(Eh)            E(eV)
   0   1.0000    -215.298192     -5858.5616
   1   1.0000     -24.597369      -669.3284
   2   1.0000     -20.866227      -567.7989
   3   1.0000     -20.864253      -567.7452
   4   1.0000     -20.859653      -567.6200
   5   1.0000      -4.130050      -112.3844
   6   1.0000      -4.129042      -112.3569
   7   1.0000      -4.127179      -112.3063
   8   1.0000      -4.124551      -112.2347
   9   1.0000      -4.124103      -112.2225
  10   1.0000      -4.122877      -112.1892
  11   1.0000      -4.122397      -112.1761
  12   1.0000      -4.119009      -112.0839
  13   1.0000      -4.117309      -112.0377
  14   1.0000      -4.116661      -112.0200
  15   1.0000      -4.115173      -111.9796
  16   1.0000      -4.115082      -111.9771
  17   1.0000      -4.113363      -111.9303
  18   1.0000      -4.113245      -111.9271
  19   1.0000      -4.112698      -111.9122
  20   1.0000      -4.097774      -111.5061
  21   1.0000      -2.920071       -79.4592
  22   1.0000      -2.317596       -63.0650
  23   1.0000      -2.317262       -63.0559
  24   1.0000      -2.316626       -63.0386
  25   1.0000      -2.316222       -63.0276
  26   1.0000      -2.315588       -63.0104
  27   1.0000      -2.314321       -62.9759
  28   1.0000      -2.312693       -62.9316
  29   1.0000      -2.312462       -62.9253
  30   1.0000      -2.312105       -62.9156
  31   1.0000      -2.311874       -62.9093
  32   1.0000      -2.311505       -62.8992
  33   1.0000      -2.310736       -62.8783
  34   1.0000      -2.310298       -62.8664
  35   1.0000      -2.309951       -62.8570
  36   1.0000      -2.308893       -62.8282
  37   1.0000      -2.308601       -62.8202
  38   1.0000      -2.308287       -62.8117
  39   1.0000      -2.307819       -62.7990
  40   1.0000      -2.307526       -62.7910
  41   1.0000      -2.306824       -62.7719
  42   1.0000      -2.306675       -62.7678
  43   1.0000      -2.306653       -62.7672
  44   1.0000      -2.305068       -62.7241
  45   1.0000      -2.304254       -62.7019
  46   1.0000      -2.303561       -62.6831
  47   1.0000      -2.303484       -62.6810
  48   1.0000      -2.303230       -62.6741
  49   1.0000      -2.302937       -62.6661
  50   1.0000      -2.302759       -62.6613
  51   1.0000      -2.302355       -62.6503
  52   1.0000      -2.302289       -62.6485
  53   1.0000      -2.300997       -62.6133
  54   1.0000      -2.300964       -62.6124
  55   1.0000      -2.300573       -62.6018
  56   1.0000      -2.300483       -62.5993
  57   1.0000      -2.299643       -62.5765
  58   1.0000      -2.299194       -62.5643
  59   1.0000      -2.298895       -62.5561
  60   1.0000      -2.298635       -62.5491
  61   1.0000      -2.298312       -62.5403
  62   1.0000      -2.298176       -62.5366
  63   1.0000      -2.297550       -62.5195
  64   1.0000      -2.297186       -62.5096
  65   1.0000      -2.295899       -62.4746
  66   1.0000      -2.294929       -62.4482
  67   1.0000      -2.286764       -62.2260
  68   1.0000      -2.281541       -62.0839
  69   1.0000      -2.280911       -62.0668
  70   1.0000      -1.868650       -50.8486
  71   1.0000      -1.868273       -50.8383
  72   1.0000      -1.863625       -50.7118
  73   1.0000      -0.433619       -11.7994
  74   1.0000      -0.398076       -10.8322
  75   1.0000      -0.391876       -10.6635
  76   1.0000      -0.391496       -10.6532
  77   1.0000      -0.380215       -10.3462
  78   1.0000      -0.378832       -10.3085
  79   1.0000      -0.378559       -10.3011
  80   1.0000      -0.377628       -10.2758
  81   1.0000      -0.375635       -10.2215
  82   1.0000      -0.375158       -10.2086
  83   1.0000      -0.370805       -10.0901
  84   1.0000      -0.369037       -10.0420
  85   1.0000      -0.365534        -9.9467
  86   1.0000      -0.364276        -9.9125
  87   1.0000      -0.363114        -9.8808
  88   1.0000      -0.362240        -9.8570
  89   1.0000      -0.361085        -9.8256
  90   1.0000      -0.359931        -9.7942
  91   1.0000      -0.359732        -9.7888
  92   1.0000      -0.357768        -9.7354
  93   1.0000      -0.355026        -9.6607
  94   1.0000      -0.352136        -9.5821
  95   1.0000      -0.351762        -9.5719
  96   1.0000      -0.345818        -9.4102
  97   1.0000      -0.344193        -9.3660
  98   1.0000      -0.343207        -9.3391
  99   1.0000      -0.342051        -9.3077
 100   1.0000      -0.341507        -9.2929
 101   1.0000      -0.336831        -9.1656
 102   1.0000      -0.335990        -9.1428
 103   1.0000      -0.333653        -9.0792
 104   1.0000      -0.329978        -8.9792
 105   1.0000      -0.328226        -8.9315
 106   1.0000      -0.324625        -8.8335
 107   1.0000      -0.322439        -8.7740
 108   1.0000      -0.321599        -8.7512
 109   1.0000      -0.321060        -8.7365
 110   1.0000      -0.320088        -8.7101
 111   1.0000      -0.315717        -8.5911
 112   1.0000      -0.315032        -8.5725
 113   1.0000      -0.308530        -8.3955
 114   1.0000      -0.304418        -8.2836
 115   1.0000      -0.301167        -8.1952
 116   1.0000      -0.300496        -8.1769
 117   1.0000      -0.298242        -8.1156
 118   1.0000      -0.297140        -8.0856
 119   1.0000      -0.294018        -8.0006
 120   1.0000      -0.291821        -7.9409
 121   1.0000      -0.290535        -7.9059
 122   1.0000      -0.289208        -7.8698
 123   1.0000      -0.289139        -7.8679
 124   1.0000      -0.288125        -7.8403
 125   1.0000      -0.283121        -7.7041
 126   1.0000      -0.282501        -7.6872
 127   1.0000      -0.281002        -7.6464
 128   1.0000      -0.279250        -7.5988
 129   1.0000      -0.278710        -7.5841
 130   1.0000      -0.278133        -7.5684
 131   1.0000      -0.276199        -7.5158
 132   1.0000      -0.275560        -7.4984
 133   1.0000      -0.274261        -7.4630
 134   1.0000      -0.273568        -7.4442
 135   1.0000      -0.271887        -7.3984
 136   1.0000      -0.271740        -7.3944
 137   1.0000      -0.269129        -7.3234
 138   1.0000      -0.267766        -7.2863
 139   1.0000      -0.266796        -7.2599
 140   1.0000      -0.266136        -7.2419
 141   1.0000      -0.265412        -7.2222
 142   1.0000      -0.264568        -7.1993
 143   1.0000      -0.262144        -7.1333
 144   1.0000      -0.261602        -7.1186
 145   1.0000      -0.261085        -7.1045
 146   1.0000      -0.258869        -7.0442
 147   1.0000      -0.257191        -6.9985
 148   1.0000      -0.255131        -6.9425
 149   1.0000      -0.254618        -6.9285
 150   1.0000      -0.252702        -6.8764
 151   1.0000      -0.251084        -6.8323
 152   1.0000      -0.250300        -6.8110
 153   1.0000      -0.250028        -6.8036
 154   1.0000      -0.246440        -6.7060
 155   1.0000      -0.242622        -6.6021
 156   1.0000      -0.238974        -6.5028
 157   1.0000      -0.236149        -6.4259
 158   1.0000      -0.233609        -6.3568
 159   1.0000      -0.231950        -6.3117
 160   1.0000      -0.229459        -6.2439
 161   1.0000      -0.224919        -6.1204
 162   1.0000      -0.214447        -5.8354
 163   1.0000      -0.207216        -5.6386
 164   1.0000      -0.204815        -5.5733
 165   0.0000      -0.184472        -5.0197
 166   0.0000      -0.182883        -4.9765
 167   0.0000      -0.155629        -4.2349
 168   0.0000      -0.135409        -3.6847
 169   0.0000      -0.132003        -3.5920

                 SPIN DOWN ORBITALS
  NO   OCC          E(Eh)            E(eV)
   0   1.0000    -215.297621     -5858.5461
   1   1.0000     -24.533753      -667.5974
   2   1.0000     -20.820834      -566.5637
   3   1.0000     -20.817041      -566.4605
   4   1.0000     -20.805409      -566.1440
   5   1.0000      -4.130433      -112.3948
   6   1.0000      -4.129370      -112.3659
   7   1.0000      -4.127603      -112.3178
   8   1.0000      -4.125174      -112.2517
   9   1.0000      -4.124643      -112.2372
  10   1.0000      -4.123777      -112.2137
  11   1.0000      -4.123363      -112.2024
  12   1.0000      -4.119461      -112.0962
  13   1.0000      -4.117627      -112.0463
  14   1.0000      -4.117004      -112.0294
  15   1.0000      -4.115626      -111.9919
  16   1.0000      -4.115485      -111.9881
  17   1.0000      -4.113858      -111.9438
  18   1.0000      -4.113501      -111.9341
  19   1.0000      -4.112951      -111.9191
  20   1.0000      -4.099519      -111.5536
  21   1.0000      -2.753775       -74.9340
  22   1.0000      -2.317914       -63.0736
  23   1.0000      -2.317554       -63.0639
  24   1.0000      -2.316803       -63.0434
  25   1.0000      -2.316548       -63.0365
  26   1.0000      -2.316153       -63.0257
  27   1.0000      -2.314812       -62.9893
  28   1.0000      -2.313269       -62.9473
  29   1.0000      -2.312965       -62.9390
  30   1.0000      -2.312567       -62.9282
  31   1.0000      -2.312309       -62.9211
  32   1.0000      -2.312129       -62.9162
  33   1.0000      -2.311153       -62.8897
  34   1.0000      -2.310855       -62.8816
  35   1.0000      -2.310504       -62.8720
  36   1.0000      -2.309986       -62.8579
  37   1.0000      -2.309435       -62.8429
  38   1.0000      -2.308813       -62.8260
  39   1.0000      -2.308312       -62.8124
  40   1.0000      -2.308220       -62.8099
  41   1.0000      -2.307263       -62.7838
  42   1.0000      -2.307224       -62.7828
  43   1.0000      -2.307070       -62.7786
  44   1.0000      -2.305554       -62.7373
  45   1.0000      -2.304162       -62.6994
  46   1.0000      -2.303771       -62.6888
  47   1.0000      -2.303750       -62.6882
  48   1.0000      -2.303473       -62.6807
  49   1.0000      -2.303335       -62.6769
  50   1.0000      -2.303224       -62.6739
  51   1.0000      -2.303171       -62.6725
  52   1.0000      -2.302600       -62.6569
  53   1.0000      -2.301690       -62.6322
  54   1.0000      -2.301512       -62.6273
  55   1.0000      -2.301118       -62.6166
  56   1.0000      -2.300830       -62.6088
  57   1.0000      -2.299905       -62.5836
  58   1.0000      -2.299338       -62.5682
  59   1.0000      -2.299209       -62.5647
  60   1.0000      -2.298945       -62.5575
  61   1.0000      -2.298549       -62.5467
  62   1.0000      -2.298469       -62.5445
  63   1.0000      -2.298003       -62.5318
  64   1.0000      -2.297419       -62.5159
  65   1.0000      -2.295991       -62.4771
  66   1.0000      -2.295310       -62.4586
  67   1.0000      -2.288709       -62.2789
  68   1.0000      -2.283121       -62.1269
  69   1.0000      -2.282336       -62.1055
  70   1.0000      -1.714589       -46.6563
  71   1.0000      -1.707050       -46.4512
  72   1.0000      -1.680427       -45.7267
  73   1.0000      -0.429941       -11.6993
  74   1.0000      -0.397775       -10.8240
  75   1.0000      -0.393169       -10.6987
  76   1.0000      -0.392757       -10.6875
  77   1.0000      -0.380945       -10.3660
  78   1.0000      -0.378300       -10.2941
  79   1.0000      -0.376342       -10.2408
  80   1.0000      -0.375409       -10.2154
  81   1.0000      -0.375125       -10.2077
  82   1.0000      -0.372237       -10.1291
  83   1.0000      -0.370635       -10.0855
  84   1.0000      -0.368838       -10.0366
  85   1.0000      -0.366417        -9.9707
  86   1.0000      -0.364188        -9.9100
  87   1.0000      -0.364072        -9.9069
  88   1.0000      -0.361860        -9.8467
  89   1.0000      -0.361427        -9.8349
  90   1.0000      -0.361260        -9.8304
  91   1.0000      -0.359878        -9.7928
  92   1.0000      -0.359053        -9.7703
  93   1.0000      -0.356236        -9.6937
  94   1.0000      -0.353127        -9.6091
  95   1.0000      -0.350614        -9.5407
  96   1.0000      -0.347037        -9.4434
  97   1.0000      -0.345204        -9.3935
  98   1.0000      -0.344254        -9.3676
  99   1.0000      -0.343238        -9.3400
 100   1.0000      -0.342405        -9.3173
 101   1.0000      -0.338213        -9.2032
 102   1.0000      -0.337479        -9.1833
 103   1.0000      -0.335112        -9.1189
 104   1.0000      -0.330787        -9.0012
 105   1.0000      -0.329127        -8.9560
 106   1.0000      -0.324943        -8.8422
 107   1.0000      -0.323119        -8.7925
 108   1.0000      -0.322293        -8.7700
 109   1.0000      -0.320439        -8.7196
 110   1.0000      -0.320263        -8.7148
 111   1.0000      -0.316595        -8.6150
 112   1.0000      -0.311295        -8.4708
 113   1.0000      -0.309438        -8.4202
 114   1.0000      -0.304890        -8.2965
 115   1.0000      -0.302139        -8.2216
 116   1.0000      -0.301186        -8.1957
 117   1.0000      -0.298584        -8.1249
 118   1.0000      -0.296682        -8.0731
 119   1.0000      -0.295853        -8.0506
 120   1.0000      -0.293512        -7.9869
 121   1.0000      -0.291947        -7.9443
 122   1.0000      -0.291082        -7.9207
 123   1.0000      -0.290433        -7.9031
 124   1.0000      -0.289363        -7.8740
 125   1.0000      -0.283983        -7.7276
 126   1.0000      -0.283804        -7.7227
 127   1.0000      -0.283488        -7.7141
 128   1.0000      -0.280688        -7.6379
 129   1.0000      -0.280095        -7.6218
 130   1.0000      -0.278864        -7.5883
 131   1.0000      -0.277421        -7.5490
 132   1.0000      -0.276723        -7.5300
 133   1.0000      -0.275609        -7.4997
 134   1.0000      -0.275131        -7.4867
 135   1.0000      -0.273623        -7.4457
 136   1.0000      -0.273296        -7.4368
 137   1.0000      -0.270722        -7.3667
 138   1.0000      -0.269522        -7.3341
 139   1.0000      -0.267738        -7.2855
 140   1.0000      -0.267444        -7.2775
 141   1.0000      -0.267201        -7.2709
 142   1.0000      -0.266406        -7.2493
 143   1.0000      -0.262901        -7.1539
 144   1.0000      -0.262506        -7.1431
 145   1.0000      -0.262196        -7.1347
 146   1.0000      -0.260291        -7.0829
 147   1.0000      -0.258587        -7.0365
 148   1.0000      -0.257162        -6.9977
 149   1.0000      -0.256444        -6.9782
 150   1.0000      -0.254380        -6.9220
 151   1.0000      -0.252769        -6.8782
 152   1.0000      -0.252318        -6.8659
 153   1.0000      -0.251459        -6.8425
 154   1.0000      -0.248525        -6.7627
 155   1.0000      -0.244445        -6.6517
 156   1.0000      -0.235855        -6.4180
 157   1.0000      -0.234850        -6.3906
 158   1.0000      -0.224210        -6.1011
 159   1.0000      -0.222051        -6.0423
 160   1.0000      -0.216088        -5.8801
 161   1.0000      -0.205724        -5.5980
 162   1.0000      -0.172830        -4.7029
 163   0.0000      -0.138143        -3.7591
 164   0.0000      -0.135870        -3.6972
 165   0.0000      -0.134681        -3.6649
 166   0.0000      -0.125990        -3.4284
 167   0.0000      -0.124706        -3.3934

MULLIKEN ATOMIC CHARGES AND SPIN POPULATIONS
--------------------------------------------
   0 Au:    0.379876   -0.078061
   1 Au:    0.007094   -0.059258
   2 Au:    0.403439   -0.413011
   3 Au:    0.044855   -0.072205
   4 Au:    0.298057   -0.081042
   5 Au:    0.386120   -0.036062
   6 Au:    0.312004   -0.005399
   7 Au:   -0.105914    0.039700
   8 Au:    0.314603   -0.010179
   9 Au:    0.245447   -0.162241
  10 Au:    0.340507   -0.046506
  11 Au:    0.243726   -0.166198
  12 Au:    0.434559   -0.072908
  13 Au:    0.361196   -0.022961
  14 Au:    0.407408   -0.085370
  15 Au:    0.415394   -0.069159
  16 Cr:   -4.488372    3.340859
Sum of atomic charges         :   -0.0000000

LOEWDIN ATOMIC CHARGES AND SPIN POPULATIONS
-------------------------------------------
   0 Au:    0.105586   -0.097941
   1 Au:   -0.006796   -0.102571
   2 Au:    0.097700   -0.295861
   3 Au:   -0.007492   -0.106498
   4 Au:    0.121644   -0.092981
   5 Au:    0.109536   -0.052205
   6 Au:    0.091106   -0.049125
   7 Au:   -0.046392   -0.032577
   8 Au:    0.093150   -0.049619
   9 Au:    0.085376   -0.123247
  10 Au:    0.060967   -0.052057
  11 Au:    0.086943   -0.122169
  12 Au:    0.117458   -0.098902
  13 Au:    0.103676   -0.045686
  14 Au:    0.110789   -0.098433
  15 Au:    0.112364   -0.096966
  16 Cr:   -1.235614    3.516838

  Mayer bond orders larger than 0.100000
B(  0-Au,  3-Au) :   0.2267 B(  0-Au,  5-Au) :   0.2826 B(  0-Au,  6-Au) :   0.1702
B(  0-Au, 11-Au) :   0.1188 B(  0-Au, 15-Au) :   0.1441 B(  0-Au, 16-Cr) :   0.6091
B(  1-Au,  2-Au) :   0.3075 B(  1-Au,  3-Au) :   0.2125 B(  1-Au,  4-Au) :   0.2037
B(  1-Au,  7-Au) :   0.2324 B(  1-Au,  8-Au) :   0.2205 B(  1-Au, 14-Au) :   0.2346
B(  1-Au, 16-Cr) :   0.4909 B(  2-Au,  3-Au) :   0.3070 B(  2-Au,  7-Au) :   0.3523
B(  3-Au,  4-Au) :   0.1880 B(  3-Au,  6-Au) :   0.2233 B(  3-Au,  7-Au) :   0.2387
B(  3-Au, 16-Cr) :   0.4500 B(  4-Au,  5-Au) :   0.2289 B(  4-Au, 13-Au) :   0.2372
B(  4-Au, 16-Cr) :   0.6925 B(  5-Au, 13-Au) :   0.2288 B(  5-Au, 15-Au) :   0.2434
B(  5-Au, 16-Cr) :   0.3058 B(  6-Au,  7-Au) :   0.1977 B(  6-Au, 10-Au) :   0.2013
B(  6-Au, 11-Au) :   0.1703 B(  6-Au, 16-Cr) :   0.4183 B(  7-Au,  8-Au) :   0.1964
B(  7-Au, 10-Au) :   0.3512 B(  7-Au, 16-Cr) :   0.3280 B(  8-Au,  9-Au) :   0.1819
B(  8-Au, 10-Au) :   0.2058 B(  8-Au, 14-Au) :   0.1716 B(  8-Au, 16-Cr) :   0.3958
B(  9-Au, 10-Au) :   0.1646 B(  9-Au, 11-Au) :   0.1883 B(  9-Au, 12-Au) :   0.2192
B(  9-Au, 14-Au) :   0.1202 B(  9-Au, 16-Cr) :   0.5680 B( 10-Au, 11-Au) :   0.1611
B( 10-Au, 16-Cr) :   0.3220 B( 11-Au, 15-Au) :   0.2168 B( 11-Au, 16-Cr) :   0.5710
B( 12-Au, 13-Au) :   0.2439 B( 12-Au, 14-Au) :   0.1469 B( 12-Au, 15-Au) :   0.2608
B( 12-Au, 16-Cr) :   0.4174 B( 13-Au, 14-Au) :   0.2728 B( 13-Au, 16-Cr) :   0.3272
B( 14-Au, 16-Cr) :   0.6110 B( 15-Au, 16-Cr) :   0.4396

FINAL SINGLE POINT ENERGY     -3218.020514992579

DIPOLE MOMENT
-------------
                                X             Y             Z
Electronic contribution:     16.73392      18.05858       4.54214
Nuclear contribution   :    -17.16907     -18.40493      -4.58993
                        -----------------------------------------
Total Dipole Moment    :     -0.43515      -0.34635      -0.04779
                        -----------------------------------------
Magnitude (a.u.)       :      0.55821
Magnitude (Debye)      :      1.41886

Rotational constants in cm-1:     0.000981     0.000754     0.000714
Rotational constants in MHz :    29.398088    22.617518    21.417188

                             ****ORCA TERMINATED NORMALLY****
TOTAL RUN TIME: 0 days 0 hours 48 minutes 52 seconds 128 msec
