                         Program Version 5.0.3 -  RELEASE  -
|  1> !RI-B2PLYP def2-TZVP def2-TZVP/C
|  2> !RIJCOSX VERYSLOWCONV
|  3>
|  4> %scf
|  5>   AutoTRAHIter 200
|  6>   maxiter 400
|  7> end
|  8>
|  9>
| 10> %pal nprocs 6 end
| 11>
| 12> *xyzfile 0 5 pbe.xyz
| 13>
| 14> $new_job
| 15>
| 16> !RI-B2PLYP def2-TZVP def2-TZVP/C
| 17> !RIJCOSX VERYSLOWCONV
| 18>
| 19> %scf
| 20>   AutoTRAHIter 200
| 21>   maxiter 400
| 22> end
| 23>
| 24>
| 25> %pal nprocs 6 end
| 26>
| 27> *xyzfile 0 3 pbe.xyz
| 28>
| 29>
| 30>
| 31>
| 32>
| 33>                          ****END OF INPUT****
 Total Charge           Charge          ....    0
 Multiplicity           Mult            ....    5
 Number of Electrons    NEL             ....  290
MP2 TOTAL ENERGY:    -2942.500307188 Eh
FINAL SINGLE POINT ENERGY     -2942.500307187570

CARTESIAN COORDINATES (ANGSTROEM)
---------------------------------
  Au     6.242057    7.616814    9.596161
  Au     8.992418    7.808188    9.469127
  Au     8.828230   10.483443    5.652705
  Au    11.434070    9.532791    5.989987
  Au     9.897492   10.272155    8.309779
  Au    11.534761    7.900982    8.312534
  Au     6.069878   10.425135    5.585283
  Au     7.215914    9.531898    7.903313
  Au     8.850198    5.794376    5.213794
  Au    11.503021    6.690118    5.728705
  Au     9.733958    8.278339    4.063815
  Au     7.072670    7.941412    5.077442
  Au     7.171636    6.328865    7.378391
  Au     9.896627    5.598202    7.886611
  Cr     9.274990    8.019550    6.755307

 Multiplicity           Mult            ....    3
 Number of Electrons    NEL             ....  290
 Basis Dimension        Dim             ....  605

ORBITAL ENERGIES
----------------
                 SPIN UP ORBITALS
  NO   OCC          E(Eh)            E(eV)
   0   1.0000    -217.731307     -5924.7701
   1   1.0000     -25.415037      -691.5783
   2   1.0000     -21.554034      -586.5151
   3   1.0000     -21.553830      -586.5095
   4   1.0000     -21.550230      -586.4116
   5   1.0000      -4.402447      -119.7967
   6   1.0000      -4.400518      -119.7442
   7   1.0000      -4.400441      -119.7421
   8   1.0000      -4.396251      -119.6281
   9   1.0000      -4.395711      -119.6134
  10   1.0000      -4.395592      -119.6101
  11   1.0000      -4.394546      -119.5817
  12   1.0000      -4.394418      -119.5782
  13   1.0000      -4.390676      -119.4764
  14   1.0000      -4.390228      -119.4642
  15   1.0000      -4.390161      -119.4623
  16   1.0000      -4.387463      -119.3889
  17   1.0000      -4.385996      -119.3490
  18   1.0000      -4.385892      -119.3462
  19   1.0000      -3.207141       -87.2707
  20   1.0000      -2.522808       -68.6491
  21   1.0000      -2.522227       -68.6333
  22   1.0000      -2.521228       -68.6061
  23   1.0000      -2.521113       -68.6030
  24   1.0000      -2.519146       -68.5494
  25   1.0000      -2.518105       -68.5211
  26   1.0000      -2.517809       -68.5131
  27   1.0000      -2.517768       -68.5120
  28   1.0000      -2.516515       -68.4779
  29   1.0000      -2.515747       -68.4569
  30   1.0000      -2.515579       -68.4524
  31   1.0000      -2.515299       -68.4448
  32   1.0000      -2.515076       -68.4387
  33   1.0000      -2.513909       -68.4069
  34   1.0000      -2.513846       -68.4052
  35   1.0000      -2.513236       -68.3886
  36   1.0000      -2.512515       -68.3690
  37   1.0000      -2.512171       -68.3597
  38   1.0000      -2.512032       -68.3559
  39   1.0000      -2.511889       -68.3520
  40   1.0000      -2.511752       -68.3482
  41   1.0000      -2.511155       -68.3320
  42   1.0000      -2.510227       -68.3067
  43   1.0000      -2.510146       -68.3045
  44   1.0000      -2.509650       -68.2911
  45   1.0000      -2.509522       -68.2876
  46   1.0000      -2.508920       -68.2712
  47   1.0000      -2.507041       -68.2201
  48   1.0000      -2.506596       -68.2079
  49   1.0000      -2.506438       -68.2036
  50   1.0000      -2.506333       -68.2008
  51   1.0000      -2.505895       -68.1889
  52   1.0000      -2.505542       -68.1793
  53   1.0000      -2.505537       -68.1791
  54   1.0000      -2.504508       -68.1511
  55   1.0000      -2.504237       -68.1437
  56   1.0000      -2.503474       -68.1230
  57   1.0000      -2.502923       -68.1080
  58   1.0000      -2.501429       -68.0673
  59   1.0000      -2.501300       -68.0638
  60   1.0000      -2.500973       -68.0549
  61   1.0000      -2.500861       -68.0519
  62   1.0000      -2.098589       -57.1055
  63   1.0000      -2.091808       -56.9210
  64   1.0000      -2.091748       -56.9194
  65   1.0000      -0.502906       -13.6848
  66   1.0000      -0.478526       -13.0214
  67   1.0000      -0.472501       -12.8574
  68   1.0000      -0.471519       -12.8307
  69   1.0000      -0.470412       -12.8006
  70   1.0000      -0.465890       -12.6775
  71   1.0000      -0.465347       -12.6627
  72   1.0000      -0.460203       -12.5228
  73   1.0000      -0.458084       -12.4651
  74   1.0000      -0.452886       -12.3237
  75   1.0000      -0.452392       -12.3102
  76   1.0000      -0.452186       -12.3046
  77   1.0000      -0.448640       -12.2081
  78   1.0000      -0.448437       -12.2026
  79   1.0000      -0.447454       -12.1758
  80   1.0000      -0.444583       -12.0977
  81   1.0000      -0.440645       -11.9906
  82   1.0000      -0.438945       -11.9443
  83   1.0000      -0.438626       -11.9356
  84   1.0000      -0.437367       -11.9014
  85   1.0000      -0.436730       -11.8840
  86   1.0000      -0.432635       -11.7726
  87   1.0000      -0.431241       -11.7347
  88   1.0000      -0.426219       -11.5980
  89   1.0000      -0.425154       -11.5690
  90   1.0000      -0.418568       -11.3898
  91   1.0000      -0.414323       -11.2743
  92   1.0000      -0.413091       -11.2408
  93   1.0000      -0.412873       -11.2349
  94   1.0000      -0.407417       -11.0864
  95   1.0000      -0.404575       -11.0091
  96   1.0000      -0.401569       -10.9272
  97   1.0000      -0.401392       -10.9224
  98   1.0000      -0.397753       -10.8234
  99   1.0000      -0.394217       -10.7272
 100   1.0000      -0.391690       -10.6584
 101   1.0000      -0.391130       -10.6432
 102   1.0000      -0.390933       -10.6378
 103   1.0000      -0.388058       -10.5596
 104   1.0000      -0.381662       -10.3856
 105   1.0000      -0.381187       -10.3726
 106   1.0000      -0.376747       -10.2518
 107   1.0000      -0.376237       -10.2379
 108   1.0000      -0.372991       -10.1496
 109   1.0000      -0.369660       -10.0590
 110   1.0000      -0.368634       -10.0310
 111   1.0000      -0.368087       -10.0162
 112   1.0000      -0.366938        -9.9849
 113   1.0000      -0.363576        -9.8934
 114   1.0000      -0.361732        -9.8432
 115   1.0000      -0.360971        -9.8225
 116   1.0000      -0.360835        -9.8188
 117   1.0000      -0.359212        -9.7747
 118   1.0000      -0.357553        -9.7295
 119   1.0000      -0.357215        -9.7203
 120   1.0000      -0.356229        -9.6935
 121   1.0000      -0.355323        -9.6688
 122   1.0000      -0.351955        -9.5772
 123   1.0000      -0.348643        -9.4870
 124   1.0000      -0.348277        -9.4771
 125   1.0000      -0.347718        -9.4619
 126   1.0000      -0.342977        -9.3329
 127   1.0000      -0.342544        -9.3211
 128   1.0000      -0.340453        -9.2642
 129   1.0000      -0.339699        -9.2437
 130   1.0000      -0.338347        -9.2069
 131   1.0000      -0.333707        -9.0806
 132   1.0000      -0.333365        -9.0713
 133   1.0000      -0.327382        -8.9085
 134   1.0000      -0.326902        -8.8954
 135   1.0000      -0.322758        -8.7827
 136   1.0000      -0.319803        -8.7023
 137   1.0000      -0.314710        -8.5637
 138   1.0000      -0.313664        -8.5352
 139   1.0000      -0.309069        -8.4102
 140   1.0000      -0.304955        -8.2983
 141   1.0000      -0.302581        -8.2337
 142   1.0000      -0.297376        -8.0920
 143   1.0000      -0.238211        -6.4820
 144   1.0000      -0.236099        -6.4246
 145   1.0000      -0.216649        -5.8953
 146   0.0000      -0.112957        -3.0737
 147   0.0000      -0.109585        -2.9819
 148   0.0000      -0.085185        -2.3180
 149   0.0000      -0.081209        -2.2098
 150   0.0000      -0.063047        -1.7156

                 SPIN DOWN ORBITALS
  NO   OCC          E(Eh)            E(eV)
   0   1.0000    -217.730050     -5924.7359
   1   1.0000     -25.344215      -689.6512
   2   1.0000     -21.491871      -584.8235
   3   1.0000     -21.491834      -584.8225
   4   1.0000     -21.478283      -584.4538
   5   1.0000      -4.401998      -119.7845
   6   1.0000      -4.400557      -119.7452
   7   1.0000      -4.400487      -119.7433
   8   1.0000      -4.395924      -119.6192
   9   1.0000      -4.395700      -119.6131
  10   1.0000      -4.395677      -119.6125
  11   1.0000      -4.394788      -119.5883
  12   1.0000      -4.394658      -119.5847
  13   1.0000      -4.390705      -119.4772
  14   1.0000      -4.390567      -119.4734
  15   1.0000      -4.390498      -119.4715
  16   1.0000      -4.387635      -119.3936
  17   1.0000      -4.386930      -119.3744
  18   1.0000      -4.386819      -119.3714
  19   1.0000      -2.987844       -81.3034
  20   1.0000      -2.521999       -68.6271
  21   1.0000      -2.520406       -68.5837
  22   1.0000      -2.520050       -68.5741
  23   1.0000      -2.519980       -68.5721
  24   1.0000      -2.518133       -68.5219
  25   1.0000      -2.517487       -68.5043
  26   1.0000      -2.517155       -68.4953
  27   1.0000      -2.517095       -68.4936
  28   1.0000      -2.515735       -68.4566
  29   1.0000      -2.515575       -68.4523
  30   1.0000      -2.515541       -68.4513
  31   1.0000      -2.514054       -68.4109
  32   1.0000      -2.513737       -68.4023
  33   1.0000      -2.513103       -68.3850
  34   1.0000      -2.513047       -68.3835
  35   1.0000      -2.512593       -68.3711
  36   1.0000      -2.512311       -68.3635
  37   1.0000      -2.512244       -68.3616
  38   1.0000      -2.511610       -68.3444
  39   1.0000      -2.511582       -68.3436
  40   1.0000      -2.511330       -68.3368
  41   1.0000      -2.510809       -68.3226
  42   1.0000      -2.509795       -68.2950
  43   1.0000      -2.509407       -68.2844
  44   1.0000      -2.509197       -68.2787
  45   1.0000      -2.508924       -68.2713
  46   1.0000      -2.508660       -68.2641
  47   1.0000      -2.506964       -68.2180
  48   1.0000      -2.506605       -68.2082
  49   1.0000      -2.506552       -68.2067
  50   1.0000      -2.505994       -68.1916
  51   1.0000      -2.505968       -68.1909
  52   1.0000      -2.505803       -68.1864
  53   1.0000      -2.505663       -68.1826
  54   1.0000      -2.505400       -68.1754
  55   1.0000      -2.505061       -68.1662
  56   1.0000      -2.503758       -68.1307
  57   1.0000      -2.502868       -68.1065
  58   1.0000      -2.502839       -68.1057
  59   1.0000      -2.502716       -68.1024
  60   1.0000      -2.501920       -68.0807
  61   1.0000      -2.501803       -68.0775
  62   1.0000      -1.851783       -50.3896
  63   1.0000      -1.851713       -50.3877
  64   1.0000      -1.821685       -49.5706
  65   1.0000      -0.498772       -13.5723
  66   1.0000      -0.474934       -12.9236
  67   1.0000      -0.467382       -12.7181
  68   1.0000      -0.465288       -12.6611
  69   1.0000      -0.462699       -12.5907
  70   1.0000      -0.460803       -12.5391
  71   1.0000      -0.459200       -12.4955
  72   1.0000      -0.457042       -12.4367
  73   1.0000      -0.455551       -12.3962
  74   1.0000      -0.453860       -12.3502
  75   1.0000      -0.451333       -12.2814
  76   1.0000      -0.450513       -12.2591
  77   1.0000      -0.449875       -12.2417
  78   1.0000      -0.449082       -12.2202
  79   1.0000      -0.446625       -12.1533
  80   1.0000      -0.445325       -12.1179
  81   1.0000      -0.441828       -12.0228
  82   1.0000      -0.439733       -11.9657
  83   1.0000      -0.439647       -11.9634
  84   1.0000      -0.438486       -11.9318
  85   1.0000      -0.437831       -11.9140
  86   1.0000      -0.434029       -11.8105
  87   1.0000      -0.432142       -11.7592
  88   1.0000      -0.426248       -11.5988
  89   1.0000      -0.424977       -11.5642
  90   1.0000      -0.420327       -11.4377
  91   1.0000      -0.416008       -11.3202
  92   1.0000      -0.415364       -11.3026
  93   1.0000      -0.413152       -11.2424
  94   1.0000      -0.405800       -11.0424
  95   1.0000      -0.403164       -10.9706
  96   1.0000      -0.402586       -10.9549
  97   1.0000      -0.400079       -10.8867
  98   1.0000      -0.397965       -10.8292
  99   1.0000      -0.392659       -10.6848
 100   1.0000      -0.390995       -10.6395
 101   1.0000      -0.388391       -10.5687
 102   1.0000      -0.381551       -10.3825
 103   1.0000      -0.378690       -10.3047
 104   1.0000      -0.378290       -10.2938
 105   1.0000      -0.376548       -10.2464
 106   1.0000      -0.375989       -10.2312
 107   1.0000      -0.375373       -10.2144
 108   1.0000      -0.372748       -10.1430
 109   1.0000      -0.370903       -10.0928
 110   1.0000      -0.369480       -10.0541
 111   1.0000      -0.367635       -10.0039
 112   1.0000      -0.366561        -9.9746
 113   1.0000      -0.363905        -9.9024
 114   1.0000      -0.362989        -9.8774
 115   1.0000      -0.361601        -9.8397
 116   1.0000      -0.361213        -9.8291
 117   1.0000      -0.359129        -9.7724
 118   1.0000      -0.359090        -9.7713
 119   1.0000      -0.357422        -9.7260
 120   1.0000      -0.357054        -9.7159
 121   1.0000      -0.355492        -9.6734
 122   1.0000      -0.353202        -9.6111
 123   1.0000      -0.351593        -9.5673
 124   1.0000      -0.349000        -9.4968
 125   1.0000      -0.348388        -9.4801
 126   1.0000      -0.344189        -9.3659
 127   1.0000      -0.343801        -9.3553
 128   1.0000      -0.341990        -9.3060
 129   1.0000      -0.340635        -9.2692
 130   1.0000      -0.339637        -9.2420
 131   1.0000      -0.335483        -9.1290
 132   1.0000      -0.334512        -9.1025
 133   1.0000      -0.327712        -8.9175
 134   1.0000      -0.322167        -8.7666
 135   1.0000      -0.321877        -8.7587
 136   1.0000      -0.319126        -8.6839
 137   1.0000      -0.314645        -8.5619
 138   1.0000      -0.312481        -8.5030
 139   1.0000      -0.249533        -6.7901
 140   1.0000      -0.231186        -6.2909
 141   1.0000      -0.214660        -5.8412
 142   1.0000      -0.212467        -5.7815
 143   1.0000      -0.212318        -5.7775
 144   0.0000      -0.085577        -2.3287
 145   0.0000      -0.069748        -1.8979
 146   0.0000      -0.051275        -1.3953
 147   0.0000      -0.049438        -1.3453
 148   0.0000      -0.044698        -1.2163

MULLIKEN ATOMIC CHARGES AND SPIN POPULATIONS
--------------------------------------------
   0 Au:    0.302705    0.069713
   1 Au:    0.378170   -0.095755
   2 Au:    0.378118   -0.095706
   3 Au:    0.551277   -0.085994
   4 Au:    0.642285   -0.043355
   5 Au:    0.550906   -0.086274
   6 Au:    0.302875    0.069420
   7 Au:    0.145299   -0.088744
   8 Au:    0.612707   -0.043152
   9 Au:    0.530935   -0.061370
  10 Au:    0.600407   -0.087951
  11 Au:    0.376067   -0.123808
  12 Au:    0.377258   -0.123194
  13 Au:    0.600105   -0.088821
  14 Cr:   -6.349114    2.884991
Sum of atomic charges         :   -0.0000000

LOEWDIN ATOMIC CHARGES AND SPIN POPULATIONS
-------------------------------------------
   0 Au:    0.179218   -0.023191
   1 Au:    0.049058   -0.125364
   2 Au:    0.049347   -0.125445
   3 Au:    0.115628   -0.142409
   4 Au:    0.155173   -0.129186
   5 Au:    0.115548   -0.142435
   6 Au:    0.179419   -0.023579
   7 Au:   -0.028895   -0.070290
   8 Au:    0.120921   -0.126436
   9 Au:    0.110222   -0.117974
  10 Au:    0.134372   -0.147791
  11 Au:    0.059628   -0.124375
  12 Au:    0.059698   -0.124385
  13 Au:    0.134430   -0.148262
  14 Cr:   -1.433767    3.571122

  Mayer bond orders larger than 0.100000
B(  0-Au,  1-Au) :   0.2429 B(  0-Au,  7-Au) :   0.2984 B(  0-Au, 12-Au) :   0.2457
B(  0-Au, 14-Cr) :   0.4879 B(  1-Au,  4-Au) :   0.1211 B(  1-Au,  5-Au) :   0.1790
B(  1-Au,  7-Au) :   0.1457 B(  1-Au, 10-Au) :   0.1106 B(  1-Au, 13-Au) :   0.1453
B(  1-Au, 14-Cr) :   0.4910 B(  2-Au,  3-Au) :   0.1791 B(  2-Au,  4-Au) :   0.1201
B(  2-Au,  6-Au) :   0.2431 B(  2-Au,  7-Au) :   0.1461 B(  2-Au, 10-Au) :   0.1452
B(  2-Au, 13-Au) :   0.1103 B(  2-Au, 14-Cr) :   0.4906 B(  3-Au,  4-Au) :   0.1006
B(  3-Au,  5-Au) :   0.1581 B(  3-Au,  9-Au) :   0.1658 B(  3-Au, 10-Au) :   0.1444
B(  3-Au, 12-Au) :   0.1034 B(  3-Au, 14-Cr) :   0.4271 B(  4-Au,  5-Au) :   0.1003
B(  4-Au,  7-Au) :   0.1564 B(  4-Au,  8-Au) :   0.1111 B(  4-Au, 14-Cr) :   0.4458
B(  5-Au,  9-Au) :   0.1661 B(  5-Au, 11-Au) :   0.1032 B(  5-Au, 13-Au) :   0.1444
B(  5-Au, 14-Cr) :   0.4259 B(  6-Au,  7-Au) :   0.2971 B(  6-Au, 11-Au) :   0.2466
B(  6-Au, 14-Cr) :   0.4881 B(  7-Au, 14-Cr) :   0.4100 B(  8-Au,  9-Au) :   0.1523
B(  8-Au, 10-Au) :   0.1214 B(  8-Au, 11-Au) :   0.1591 B(  8-Au, 12-Au) :   0.1589
B(  8-Au, 13-Au) :   0.1212 B(  8-Au, 14-Cr) :   0.4056 B(  9-Au, 10-Au) :   0.1244
B(  9-Au, 13-Au) :   0.1239 B(  9-Au, 14-Cr) :   0.3956 B( 10-Au, 11-Au) :   0.1217
B( 10-Au, 14-Cr) :   0.4393 B( 11-Au, 12-Au) :   0.1598 B( 11-Au, 14-Cr) :   0.5165
B( 12-Au, 13-Au) :   0.1218 B( 12-Au, 14-Cr) :   0.5168 B( 13-Au, 14-Cr) :   0.4389

MP2 TOTAL ENERGY:    -2942.519639049 Eh
FINAL SINGLE POINT ENERGY     -2942.519639048586

DIPOLE MOMENT
-------------
                                X             Y             Z
Electronic contribution:    -13.89111       4.99466       4.11994
Nuclear contribution   :     13.59860      -4.85155      -4.00732
                        -----------------------------------------
Total Dipole Moment    :     -0.29251       0.14311       0.11263
                        -----------------------------------------
Magnitude (a.u.)       :      0.34457
Magnitude (Debye)      :      0.87583

Rotational constants in cm-1:     0.001158     0.001043     0.000934
Rotational constants in MHz :    34.704580    31.265329    27.986562

                             ****ORCA TERMINATED NORMALLY****
TOTAL RUN TIME: 0 days 3 hours 46 minutes 10 seconds 706 msec
