                         Program Version 5.0.3 -  RELEASE  -
|  1> !PBE def2-TZVP VERYSLOWCONV
|  2>
|  3> %scf
|  4>   AutoTRAHIter 200
|  5>   maxiter 400
|  6> end
|  7>
|  8>
|  9> %pal nprocs 6 end
| 10>
| 11> *xyzfile 0 5 pbe.xyz
| 12>
| 13> $new_job
| 14>
| 15> !PBE def2-TZVP VERYSLOWCONV
| 16>
| 17> %scf
| 18>   AutoTRAHIter 200
| 19>   maxiter 400
| 20> end
| 21>
| 22>
| 23> %pal nprocs 6 end
| 24>
| 25> *xyzfile 0 3 pbe.xyz
| 26>
| 27>
| 28>
| 29>
| 30>
| 31>                          ****END OF INPUT****
 Total Charge           Charge          ....    0
 Multiplicity           Mult            ....    5
 Number of Electrons    NEL             ....  290
FINAL SINGLE POINT ENERGY     -2945.818296928664

CARTESIAN COORDINATES (ANGSTROEM)
---------------------------------
  Au     6.242057    7.616814    9.596161
  Au     8.992418    7.808188    9.469127
  Au     8.828230   10.483443    5.652705
  Au    11.434070    9.532791    5.989987
  Au     9.897492   10.272155    8.309779
  Au    11.534761    7.900982    8.312534
  Au     6.069878   10.425135    5.585283
  Au     7.215914    9.531898    7.903313
  Au     8.850198    5.794376    5.213794
  Au    11.503021    6.690118    5.728705
  Au     9.733958    8.278339    4.063815
  Au     7.072670    7.941412    5.077442
  Au     7.171636    6.328865    7.378391
  Au     9.896627    5.598202    7.886611
  Cr     9.274990    8.019550    6.755307

 Multiplicity           Mult            ....    3
 Number of Electrons    NEL             ....  290
 Basis Dimension        Dim             ....  605

ORBITAL ENERGIES
----------------
                 SPIN UP ORBITALS
  NO   OCC          E(Eh)            E(eV)
   0   1.0000    -214.503398     -5836.9342
   1   1.0000     -24.305059      -661.3743
   2   1.0000     -20.669529      -562.4465
   3   1.0000     -20.669488      -562.4454
   4   1.0000     -20.667279      -562.3853
   5   1.0000      -4.032224      -109.7224
   6   1.0000      -4.031127      -109.6925
   7   1.0000      -4.031115      -109.6922
   8   1.0000      -4.027435      -109.5921
   9   1.0000      -4.026812      -109.5751
  10   1.0000      -4.026714      -109.5725
  11   1.0000      -4.025410      -109.5370
  12   1.0000      -4.025300      -109.5340
  13   1.0000      -4.020996      -109.4169
  14   1.0000      -4.020986      -109.4166
  15   1.0000      -4.020573      -109.4054
  16   1.0000      -4.018466      -109.3480
  17   1.0000      -4.015177      -109.2585
  18   1.0000      -4.015130      -109.2572
  19   1.0000      -2.803918       -76.2985
  20   1.0000      -2.247605       -61.1604
  21   1.0000      -2.247430       -61.1557
  22   1.0000      -2.247301       -61.1522
  23   1.0000      -2.247034       -61.1449
  24   1.0000      -2.245356       -61.0992
  25   1.0000      -2.244131       -61.0659
  26   1.0000      -2.243958       -61.0612
  27   1.0000      -2.243307       -61.0435
  28   1.0000      -2.241697       -60.9997
  29   1.0000      -2.241575       -60.9964
  30   1.0000      -2.240995       -60.9806
  31   1.0000      -2.240876       -60.9773
  32   1.0000      -2.240796       -60.9752
  33   1.0000      -2.240072       -60.9555
  34   1.0000      -2.239999       -60.9535
  35   1.0000      -2.239409       -60.9374
  36   1.0000      -2.238857       -60.9224
  37   1.0000      -2.238669       -60.9173
  38   1.0000      -2.238554       -60.9141
  39   1.0000      -2.237734       -60.8918
  40   1.0000      -2.237489       -60.8852
  41   1.0000      -2.237276       -60.8794
  42   1.0000      -2.236759       -60.8653
  43   1.0000      -2.236360       -60.8544
  44   1.0000      -2.236070       -60.8466
  45   1.0000      -2.235734       -60.8374
  46   1.0000      -2.235361       -60.8273
  47   1.0000      -2.233152       -60.7672
  48   1.0000      -2.232548       -60.7507
  49   1.0000      -2.232512       -60.7497
  50   1.0000      -2.232255       -60.7428
  51   1.0000      -2.232202       -60.7413
  52   1.0000      -2.231898       -60.7330
  53   1.0000      -2.231857       -60.7319
  54   1.0000      -2.230795       -60.7030
  55   1.0000      -2.230640       -60.6988
  56   1.0000      -2.230576       -60.6971
  57   1.0000      -2.229472       -60.6670
  58   1.0000      -2.227041       -60.6009
  59   1.0000      -2.226962       -60.5987
  60   1.0000      -2.225808       -60.5673
  61   1.0000      -2.225765       -60.5661
  62   1.0000      -1.794474       -48.8301
  63   1.0000      -1.794095       -48.8198
  64   1.0000      -1.791571       -48.7511
  65   1.0000      -0.433947       -11.8083
  66   1.0000      -0.387971       -10.5572
  67   1.0000      -0.384942       -10.4748
  68   1.0000      -0.383468       -10.4347
  69   1.0000      -0.372332       -10.1317
  70   1.0000      -0.370558       -10.0834
  71   1.0000      -0.368253       -10.0207
  72   1.0000      -0.367933       -10.0120
  73   1.0000      -0.365660        -9.9501
  74   1.0000      -0.359035        -9.7698
  75   1.0000      -0.351623        -9.5681
  76   1.0000      -0.349267        -9.5041
  77   1.0000      -0.347099        -9.4450
  78   1.0000      -0.346083        -9.4174
  79   1.0000      -0.345001        -9.3880
  80   1.0000      -0.342757        -9.3269
  81   1.0000      -0.338196        -9.2028
  82   1.0000      -0.337968        -9.1966
  83   1.0000      -0.337231        -9.1765
  84   1.0000      -0.336158        -9.1473
  85   1.0000      -0.333874        -9.0852
  86   1.0000      -0.332955        -9.0602
  87   1.0000      -0.329530        -8.9670
  88   1.0000      -0.325458        -8.8562
  89   1.0000      -0.324159        -8.8208
  90   1.0000      -0.321479        -8.7479
  91   1.0000      -0.317946        -8.6518
  92   1.0000      -0.317537        -8.6406
  93   1.0000      -0.313720        -8.5368
  94   1.0000      -0.307970        -8.3803
  95   1.0000      -0.304424        -8.2838
  96   1.0000      -0.303474        -8.2580
  97   1.0000      -0.302232        -8.2241
  98   1.0000      -0.296805        -8.0765
  99   1.0000      -0.294848        -8.0232
 100   1.0000      -0.294272        -8.0075
 101   1.0000      -0.292683        -7.9643
 102   1.0000      -0.291034        -7.9194
 103   1.0000      -0.288265        -7.8441
 104   1.0000      -0.286471        -7.7953
 105   1.0000      -0.283835        -7.7235
 106   1.0000      -0.282189        -7.6788
 107   1.0000      -0.281256        -7.6534
 108   1.0000      -0.277926        -7.5628
 109   1.0000      -0.277600        -7.5539
 110   1.0000      -0.275391        -7.4938
 111   1.0000      -0.274065        -7.4577
 112   1.0000      -0.272454        -7.4139
 113   1.0000      -0.271547        -7.3892
 114   1.0000      -0.271429        -7.3860
 115   1.0000      -0.268877        -7.3165
 116   1.0000      -0.267148        -7.2695
 117   1.0000      -0.265359        -7.2208
 118   1.0000      -0.264844        -7.2068
 119   1.0000      -0.264332        -7.1928
 120   1.0000      -0.263077        -7.1587
 121   1.0000      -0.260740        -7.0951
 122   1.0000      -0.259100        -7.0505
 123   1.0000      -0.258330        -7.0295
 124   1.0000      -0.256931        -6.9915
 125   1.0000      -0.256215        -6.9720
 126   1.0000      -0.253403        -6.8955
 127   1.0000      -0.252452        -6.8696
 128   1.0000      -0.249348        -6.7851
 129   1.0000      -0.247579        -6.7370
 130   1.0000      -0.247345        -6.7306
 131   1.0000      -0.246878        -6.7179
 132   1.0000      -0.245761        -6.6875
 133   1.0000      -0.244903        -6.6642
 134   1.0000      -0.242905        -6.6098
 135   1.0000      -0.241808        -6.5799
 136   1.0000      -0.238261        -6.4834
 137   1.0000      -0.235270        -6.4020
 138   1.0000      -0.231210        -6.2915
 139   1.0000      -0.224064        -6.0971
 140   1.0000      -0.220730        -6.0064
 141   1.0000      -0.212240        -5.7753
 142   1.0000      -0.210445        -5.7265
 143   1.0000      -0.208640        -5.6774
 144   1.0000      -0.196459        -5.3459
 145   1.0000      -0.191136        -5.2011
 146   0.0000      -0.171790        -4.6746
 147   0.0000      -0.171588        -4.6692
 148   0.0000      -0.169465        -4.6114
 149   0.0000      -0.145601        -3.9620
 150   0.0000      -0.129415        -3.5216

                 SPIN DOWN ORBITALS
  NO   OCC          E(Eh)            E(eV)
   0   1.0000    -214.503001     -5836.9234
   1   1.0000     -24.261488      -660.1886
   2   1.0000     -20.637214      -561.5672
   3   1.0000     -20.637045      -561.5626
   4   1.0000     -20.632167      -561.4298
   5   1.0000      -4.031674      -109.7074
   6   1.0000      -4.030798      -109.6836
   7   1.0000      -4.030788      -109.6833
   8   1.0000      -4.027128      -109.5837
   9   1.0000      -4.026598      -109.5693
  10   1.0000      -4.026503      -109.5667
  11   1.0000      -4.025390      -109.5364
  12   1.0000      -4.025281      -109.5335
  13   1.0000      -4.020972      -109.4162
  14   1.0000      -4.020966      -109.4160
  15   1.0000      -4.020523      -109.4040
  16   1.0000      -4.018459      -109.3478
  17   1.0000      -4.015881      -109.2777
  18   1.0000      -4.015834      -109.2764
  19   1.0000      -2.686914       -73.1147
  20   1.0000      -2.247098       -61.1467
  21   1.0000      -2.246714       -61.1362
  22   1.0000      -2.246602       -61.1331
  23   1.0000      -2.246108       -61.1197
  24   1.0000      -2.244880       -61.0863
  25   1.0000      -2.243568       -61.0506
  26   1.0000      -2.243426       -61.0467
  27   1.0000      -2.242825       -61.0304
  28   1.0000      -2.241472       -60.9936
  29   1.0000      -2.241053       -60.9821
  30   1.0000      -2.240997       -60.9806
  31   1.0000      -2.240924       -60.9786
  32   1.0000      -2.240339       -60.9627
  33   1.0000      -2.239718       -60.9458
  34   1.0000      -2.239567       -60.9417
  35   1.0000      -2.239003       -60.9264
  36   1.0000      -2.238790       -60.9206
  37   1.0000      -2.238493       -60.9125
  38   1.0000      -2.238359       -60.9088
  39   1.0000      -2.237738       -60.8919
  40   1.0000      -2.237722       -60.8915
  41   1.0000      -2.237307       -60.8802
  42   1.0000      -2.236557       -60.8598
  43   1.0000      -2.236171       -60.8493
  44   1.0000      -2.236031       -60.8455
  45   1.0000      -2.235519       -60.8316
  46   1.0000      -2.235367       -60.8274
  47   1.0000      -2.232885       -60.7599
  48   1.0000      -2.232700       -60.7549
  49   1.0000      -2.232654       -60.7536
  50   1.0000      -2.232359       -60.7456
  51   1.0000      -2.232317       -60.7444
  52   1.0000      -2.231907       -60.7333
  53   1.0000      -2.231895       -60.7330
  54   1.0000      -2.231612       -60.7253
  55   1.0000      -2.231453       -60.7209
  56   1.0000      -2.230918       -60.7064
  57   1.0000      -2.229580       -60.6700
  58   1.0000      -2.227922       -60.6248
  59   1.0000      -2.227834       -60.6224
  60   1.0000      -2.226364       -60.5825
  61   1.0000      -2.226320       -60.5813
  62   1.0000      -1.682306       -45.7779
  63   1.0000      -1.681700       -45.7614
  64   1.0000      -1.670658       -45.4609
  65   1.0000      -0.428401       -11.6574
  66   1.0000      -0.387431       -10.5425
  67   1.0000      -0.384509       -10.4630
  68   1.0000      -0.383403       -10.4329
  69   1.0000      -0.369218       -10.0469
  70   1.0000      -0.367090        -9.9890
  71   1.0000      -0.364885        -9.9290
  72   1.0000      -0.364380        -9.9153
  73   1.0000      -0.362099        -9.8532
  74   1.0000      -0.355953        -9.6860
  75   1.0000      -0.351468        -9.5639
  76   1.0000      -0.348942        -9.4952
  77   1.0000      -0.347439        -9.4543
  78   1.0000      -0.347049        -9.4437
  79   1.0000      -0.346065        -9.4169
  80   1.0000      -0.342829        -9.3289
  81   1.0000      -0.338459        -9.2099
  82   1.0000      -0.337939        -9.1958
  83   1.0000      -0.337561        -9.1855
  84   1.0000      -0.336805        -9.1649
  85   1.0000      -0.334524        -9.1028
  86   1.0000      -0.333300        -9.0695
  87   1.0000      -0.329800        -8.9743
  88   1.0000      -0.325851        -8.8668
  89   1.0000      -0.324205        -8.8221
  90   1.0000      -0.322233        -8.7684
  91   1.0000      -0.318466        -8.6659
  92   1.0000      -0.318200        -8.6587
  93   1.0000      -0.313842        -8.5401
  94   1.0000      -0.308045        -8.3823
  95   1.0000      -0.304177        -8.2771
  96   1.0000      -0.303948        -8.2708
  97   1.0000      -0.301863        -8.2141
  98   1.0000      -0.297358        -8.0915
  99   1.0000      -0.294057        -8.0017
 100   1.0000      -0.293726        -7.9927
 101   1.0000      -0.292458        -7.9582
 102   1.0000      -0.288316        -7.8455
 103   1.0000      -0.286195        -7.7878
 104   1.0000      -0.284138        -7.7318
 105   1.0000      -0.282566        -7.6890
 106   1.0000      -0.282238        -7.6801
 107   1.0000      -0.280523        -7.6334
 108   1.0000      -0.278274        -7.5722
 109   1.0000      -0.277931        -7.5629
 110   1.0000      -0.276204        -7.5159
 111   1.0000      -0.274479        -7.4689
 112   1.0000      -0.273108        -7.4316
 113   1.0000      -0.272466        -7.4142
 114   1.0000      -0.272046        -7.4028
 115   1.0000      -0.269294        -7.3279
 116   1.0000      -0.267834        -7.2881
 117   1.0000      -0.265692        -7.2298
 118   1.0000      -0.265648        -7.2287
 119   1.0000      -0.264728        -7.2036
 120   1.0000      -0.263735        -7.1766
 121   1.0000      -0.261442        -7.1142
 122   1.0000      -0.259854        -7.0710
 123   1.0000      -0.259407        -7.0588
 124   1.0000      -0.257532        -7.0078
 125   1.0000      -0.257159        -6.9977
 126   1.0000      -0.254419        -6.9231
 127   1.0000      -0.253412        -6.8957
 128   1.0000      -0.250173        -6.8075
 129   1.0000      -0.248767        -6.7693
 130   1.0000      -0.248129        -6.7519
 131   1.0000      -0.247844        -6.7442
 132   1.0000      -0.246483        -6.7071
 133   1.0000      -0.245814        -6.6889
 134   1.0000      -0.243910        -6.6371
 135   1.0000      -0.243065        -6.6141
 136   1.0000      -0.238885        -6.5004
 137   1.0000      -0.235784        -6.4160
 138   1.0000      -0.231606        -6.3023
 139   1.0000      -0.220009        -5.9867
 140   1.0000      -0.210775        -5.7355
 141   1.0000      -0.196929        -5.3587
 142   1.0000      -0.195654        -5.3240
 143   1.0000      -0.193959        -5.2779
 144   0.0000      -0.149351        -4.0641
 145   0.0000      -0.139089        -3.7848
 146   0.0000      -0.121525        -3.3069
 147   0.0000      -0.120304        -3.2736
 148   0.0000      -0.116815        -3.1787

MULLIKEN ATOMIC CHARGES AND SPIN POPULATIONS
--------------------------------------------
   0 Au:    0.334512    0.049347
   1 Au:    0.393294   -0.048124
   2 Au:    0.393568   -0.047969
   3 Au:    0.575192   -0.042798
   4 Au:    0.637253   -0.013066
   5 Au:    0.575175   -0.042775
   6 Au:    0.334830    0.049305
   7 Au:    0.156078   -0.032133
   8 Au:    0.613944   -0.013913
   9 Au:    0.563844   -0.015484
  10 Au:    0.616492   -0.042465
  11 Au:    0.389891   -0.059091
  12 Au:    0.390524   -0.058930
  13 Au:    0.616381   -0.042925
  14 Cr:   -6.590978    2.361022
Sum of atomic charges         :   -0.0000000

LOEWDIN ATOMIC CHARGES AND SPIN POPULATIONS
-------------------------------------------
   0 Au:    0.160127   -0.013853
   1 Au:    0.064768   -0.070052
   2 Au:    0.065005   -0.069960
   3 Au:    0.125813   -0.086174
   4 Au:    0.159622   -0.078156
   5 Au:    0.125679   -0.086116
   6 Au:    0.160237   -0.013927
   7 Au:   -0.012658   -0.018618
   8 Au:    0.134307   -0.075986
   9 Au:    0.115959   -0.062811
  10 Au:    0.143562   -0.095322
  11 Au:    0.073447   -0.069186
  12 Au:    0.073601   -0.069266
  13 Au:    0.143458   -0.095556
  14 Cr:   -1.532927    2.904984

  Mayer bond orders larger than 0.100000
B(  0-Au,  1-Au) :   0.2954 B(  0-Au,  7-Au) :   0.3355 B(  0-Au, 12-Au) :   0.3044
B(  0-Au, 14-Cr) :   0.4558 B(  1-Au,  4-Au) :   0.1585 B(  1-Au,  5-Au) :   0.2289
B(  1-Au,  7-Au) :   0.1555 B(  1-Au, 10-Au) :   0.1069 B(  1-Au, 13-Au) :   0.1803
B(  1-Au, 14-Cr) :   0.5500 B(  2-Au,  3-Au) :   0.2290 B(  2-Au,  4-Au) :   0.1575
B(  2-Au,  6-Au) :   0.2954 B(  2-Au,  7-Au) :   0.1562 B(  2-Au, 10-Au) :   0.1803
B(  2-Au, 13-Au) :   0.1067 B(  2-Au, 14-Cr) :   0.5498 B(  3-Au,  4-Au) :   0.1387
B(  3-Au,  5-Au) :   0.1934 B(  3-Au,  9-Au) :   0.2080 B(  3-Au, 10-Au) :   0.1889
B(  3-Au, 14-Cr) :   0.5111 B(  4-Au,  5-Au) :   0.1379 B(  4-Au,  7-Au) :   0.2134
B(  4-Au, 14-Cr) :   0.5660 B(  5-Au,  9-Au) :   0.2087 B(  5-Au, 13-Au) :   0.1892
B(  5-Au, 14-Cr) :   0.5098 B(  6-Au,  7-Au) :   0.3351 B(  6-Au, 11-Au) :   0.3050
B(  6-Au, 14-Cr) :   0.4558 B(  7-Au, 14-Cr) :   0.4795 B(  8-Au,  9-Au) :   0.1945
B(  8-Au, 10-Au) :   0.1597 B(  8-Au, 11-Au) :   0.2069 B(  8-Au, 12-Au) :   0.2066
B(  8-Au, 13-Au) :   0.1594 B(  8-Au, 14-Cr) :   0.5144 B(  9-Au, 10-Au) :   0.1608
B(  9-Au, 13-Au) :   0.1602 B(  9-Au, 14-Cr) :   0.4661 B( 10-Au, 11-Au) :   0.1614
B( 10-Au, 14-Cr) :   0.5409 B( 11-Au, 12-Au) :   0.2076 B( 11-Au, 14-Cr) :   0.5954
B( 12-Au, 13-Au) :   0.1617 B( 12-Au, 14-Cr) :   0.5961 B( 13-Au, 14-Cr) :   0.5405

FINAL SINGLE POINT ENERGY     -2945.838423637659

DIPOLE MOMENT
-------------
                                X             Y             Z
Electronic contribution:    -13.82506       4.95739       4.09038
Nuclear contribution   :     13.59860      -4.85155      -4.00732
                        -----------------------------------------
Total Dipole Moment    :     -0.22647       0.10584       0.08307
                        -----------------------------------------
Magnitude (a.u.)       :      0.26342
Magnitude (Debye)      :      0.66956

Rotational constants in cm-1:     0.001158     0.001043     0.000934
Rotational constants in MHz :    34.704580    31.265329    27.986562

                             ****ORCA TERMINATED NORMALLY****
TOTAL RUN TIME: 0 days 2 hours 33 minutes 7 seconds 771 msec
