                         Program Version 5.0.3 -  RELEASE  -
|  1> !R2SCAN def2-TZVP VERYSLOWCONV
|  2> !KDIIS
|  3> %scf
|  4>   AutoTRAHIter 200
|  5>   maxiter 400
|  6> end
|  7>
|  8> %pal nprocs 6 end
|  9>
| 10> *xyzfile 0 5 pbe.xyz
| 11>
| 12> $new_job
| 13>
| 14> !R2SCAN def2-TZVP VERYSLOWCONV
| 15> !KDIIS
| 16> %scf
| 17>   AutoTRAHIter 200
| 18>   maxiter 400
| 19> end
| 20>
| 21>
| 22> %pal nprocs 6 end
| 23>
| 24> *xyzfile 0 3 pbe.xyz
| 25>
| 26>
| 27>
| 28>
| 29>
| 30>                          ****END OF INPUT****
 Total Charge           Charge          ....    0
 Multiplicity           Mult            ....    5
 Number of Electrons    NEL             ....  290
FINAL SINGLE POINT ENERGY     -2946.299720748579

CARTESIAN COORDINATES (ANGSTROEM)
---------------------------------
  Au     6.242057    7.616814    9.596161
  Au     8.992418    7.808188    9.469127
  Au     8.828230   10.483443    5.652705
  Au    11.434070    9.532791    5.989987
  Au     9.897492   10.272155    8.309779
  Au    11.534761    7.900982    8.312534
  Au     6.069878   10.425135    5.585283
  Au     7.215914    9.531898    7.903313
  Au     8.850198    5.794376    5.213794
  Au    11.503021    6.690118    5.728705
  Au     9.733958    8.278339    4.063815
  Au     7.072670    7.941412    5.077442
  Au     7.171636    6.328865    7.378391
  Au     9.896627    5.598202    7.886611
  Cr     9.274990    8.019550    6.755307

 Multiplicity           Mult            ....    3
 Number of Electrons    NEL             ....  290
 Basis Dimension        Dim             ....  605

ORBITAL ENERGIES
----------------
                 SPIN UP ORBITALS
  NO   OCC          E(Eh)            E(eV)
   0   1.0000    -215.295608     -5858.4913
   1   1.0000     -24.597082      -669.3206
   2   1.0000     -20.864000      -567.7383
   3   1.0000     -20.863973      -567.7376
   4   1.0000     -20.862528      -567.6983
   5   1.0000      -4.122450      -112.1776
   6   1.0000      -4.121424      -112.1496
   7   1.0000      -4.121400      -112.1490
   8   1.0000      -4.117779      -112.0505
   9   1.0000      -4.117034      -112.0302
  10   1.0000      -4.116924      -112.0272
  11   1.0000      -4.115597      -111.9911
  12   1.0000      -4.115477      -111.9878
  13   1.0000      -4.111152      -111.8701
  14   1.0000      -4.111145      -111.8699
  15   1.0000      -4.110882      -111.8628
  16   1.0000      -4.108395      -111.7951
  17   1.0000      -4.105997      -111.7299
  18   1.0000      -4.105945      -111.7284
  19   1.0000      -2.915452       -79.3335
  20   1.0000      -2.310806       -62.8802
  21   1.0000      -2.310550       -62.8733
  22   1.0000      -2.310417       -62.8696
  23   1.0000      -2.310121       -62.8616
  24   1.0000      -2.308525       -62.8181
  25   1.0000      -2.307322       -62.7854
  26   1.0000      -2.307131       -62.7802
  27   1.0000      -2.306318       -62.7581
  28   1.0000      -2.304991       -62.7220
  29   1.0000      -2.304697       -62.7140
  30   1.0000      -2.304416       -62.7063
  31   1.0000      -2.304259       -62.7021
  32   1.0000      -2.303851       -62.6910
  33   1.0000      -2.303194       -62.6731
  34   1.0000      -2.303065       -62.6696
  35   1.0000      -2.302617       -62.6574
  36   1.0000      -2.301978       -62.6400
  37   1.0000      -2.301856       -62.6367
  38   1.0000      -2.301703       -62.6325
  39   1.0000      -2.300888       -62.6103
  40   1.0000      -2.300795       -62.6078
  41   1.0000      -2.300361       -62.5960
  42   1.0000      -2.299745       -62.5793
  43   1.0000      -2.299346       -62.5684
  44   1.0000      -2.299177       -62.5638
  45   1.0000      -2.298807       -62.5537
  46   1.0000      -2.298512       -62.5457
  47   1.0000      -2.296035       -62.4783
  48   1.0000      -2.295687       -62.4688
  49   1.0000      -2.295680       -62.4686
  50   1.0000      -2.295359       -62.4599
  51   1.0000      -2.295339       -62.4593
  52   1.0000      -2.295084       -62.4524
  53   1.0000      -2.294910       -62.4477
  54   1.0000      -2.294141       -62.4267
  55   1.0000      -2.293966       -62.4220
  56   1.0000      -2.293335       -62.4048
  57   1.0000      -2.292321       -62.3772
  58   1.0000      -2.290421       -62.3255
  59   1.0000      -2.290332       -62.3231
  60   1.0000      -2.289297       -62.2949
  61   1.0000      -2.289246       -62.2935
  62   1.0000      -1.862645       -50.6851
  63   1.0000      -1.862476       -50.6806
  64   1.0000      -1.861152       -50.6445
  65   1.0000      -0.438426       -11.9302
  66   1.0000      -0.393534       -10.7086
  67   1.0000      -0.390485       -10.6256
  68   1.0000      -0.388486       -10.5713
  69   1.0000      -0.379923       -10.3382
  70   1.0000      -0.378355       -10.2956
  71   1.0000      -0.375975       -10.2308
  72   1.0000      -0.375922       -10.2294
  73   1.0000      -0.373372       -10.1600
  74   1.0000      -0.366844        -9.9823
  75   1.0000      -0.360229        -9.8023
  76   1.0000      -0.358093        -9.7442
  77   1.0000      -0.355698        -9.6790
  78   1.0000      -0.354877        -9.6567
  79   1.0000      -0.353727        -9.6254
  80   1.0000      -0.351606        -9.5677
  81   1.0000      -0.347001        -9.4424
  82   1.0000      -0.346732        -9.4351
  83   1.0000      -0.346016        -9.4156
  84   1.0000      -0.345076        -9.3900
  85   1.0000      -0.342702        -9.3254
  86   1.0000      -0.341558        -9.2943
  87   1.0000      -0.338256        -9.2044
  88   1.0000      -0.334037        -9.0896
  89   1.0000      -0.332690        -9.0529
  90   1.0000      -0.329722        -8.9722
  91   1.0000      -0.326107        -8.8738
  92   1.0000      -0.325615        -8.8604
  93   1.0000      -0.322186        -8.7671
  94   1.0000      -0.316211        -8.6046
  95   1.0000      -0.312579        -8.5057
  96   1.0000      -0.311804        -8.4846
  97   1.0000      -0.310522        -8.4497
  98   1.0000      -0.305570        -8.3150
  99   1.0000      -0.303285        -8.2528
 100   1.0000      -0.302400        -8.2287
 101   1.0000      -0.300848        -8.1865
 102   1.0000      -0.299296        -8.1443
 103   1.0000      -0.296380        -8.0649
 104   1.0000      -0.294486        -8.0134
 105   1.0000      -0.291509        -7.9324
 106   1.0000      -0.290026        -7.8920
 107   1.0000      -0.288886        -7.8610
 108   1.0000      -0.285056        -7.7568
 109   1.0000      -0.285012        -7.7556
 110   1.0000      -0.283175        -7.7056
 111   1.0000      -0.281598        -7.6627
 112   1.0000      -0.280114        -7.6223
 113   1.0000      -0.278740        -7.5849
 114   1.0000      -0.278331        -7.5738
 115   1.0000      -0.276457        -7.5228
 116   1.0000      -0.274790        -7.4774
 117   1.0000      -0.272919        -7.4265
 118   1.0000      -0.272333        -7.4106
 119   1.0000      -0.271782        -7.3956
 120   1.0000      -0.270841        -7.3699
 121   1.0000      -0.268513        -7.3066
 122   1.0000      -0.266241        -7.2448
 123   1.0000      -0.265778        -7.2322
 124   1.0000      -0.264560        -7.1990
 125   1.0000      -0.263560        -7.1718
 126   1.0000      -0.260316        -7.0835
 127   1.0000      -0.259586        -7.0637
 128   1.0000      -0.256444        -6.9782
 129   1.0000      -0.254848        -6.9348
 130   1.0000      -0.253903        -6.9090
 131   1.0000      -0.253483        -6.8976
 132   1.0000      -0.252499        -6.8709
 133   1.0000      -0.251831        -6.8527
 134   1.0000      -0.248679        -6.7669
 135   1.0000      -0.246733        -6.7139
 136   1.0000      -0.245255        -6.6737
 137   1.0000      -0.241853        -6.5812
 138   1.0000      -0.237664        -6.4672
 139   1.0000      -0.229450        -6.2437
 140   1.0000      -0.227749        -6.1974
 141   1.0000      -0.216675        -5.8960
 142   1.0000      -0.214408        -5.8343
 143   1.0000      -0.211628        -5.7587
 144   1.0000      -0.202132        -5.5003
 145   1.0000      -0.194690        -5.2978
 146   0.0000      -0.169631        -4.6159
 147   0.0000      -0.169618        -4.6156
 148   0.0000      -0.166884        -4.5412
 149   0.0000      -0.140804        -3.8315
 150   0.0000      -0.124738        -3.3943

                 SPIN DOWN ORBITALS
  NO   OCC          E(Eh)            E(eV)
   0   1.0000    -215.295018     -5858.4753
   1   1.0000     -24.536715      -667.6780
   2   1.0000     -20.818675      -566.5049
   3   1.0000     -20.818192      -566.4918
   4   1.0000     -20.814176      -566.3825
   5   1.0000      -4.122061      -112.1670
   6   1.0000      -4.121259      -112.1451
   7   1.0000      -4.121239      -112.1446
   8   1.0000      -4.117548      -112.0442
   9   1.0000      -4.117031      -112.0301
  10   1.0000      -4.116926      -112.0273
  11   1.0000      -4.115754      -111.9954
  12   1.0000      -4.115634      -111.9921
  13   1.0000      -4.111337      -111.8752
  14   1.0000      -4.111334      -111.8751
  15   1.0000      -4.110948      -111.8646
  16   1.0000      -4.108556      -111.7995
  17   1.0000      -4.106808      -111.7519
  18   1.0000      -4.106756      -111.7505
  19   1.0000      -2.757058       -75.0234
  20   1.0000      -2.310337       -62.8675
  21   1.0000      -2.309859       -62.8545
  22   1.0000      -2.309753       -62.8516
  23   1.0000      -2.309231       -62.8374
  24   1.0000      -2.308135       -62.8075
  25   1.0000      -2.306771       -62.7704
  26   1.0000      -2.306612       -62.7661
  27   1.0000      -2.305934       -62.7476
  28   1.0000      -2.304806       -62.7170
  29   1.0000      -2.304434       -62.7068
  30   1.0000      -2.304276       -62.7025
  31   1.0000      -2.304128       -62.6985
  32   1.0000      -2.303522       -62.6820
  33   1.0000      -2.302847       -62.6636
  34   1.0000      -2.302703       -62.6597
  35   1.0000      -2.302221       -62.6466
  36   1.0000      -2.301884       -62.6375
  37   1.0000      -2.301653       -62.6312
  38   1.0000      -2.301581       -62.6292
  39   1.0000      -2.301058       -62.6150
  40   1.0000      -2.300933       -62.6116
  41   1.0000      -2.300415       -62.5975
  42   1.0000      -2.299600       -62.5753
  43   1.0000      -2.299292       -62.5669
  44   1.0000      -2.299105       -62.5618
  45   1.0000      -2.298638       -62.5491
  46   1.0000      -2.298477       -62.5447
  47   1.0000      -2.295947       -62.4759
  48   1.0000      -2.295837       -62.4729
  49   1.0000      -2.295761       -62.4708
  50   1.0000      -2.295458       -62.4626
  51   1.0000      -2.295444       -62.4622
  52   1.0000      -2.295169       -62.4547
  53   1.0000      -2.295147       -62.4541
  54   1.0000      -2.294967       -62.4492
  55   1.0000      -2.294795       -62.4445
  56   1.0000      -2.293675       -62.4141
  57   1.0000      -2.292523       -62.3827
  58   1.0000      -2.291547       -62.3562
  59   1.0000      -2.291447       -62.3534
  60   1.0000      -2.290043       -62.3152
  61   1.0000      -2.289992       -62.3138
  62   1.0000      -1.708050       -46.4784
  63   1.0000      -1.706730       -46.4425
  64   1.0000      -1.697873       -46.2015
  65   1.0000      -0.432738       -11.7754
  66   1.0000      -0.393510       -10.7079
  67   1.0000      -0.390675       -10.6308
  68   1.0000      -0.389192       -10.5905
  69   1.0000      -0.376690       -10.2503
  70   1.0000      -0.374491       -10.1904
  71   1.0000      -0.372708       -10.1419
  72   1.0000      -0.371698       -10.1144
  73   1.0000      -0.369575       -10.0566
  74   1.0000      -0.363795        -9.8994
  75   1.0000      -0.360340        -9.8053
  76   1.0000      -0.357973        -9.7409
  77   1.0000      -0.356283        -9.6949
  78   1.0000      -0.356181        -9.6922
  79   1.0000      -0.355128        -9.6635
  80   1.0000      -0.351742        -9.5714
  81   1.0000      -0.347616        -9.4591
  82   1.0000      -0.347148        -9.4464
  83   1.0000      -0.346532        -9.4296
  84   1.0000      -0.345941        -9.4135
  85   1.0000      -0.343614        -9.3502
  86   1.0000      -0.342198        -9.3117
  87   1.0000      -0.338793        -9.2190
  88   1.0000      -0.334770        -9.1095
  89   1.0000      -0.333090        -9.0638
  90   1.0000      -0.331118        -9.0102
  91   1.0000      -0.327191        -8.9033
  92   1.0000      -0.326967        -8.8972
  93   1.0000      -0.322671        -8.7803
  94   1.0000      -0.316453        -8.6111
  95   1.0000      -0.312655        -8.5078
  96   1.0000      -0.312574        -8.5056
  97   1.0000      -0.310312        -8.4440
  98   1.0000      -0.306186        -8.3317
  99   1.0000      -0.302567        -8.2333
 100   1.0000      -0.302144        -8.2218
 101   1.0000      -0.300752        -8.1839
 102   1.0000      -0.296067        -8.0564
 103   1.0000      -0.293787        -7.9944
 104   1.0000      -0.292007        -7.9459
 105   1.0000      -0.290398        -7.9021
 106   1.0000      -0.290170        -7.8959
 107   1.0000      -0.288485        -7.8501
 108   1.0000      -0.285809        -7.7773
 109   1.0000      -0.285365        -7.7652
 110   1.0000      -0.284634        -7.7453
 111   1.0000      -0.282845        -7.6966
 112   1.0000      -0.281263        -7.6536
 113   1.0000      -0.280174        -7.6239
 114   1.0000      -0.279791        -7.6135
 115   1.0000      -0.277238        -7.5440
 116   1.0000      -0.276004        -7.5105
 117   1.0000      -0.273898        -7.4531
 118   1.0000      -0.273675        -7.4471
 119   1.0000      -0.272678        -7.4199
 120   1.0000      -0.271735        -7.3943
 121   1.0000      -0.269530        -7.3343
 122   1.0000      -0.267506        -7.2792
 123   1.0000      -0.267476        -7.2784
 124   1.0000      -0.265419        -7.2224
 125   1.0000      -0.265136        -7.2147
 126   1.0000      -0.261978        -7.1288
 127   1.0000      -0.261125        -7.1056
 128   1.0000      -0.257703        -7.0125
 129   1.0000      -0.256757        -6.9867
 130   1.0000      -0.255445        -6.9510
 131   1.0000      -0.255046        -6.9402
 132   1.0000      -0.253516        -6.8985
 133   1.0000      -0.253168        -6.8891
 134   1.0000      -0.250536        -6.8174
 135   1.0000      -0.249404        -6.7866
 136   1.0000      -0.245902        -6.6913
 137   1.0000      -0.242473        -6.5980
 138   1.0000      -0.238076        -6.4784
 139   1.0000      -0.222659        -6.0589
 140   1.0000      -0.212087        -5.7712
 141   1.0000      -0.197440        -5.3726
 142   1.0000      -0.196077        -5.3355
 143   1.0000      -0.194297        -5.2871
 144   0.0000      -0.144163        -3.9229
 145   0.0000      -0.133274        -3.6266
 146   0.0000      -0.116540        -3.1712
 147   0.0000      -0.114545        -3.1169
 148   0.0000      -0.111070        -3.0224

MULLIKEN ATOMIC CHARGES AND SPIN POPULATIONS
--------------------------------------------
   0 Au:    0.301458    0.055587
   1 Au:    0.355789   -0.085102
   2 Au:    0.356142   -0.084847
   3 Au:    0.523997   -0.071838
   4 Au:    0.580289   -0.027514
   5 Au:    0.523827   -0.071646
   6 Au:    0.301806    0.055548
   7 Au:    0.136407   -0.060647
   8 Au:    0.563740   -0.031853
   9 Au:    0.499619   -0.037618
  10 Au:    0.553746   -0.079496
  11 Au:    0.353644   -0.095688
  12 Au:    0.354357   -0.095627
  13 Au:    0.553841   -0.080070
  14 Cr:   -5.958662    2.710811
Sum of atomic charges         :   -0.0000000

LOEWDIN ATOMIC CHARGES AND SPIN POPULATIONS
-------------------------------------------
   0 Au:    0.157272   -0.019838
   1 Au:    0.061889   -0.092396
   2 Au:    0.062124   -0.092269
   3 Au:    0.121513   -0.106063
   4 Au:    0.155994   -0.095786
   5 Au:    0.121391   -0.105970
   6 Au:    0.157418   -0.019909
   7 Au:   -0.014748   -0.035235
   8 Au:    0.130665   -0.095103
   9 Au:    0.110187   -0.079963
  10 Au:    0.139175   -0.119176
  11 Au:    0.070232   -0.090888
  12 Au:    0.070388   -0.090997
  13 Au:    0.139084   -0.119427
  14 Cr:   -1.482584    3.163022

  Mayer bond orders larger than 0.100000
B(  0-Au,  1-Au) :   0.2839 B(  0-Au,  7-Au) :   0.3315 B(  0-Au, 12-Au) :   0.2948
B(  0-Au, 14-Cr) :   0.4244 B(  1-Au,  4-Au) :   0.1522 B(  1-Au,  5-Au) :   0.2270
B(  1-Au,  7-Au) :   0.1471 B(  1-Au, 13-Au) :   0.1752 B(  1-Au, 14-Cr) :   0.5727
B(  2-Au,  3-Au) :   0.2271 B(  2-Au,  4-Au) :   0.1513 B(  2-Au,  6-Au) :   0.2839
B(  2-Au,  7-Au) :   0.1477 B(  2-Au, 10-Au) :   0.1752 B(  2-Au, 14-Cr) :   0.5725
B(  3-Au,  4-Au) :   0.1305 B(  3-Au,  5-Au) :   0.1875 B(  3-Au,  9-Au) :   0.2020
B(  3-Au, 10-Au) :   0.1815 B(  3-Au, 14-Cr) :   0.5343 B(  4-Au,  5-Au) :   0.1298
B(  4-Au,  7-Au) :   0.2099 B(  4-Au, 14-Cr) :   0.6014 B(  5-Au,  9-Au) :   0.2027
B(  5-Au, 13-Au) :   0.1818 B(  5-Au, 14-Cr) :   0.5331 B(  6-Au,  7-Au) :   0.3311
B(  6-Au, 11-Au) :   0.2956 B(  6-Au, 14-Cr) :   0.4245 B(  7-Au, 14-Cr) :   0.4884
B(  8-Au,  9-Au) :   0.1869 B(  8-Au, 10-Au) :   0.1527 B(  8-Au, 11-Au) :   0.2074
B(  8-Au, 12-Au) :   0.2071 B(  8-Au, 13-Au) :   0.1525 B(  8-Au, 14-Cr) :   0.5468
B(  9-Au, 10-Au) :   0.1544 B(  9-Au, 13-Au) :   0.1538 B(  9-Au, 14-Cr) :   0.4895
B( 10-Au, 11-Au) :   0.1542 B( 10-Au, 14-Cr) :   0.5743 B( 11-Au, 12-Au) :   0.2034
B( 11-Au, 14-Cr) :   0.6105 B( 12-Au, 13-Au) :   0.1545 B( 12-Au, 14-Cr) :   0.6110
B( 13-Au, 14-Cr) :   0.5738

FINAL SINGLE POINT ENERGY     -2946.317913232892

DIPOLE MOMENT
-------------
                                X             Y             Z
Electronic contribution:    -13.83598       4.96468       4.09582
Nuclear contribution   :     13.59860      -4.85155      -4.00732
                        -----------------------------------------
Total Dipole Moment    :     -0.23739       0.11313       0.08850
                        -----------------------------------------
Magnitude (a.u.)       :      0.27746
Magnitude (Debye)      :      0.70524

Rotational constants in cm-1:     0.001158     0.001043     0.000934
Rotational constants in MHz :    34.704580    31.265329    27.986562

                             ****ORCA TERMINATED NORMALLY****
TOTAL RUN TIME: 0 days 2 hours 35 minutes 7 seconds 596 msec
