                         Program Version 5.0.3 -  RELEASE  -
|  1> !CASSCF def2-TZVP def2-TZVP/C
|  2> !MOREAD RIJCOSX
|  3> %maxcore 6000
|  4> %moinp "pbe.qro"
|  5> %pal nprocs 2 end
|  6>
|  7> %casscf
|  8>  mult 5,3
|  9>  bweight 1,1
| 10>  nroots 5,45
| 11>  nel 6
| 12>  norb 5
| 13> end
| 14>
| 15>
| 16> *xyzfile 0 5 pbe.xyz
| 17>
| 18>
| 19>                          ****END OF INPUT****

CARTESIAN COORDINATES (ANGSTROEM)
---------------------------------
  Au     6.044512    8.591653    6.234705
  Au     7.435489   10.671233    7.751588
  Au    10.008416   10.980906    7.116656
  Au     4.919076    9.892000    8.495530
  Au     6.903214    9.934216   10.527115
  Au     6.854553    7.171720   11.012690
  Au     4.563824    7.229714    9.392857
  Au     8.554973    6.179143    8.929457
  Au     6.137604    6.042183    7.396647
  Au     9.423592    8.537374    7.994075
  Fe     6.926397    8.184383    8.627569

 Total Charge           Charge          ....    0
 Multiplicity           Mult            ....    5
 Number of Electrons    NEL             ....  216
 Basis Dimension        Dim             ....  445

ORBITAL ENERGIES
----------------

  NO   OCC          E(Eh)            E(eV)
   0   2.0000    -261.383410     -7112.6042
   1   2.0000     -31.950010      -869.4040
   2   2.0000     -27.430293      -746.4162
   3   2.0000     -27.429574      -746.3966
   4   2.0000     -27.429201      -746.3865
   5   2.0000      -4.731855      -128.7603
   6   2.0000      -4.714938      -128.3000
   7   2.0000      -4.714911      -128.2993
   8   2.0000      -4.714292      -128.2824
   9   2.0000      -4.713822      -128.2696
  10   2.0000      -4.709500      -128.1520
  11   2.0000      -4.709473      -128.1513
  12   2.0000      -4.707213      -128.0898
  13   2.0000      -4.696205      -127.7902
  14   2.0000      -4.692890      -127.7000
  15   2.0000      -4.184533      -113.8669
  16   2.0000      -2.772357       -75.4397
  17   2.0000      -2.768581       -75.3369
  18   2.0000      -2.766324       -75.2755
  19   2.0000      -2.764987       -75.2391
  20   2.0000      -2.764763       -75.2330
  21   2.0000      -2.763948       -75.2109
  22   2.0000      -2.755635       -74.9846
  23   2.0000      -2.754894       -74.9645
  24   2.0000      -2.753973       -74.9394
  25   2.0000      -2.751874       -74.8823
  26   2.0000      -2.751607       -74.8750
  27   2.0000      -2.750675       -74.8497
  28   2.0000      -2.749867       -74.8277
  29   2.0000      -2.749434       -74.8159
  30   2.0000      -2.748884       -74.8009
  31   2.0000      -2.748221       -74.7829
  32   2.0000      -2.747723       -74.7693
  33   2.0000      -2.746065       -74.7242
  34   2.0000      -2.745492       -74.7086
  35   2.0000      -2.745081       -74.6975
  36   2.0000      -2.744866       -74.6916
  37   2.0000      -2.744497       -74.6816
  38   2.0000      -2.743885       -74.6649
  39   2.0000      -2.742947       -74.6394
  40   2.0000      -2.741577       -74.6021
  41   2.0000      -2.740851       -74.5823
  42   2.0000      -2.738699       -74.5238
  43   2.0000      -2.733496       -74.3822
  44   2.0000      -2.730858       -74.3104
  45   2.0000      -2.730052       -74.2885
  46   2.0000      -2.727486       -74.2187
  47   2.0000      -2.726177       -74.1830
  48   2.0000      -2.725544       -74.1658
  49   2.0000      -0.583072       -15.8662
  50   2.0000      -0.557946       -15.1825
  51   2.0000      -0.548499       -14.9254
  52   2.0000      -0.547541       -14.8994
  53   2.0000      -0.542951       -14.7744
  54   2.0000      -0.534559       -14.5461
  55   2.0000      -0.534082       -14.5331
  56   2.0000      -0.528797       -14.3893
  57   2.0000      -0.524883       -14.2828
  58   2.0000      -0.524236       -14.2652
  59   2.0000      -0.523078       -14.2337
  60   2.0000      -0.517847       -14.0913
  61   2.0000      -0.515531       -14.0283
  62   2.0000      -0.514145       -13.9906
  63   2.0000      -0.511941       -13.9306
  64   2.0000      -0.503038       -13.6884
  65   2.0000      -0.501094       -13.6355
  66   2.0000      -0.500482       -13.6188
  67   2.0000      -0.495954       -13.4956
  68   2.0000      -0.493061       -13.4169
  69   2.0000      -0.491946       -13.3865
  70   2.0000      -0.486227       -13.2309
  71   2.0000      -0.478653       -13.0248
  72   2.0000      -0.478074       -13.0091
  73   2.0000      -0.473940       -12.8966
  74   2.0000      -0.471923       -12.8417
  75   2.0000      -0.469007       -12.7623
  76   2.0000      -0.468435       -12.7468
  77   2.0000      -0.466934       -12.7059
  78   2.0000      -0.465115       -12.6564
  79   2.0000      -0.462767       -12.5925
  80   2.0000      -0.459066       -12.4918
  81   2.0000      -0.457829       -12.4582
  82   2.0000      -0.456612       -12.4250
  83   2.0000      -0.454449       -12.3662
  84   2.0000      -0.452404       -12.3105
  85   2.0000      -0.449807       -12.2399
  86   2.0000      -0.448345       -12.2001
  87   2.0000      -0.441940       -12.0258
  88   2.0000      -0.440913       -11.9979
  89   2.0000      -0.434023       -11.8104
  90   2.0000      -0.432363       -11.7652
  91   2.0000      -0.430837       -11.7237
  92   2.0000      -0.429823       -11.6961
  93   2.0000      -0.429312       -11.6822
  94   2.0000      -0.427029       -11.6200
  95   2.0000      -0.421799       -11.4777
  96   2.0000      -0.419418       -11.4129
  97   2.0000      -0.407623       -11.0920
  98   2.0000      -0.406885       -11.0719
  99   2.0000      -0.397050       -10.8043
 100   2.0000      -0.340206        -9.2575
 101   2.0000      -0.321577        -8.7506
 102   2.0000      -0.294235        -8.0065
 103   2.0000      -0.244925        -6.6648
 104   2.0000      -0.206240        -5.6121
 105   1.2000      -0.266664        -7.2563
 106   1.2000      -0.260606        -7.0914
 107   1.2000      -0.244301        -6.6478
 108   1.2000      -0.264467        -7.1965
 109   1.2000      -0.264889        -7.2080
 110   0.0000      -0.034927        -0.9504
 111   0.0000      -0.033729        -0.9178
 112   0.0000      -0.010469        -0.2849
 113   0.0000       0.016746         0.4557
 114   0.0000       0.026341         0.7168

MULLIKEN ATOMIC CHARGES AND SPIN DENSITIES
------------------------------------------
   0 Au:    0.238313    0.011869
   1 Au:   -0.305993    0.007378
   2 Au:    0.451367    0.002840
   3 Au:    0.223558    0.011054
   4 Au:    0.238742    0.011853
   5 Au:    0.301511    0.009984
   6 Au:    0.081413    0.009913
   7 Au:    0.262806    0.012147
   8 Au:    0.302197    0.009969
   9 Au:   -0.199967    0.011974
  10 Fe:   -1.593948    2.901018
Sum of atomic charges       :    0.0000000

LOEWDIN ATOMIC CHARGES AND SPIN DENSITIES
-----------------------------------------
   0 Au:    0.061905    0.014296
   1 Au:   -0.068348    0.010057
   2 Au:    0.132037    0.003738
   3 Au:   -0.011367    0.013542
   4 Au:    0.062164    0.014288
   5 Au:    0.055643    0.012924
   6 Au:   -0.038908    0.013100
   7 Au:    0.068196    0.015837
   8 Au:    0.055312    0.012883
   9 Au:   -0.094508    0.016503
  10 Fe:   -0.222125    2.872831

  Mayer bond orders larger than 0.100000
B(  0-Au,  1-Au) :   0.1057 B(  0-Au,  8-Au) :   0.4101 B(  0-Au, 10-Fe) :   0.5060
B(  1-Au,  2-Au) :   0.4971 B(  1-Au,  3-Au) :   0.3338 B(  1-Au,  4-Au) :   0.1097
B(  1-Au,  9-Au) :   0.4466 B(  1-Au, 10-Fe) :   0.4585 B(  2-Au,  9-Au) :   0.4583
B(  3-Au,  6-Au) :   0.2797 B(  3-Au, 10-Fe) :   0.4415 B(  4-Au,  5-Au) :   0.4049
B(  4-Au, 10-Fe) :   0.5059 B(  5-Au,  6-Au) :   0.1497 B(  5-Au, 10-Fe) :   0.4470
B(  6-Au,  8-Au) :   0.1465 B(  6-Au, 10-Fe) :   0.4894 B(  7-Au,  9-Au) :   0.5494
B(  7-Au, 10-Fe) :   0.4782 B(  8-Au, 10-Fe) :   0.4464 B(  9-Au, 10-Fe) :   0.4412

FINAL SINGLE POINT ENERGY     -2610.426975046645

DIPOLE MOMENT
-------------
                                X             Y             Z
Electronic contribution:      6.28588      12.75822      -5.43201
Nuclear contribution   :     -5.98958     -12.82669       5.39523
                        -----------------------------------------
Total Dipole Moment    :      0.29630      -0.06846      -0.03677
                        -----------------------------------------
Magnitude (a.u.)       :      0.30632
Magnitude (Debye)      :      0.77861

Rotational constants in cm-1:     0.002123     0.001496     0.001387
Rotational constants in MHz :    63.635694    44.852367    41.587551

                             ****ORCA TERMINATED NORMALLY****
TOTAL RUN TIME: 0 days 0 hours 42 minutes 54 seconds 277 msec
