                         Program Version 5.0.3 -  RELEASE  -
|  1> %pal nprocs 16 end
|  2>
|  3> !PBE def2-TZVP OPT UNO
|  4> !SLOWCONV
|  5>
|  6> *xyzfile 0 5 8-2.xyz
|  7>
|  8>                          ****END OF INPUT****
 Total Charge           Charge          ....    0
 Multiplicity           Mult            ....    5
 Number of Electrons    NEL             ....  310
FINAL SINGLE POINT ENERGY     -3188.211294385391
FINAL SINGLE POINT ENERGY     -3188.211343505078
FINAL SINGLE POINT ENERGY     -3188.211401418161
FINAL SINGLE POINT ENERGY     -3188.211469271209
FINAL SINGLE POINT ENERGY     -3188.211572935458
FINAL SINGLE POINT ENERGY     -3188.211778739865
FINAL SINGLE POINT ENERGY     -3188.212045950514
FINAL SINGLE POINT ENERGY     -3188.212343479099
FINAL SINGLE POINT ENERGY     -3188.212699486664
FINAL SINGLE POINT ENERGY     -3188.213053811459
FINAL SINGLE POINT ENERGY     -3188.215273199525
FINAL SINGLE POINT ENERGY     -3188.215291544252
FINAL SINGLE POINT ENERGY     -3188.215327770702
FINAL SINGLE POINT ENERGY     -3188.215345698882
FINAL SINGLE POINT ENERGY     -3188.215361861402
FINAL SINGLE POINT ENERGY     -3188.215378142149
FINAL SINGLE POINT ENERGY     -3188.215391034702
FINAL SINGLE POINT ENERGY     -3188.215395914063
FINAL SINGLE POINT ENERGY     -3188.215399908657
                    ***********************HURRAY********************

CARTESIAN COORDINATES (ANGSTROEM)
---------------------------------
  Au     9.611067    9.127341    9.576955
  Au     7.713455    8.522504   11.544890
  Au     5.778026    6.508170   11.112048
  Au     7.270527   10.615591    9.840542
  Au     4.987623    6.138167    8.510248
  Au     5.471879   10.731236    7.717987
  Au     5.138405    8.720921    9.600971
  Au    10.673045    6.636444    9.679755
  Au     9.624372    7.335663    7.217781
  Au     8.465588    5.902952   11.160292
  Au     8.689729    4.910269    8.538807
  Au     7.901446    7.970043    5.163408
  Au     6.982204    5.780924    6.649727
  Au     8.049706    9.689318    7.297853
  Au     5.551791    8.167323    6.693141
  Mn     7.480156    7.387751    8.967695

 Multiplicity           Mult            ....    5
 Number of Electrons    NEL             ....  310
 Basis Dimension        Dim             ....  645

ORBITAL ENERGIES
----------------
                 SPIN UP ORBITALS
  NO   OCC          E(Eh)            E(eV)
   0   1.0000    -234.206577     -6373.0850
   1   1.0000     -26.899265      -731.9662
   2   1.0000     -23.048455      -627.1804
   3   1.0000     -23.047275      -627.1482
   4   1.0000     -23.047074      -627.1428
   5   1.0000      -4.038295      -109.8876
   6   1.0000      -4.036726      -109.8449
   7   1.0000      -4.035854      -109.8212
   8   1.0000      -4.033009      -109.7438
   9   1.0000      -4.030315      -109.6704
  10   1.0000      -4.029737      -109.6547
  11   1.0000      -4.028780      -109.6287
  12   1.0000      -4.027970      -109.6066
  13   1.0000      -4.027714      -109.5997
  14   1.0000      -4.027002      -109.5803
  15   1.0000      -4.026352      -109.5626
  16   1.0000      -4.026188      -109.5581
  17   1.0000      -4.022806      -109.4661
  18   1.0000      -4.021941      -109.4426
  19   1.0000      -4.019833      -109.3852
  20   1.0000      -3.111503       -84.6683
  21   1.0000      -2.253768       -61.3281
  22   1.0000      -2.253531       -61.3217
  23   1.0000      -2.252386       -61.2905
  24   1.0000      -2.251298       -61.2609
  25   1.0000      -2.249361       -61.2082
  26   1.0000      -2.249232       -61.2047
  27   1.0000      -2.248802       -61.1930
  28   1.0000      -2.248497       -61.1847
  29   1.0000      -2.246764       -61.1376
  30   1.0000      -2.246365       -61.1267
  31   1.0000      -2.245970       -61.1160
  32   1.0000      -2.245911       -61.1143
  33   1.0000      -2.244937       -61.0878
  34   1.0000      -2.244812       -61.0845
  35   1.0000      -2.244535       -61.0769
  36   1.0000      -2.243483       -61.0483
  37   1.0000      -2.242917       -61.0329
  38   1.0000      -2.242666       -61.0260
  39   1.0000      -2.242391       -61.0186
  40   1.0000      -2.241983       -61.0075
  41   1.0000      -2.241896       -61.0051
  42   1.0000      -2.241432       -60.9925
  43   1.0000      -2.240758       -60.9741
  44   1.0000      -2.240639       -60.9709
  45   1.0000      -2.240344       -60.9629
  46   1.0000      -2.240142       -60.9574
  47   1.0000      -2.239783       -60.9476
  48   1.0000      -2.239773       -60.9473
  49   1.0000      -2.239035       -60.9272
  50   1.0000      -2.238895       -60.9234
  51   1.0000      -2.238257       -60.9061
  52   1.0000      -2.237964       -60.8981
  53   1.0000      -2.237680       -60.8904
  54   1.0000      -2.237557       -60.8870
  55   1.0000      -2.237084       -60.8742
  56   1.0000      -2.236884       -60.8687
  57   1.0000      -2.236487       -60.8579
  58   1.0000      -2.235998       -60.8446
  59   1.0000      -2.235799       -60.8392
  60   1.0000      -2.234552       -60.8052
  61   1.0000      -2.234124       -60.7936
  62   1.0000      -2.232970       -60.7622
  63   1.0000      -2.232113       -60.7389
  64   1.0000      -2.231879       -60.7325
  65   1.0000      -2.231714       -60.7280
  66   1.0000      -2.015519       -54.8451
  67   1.0000      -2.013608       -54.7931
  68   1.0000      -2.013343       -54.7859
  69   1.0000      -0.435010       -11.8372
  70   1.0000      -0.392392       -10.6775
  71   1.0000      -0.391580       -10.6554
  72   1.0000      -0.389155       -10.5895
  73   1.0000      -0.377764       -10.2795
  74   1.0000      -0.375976       -10.2308
  75   1.0000      -0.374338       -10.1862
  76   1.0000      -0.369780       -10.0622
  77   1.0000      -0.367372        -9.9967
  78   1.0000      -0.364502        -9.9186
  79   1.0000      -0.362314        -9.8591
  80   1.0000      -0.361526        -9.8376
  81   1.0000      -0.356345        -9.6966
  82   1.0000      -0.355526        -9.6744
  83   1.0000      -0.352675        -9.5968
  84   1.0000      -0.350741        -9.5441
  85   1.0000      -0.349129        -9.5003
  86   1.0000      -0.346680        -9.4337
  87   1.0000      -0.345672        -9.4062
  88   1.0000      -0.343812        -9.3556
  89   1.0000      -0.340568        -9.2673
  90   1.0000      -0.339956        -9.2507
  91   1.0000      -0.337842        -9.1931
  92   1.0000      -0.336276        -9.1505
  93   1.0000      -0.335282        -9.1235
  94   1.0000      -0.333500        -9.0750
  95   1.0000      -0.331193        -9.0122
  96   1.0000      -0.328176        -8.9301
  97   1.0000      -0.325705        -8.8629
  98   1.0000      -0.322957        -8.7881
  99   1.0000      -0.321687        -8.7535
 100   1.0000      -0.318767        -8.6741
 101   1.0000      -0.315391        -8.5822
 102   1.0000      -0.312600        -8.5063
 103   1.0000      -0.310813        -8.4576
 104   1.0000      -0.310354        -8.4452
 105   1.0000      -0.306793        -8.3483
 106   1.0000      -0.305076        -8.3015
 107   1.0000      -0.302446        -8.2300
 108   1.0000      -0.297579        -8.0975
 109   1.0000      -0.296260        -8.0616
 110   1.0000      -0.292817        -7.9680
 111   1.0000      -0.291644        -7.9360
 112   1.0000      -0.288840        -7.8597
 113   1.0000      -0.287847        -7.8327
 114   1.0000      -0.286792        -7.8040
 115   1.0000      -0.285143        -7.7591
 116   1.0000      -0.282374        -7.6838
 117   1.0000      -0.281018        -7.6469
 118   1.0000      -0.279432        -7.6037
 119   1.0000      -0.277821        -7.5599
 120   1.0000      -0.277021        -7.5381
 121   1.0000      -0.275280        -7.4908
 122   1.0000      -0.273973        -7.4552
 123   1.0000      -0.271834        -7.3970
 124   1.0000      -0.270969        -7.3734
 125   1.0000      -0.269590        -7.3359
 126   1.0000      -0.269001        -7.3199
 127   1.0000      -0.266621        -7.2551
 128   1.0000      -0.266365        -7.2482
 129   1.0000      -0.263992        -7.1836
 130   1.0000      -0.263529        -7.1710
 131   1.0000      -0.261994        -7.1292
 132   1.0000      -0.261432        -7.1139
 133   1.0000      -0.259409        -7.0589
 134   1.0000      -0.258171        -7.0252
 135   1.0000      -0.257131        -6.9969
 136   1.0000      -0.255689        -6.9576
 137   1.0000      -0.254584        -6.9276
 138   1.0000      -0.254040        -6.9128
 139   1.0000      -0.252582        -6.8731
 140   1.0000      -0.251734        -6.8500
 141   1.0000      -0.250499        -6.8164
 142   1.0000      -0.249380        -6.7860
 143   1.0000      -0.248770        -6.7694
 144   1.0000      -0.248454        -6.7608
 145   1.0000      -0.247335        -6.7303
 146   1.0000      -0.247174        -6.7260
 147   1.0000      -0.245033        -6.6677
 148   1.0000      -0.244158        -6.6439
 149   1.0000      -0.242500        -6.5988
 150   1.0000      -0.240970        -6.5571
 151   1.0000      -0.236312        -6.4304
 152   1.0000      -0.231538        -6.3005
 153   1.0000      -0.221559        -6.0289
 154   1.0000      -0.210446        -5.7265
 155   1.0000      -0.203845        -5.5469
 156   1.0000      -0.197298        -5.3687
 157   0.0000      -0.184510        -5.0208
 158   0.0000      -0.154611        -4.2072
 159   0.0000      -0.147805        -4.0220
 160   0.0000      -0.128356        -3.4928
 161   0.0000      -0.122527        -3.3341

                 SPIN DOWN ORBITALS
  NO   OCC          E(Eh)            E(eV)
   0   1.0000    -234.205873     -6373.0658
   1   1.0000     -26.831283      -730.1163
   2   1.0000     -22.996779      -625.7742
   3   1.0000     -22.995959      -625.7519
   4   1.0000     -22.995228      -625.7320
   5   1.0000      -4.038012      -109.8799
   6   1.0000      -4.036224      -109.8312
   7   1.0000      -4.035514      -109.8119
   8   1.0000      -4.032917      -109.7412
   9   1.0000      -4.031003      -109.6892
  10   1.0000      -4.029147      -109.6387
  11   1.0000      -4.028770      -109.6284
  12   1.0000      -4.027779      -109.6014
  13   1.0000      -4.027634      -109.5975
  14   1.0000      -4.027144      -109.5842
  15   1.0000      -4.026547      -109.5679
  16   1.0000      -4.025871      -109.5495
  17   1.0000      -4.022293      -109.4522
  18   1.0000      -4.022104      -109.4470
  19   1.0000      -4.020075      -109.3918
  20   1.0000      -2.944396       -80.1211
  21   1.0000      -2.253554       -61.3223
  22   1.0000      -2.252936       -61.3055
  23   1.0000      -2.252147       -61.2840
  24   1.0000      -2.251108       -61.2558
  25   1.0000      -2.249131       -61.2020
  26   1.0000      -2.248432       -61.1830
  27   1.0000      -2.248254       -61.1781
  28   1.0000      -2.248139       -61.1750
  29   1.0000      -2.246701       -61.1358
  30   1.0000      -2.246432       -61.1285
  31   1.0000      -2.245750       -61.1100
  32   1.0000      -2.245355       -61.0992
  33   1.0000      -2.244697       -61.0813
  34   1.0000      -2.244550       -61.0773
  35   1.0000      -2.243974       -61.0616
  36   1.0000      -2.243703       -61.0543
  37   1.0000      -2.243428       -61.0468
  38   1.0000      -2.242791       -61.0295
  39   1.0000      -2.242478       -61.0209
  40   1.0000      -2.242286       -61.0157
  41   1.0000      -2.241941       -61.0063
  42   1.0000      -2.241278       -60.9883
  43   1.0000      -2.240728       -60.9733
  44   1.0000      -2.240701       -60.9726
  45   1.0000      -2.240192       -60.9587
  46   1.0000      -2.239992       -60.9533
  47   1.0000      -2.239693       -60.9451
  48   1.0000      -2.239354       -60.9359
  49   1.0000      -2.239226       -60.9324
  50   1.0000      -2.238910       -60.9238
  51   1.0000      -2.238622       -60.9160
  52   1.0000      -2.237966       -60.8982
  53   1.0000      -2.237620       -60.8887
  54   1.0000      -2.237397       -60.8827
  55   1.0000      -2.236888       -60.8688
  56   1.0000      -2.236426       -60.8562
  57   1.0000      -2.236157       -60.8489
  58   1.0000      -2.235773       -60.8385
  59   1.0000      -2.235518       -60.8315
  60   1.0000      -2.234914       -60.8151
  61   1.0000      -2.234152       -60.7944
  62   1.0000      -2.233140       -60.7668
  63   1.0000      -2.232427       -60.7474
  64   1.0000      -2.231808       -60.7306
  65   1.0000      -2.231654       -60.7264
  66   1.0000      -1.851178       -50.3731
  67   1.0000      -1.850503       -50.3547
  68   1.0000      -1.848467       -50.2994
  69   1.0000      -0.429558       -11.6889
  70   1.0000      -0.392053       -10.6683
  71   1.0000      -0.390111       -10.6155
  72   1.0000      -0.387598       -10.5471
  73   1.0000      -0.374578       -10.1928
  74   1.0000      -0.371778       -10.1166
  75   1.0000      -0.370506       -10.0820
  76   1.0000      -0.367810       -10.0086
  77   1.0000      -0.363412        -9.8889
  78   1.0000      -0.362531        -9.8650
  79   1.0000      -0.361901        -9.8478
  80   1.0000      -0.359617        -9.7857
  81   1.0000      -0.354728        -9.6526
  82   1.0000      -0.353240        -9.6122
  83   1.0000      -0.351660        -9.5692
  84   1.0000      -0.348799        -9.4913
  85   1.0000      -0.348196        -9.4749
  86   1.0000      -0.346666        -9.4332
  87   1.0000      -0.343618        -9.3503
  88   1.0000      -0.342274        -9.3137
  89   1.0000      -0.340356        -9.2616
  90   1.0000      -0.338627        -9.2145
  91   1.0000      -0.336259        -9.1501
  92   1.0000      -0.335929        -9.1411
  93   1.0000      -0.333358        -9.0711
  94   1.0000      -0.332293        -9.0422
  95   1.0000      -0.328786        -8.9467
  96   1.0000      -0.327621        -8.9150
  97   1.0000      -0.325275        -8.8512
  98   1.0000      -0.322695        -8.7810
  99   1.0000      -0.321364        -8.7448
 100   1.0000      -0.315469        -8.5844
 101   1.0000      -0.311230        -8.4690
 102   1.0000      -0.310305        -8.4438
 103   1.0000      -0.309212        -8.4141
 104   1.0000      -0.307402        -8.3648
 105   1.0000      -0.301361        -8.2005
 106   1.0000      -0.299631        -8.1534
 107   1.0000      -0.298357        -8.1187
 108   1.0000      -0.293417        -7.9843
 109   1.0000      -0.291826        -7.9410
 110   1.0000      -0.291672        -7.9368
 111   1.0000      -0.289986        -7.8909
 112   1.0000      -0.288768        -7.8578
 113   1.0000      -0.285996        -7.7824
 114   1.0000      -0.284727        -7.7478
 115   1.0000      -0.284113        -7.7311
 116   1.0000      -0.282586        -7.6895
 117   1.0000      -0.279809        -7.6140
 118   1.0000      -0.278346        -7.5742
 119   1.0000      -0.276088        -7.5127
 120   1.0000      -0.274186        -7.4610
 121   1.0000      -0.273501        -7.4424
 122   1.0000      -0.273228        -7.4349
 123   1.0000      -0.270830        -7.3697
 124   1.0000      -0.270025        -7.3478
 125   1.0000      -0.269154        -7.3241
 126   1.0000      -0.268182        -7.2976
 127   1.0000      -0.266167        -7.2428
 128   1.0000      -0.265055        -7.2125
 129   1.0000      -0.263557        -7.1717
 130   1.0000      -0.263075        -7.1586
 131   1.0000      -0.260802        -7.0968
 132   1.0000      -0.259046        -7.0490
 133   1.0000      -0.258377        -7.0308
 134   1.0000      -0.257597        -7.0096
 135   1.0000      -0.256579        -6.9819
 136   1.0000      -0.254817        -6.9339
 137   1.0000      -0.253957        -6.9105
 138   1.0000      -0.250659        -6.8208
 139   1.0000      -0.249627        -6.7927
 140   1.0000      -0.248484        -6.7616
 141   1.0000      -0.247759        -6.7419
 142   1.0000      -0.246919        -6.7190
 143   1.0000      -0.246429        -6.7057
 144   1.0000      -0.244775        -6.6607
 145   1.0000      -0.242794        -6.6068
 146   1.0000      -0.238214        -6.4821
 147   1.0000      -0.232144        -6.3170
 148   1.0000      -0.226964        -6.1760
 149   1.0000      -0.217655        -5.9227
 150   1.0000      -0.211868        -5.7652
 151   1.0000      -0.205164        -5.5828
 152   1.0000      -0.194653        -5.2968
 153   0.0000      -0.153815        -4.1855
 154   0.0000      -0.152392        -4.1468
 155   0.0000      -0.135370        -3.6836
 156   0.0000      -0.131812        -3.5868
 157   0.0000      -0.130155        -3.5417

MULLIKEN ATOMIC CHARGES AND SPIN POPULATIONS
--------------------------------------------
   0 Au:    0.130589    0.013253
   1 Au:    0.176524   -0.036804
   2 Au:    0.291487    0.002688
   3 Au:    0.234430   -0.024406
   4 Au:    0.304055   -0.028461
   5 Au:    0.439618    0.000962
   6 Au:   -0.059032   -0.096627
   7 Au:    0.353513   -0.017391
   8 Au:   -0.053433    0.001535
   9 Au:    0.197521    0.009599
  10 Au:    0.254207    0.036760
  11 Au:    0.437872   -0.003706
  12 Au:    0.179007    0.043685
  13 Au:   -0.271817   -0.128546
  14 Au:   -0.139420    0.045107
  15 Mn:   -2.475119    4.182350
Sum of atomic charges         :   -0.0000000

LOEWDIN ATOMIC CHARGES AND SPIN POPULATIONS
-------------------------------------------
   0 Au:    0.028951   -0.015210
   1 Au:    0.030937   -0.021848
   2 Au:    0.073286   -0.038089
   3 Au:    0.030666   -0.069230
   4 Au:    0.077318   -0.020460
   5 Au:    0.114924   -0.036762
   6 Au:   -0.008671   -0.035072
   7 Au:    0.059958   -0.010622
   8 Au:   -0.001870   -0.005775
   9 Au:    0.026760   -0.004137
  10 Au:    0.066596    0.002141
  11 Au:    0.094354   -0.009055
  12 Au:    0.003884    0.015970
  13 Au:   -0.045692   -0.042817
  14 Au:   -0.057994    0.027601
  15 Mn:   -0.493407    4.263365

  Mayer bond orders larger than 0.100000
B(  0-Au,  1-Au) :   0.1827 B(  0-Au,  3-Au) :   0.2324 B(  0-Au,  7-Au) :   0.3346
B(  0-Au,  8-Au) :   0.1278 B(  0-Au, 13-Au) :   0.2393 B(  0-Au, 15-Mn) :   0.3859
B(  1-Au,  2-Au) :   0.1788 B(  1-Au,  3-Au) :   0.3092 B(  1-Au,  9-Au) :   0.2587
B(  1-Au, 15-Mn) :   0.4402 B(  2-Au,  4-Au) :   0.2074 B(  2-Au,  6-Au) :   0.3451
B(  2-Au,  9-Au) :   0.2261 B(  2-Au, 15-Mn) :   0.3707 B(  3-Au,  5-Au) :   0.2485
B(  3-Au,  6-Au) :   0.2125 B(  3-Au, 13-Au) :   0.2698 B(  3-Au, 15-Mn) :   0.2098
B(  4-Au,  6-Au) :   0.1991 B(  4-Au, 12-Au) :   0.2077 B(  4-Au, 14-Au) :   0.2744
B(  4-Au, 15-Mn) :   0.3960 B(  5-Au,  6-Au) :   0.3344 B(  5-Au, 13-Au) :   0.2677
B(  5-Au, 14-Au) :   0.2916 B(  6-Au, 14-Au) :   0.1703 B(  6-Au, 15-Mn) :   0.4361
B(  7-Au,  8-Au) :   0.3208 B(  7-Au,  9-Au) :   0.2819 B(  7-Au, 10-Au) :   0.1625
B(  7-Au, 15-Mn) :   0.1777 B(  8-Au, 10-Au) :   0.1731 B(  8-Au, 11-Au) :   0.3456
B(  8-Au, 12-Au) :   0.1415 B(  8-Au, 13-Au) :   0.2730 B(  8-Au, 15-Mn) :   0.4568
B(  9-Au, 10-Au) :   0.1939 B(  9-Au, 15-Mn) :   0.3649 B( 10-Au, 12-Au) :   0.2991
B( 10-Au, 15-Mn) :   0.4406 B( 11-Au, 12-Au) :   0.2430 B( 11-Au, 13-Au) :   0.3144
B( 11-Au, 14-Au) :   0.2269 B( 12-Au, 14-Au) :   0.2762 B( 12-Au, 15-Mn) :   0.3784
B( 13-Au, 14-Au) :   0.2108 B( 13-Au, 15-Mn) :   0.4070 B( 14-Au, 15-Mn) :   0.3467

FINAL SINGLE POINT ENERGY     -3188.215402586789

DIPOLE MOMENT
-------------
                                X             Y             Z
Electronic contribution:     -0.75306      14.70033     -10.36161
Nuclear contribution   :      0.71507     -14.47469      10.26043
                        -----------------------------------------
Total Dipole Moment    :     -0.03799       0.22563      -0.10118
                        -----------------------------------------
Magnitude (a.u.)       :      0.25018
Magnitude (Debye)      :      0.63591

Rotational constants in cm-1:     0.001019     0.000916     0.000832
Rotational constants in MHz :    30.553558    27.460263    24.934705

                             ****ORCA TERMINATED NORMALLY****
TOTAL RUN TIME: 0 days 1 hours 42 minutes 15 seconds 49 msec
