                         Program Version 5.0.3 -  RELEASE  -
|  1> !SC-NEVPT2 def2-TZVP def2-TZVP/C
|  2> !MOREAD RIJCOSX def2/J
|  3> %maxcore 4000
|  4> %moinp "casscf.gbw"
|  5> %pal nprocs 8 end
|  6>
|  7> %casscf
|  8>  mult 5,3
|  9>  bweight 1,1
| 10>  nroots 5,45
| 11>  nel 6
| 12>  norb 5
| 13>  ptsettings
| 14>   d4tpre 1e-14 # default = 1e-10
| 15>   d3tpre 1e-14
| 16>  end
| 17>  rel
| 18>    dosoc true
| 19>    gtensor true
| 20>  end
| 21> end
| 22>
| 23>
| 24> *xyzfile 0 5 pbe.xyz
| 25>
| 26>
| 27>                          ****END OF INPUT****

CARTESIAN COORDINATES (ANGSTROEM)
---------------------------------
  Au     4.706264    6.277886    8.543179
  Au     7.253466    6.820951    9.668588
  Au     6.948864    4.783985    7.656462
  Au     9.266552    6.292585    7.439617
  Au     7.736130    5.863181    5.120599
  Au     4.964496    5.826192    5.748648
  Au     4.208957    8.472524    6.458023
  Au     5.304684    8.953190    8.957899
  Au     9.159297   10.865312    6.838922
  Au    10.780331    8.558310    7.237158
  Au     8.774484    8.463478    5.382875
  Au     6.180687    8.170277    4.444116
  Au     6.502343   10.146302    6.511577
  Au     7.962078    9.509738    8.913016
  Au     9.865939    7.732555    9.805527
  Au    10.562413   10.461343    9.302699
  Cr     6.736383    7.488870    7.077138

 Total Charge           Charge          ....    0
 Multiplicity           Mult            ....    5
 Number of Electrons    NEL             ....  328
 Basis Dimension        Dim             ....  685

ORBITAL ENERGIES
----------------

  NO   OCC          E(Eh)            E(eV)
   0   2.0000    -220.523739     -6000.7560
   1   2.0000     -26.364674      -717.4192
   2   2.0000     -22.297862      -606.7557
   3   2.0000     -22.297102      -606.7350
   4   2.0000     -22.285946      -606.4314
   5   2.0000      -4.727075      -128.6303
   6   2.0000      -4.717329      -128.3650
   7   2.0000      -4.713916      -128.2722
   8   2.0000      -4.713857      -128.2706
   9   2.0000      -4.713795      -128.2689
  10   2.0000      -4.713406      -128.2583
  11   2.0000      -4.713026      -128.2480
  12   2.0000      -4.713004      -128.2474
  13   2.0000      -4.712387      -128.2306
  14   2.0000      -4.712294      -128.2280
  15   2.0000      -4.711131      -128.1964
  16   2.0000      -4.708651      -128.1289
  17   2.0000      -4.708634      -128.1284
  18   2.0000      -4.707488      -128.0973
  19   2.0000      -4.707426      -128.0956
  20   2.0000      -4.704320      -128.0111
  21   2.0000      -3.418155       -93.0127
  22   2.0000      -2.766552       -75.2817
  23   2.0000      -2.764447       -75.2244
  24   2.0000      -2.764129       -75.2158
  25   2.0000      -2.758895       -75.0733
  26   2.0000      -2.755715       -74.9868
  27   2.0000      -2.754357       -74.9499
  28   2.0000      -2.753752       -74.9334
  29   2.0000      -2.753108       -74.9159
  30   2.0000      -2.752697       -74.9047
  31   2.0000      -2.752011       -74.8860
  32   2.0000      -2.751458       -74.8710
  33   2.0000      -2.751138       -74.8623
  34   2.0000      -2.750992       -74.8583
  35   2.0000      -2.750381       -74.8417
  36   2.0000      -2.750239       -74.8378
  37   2.0000      -2.750132       -74.8349
  38   2.0000      -2.749843       -74.8270
  39   2.0000      -2.749728       -74.8239
  40   2.0000      -2.749585       -74.8200
  41   2.0000      -2.748998       -74.8040
  42   2.0000      -2.748940       -74.8024
  43   2.0000      -2.747995       -74.7767
  44   2.0000      -2.747958       -74.7757
  45   2.0000      -2.747776       -74.7708
  46   2.0000      -2.747759       -74.7703
  47   2.0000      -2.747184       -74.7547
  48   2.0000      -2.747115       -74.7528
  49   2.0000      -2.746744       -74.7427
  50   2.0000      -2.746462       -74.7350
  51   2.0000      -2.746264       -74.7296
  52   2.0000      -2.745901       -74.7198
  53   2.0000      -2.745485       -74.7084
  54   2.0000      -2.745426       -74.7068
  55   2.0000      -2.744784       -74.6894
  56   2.0000      -2.744264       -74.6752
  57   2.0000      -2.744237       -74.6745
  58   2.0000      -2.744146       -74.6720
  59   2.0000      -2.743710       -74.6601
  60   2.0000      -2.743635       -74.6581
  61   2.0000      -2.743447       -74.6530
  62   2.0000      -2.742749       -74.6340
  63   2.0000      -2.742627       -74.6307
  64   2.0000      -2.741276       -74.5939
  65   2.0000      -2.740303       -74.5674
  66   2.0000      -2.740166       -74.5637
  67   2.0000      -2.738123       -74.5081
  68   2.0000      -2.737969       -74.5039
  69   2.0000      -2.737807       -74.4995
  70   2.0000      -2.182133       -59.3789
  71   2.0000      -2.181657       -59.3659
  72   2.0000      -2.171437       -59.0878
  73   2.0000      -0.569652       -15.5010
  74   2.0000      -0.564212       -15.3530
  75   2.0000      -0.552566       -15.0361
  76   2.0000      -0.552036       -15.0217
  77   2.0000      -0.548577       -14.9275
  78   2.0000      -0.547054       -14.8861
  79   2.0000      -0.546967       -14.8837
  80   2.0000      -0.545440       -14.8422
  81   2.0000      -0.544074       -14.8050
  82   2.0000      -0.543656       -14.7936
  83   2.0000      -0.543482       -14.7889
  84   2.0000      -0.542435       -14.7604
  85   2.0000      -0.542321       -14.7573
  86   2.0000      -0.537417       -14.6239
  87   2.0000      -0.537274       -14.6200
  88   2.0000      -0.536149       -14.5893
  89   2.0000      -0.535923       -14.5832
  90   2.0000      -0.533075       -14.5057
  91   2.0000      -0.531208       -14.4549
  92   2.0000      -0.531055       -14.4507
  93   2.0000      -0.528586       -14.3836
  94   2.0000      -0.527140       -14.3442
  95   2.0000      -0.523857       -14.2549
  96   2.0000      -0.523197       -14.2369
  97   2.0000      -0.520494       -14.1634
  98   2.0000      -0.516742       -14.0613
  99   2.0000      -0.516665       -14.0592
 100   2.0000      -0.514645       -14.0042
 101   2.0000      -0.512688       -13.9510
 102   2.0000      -0.508629       -13.8405
 103   2.0000      -0.505480       -13.7548
 104   2.0000      -0.500551       -13.6207
 105   2.0000      -0.497383       -13.5345
 106   2.0000      -0.495992       -13.4966
 107   2.0000      -0.495205       -13.4752
 108   2.0000      -0.493561       -13.4305
 109   2.0000      -0.489525       -13.3206
 110   2.0000      -0.487487       -13.2652
 111   2.0000      -0.484026       -13.1710
 112   2.0000      -0.477274       -12.9873
 113   2.0000      -0.475773       -12.9464
 114   2.0000      -0.471415       -12.8279
 115   2.0000      -0.468888       -12.7591
 116   2.0000      -0.465744       -12.6735
 117   2.0000      -0.464029       -12.6269
 118   2.0000      -0.462463       -12.5843
 119   2.0000      -0.461020       -12.5450
 120   2.0000      -0.459429       -12.5017
 121   2.0000      -0.457575       -12.4513
 122   2.0000      -0.457264       -12.4428
 123   2.0000      -0.456039       -12.4094
 124   2.0000      -0.454449       -12.3662
 125   2.0000      -0.451840       -12.2952
 126   2.0000      -0.448071       -12.1926
 127   2.0000      -0.448016       -12.1911
 128   2.0000      -0.446176       -12.1411
 129   2.0000      -0.444337       -12.0910
 130   2.0000      -0.444144       -12.0858
 131   2.0000      -0.442281       -12.0351
 132   2.0000      -0.441122       -12.0035
 133   2.0000      -0.440721       -11.9926
 134   2.0000      -0.438443       -11.9306
 135   2.0000      -0.436680       -11.8827
 136   2.0000      -0.434251       -11.8166
 137   2.0000      -0.432217       -11.7612
 138   2.0000      -0.431825       -11.7506
 139   2.0000      -0.430600       -11.7172
 140   2.0000      -0.429452       -11.6860
 141   2.0000      -0.428180       -11.6514
 142   2.0000      -0.427187       -11.6244
 143   2.0000      -0.423144       -11.5143
 144   2.0000      -0.421936       -11.4815
 145   2.0000      -0.419007       -11.4018
 146   2.0000      -0.418085       -11.3767
 147   2.0000      -0.415836       -11.3155
 148   2.0000      -0.411843       -11.2068
 149   2.0000      -0.408649       -11.1199
 150   2.0000      -0.405353       -11.0302
 151   2.0000      -0.402147       -10.9430
 152   2.0000      -0.401015       -10.9122
 153   2.0000      -0.389744       -10.6055
 154   2.0000      -0.386070       -10.5055
 155   2.0000      -0.351272        -9.5586
 156   2.0000      -0.348667        -9.4877
 157   2.0000      -0.269377        -7.3301
 158   2.0000      -0.255551        -6.9539
 159   2.0000      -0.236704        -6.4410
 160   2.0000      -0.217116        -5.9080
 161   1.2000      -0.107515        -2.9256
 162   1.2000      -0.103821        -2.8251
 163   1.2000      -0.107839        -2.9344
 164   1.2000      -0.131739        -3.5848
 165   1.2000      -0.149482        -4.0676
 166   0.0000      -0.021849        -0.5946
 167   0.0000      -0.016091        -0.4379
 168   0.0000      -0.009857        -0.2682
 169   0.0000      -0.006474        -0.1762
 170   0.0000       0.008293         0.2257

MULLIKEN ATOMIC CHARGES AND SPIN DENSITIES
------------------------------------------
   0 Au:    0.626760    0.018121
   1 Au:    0.381826    0.038224
   2 Au:    0.728168    0.020445
   3 Au:    0.012242    0.020579
   4 Au:    0.714254    0.010477
   5 Au:    0.657788    0.008398
   6 Au:    0.626726    0.018144
   7 Au:    0.759356    0.015067
   8 Au:    0.332526    0.030815
   9 Au:    0.185716    0.013619
  10 Au:    0.011885    0.020928
  11 Au:    0.728138    0.020468
  12 Au:    0.382480    0.037925
  13 Au:   -0.828804    0.024203
  14 Au:    0.332079    0.030795
  15 Au:    0.575739    0.016422
  16 Cr:   -6.226880    2.655370
Sum of atomic charges       :    0.0000000

LOEWDIN ATOMIC CHARGES AND SPIN DENSITIES
-----------------------------------------
   0 Au:    0.128746    0.038317
   1 Au:    0.071408    0.063219
   2 Au:    0.135232    0.049878
   3 Au:    0.010388    0.048904
   4 Au:    0.119376    0.059934
   5 Au:    0.183709    0.024619
   6 Au:    0.128145    0.038251
   7 Au:    0.129916    0.062192
   8 Au:    0.077189    0.034738
   9 Au:    0.005652    0.020150
  10 Au:    0.010547    0.048975
  11 Au:    0.135118    0.049781
  12 Au:    0.071250    0.063063
  13 Au:   -0.101833    0.045263
  14 Au:    0.076854    0.034658
  15 Au:    0.170926    0.021436
  16 Cr:   -1.352623    2.296624

  Mayer bond orders larger than 0.100000
B(  0-Au,  1-Au) :   0.1735 B(  0-Au,  2-Au) :   0.1088 B(  0-Au,  5-Au) :   0.1014
B(  0-Au,  7-Au) :   0.1080 B(  0-Au, 10-Au) :   0.1102 B(  0-Au, 16-Cr) :   0.2972
B(  1-Au,  2-Au) :   0.1127 B(  1-Au,  3-Au) :   0.1120 B(  1-Au, 11-Au) :   0.1482
B(  1-Au, 13-Au) :   0.1948 B(  1-Au, 14-Au) :   0.1644 B(  1-Au, 16-Cr) :   0.3595
B(  2-Au,  3-Au) :   0.1466 B(  2-Au, 12-Au) :   0.1483 B(  2-Au, 16-Cr) :   0.2376
B(  3-Au,  4-Au) :   0.1067 B(  3-Au,  6-Au) :   0.1107 B(  3-Au,  9-Au) :   0.2354
B(  3-Au, 10-Au) :   0.1773 B(  3-Au, 14-Au) :   0.1402 B(  3-Au, 16-Cr) :   0.4970
B(  4-Au,  7-Au) :   0.1153 B(  4-Au, 10-Au) :   0.1065 B(  4-Au, 16-Cr) :   0.2457
B(  5-Au,  6-Au) :   0.1014 B(  5-Au, 13-Au) :   0.1344 B(  5-Au, 16-Cr) :   0.1170
B(  6-Au,  7-Au) :   0.1083 B(  6-Au, 11-Au) :   0.1093 B(  6-Au, 12-Au) :   0.1728
B(  6-Au, 16-Cr) :   0.2983 B(  7-Au, 13-Au) :   0.1527 B(  7-Au, 16-Cr) :   0.2071
B(  8-Au,  9-Au) :   0.1089 B(  8-Au, 10-Au) :   0.1412 B(  8-Au, 12-Au) :   0.1651
B(  8-Au, 13-Au) :   0.2801 B(  8-Au, 15-Au) :   0.1211 B(  8-Au, 16-Cr) :   0.3830
B(  9-Au, 10-Au) :   0.2355 B(  9-Au, 13-Au) :   0.1967 B(  9-Au, 14-Au) :   0.1087
B(  9-Au, 15-Au) :   0.1377 B(  9-Au, 16-Cr) :   0.2854 B( 10-Au, 11-Au) :   0.1461
B( 10-Au, 12-Au) :   0.1128 B( 10-Au, 16-Cr) :   0.4967 B( 11-Au, 12-Au) :   0.1128
B( 11-Au, 16-Cr) :   0.2364 B( 12-Au, 13-Au) :   0.1948 B( 12-Au, 16-Cr) :   0.3606
B( 13-Au, 14-Au) :   0.2805 B( 13-Au, 15-Au) :   0.3734 B( 13-Au, 16-Cr) :   0.3531
B( 14-Au, 15-Au) :   0.1225 B( 14-Au, 16-Cr) :   0.3831

FINAL SINGLE POINT ENERGY     -3208.207983381527

DIPOLE MOMENT
-------------
                                X             Y             Z
Electronic contribution:     27.01961      16.19070      10.57158
Nuclear contribution   :    -27.34003     -16.26939     -10.57593
                        -----------------------------------------
Total Dipole Moment    :     -0.32042      -0.07869      -0.00436
                        -----------------------------------------
Magnitude (a.u.)       :      0.32997
Magnitude (Debye)      :      0.83870

Rotational constants in cm-1:     0.001106     0.000719     0.000694
Rotational constants in MHz :    33.147803    21.553682    20.807187

                             ****ORCA TERMINATED NORMALLY****
TOTAL RUN TIME: 0 days 2 hours 4 minutes 24 seconds 924 msec
