                         Program Version 5.0.3 -  RELEASE  -
|  1> %pal nprocs 1 end
|  2>
|  3> !PBE def2-TZVP OPT UNO
|  4> !SLOWCONV
|  5>
|  6> *xyzfile 0 4 8.xyz                           ****END OF INPUT****
 Total Charge           Charge          ....    0
 Multiplicity           Mult            ....    4
 Number of Electrons    NEL             ....  311
FINAL SINGLE POINT ENERGY     -3300.898576924554
FINAL SINGLE POINT ENERGY     -3300.901252055124
FINAL SINGLE POINT ENERGY     -3300.902137102811
FINAL SINGLE POINT ENERGY     -3300.903183053370
FINAL SINGLE POINT ENERGY     -3300.904183489394
FINAL SINGLE POINT ENERGY     -3300.905025907336
FINAL SINGLE POINT ENERGY     -3300.905695037641
FINAL SINGLE POINT ENERGY     -3300.906239344156
FINAL SINGLE POINT ENERGY     -3300.906667765168
FINAL SINGLE POINT ENERGY     -3300.906981350918
FINAL SINGLE POINT ENERGY     -3300.907190397882
FINAL SINGLE POINT ENERGY     -3300.907308548887
FINAL SINGLE POINT ENERGY     -3300.907355570645
FINAL SINGLE POINT ENERGY     -3300.907385040792
FINAL SINGLE POINT ENERGY     -3300.907410662063
FINAL SINGLE POINT ENERGY     -3300.907419177351
                    ***********************HURRAY********************

CARTESIAN COORDINATES (ANGSTROEM)
---------------------------------
  Au     5.693824    7.720850    6.772211
  Au     8.884859    7.944917    5.603883
  Au     9.669298   10.184785    7.127103
  Au     7.070773   10.032601    6.125086
  Au    10.140401    6.584844    7.737136
  Au     7.635268    5.750002    6.839323
  Au    10.332470    8.776602    9.407805
  Au     3.920478    7.877259    9.099015
  Au     5.517691    9.758092   10.412143
  Au     5.875910    6.989985   10.886228
  Au     7.662057   10.746493    8.990115
  Au     8.255006    6.163650    9.759144
  Au     8.033230    8.718309   10.888063
  Au     5.477981    5.601275    8.510507
  Au     4.869597   10.156221    7.739580
  Fe     8.019026    8.252172    8.123108

 Multiplicity           Mult            ....    4
 Number of Electrons    NEL             ....  311
 Basis Dimension        Dim             ....  645

ORBITAL ENERGIES
----------------
                 SPIN UP ORBITALS
  NO   OCC          E(Eh)            E(eV)
   0   1.0000    -254.754059     -6932.2104
   1   1.0000     -29.589042      -805.1588
   2   1.0000     -25.531989      -694.7607
   3   1.0000     -25.528414      -694.6635
   4   1.0000     -25.513219      -694.2500
   5   1.0000      -4.036483      -109.8383
   6   1.0000      -4.036404      -109.8361
   7   1.0000      -4.034578      -109.7864
   8   1.0000      -4.034521      -109.7849
   9   1.0000      -4.033539      -109.7582
  10   1.0000      -4.033460      -109.7560
  11   1.0000      -4.030760      -109.6826
  12   1.0000      -4.030725      -109.6816
  13   1.0000      -4.029225      -109.6408
  14   1.0000      -4.029184      -109.6397
  15   1.0000      -4.021585      -109.4329
  16   1.0000      -4.021550      -109.4319
  17   1.0000      -4.021435      -109.4288
  18   1.0000      -4.021359      -109.4267
  19   1.0000      -4.014749      -109.2469
  20   1.0000      -3.368739       -91.6681
  21   1.0000      -2.253168       -61.3118
  22   1.0000      -2.251849       -61.2759
  23   1.0000      -2.250620       -61.2425
  24   1.0000      -2.250362       -61.2355
  25   1.0000      -2.250260       -61.2327
  26   1.0000      -2.250098       -61.2283
  27   1.0000      -2.249792       -61.2200
  28   1.0000      -2.249236       -61.2048
  29   1.0000      -2.249145       -61.2023
  30   1.0000      -2.247714       -61.1634
  31   1.0000      -2.247134       -61.1476
  32   1.0000      -2.246425       -61.1283
  33   1.0000      -2.246261       -61.1239
  34   1.0000      -2.245788       -61.1110
  35   1.0000      -2.245463       -61.1022
  36   1.0000      -2.245143       -61.0934
  37   1.0000      -2.245078       -61.0917
  38   1.0000      -2.244483       -61.0755
  39   1.0000      -2.244173       -61.0670
  40   1.0000      -2.243761       -61.0558
  41   1.0000      -2.243598       -61.0514
  42   1.0000      -2.243140       -61.0389
  43   1.0000      -2.242943       -61.0336
  44   1.0000      -2.242696       -61.0269
  45   1.0000      -2.242360       -61.0177
  46   1.0000      -2.241970       -61.0071
  47   1.0000      -2.241047       -60.9820
  48   1.0000      -2.240924       -60.9786
  49   1.0000      -2.239165       -60.9308
  50   1.0000      -2.238731       -60.9190
  51   1.0000      -2.238072       -60.9010
  52   1.0000      -2.237882       -60.8959
  53   1.0000      -2.236974       -60.8711
  54   1.0000      -2.236173       -60.8494
  55   1.0000      -2.236124       -60.8480
  56   1.0000      -2.235318       -60.8261
  57   1.0000      -2.235006       -60.8176
  58   1.0000      -2.234963       -60.8164
  59   1.0000      -2.231630       -60.7258
  60   1.0000      -2.231190       -60.7138
  61   1.0000      -2.230162       -60.6858
  62   1.0000      -2.229973       -60.6806
  63   1.0000      -2.229047       -60.6554
  64   1.0000      -2.227795       -60.6214
  65   1.0000      -2.224317       -60.5267
  66   1.0000      -2.197730       -59.8033
  67   1.0000      -2.190520       -59.6071
  68   1.0000      -2.159719       -58.7689
  69   1.0000      -0.434172       -11.8144
  70   1.0000      -0.390234       -10.6188
  71   1.0000      -0.388154       -10.5622
  72   1.0000      -0.387941       -10.5564
  73   1.0000      -0.376333       -10.2405
  74   1.0000      -0.373198       -10.1552
  75   1.0000      -0.371987       -10.1223
  76   1.0000      -0.371900       -10.1199
  77   1.0000      -0.366683        -9.9779
  78   1.0000      -0.361981        -9.8500
  79   1.0000      -0.359561        -9.7841
  80   1.0000      -0.359016        -9.7693
  81   1.0000      -0.358012        -9.7420
  82   1.0000      -0.356996        -9.7143
  83   1.0000      -0.355243        -9.6666
  84   1.0000      -0.351783        -9.5725
  85   1.0000      -0.350837        -9.5468
  86   1.0000      -0.347660        -9.4603
  87   1.0000      -0.347200        -9.4478
  88   1.0000      -0.343660        -9.3515
  89   1.0000      -0.343403        -9.3445
  90   1.0000      -0.341788        -9.3005
  91   1.0000      -0.339628        -9.2417
  92   1.0000      -0.339504        -9.2384
  93   1.0000      -0.335015        -9.1162
  94   1.0000      -0.334509        -9.1024
  95   1.0000      -0.332778        -9.0553
  96   1.0000      -0.330380        -8.9901
  97   1.0000      -0.326330        -8.8799
  98   1.0000      -0.325538        -8.8583
  99   1.0000      -0.323104        -8.7921
 100   1.0000      -0.320223        -8.7137
 101   1.0000      -0.318528        -8.6676
 102   1.0000      -0.317561        -8.6413
 103   1.0000      -0.315220        -8.5776
 104   1.0000      -0.312099        -8.4926
 105   1.0000      -0.309581        -8.4241
 106   1.0000      -0.307977        -8.3805
 107   1.0000      -0.303232        -8.2514
 108   1.0000      -0.300561        -8.1787
 109   1.0000      -0.298736        -8.1290
 110   1.0000      -0.294173        -8.0048
 111   1.0000      -0.292977        -7.9723
 112   1.0000      -0.289987        -7.8909
 113   1.0000      -0.288449        -7.8491
 114   1.0000      -0.288365        -7.8468
 115   1.0000      -0.285781        -7.7765
 116   1.0000      -0.284323        -7.7368
 117   1.0000      -0.283416        -7.7121
 118   1.0000      -0.277901        -7.5621
 119   1.0000      -0.277020        -7.5381
 120   1.0000      -0.276166        -7.5149
 121   1.0000      -0.274395        -7.4667
 122   1.0000      -0.271000        -7.3743
 123   1.0000      -0.269384        -7.3303
 124   1.0000      -0.267407        -7.2765
 125   1.0000      -0.266907        -7.2629
 126   1.0000      -0.266049        -7.2396
 127   1.0000      -0.265422        -7.2225
 128   1.0000      -0.263417        -7.1680
 129   1.0000      -0.262903        -7.1540
 130   1.0000      -0.260764        -7.0958
 131   1.0000      -0.260306        -7.0833
 132   1.0000      -0.258688        -7.0393
 133   1.0000      -0.257741        -7.0135
 134   1.0000      -0.257347        -7.0028
 135   1.0000      -0.257100        -6.9961
 136   1.0000      -0.255052        -6.9403
 137   1.0000      -0.254894        -6.9360
 138   1.0000      -0.254120        -6.9150
 139   1.0000      -0.253801        -6.9063
 140   1.0000      -0.252247        -6.8640
 141   1.0000      -0.251310        -6.8385
 142   1.0000      -0.249208        -6.7813
 143   1.0000      -0.248070        -6.7503
 144   1.0000      -0.246961        -6.7201
 145   1.0000      -0.246213        -6.6998
 146   1.0000      -0.245576        -6.6825
 147   1.0000      -0.242204        -6.5907
 148   1.0000      -0.241230        -6.5642
 149   1.0000      -0.239916        -6.5284
 150   1.0000      -0.238374        -6.4865
 151   1.0000      -0.235026        -6.3954
 152   1.0000      -0.234341        -6.3767
 153   1.0000      -0.216625        -5.8947
 154   1.0000      -0.212241        -5.7754
 155   1.0000      -0.209985        -5.7140
 156   1.0000      -0.203190        -5.5291
 157   0.0000      -0.189363        -5.1528
 158   0.0000      -0.144210        -3.9241
 159   0.0000      -0.140593        -3.8257
 160   0.0000      -0.134941        -3.6719
 161   0.0000      -0.126076        -3.4307

                 SPIN DOWN ORBITALS
  NO   OCC          E(Eh)            E(eV)
   0   1.0000    -254.753399     -6932.1924
   1   1.0000     -29.531554      -803.5944
   2   1.0000     -25.485774      -693.5032
   3   1.0000     -25.483471      -693.4405
   4   1.0000     -25.474184      -693.1878
   5   1.0000      -4.036359      -109.8349
   6   1.0000      -4.036134      -109.8288
   7   1.0000      -4.033806      -109.7655
   8   1.0000      -4.033758      -109.7641
   9   1.0000      -4.033344      -109.7529
  10   1.0000      -4.033263      -109.7507
  11   1.0000      -4.030629      -109.6790
  12   1.0000      -4.030589      -109.6779
  13   1.0000      -4.029069      -109.6365
  14   1.0000      -4.028725      -109.6272
  15   1.0000      -4.021910      -109.4417
  16   1.0000      -4.021862      -109.4404
  17   1.0000      -4.021508      -109.4308
  18   1.0000      -4.021405      -109.4280
  19   1.0000      -4.014777      -109.2476
  20   1.0000      -3.237880       -88.1072
  21   1.0000      -2.252963       -61.3062
  22   1.0000      -2.251861       -61.2763
  23   1.0000      -2.250146       -61.2296
  24   1.0000      -2.249844       -61.2214
  25   1.0000      -2.249307       -61.2067
  26   1.0000      -2.249225       -61.2045
  27   1.0000      -2.249024       -61.1991
  28   1.0000      -2.248712       -61.1906
  29   1.0000      -2.248595       -61.1874
  30   1.0000      -2.246872       -61.1405
  31   1.0000      -2.246634       -61.1340
  32   1.0000      -2.246090       -61.1192
  33   1.0000      -2.246011       -61.1171
  34   1.0000      -2.245624       -61.1065
  35   1.0000      -2.245049       -61.0909
  36   1.0000      -2.244933       -61.0877
  37   1.0000      -2.244813       -61.0845
  38   1.0000      -2.244283       -61.0700
  39   1.0000      -2.243468       -61.0479
  40   1.0000      -2.243450       -61.0474
  41   1.0000      -2.243211       -61.0409
  42   1.0000      -2.242788       -61.0294
  43   1.0000      -2.242669       -61.0261
  44   1.0000      -2.242582       -61.0238
  45   1.0000      -2.242345       -61.0173
  46   1.0000      -2.241698       -60.9997
  47   1.0000      -2.240849       -60.9766
  48   1.0000      -2.240711       -60.9728
  49   1.0000      -2.239244       -60.9329
  50   1.0000      -2.238591       -60.9151
  51   1.0000      -2.238175       -60.9038
  52   1.0000      -2.238004       -60.8992
  53   1.0000      -2.237031       -60.8727
  54   1.0000      -2.236310       -60.8531
  55   1.0000      -2.236296       -60.8527
  56   1.0000      -2.235648       -60.8351
  57   1.0000      -2.235501       -60.8311
  58   1.0000      -2.235314       -60.8260
  59   1.0000      -2.231834       -60.7313
  60   1.0000      -2.231443       -60.7207
  61   1.0000      -2.230283       -60.6891
  62   1.0000      -2.230008       -60.6816
  63   1.0000      -2.229048       -60.6555
  64   1.0000      -2.227817       -60.6220
  65   1.0000      -2.224415       -60.5294
  66   1.0000      -2.061557       -56.0978
  67   1.0000      -2.058243       -56.0076
  68   1.0000      -2.043820       -55.6152
  69   1.0000      -0.430158       -11.7052
  70   1.0000      -0.389886       -10.6093
  71   1.0000      -0.387800       -10.5526
  72   1.0000      -0.386504       -10.5173
  73   1.0000      -0.369436       -10.0529
  74   1.0000      -0.368914       -10.0387
  75   1.0000      -0.366435        -9.9712
  76   1.0000      -0.365211        -9.9379
  77   1.0000      -0.365135        -9.9358
  78   1.0000      -0.360186        -9.8012
  79   1.0000      -0.358930        -9.7670
  80   1.0000      -0.357264        -9.7216
  81   1.0000      -0.356629        -9.7044
  82   1.0000      -0.355914        -9.6849
  83   1.0000      -0.354501        -9.6465
  84   1.0000      -0.350713        -9.5434
  85   1.0000      -0.350104        -9.5268
  86   1.0000      -0.347075        -9.4444
  87   1.0000      -0.344733        -9.3807
  88   1.0000      -0.343425        -9.3451
  89   1.0000      -0.342697        -9.3253
  90   1.0000      -0.341945        -9.3048
  91   1.0000      -0.339192        -9.2299
  92   1.0000      -0.338567        -9.2129
  93   1.0000      -0.334970        -9.1150
  94   1.0000      -0.333557        -9.0765
  95   1.0000      -0.332159        -9.0385
  96   1.0000      -0.329230        -8.9588
  97   1.0000      -0.325048        -8.8450
  98   1.0000      -0.324095        -8.8191
  99   1.0000      -0.322345        -8.7714
 100   1.0000      -0.319920        -8.7055
 101   1.0000      -0.318382        -8.6636
 102   1.0000      -0.311637        -8.4801
 103   1.0000      -0.310015        -8.4359
 104   1.0000      -0.308307        -8.3895
 105   1.0000      -0.304759        -8.2929
 106   1.0000      -0.302721        -8.2375
 107   1.0000      -0.297930        -8.1071
 108   1.0000      -0.295734        -8.0473
 109   1.0000      -0.293178        -7.9778
 110   1.0000      -0.292675        -7.9641
 111   1.0000      -0.291232        -7.9248
 112   1.0000      -0.289056        -7.8656
 113   1.0000      -0.287271        -7.8170
 114   1.0000      -0.285719        -7.7748
 115   1.0000      -0.283983        -7.7276
 116   1.0000      -0.282785        -7.6950
 117   1.0000      -0.281852        -7.6696
 118   1.0000      -0.277846        -7.5606
 119   1.0000      -0.276047        -7.5116
 120   1.0000      -0.275019        -7.4837
 121   1.0000      -0.272025        -7.4022
 122   1.0000      -0.269578        -7.3356
 123   1.0000      -0.269085        -7.3222
 124   1.0000      -0.266900        -7.2627
 125   1.0000      -0.265869        -7.2347
 126   1.0000      -0.265493        -7.2244
 127   1.0000      -0.264874        -7.2076
 128   1.0000      -0.263312        -7.1651
 129   1.0000      -0.260892        -7.0992
 130   1.0000      -0.259754        -7.0683
 131   1.0000      -0.258674        -7.0389
 132   1.0000      -0.257340        -7.0026
 133   1.0000      -0.257174        -6.9981
 134   1.0000      -0.256766        -6.9870
 135   1.0000      -0.254811        -6.9338
 136   1.0000      -0.254053        -6.9131
 137   1.0000      -0.253759        -6.9051
 138   1.0000      -0.250882        -6.8269
 139   1.0000      -0.248456        -6.7608
 140   1.0000      -0.247783        -6.7425
 141   1.0000      -0.247124        -6.7246
 142   1.0000      -0.246075        -6.6961
 143   1.0000      -0.244076        -6.6416
 144   1.0000      -0.242587        -6.6011
 145   1.0000      -0.240443        -6.5428
 146   1.0000      -0.239076        -6.5056
 147   1.0000      -0.234721        -6.3871
 148   1.0000      -0.220851        -6.0097
 149   1.0000      -0.216906        -5.9023
 150   1.0000      -0.216372        -5.8878
 151   1.0000      -0.212176        -5.7736
 152   1.0000      -0.204992        -5.5781
 153   1.0000      -0.177029        -4.8172
 154   0.0000      -0.162568        -4.4237
 155   0.0000      -0.162306        -4.4166
 156   0.0000      -0.154405        -4.2016
 157   0.0000      -0.149989        -4.0814
 158   0.0000      -0.140207        -3.8152

MULLIKEN ATOMIC CHARGES AND SPIN POPULATIONS
--------------------------------------------
   0 Au:   -0.164239   -0.080088
   1 Au:    0.289736    0.011928
   2 Au:    0.340971   -0.003648
   3 Au:    0.158252    0.027418
   4 Au:    0.341152   -0.003826
   5 Au:    0.161026    0.027201
   6 Au:    0.345237   -0.024612
   7 Au:    0.153470   -0.029500
   8 Au:    0.106631    0.046992
   9 Au:    0.112955    0.047305
  10 Au:    0.072169    0.008911
  11 Au:    0.069818    0.009818
  12 Au:    0.089945   -0.079329
  13 Au:    0.137019    0.002344
  14 Au:    0.139607    0.002151
  15 Fe:   -2.353750    3.036936
Sum of atomic charges         :   -0.0000000

LOEWDIN ATOMIC CHARGES AND SPIN POPULATIONS
-------------------------------------------
   0 Au:   -0.007650   -0.015521
   1 Au:    0.070176    0.004504
   2 Au:    0.079736   -0.016088
   3 Au:    0.042897   -0.012069
   4 Au:    0.080444   -0.016243
   5 Au:    0.043369   -0.012363
   6 Au:    0.097039   -0.028589
   7 Au:   -0.005266   -0.009398
   8 Au:   -0.014889    0.017032
   9 Au:   -0.013937    0.017493
  10 Au:    0.050771    0.000793
  11 Au:    0.050460    0.001319
  12 Au:    0.018629   -0.022210
  13 Au:    0.022716   -0.015480
  14 Au:    0.023327   -0.015676
  15 Fe:   -0.537822    3.122496

  Mayer bond orders larger than 0.100000
B(  0-Au,  3-Au) :   0.2515 B(  0-Au,  5-Au) :   0.2521 B(  0-Au,  7-Au) :   0.2349
B(  0-Au, 13-Au) :   0.3523 B(  0-Au, 14-Au) :   0.3542 B(  0-Au, 15-Fe) :   0.4398
B(  1-Au,  2-Au) :   0.1860 B(  1-Au,  3-Au) :   0.2200 B(  1-Au,  4-Au) :   0.1839
B(  1-Au,  5-Au) :   0.2214 B(  1-Au, 15-Fe) :   0.4958 B(  2-Au,  3-Au) :   0.1925
B(  2-Au,  6-Au) :   0.2538 B(  2-Au, 10-Au) :   0.2448 B(  2-Au, 15-Fe) :   0.4114
B(  3-Au, 10-Au) :   0.1003 B(  3-Au, 14-Au) :   0.3452 B(  3-Au, 15-Fe) :   0.3967
B(  4-Au,  5-Au) :   0.1924 B(  4-Au,  6-Au) :   0.2533 B(  4-Au, 11-Au) :   0.2443
B(  4-Au, 15-Fe) :   0.4143 B(  5-Au, 13-Au) :   0.3445 B(  5-Au, 15-Fe) :   0.3966
B(  6-Au, 12-Au) :   0.2749 B(  6-Au, 15-Fe) :   0.4331 B(  7-Au,  8-Au) :   0.2728
B(  7-Au,  9-Au) :   0.2735 B(  7-Au, 13-Au) :   0.2919 B(  7-Au, 14-Au) :   0.2924
B(  8-Au,  9-Au) :   0.2574 B(  8-Au, 10-Au) :   0.3416 B(  8-Au, 12-Au) :   0.2719
B(  8-Au, 14-Au) :   0.2609 B(  8-Au, 15-Fe) :   0.1417 B(  9-Au, 11-Au) :   0.3398
B(  9-Au, 12-Au) :   0.2723 B(  9-Au, 13-Au) :   0.2596 B(  9-Au, 15-Fe) :   0.1397
B( 10-Au, 12-Au) :   0.1967 B( 10-Au, 14-Au) :   0.1255 B( 10-Au, 15-Fe) :   0.5712
B( 11-Au, 12-Au) :   0.1970 B( 11-Au, 13-Au) :   0.1312 B( 11-Au, 15-Fe) :   0.5707
B( 12-Au, 15-Fe) :   0.4360 B( 13-Au, 15-Fe) :   0.1633 B( 14-Au, 15-Fe) :   0.1618

FINAL SINGLE POINT ENERGY     -3300.907425307316

DIPOLE MOMENT
-------------
                                X             Y             Z
Electronic contribution:    -28.12820      -1.94374      10.12112
Nuclear contribution   :     28.66324       1.97950     -10.32376
                        -----------------------------------------
Total Dipole Moment    :      0.53504       0.03576      -0.20264
                        -----------------------------------------
Magnitude (a.u.)       :      0.57325
Magnitude (Debye)      :      1.45708

Rotational constants in cm-1:     0.001085     0.000889     0.000841
Rotational constants in MHz :    32.529626    26.657452    25.211710

                             ****ORCA TERMINATED NORMALLY****
TOTAL RUN TIME: 0 days 4 hours 7 minutes 19 seconds 571 msec
