                         Program Version 5.0.3 -  RELEASE  -
|  1> !SC-NEVPT2 def2-TZVP def2-TZVP/C
|  2> !MOREAD RIJCOSX def2/J
|  3> %maxcore 4000
|  4> %moinp "casscf.gbw"
|  5> %pal nprocs 6 end
|  6>
|  7> %casscf
|  8>  mult 5,3
|  9>  bweight 1,1
| 10>  nroots 5,45
| 11>  nel 6
| 12>  norb 5
| 13>  ptsettings
| 14>   d4tpre 1e-14 # default = 1e-10
| 15>   d3tpre 1e-14
| 16>  end
| 17>  rel
| 18>    dosoc true
| 19>    gtensor true
| 20>  end
| 21> end
| 22>
| 23>
| 24> *xyzfile 0 5 pbe.xyz
| 25>
| 26>
| 27>                          ****END OF INPUT****

CARTESIAN COORDINATES (ANGSTROEM)
---------------------------------
  Au     4.858170    6.854492    8.286054
  Au     7.727526    5.172268    5.072792
  Au     6.739658    4.933071    7.650575
  Au     7.670542    7.363651    9.072723
  Au     9.311775    6.232915    7.201408
  Au     8.892769    7.842344    4.983911
  Au     6.208531    9.453851    8.234679
  Au     4.800359   11.024137    6.520992
  Au     3.307671    9.092769    8.043440
  Au     4.375303    8.247261    5.692337
  Au     6.169701    7.158663    4.019741
  Au     6.889212    9.711962    5.345187
  Fe     6.843050    7.337333    6.565930

 Total Charge           Charge          ....    0
 Multiplicity           Mult            ....    5
 Number of Electrons    NEL             ....  254
 Basis Dimension        Dim             ....  525

ORBITAL ENERGIES
----------------

  NO   OCC          E(Eh)            E(eV)
   0   2.0000    -261.281345     -7109.8269
   1   2.0000     -31.831091      -866.1680
   2   2.0000     -27.318483      -743.3737
   3   2.0000     -27.311098      -743.1728
   4   2.0000     -27.306871      -743.0577
   5   2.0000      -4.718104      -128.3861
   6   2.0000      -4.717895      -128.3804
   7   2.0000      -4.717493      -128.3695
   8   2.0000      -4.717424      -128.3676
   9   2.0000      -4.711222      -128.1989
  10   2.0000      -4.711073      -128.1948
  11   2.0000      -4.710525      -128.1799
  12   2.0000      -4.709845      -128.1614
  13   2.0000      -4.706489      -128.0701
  14   2.0000      -4.705921      -128.0546
  15   2.0000      -4.697396      -127.8226
  16   2.0000      -4.697273      -127.8193
  17   2.0000      -4.061415      -110.5167
  18   2.0000      -2.758440       -75.0610
  19   2.0000      -2.758296       -75.0571
  20   2.0000      -2.756866       -75.0181
  21   2.0000      -2.756614       -75.0113
  22   2.0000      -2.755961       -74.9935
  23   2.0000      -2.755791       -74.9889
  24   2.0000      -2.755414       -74.9786
  25   2.0000      -2.755338       -74.9766
  26   2.0000      -2.752990       -74.9127
  27   2.0000      -2.752800       -74.9075
  28   2.0000      -2.751266       -74.8657
  29   2.0000      -2.751110       -74.8615
  30   2.0000      -2.750003       -74.8314
  31   2.0000      -2.749808       -74.8261
  32   2.0000      -2.747543       -74.7645
  33   2.0000      -2.747267       -74.7569
  34   2.0000      -2.746974       -74.7490
  35   2.0000      -2.746699       -74.7415
  36   2.0000      -2.746273       -74.7299
  37   2.0000      -2.745484       -74.7084
  38   2.0000      -2.745344       -74.7046
  39   2.0000      -2.745090       -74.6977
  40   2.0000      -2.744174       -74.6728
  41   2.0000      -2.743616       -74.6576
  42   2.0000      -2.743424       -74.6524
  43   2.0000      -2.742411       -74.6248
  44   2.0000      -2.741863       -74.6099
  45   2.0000      -2.740269       -74.5665
  46   2.0000      -2.739858       -74.5553
  47   2.0000      -2.738909       -74.5295
  48   2.0000      -2.734444       -74.4080
  49   2.0000      -2.734196       -74.4013
  50   2.0000      -2.733857       -74.3920
  51   2.0000      -2.731423       -74.3258
  52   2.0000      -2.731203       -74.3198
  53   2.0000      -2.730322       -74.2958
  54   2.0000      -2.650049       -72.1115
  55   2.0000      -2.644549       -71.9618
  56   2.0000      -2.641116       -71.8684
  57   2.0000      -0.565364       -15.3843
  58   2.0000      -0.553629       -15.0650
  59   2.0000      -0.550737       -14.9863
  60   2.0000      -0.550516       -14.9803
  61   2.0000      -0.545935       -14.8556
  62   2.0000      -0.543593       -14.7919
  63   2.0000      -0.541069       -14.7232
  64   2.0000      -0.539167       -14.6715
  65   2.0000      -0.536799       -14.6070
  66   2.0000      -0.534077       -14.5330
  67   2.0000      -0.533511       -14.5176
  68   2.0000      -0.531202       -14.4547
  69   2.0000      -0.527895       -14.3648
  70   2.0000      -0.526952       -14.3391
  71   2.0000      -0.524864       -14.2823
  72   2.0000      -0.521236       -14.1836
  73   2.0000      -0.520384       -14.1604
  74   2.0000      -0.516732       -14.0610
  75   2.0000      -0.510466       -13.8905
  76   2.0000      -0.510187       -13.8829
  77   2.0000      -0.506624       -13.7859
  78   2.0000      -0.504651       -13.7323
  79   2.0000      -0.501627       -13.6500
  80   2.0000      -0.498038       -13.5523
  81   2.0000      -0.493149       -13.4193
  82   2.0000      -0.492154       -13.3922
  83   2.0000      -0.487497       -13.2655
  84   2.0000      -0.482506       -13.1297
  85   2.0000      -0.477269       -12.9872
  86   2.0000      -0.473985       -12.8978
  87   2.0000      -0.469876       -12.7860
  88   2.0000      -0.468668       -12.7531
  89   2.0000      -0.466621       -12.6974
  90   2.0000      -0.465649       -12.6710
  91   2.0000      -0.462759       -12.5923
  92   2.0000      -0.462625       -12.5887
  93   2.0000      -0.459198       -12.4954
  94   2.0000      -0.456884       -12.4324
  95   2.0000      -0.451994       -12.2994
  96   2.0000      -0.451386       -12.2828
  97   2.0000      -0.451166       -12.2768
  98   2.0000      -0.448616       -12.2075
  99   2.0000      -0.446467       -12.1490
 100   2.0000      -0.445275       -12.1165
 101   2.0000      -0.440836       -11.9958
 102   2.0000      -0.439138       -11.9495
 103   2.0000      -0.438352       -11.9282
 104   2.0000      -0.436963       -11.8904
 105   2.0000      -0.436769       -11.8851
 106   2.0000      -0.433402       -11.7935
 107   2.0000      -0.428833       -11.6692
 108   2.0000      -0.428083       -11.6487
 109   2.0000      -0.424264       -11.5448
 110   2.0000      -0.421960       -11.4821
 111   2.0000      -0.421036       -11.4570
 112   2.0000      -0.419362       -11.4114
 113   2.0000      -0.411888       -11.2081
 114   2.0000      -0.411835       -11.2066
 115   2.0000      -0.407381       -11.0854
 116   2.0000      -0.399611       -10.8740
 117   2.0000      -0.394384       -10.7317
 118   2.0000      -0.379598       -10.3294
 119   2.0000      -0.376013       -10.2318
 120   2.0000      -0.335418        -9.1272
 121   2.0000      -0.268589        -7.3087
 122   2.0000      -0.245729        -6.6866
 123   2.0000      -0.227731        -6.1969
 124   1.2000      -0.157246        -4.2789
 125   1.2000      -0.162444        -4.4203
 126   1.2000      -0.183301        -4.9879
 127   1.2000      -0.143086        -3.8936
 128   1.2000      -0.119076        -3.2402
 129   0.0000      -0.045502        -1.2382
 130   0.0000      -0.019152        -0.5211
 131   0.0000       0.005166         0.1406
 132   0.0000       0.010149         0.2762
 133   0.0000       0.021452         0.5837

MULLIKEN ATOMIC CHARGES AND SPIN DENSITIES
------------------------------------------
   0 Au:    0.013178    0.014347
   1 Au:    0.195121    0.127357
   2 Au:    0.243670    0.017506
   3 Au:    0.345769    0.033727
   4 Au:    0.200275    0.120918
   5 Au:    0.244425    0.018560
   6 Au:   -0.147428    0.089947
   7 Au:    0.348206    0.016573
   8 Au:    0.349236    0.016563
   9 Au:   -0.138386    0.085789
  10 Au:    0.341987    0.036128
  11 Au:    0.011417    0.015438
  12 Fe:   -2.007469    2.407148
Sum of atomic charges       :    0.0000000

LOEWDIN ATOMIC CHARGES AND SPIN DENSITIES
-----------------------------------------
   0 Au:    0.029896    0.024765
   1 Au:    0.007296    0.099086
   2 Au:    0.088551    0.041197
   3 Au:    0.125160    0.061394
   4 Au:    0.012331    0.094587
   5 Au:    0.086924    0.042715
   6 Au:   -0.078480    0.059945
   7 Au:    0.060715    0.031366
   8 Au:    0.060333    0.031484
   9 Au:   -0.074219    0.057324
  10 Au:    0.124855    0.063406
  11 Au:    0.030628    0.024884
  12 Fe:   -0.473990    2.367847

  Mayer bond orders larger than 0.100000
B(  0-Au,  2-Au) :   0.1344 B(  0-Au,  3-Au) :   0.1415 B(  0-Au,  6-Au) :   0.1727
B(  0-Au,  8-Au) :   0.3640 B(  0-Au,  9-Au) :   0.2321 B(  0-Au, 12-Fe) :   0.3707
B(  1-Au,  2-Au) :   0.2312 B(  1-Au,  4-Au) :   0.1509 B(  1-Au,  5-Au) :   0.1492
B(  1-Au, 10-Au) :   0.1594 B(  1-Au, 12-Fe) :   0.3146 B(  2-Au,  4-Au) :   0.1525
B(  2-Au,  5-Au) :   0.1653 B(  2-Au, 12-Fe) :   0.3470 B(  3-Au,  4-Au) :   0.1526
B(  3-Au,  6-Au) :   0.2830 B(  3-Au, 12-Fe) :   0.3887 B(  4-Au,  5-Au) :   0.2388
B(  4-Au, 12-Fe) :   0.3123 B(  5-Au, 11-Au) :   0.1346 B(  5-Au, 12-Fe) :   0.3473
B(  6-Au,  7-Au) :   0.3599 B(  6-Au,  8-Au) :   0.1467 B(  6-Au,  9-Au) :   0.1770
B(  6-Au, 11-Au) :   0.2256 B(  6-Au, 12-Fe) :   0.2943 B(  7-Au,  8-Au) :   0.1093
B(  7-Au,  9-Au) :   0.1473 B(  7-Au, 11-Au) :   0.3639 B(  8-Au,  9-Au) :   0.3609
B(  9-Au, 10-Au) :   0.2759 B(  9-Au, 11-Au) :   0.1762 B(  9-Au, 12-Fe) :   0.2904
B( 10-Au, 11-Au) :   0.1408 B( 10-Au, 12-Fe) :   0.3906 B( 11-Au, 12-Fe) :   0.3718

FINAL SINGLE POINT ENERGY     -2886.215499429055

DIPOLE MOMENT
-------------
                                X             Y             Z
Electronic contribution:    -16.26201      15.86490       4.19971
Nuclear contribution   :     16.37982     -15.98027      -4.22602
                        -----------------------------------------
Total Dipole Moment    :      0.11781      -0.11538      -0.02631
                        -----------------------------------------
Magnitude (a.u.)       :      0.16699
Magnitude (Debye)      :      0.42444

Rotational constants in cm-1:     0.001770     0.001155     0.001000
Rotational constants in MHz :    53.068069    34.613082    29.974179

                             ****ORCA TERMINATED NORMALLY****
TOTAL RUN TIME: 0 days 1 hours 43 minutes 36 seconds 581 msec
