                         Program Version 5.0.3 -  RELEASE  -
|  1> !RI-B2PLYP def2-TZVP def2-TZVP/C
|  2> !RIJCOSX VERYSLOWCONV
|  3>
|  4> %scf
|  5>   AutoTRAHIter 200
|  6>   maxiter 400
|  7> end
|  8>
|  9>
| 10> %pal nprocs 6 end
| 11>
| 12> *xyzfile 0 6 pbe.xyz
| 13>
| 14> $new_job
| 15>
| 16> !RI-B2PLYP def2-TZVP def2-TZVP/C
| 17> !RIJCOSX VERYSLOWCONV
| 18>
| 19> %scf
| 20>   AutoTRAHIter 200
| 21>   maxiter 400
| 22> end
| 23>
| 24>
| 25> %pal nprocs 6 end
| 26>
| 27> *xyzfile 0 4 pbe.xyz
| 28>
| 29>
| 30>
| 31>
| 32>
| 33>                          ****END OF INPUT****
 Total Charge           Charge          ....    0
 Multiplicity           Mult            ....    6
 Number of Electrons    NEL             ....  215
MP2 TOTAL ENERGY:    -2506.666138141 Eh
FINAL SINGLE POINT ENERGY     -2506.666138140817

CARTESIAN COORDINATES (ANGSTROEM)
---------------------------------
  Au     6.772700    6.564091    5.489250
  Au     5.550359    4.098449    6.499087
  Au     4.181592    5.651520    4.781527
  Au     4.357408    7.049726    7.054535
  Au     7.313707    3.361920    8.318957
  Au     7.860090    8.043671    9.581876
  Au    10.454133    7.453994    9.297370
  Au     9.112388    5.131655    9.086565
  Au     5.237337    8.087999    9.313997
  Au     8.845377    7.153584    6.981333
  Mn     6.676404    6.021499    8.130989

 Multiplicity           Mult            ....    4
 Number of Electrons    NEL             ....  215
 Basis Dimension        Dim             ....  445

ORBITAL ENERGIES
----------------
                 SPIN UP ORBITALS
  NO   OCC          E(Eh)            E(eV)
   0   1.0000    -237.626328     -6466.1411
   1   1.0000     -28.130184      -765.4612
   2   1.0000     -24.048338      -654.3886
   3   1.0000     -24.047589      -654.3682
   4   1.0000     -24.047384      -654.3626
   5   1.0000      -4.395271      -119.6014
   6   1.0000      -4.395209      -119.5997
   7   1.0000      -4.395174      -119.5988
   8   1.0000      -4.395143      -119.5979
   9   1.0000      -4.392749      -119.5328
  10   1.0000      -4.392173      -119.5171
  11   1.0000      -4.391984      -119.5120
  12   1.0000      -4.391958      -119.5112
  13   1.0000      -4.391779      -119.5064
  14   1.0000      -4.391680      -119.5037
  15   1.0000      -3.608302       -98.1869
  16   1.0000      -2.520130       -68.5762
  17   1.0000      -2.519365       -68.5554
  18   1.0000      -2.519294       -68.5535
  19   1.0000      -2.518434       -68.5301
  20   1.0000      -2.516625       -68.4809
  21   1.0000      -2.514871       -68.4331
  22   1.0000      -2.514792       -68.4310
  23   1.0000      -2.513530       -68.3966
  24   1.0000      -2.513511       -68.3961
  25   1.0000      -2.511744       -68.3480
  26   1.0000      -2.511209       -68.3335
  27   1.0000      -2.510790       -68.3221
  28   1.0000      -2.510389       -68.3111
  29   1.0000      -2.510229       -68.3068
  30   1.0000      -2.508835       -68.2689
  31   1.0000      -2.508808       -68.2681
  32   1.0000      -2.508275       -68.2536
  33   1.0000      -2.507965       -68.2452
  34   1.0000      -2.507791       -68.2405
  35   1.0000      -2.507678       -68.2374
  36   1.0000      -2.507302       -68.2271
  37   1.0000      -2.506997       -68.2189
  38   1.0000      -2.506159       -68.1960
  39   1.0000      -2.505837       -68.1873
  40   1.0000      -2.505651       -68.1822
  41   1.0000      -2.504913       -68.1622
  42   1.0000      -2.504810       -68.1594
  43   1.0000      -2.504145       -68.1412
  44   1.0000      -2.504006       -68.1375
  45   1.0000      -2.503306       -68.1184
  46   1.0000      -2.410405       -65.5905
  47   1.0000      -2.409052       -65.5536
  48   1.0000      -2.409022       -65.5528
  49   1.0000      -0.510690       -13.8966
  50   1.0000      -0.509705       -13.8698
  51   1.0000      -0.508398       -13.8342
  52   1.0000      -0.505509       -13.7556
  53   1.0000      -0.499596       -13.5947
  54   1.0000      -0.474958       -12.9243
  55   1.0000      -0.471133       -12.8202
  56   1.0000      -0.461511       -12.5584
  57   1.0000      -0.458034       -12.4638
  58   1.0000      -0.452863       -12.3230
  59   1.0000      -0.451583       -12.2882
  60   1.0000      -0.450359       -12.2549
  61   1.0000      -0.439928       -11.9711
  62   1.0000      -0.437900       -11.9159
  63   1.0000      -0.433040       -11.7836
  64   1.0000      -0.427884       -11.6433
  65   1.0000      -0.426820       -11.6144
  66   1.0000      -0.425713       -11.5842
  67   1.0000      -0.419822       -11.4239
  68   1.0000      -0.410997       -11.1838
  69   1.0000      -0.410901       -11.1812
  70   1.0000      -0.401486       -10.9250
  71   1.0000      -0.400481       -10.8976
  72   1.0000      -0.400224       -10.8906
  73   1.0000      -0.394984       -10.7481
  74   1.0000      -0.393859       -10.7175
  75   1.0000      -0.392886       -10.6910
  76   1.0000      -0.386136       -10.5073
  77   1.0000      -0.385384       -10.4868
  78   1.0000      -0.385084       -10.4787
  79   1.0000      -0.383705       -10.4411
  80   1.0000      -0.381502       -10.3812
  81   1.0000      -0.380142       -10.3442
  82   1.0000      -0.373609       -10.1664
  83   1.0000      -0.373427       -10.1615
  84   1.0000      -0.373001       -10.1499
  85   1.0000      -0.371973       -10.1219
  86   1.0000      -0.370279       -10.0758
  87   1.0000      -0.365393        -9.9429
  88   1.0000      -0.363923        -9.9028
  89   1.0000      -0.361970        -9.8497
  90   1.0000      -0.360955        -9.8221
  91   1.0000      -0.359942        -9.7945
  92   1.0000      -0.359057        -9.7704
  93   1.0000      -0.357243        -9.7211
  94   1.0000      -0.355108        -9.6630
  95   1.0000      -0.353147        -9.6096
  96   1.0000      -0.351054        -9.5527
  97   1.0000      -0.349312        -9.5053
  98   1.0000      -0.347742        -9.4625
  99   1.0000      -0.343256        -9.3405
 100   1.0000      -0.341607        -9.2956
 101   1.0000      -0.339225        -9.2308
 102   1.0000      -0.327314        -8.9067
 103   1.0000      -0.325565        -8.8591
 104   1.0000      -0.314595        -8.5606
 105   1.0000      -0.312379        -8.5003
 106   1.0000      -0.286994        -7.8095
 107   1.0000      -0.268972        -7.3191
 108   1.0000      -0.234415        -6.3788
 109   0.0000      -0.110843        -3.0162
 110   0.0000      -0.097049        -2.6408
 111   0.0000      -0.070817        -1.9270
 112   0.0000      -0.065754        -1.7893
 113   0.0000      -0.059323        -1.6143

                 SPIN DOWN ORBITALS
  NO   OCC          E(Eh)            E(eV)
   0   1.0000    -237.624225     -6466.0839
   1   1.0000     -28.028413      -762.6919
   2   1.0000     -23.954578      -651.8372
   3   1.0000     -23.954336      -651.8306
   4   1.0000     -23.954136      -651.8252
   5   1.0000      -4.395807      -119.6160
   6   1.0000      -4.395682      -119.6126
   7   1.0000      -4.395673      -119.6123
   8   1.0000      -4.395620      -119.6109
   9   1.0000      -4.393791      -119.5611
  10   1.0000      -4.393768      -119.5605
  11   1.0000      -4.393460      -119.5521
  12   1.0000      -4.392868      -119.5360
  13   1.0000      -4.391577      -119.5009
  14   1.0000      -4.391120      -119.4884
  15   1.0000      -3.321943       -90.3947
  16   1.0000      -2.520690       -68.5915
  17   1.0000      -2.519776       -68.5666
  18   1.0000      -2.519512       -68.5594
  19   1.0000      -2.518153       -68.5224
  20   1.0000      -2.515611       -68.4533
  21   1.0000      -2.514364       -68.4193
  22   1.0000      -2.513865       -68.4057
  23   1.0000      -2.512809       -68.3770
  24   1.0000      -2.512568       -68.3704
  25   1.0000      -2.512383       -68.3654
  26   1.0000      -2.512038       -68.3560
  27   1.0000      -2.511502       -68.3414
  28   1.0000      -2.510917       -68.3255
  29   1.0000      -2.509804       -68.2953
  30   1.0000      -2.509323       -68.2822
  31   1.0000      -2.508879       -68.2701
  32   1.0000      -2.508751       -68.2666
  33   1.0000      -2.508611       -68.2628
  34   1.0000      -2.507763       -68.2397
  35   1.0000      -2.507705       -68.2381
  36   1.0000      -2.507585       -68.2349
  37   1.0000      -2.507428       -68.2306
  38   1.0000      -2.507246       -68.2256
  39   1.0000      -2.507016       -68.2194
  40   1.0000      -2.506914       -68.2166
  41   1.0000      -2.504960       -68.1634
  42   1.0000      -2.504232       -68.1436
  43   1.0000      -2.503902       -68.1346
  44   1.0000      -2.503821       -68.1324
  45   1.0000      -2.503206       -68.1157
  46   1.0000      -2.083165       -56.6858
  47   1.0000      -2.081185       -56.6319
  48   1.0000      -2.080781       -56.6209
  49   1.0000      -0.482705       -13.1351
  50   1.0000      -0.468887       -12.7591
  51   1.0000      -0.466195       -12.6858
  52   1.0000      -0.466086       -12.6828
  53   1.0000      -0.462002       -12.5717
  54   1.0000      -0.457874       -12.4594
  55   1.0000      -0.456587       -12.4244
  56   1.0000      -0.452042       -12.3007
  57   1.0000      -0.438706       -11.9378
  58   1.0000      -0.435862       -11.8604
  59   1.0000      -0.433211       -11.7883
  60   1.0000      -0.432931       -11.7806
  61   1.0000      -0.427499       -11.6329
  62   1.0000      -0.424700       -11.5567
  63   1.0000      -0.419721       -11.4212
  64   1.0000      -0.416489       -11.3332
  65   1.0000      -0.414684       -11.2841
  66   1.0000      -0.412149       -11.2152
  67   1.0000      -0.410236       -11.1631
  68   1.0000      -0.406668       -11.0660
  69   1.0000      -0.401027       -10.9125
  70   1.0000      -0.400861       -10.9080
  71   1.0000      -0.390506       -10.6262
  72   1.0000      -0.389541       -10.5999
  73   1.0000      -0.387748       -10.5511
  74   1.0000      -0.387542       -10.5456
  75   1.0000      -0.384270       -10.4565
  76   1.0000      -0.382576       -10.4104
  77   1.0000      -0.381488       -10.3808
  78   1.0000      -0.378200       -10.2913
  79   1.0000      -0.378078       -10.2880
  80   1.0000      -0.375691       -10.2231
  81   1.0000      -0.375047       -10.2056
  82   1.0000      -0.368031       -10.0146
  83   1.0000      -0.366896        -9.9837
  84   1.0000      -0.364320        -9.9137
  85   1.0000      -0.364241        -9.9115
  86   1.0000      -0.363346        -9.8871
  87   1.0000      -0.360217        -9.8020
  88   1.0000      -0.359216        -9.7748
  89   1.0000      -0.358566        -9.7571
  90   1.0000      -0.356055        -9.6888
  91   1.0000      -0.354487        -9.6461
  92   1.0000      -0.351175        -9.5560
  93   1.0000      -0.349203        -9.5023
  94   1.0000      -0.344744        -9.3810
  95   1.0000      -0.343818        -9.3558
  96   1.0000      -0.342968        -9.3326
  97   1.0000      -0.336393        -9.1537
  98   1.0000      -0.331407        -9.0180
  99   1.0000      -0.321730        -8.7547
 100   1.0000      -0.315996        -8.5987
 101   1.0000      -0.304546        -8.2871
 102   1.0000      -0.286157        -7.7867
 103   1.0000      -0.244970        -6.6660
 104   1.0000      -0.224017        -6.0958
 105   1.0000      -0.194914        -5.3039
 106   0.0000      -0.077406        -2.1063
 107   0.0000      -0.073253        -1.9933
 108   0.0000      -0.072715        -1.9787
 109   0.0000      -0.028935        -0.7874
 110   0.0000      -0.021385        -0.5819

MULLIKEN ATOMIC CHARGES AND SPIN POPULATIONS
--------------------------------------------
   0 Au:   -0.052005   -0.021946
   1 Au:   -0.074670   -0.322858
   2 Au:    0.355477   -0.205854
   3 Au:   -0.113983   -0.318761
   4 Au:    0.209543   -0.010603
   5 Au:   -0.115193   -0.316568
   6 Au:    0.358942   -0.209395
   7 Au:   -0.074247   -0.321122
   8 Au:    0.256236   -0.020085
   9 Au:   -0.054576   -0.022699
  10 Mn:   -0.695526    4.769892
Sum of atomic charges         :   -0.0000000

LOEWDIN ATOMIC CHARGES AND SPIN POPULATIONS
-------------------------------------------
   0 Au:   -0.048975   -0.040131
   1 Au:   -0.061097   -0.197337
   2 Au:    0.104176   -0.175707
   3 Au:   -0.068357   -0.194468
   4 Au:    0.072592   -0.188987
   5 Au:   -0.069145   -0.193832
   6 Au:    0.104978   -0.176826
   7 Au:   -0.062127   -0.197024
   8 Au:    0.075420   -0.194709
   9 Au:   -0.049014   -0.040659
  10 Mn:    0.001550    4.599680

  Mayer bond orders larger than 0.100000
B(  0-Au,  1-Au) :   0.1391 B(  0-Au,  2-Au) :   0.2820 B(  0-Au,  3-Au) :   0.1417
B(  0-Au,  9-Au) :   0.6548 B(  0-Au, 10-Mn) :   0.4408 B(  1-Au,  2-Au) :   0.3372
B(  1-Au,  3-Au) :   0.1383 B(  1-Au,  4-Au) :   0.3880 B(  1-Au, 10-Mn) :   0.4221
B(  2-Au,  3-Au) :   0.3467 B(  3-Au,  8-Au) :   0.3967 B(  3-Au, 10-Mn) :   0.4429
B(  4-Au,  7-Au) :   0.3883 B(  4-Au, 10-Mn) :   0.5105 B(  5-Au,  6-Au) :   0.3456
B(  5-Au,  7-Au) :   0.1423 B(  5-Au,  8-Au) :   0.3964 B(  5-Au,  9-Au) :   0.1425
B(  5-Au, 10-Mn) :   0.4430 B(  6-Au,  7-Au) :   0.3362 B(  6-Au,  9-Au) :   0.2822
B(  7-Au,  9-Au) :   0.1399 B(  7-Au, 10-Mn) :   0.4203 B(  8-Au, 10-Mn) :   0.4636
B(  9-Au, 10-Mn) :   0.4393

MP2 TOTAL ENERGY:    -2506.662372452 Eh
FINAL SINGLE POINT ENERGY     -2506.662372451853

DIPOLE MOMENT
-------------
                                X             Y             Z
Electronic contribution:     10.58646       8.62484     -17.77871
Nuclear contribution   :    -10.57947      -8.62573      17.76632
                        -----------------------------------------
Total Dipole Moment    :      0.00699      -0.00089      -0.01239
                        -----------------------------------------
Magnitude (a.u.)       :      0.01425
Magnitude (Debye)      :      0.03623

Rotational constants in cm-1:     0.002321     0.001265     0.001081
Rotational constants in MHz :    69.593545    37.921419    32.413894

                             ****ORCA TERMINATED NORMALLY****
TOTAL RUN TIME: 0 days 0 hours 20 minutes 24 seconds 536 msec
