                         Program Version 5.0.3 -  RELEASE  -
|  1> !PBE def2-TZVP VERYSLOWCONV
|  2> !KDIIS
|  3>
|  4> %scf
|  5>   AutoTRAHIter 200
|  6>   maxiter 400
|  7> end
|  8>
|  9>
| 10> %pal nprocs 6 end
| 11>
| 12> *xyzfile 0 6 pbe.xyz
| 13>
| 14> $new_job
| 15>
| 16> !PBE def2-TZVP VERYSLOWCONV
| 17> !KDIIS
| 18>
| 19> %scf
| 20>   AutoTRAHIter 200
| 21>   maxiter 400
| 22> end
| 23>
| 24>
| 25> %pal nprocs 6 end
| 26>
| 27> *xyzfile 0 4 pbe.xyz
| 28>
| 29>
| 30>
| 31>
| 32>
| 33>                          ****END OF INPUT****
 Total Charge           Charge          ....    0
 Multiplicity           Mult            ....    6
 Number of Electrons    NEL             ....  215
FINAL SINGLE POINT ENERGY     -2509.031786153060

CARTESIAN COORDINATES (ANGSTROEM)
---------------------------------
  Au     6.772700    6.564091    5.489250
  Au     5.550359    4.098449    6.499087
  Au     4.181592    5.651520    4.781527
  Au     4.357408    7.049726    7.054535
  Au     7.313707    3.361920    8.318957
  Au     7.860090    8.043671    9.581876
  Au    10.454133    7.453994    9.297370
  Au     9.112388    5.131655    9.086565
  Au     5.237337    8.087999    9.313997
  Au     8.845377    7.153584    6.981333
  Mn     6.676404    6.021499    8.130989

 Multiplicity           Mult            ....    4
 Number of Electrons    NEL             ....  215
 Basis Dimension        Dim             ....  445

ORBITAL ENERGIES
----------------
                 SPIN UP ORBITALS
  NO   OCC          E(Eh)            E(eV)
   0   1.0000    -234.204543     -6373.0296
   1   1.0000     -26.900539      -732.0009
   2   1.0000     -23.049516      -627.2092
   3   1.0000     -23.049008      -627.1954
   4   1.0000     -23.048089      -627.1704
   5   1.0000      -4.023146      -109.4754
   6   1.0000      -4.023089      -109.4738
   7   1.0000      -4.022733      -109.4641
   8   1.0000      -4.022703      -109.4633
   9   1.0000      -4.022558      -109.4594
  10   1.0000      -4.022480      -109.4573
  11   1.0000      -4.022456      -109.4566
  12   1.0000      -4.022155      -109.4484
  13   1.0000      -4.020594      -109.4059
  14   1.0000      -4.020217      -109.3957
  15   1.0000      -3.110373       -84.6376
  16   1.0000      -2.244276       -61.0699
  17   1.0000      -2.243927       -61.0604
  18   1.0000      -2.243388       -61.0457
  19   1.0000      -2.242835       -61.0307
  20   1.0000      -2.242410       -61.0191
  21   1.0000      -2.239219       -60.9323
  22   1.0000      -2.238907       -60.9238
  23   1.0000      -2.237413       -60.8831
  24   1.0000      -2.236998       -60.8718
  25   1.0000      -2.236757       -60.8653
  26   1.0000      -2.236726       -60.8644
  27   1.0000      -2.236431       -60.8564
  28   1.0000      -2.235917       -60.8424
  29   1.0000      -2.235780       -60.8387
  30   1.0000      -2.235597       -60.8337
  31   1.0000      -2.235314       -60.8260
  32   1.0000      -2.235286       -60.8252
  33   1.0000      -2.234228       -60.7964
  34   1.0000      -2.234157       -60.7945
  35   1.0000      -2.233572       -60.7786
  36   1.0000      -2.231485       -60.7218
  37   1.0000      -2.231366       -60.7186
  38   1.0000      -2.229395       -60.6649
  39   1.0000      -2.229217       -60.6601
  40   1.0000      -2.229058       -60.6558
  41   1.0000      -2.228929       -60.6523
  42   1.0000      -2.228456       -60.6394
  43   1.0000      -2.227990       -60.6267
  44   1.0000      -2.226492       -60.5859
  45   1.0000      -2.226431       -60.5843
  46   1.0000      -2.014700       -54.8228
  47   1.0000      -2.013037       -54.7775
  48   1.0000      -2.010514       -54.7089
  49   1.0000      -0.404671       -11.0117
  50   1.0000      -0.382366       -10.4047
  51   1.0000      -0.371579       -10.1112
  52   1.0000      -0.367573       -10.0022
  53   1.0000      -0.364519        -9.9191
  54   1.0000      -0.362579        -9.8663
  55   1.0000      -0.357065        -9.7162
  56   1.0000      -0.354257        -9.6398
  57   1.0000      -0.338671        -9.2157
  58   1.0000      -0.337055        -9.1717
  59   1.0000      -0.335471        -9.1286
  60   1.0000      -0.332748        -9.0545
  61   1.0000      -0.329919        -8.9776
  62   1.0000      -0.329638        -8.9699
  63   1.0000      -0.323078        -8.7914
  64   1.0000      -0.322815        -8.7842
  65   1.0000      -0.317945        -8.6517
  66   1.0000      -0.315384        -8.5820
  67   1.0000      -0.310222        -8.4416
  68   1.0000      -0.306817        -8.3489
  69   1.0000      -0.302246        -8.2245
  70   1.0000      -0.300261        -8.1705
  71   1.0000      -0.298708        -8.1283
  72   1.0000      -0.292992        -7.9727
  73   1.0000      -0.292882        -7.9697
  74   1.0000      -0.289609        -7.8807
  75   1.0000      -0.287690        -7.8285
  76   1.0000      -0.286130        -7.7860
  77   1.0000      -0.285239        -7.7618
  78   1.0000      -0.283069        -7.7027
  79   1.0000      -0.282079        -7.6758
  80   1.0000      -0.281695        -7.6653
  81   1.0000      -0.278742        -7.5850
  82   1.0000      -0.276670        -7.5286
  83   1.0000      -0.272633        -7.4187
  84   1.0000      -0.271470        -7.3871
  85   1.0000      -0.270993        -7.3741
  86   1.0000      -0.267508        -7.2793
  87   1.0000      -0.266472        -7.2511
  88   1.0000      -0.264956        -7.2098
  89   1.0000      -0.262000        -7.1294
  90   1.0000      -0.261423        -7.1137
  91   1.0000      -0.258537        -7.0351
  92   1.0000      -0.257652        -7.0111
  93   1.0000      -0.257366        -7.0033
  94   1.0000      -0.256133        -6.9697
  95   1.0000      -0.254549        -6.9266
  96   1.0000      -0.254454        -6.9240
  97   1.0000      -0.252891        -6.8815
  98   1.0000      -0.250468        -6.8156
  99   1.0000      -0.248269        -6.7558
 100   1.0000      -0.247863        -6.7447
 101   1.0000      -0.243643        -6.6299
 102   1.0000      -0.241836        -6.5807
 103   1.0000      -0.240980        -6.5574
 104   1.0000      -0.237277        -6.4566
 105   1.0000      -0.231014        -6.2862
 106   1.0000      -0.229745        -6.2517
 107   1.0000      -0.229568        -6.2469
 108   1.0000      -0.207795        -5.6544
 109   0.0000      -0.178382        -4.8540
 110   0.0000      -0.167052        -4.5457
 111   0.0000      -0.134514        -3.6603
 112   0.0000      -0.132706        -3.6111
 113   0.0000      -0.130180        -3.5424

                 SPIN DOWN ORBITALS
  NO   OCC          E(Eh)            E(eV)
   0   1.0000    -234.203807     -6373.0096
   1   1.0000     -26.833557      -730.1782
   2   1.0000     -22.998426      -625.8190
   3   1.0000     -22.998168      -625.8120
   4   1.0000     -22.997414      -625.7914
   5   1.0000      -4.023613      -109.4881
   6   1.0000      -4.023536      -109.4860
   7   1.0000      -4.022896      -109.4686
   8   1.0000      -4.022823      -109.4666
   9   1.0000      -4.022439      -109.4561
  10   1.0000      -4.022358      -109.4539
  11   1.0000      -4.021993      -109.4440
  12   1.0000      -4.021590      -109.4330
  13   1.0000      -4.020981      -109.4164
  14   1.0000      -4.020917      -109.4147
  15   1.0000      -2.945595       -80.1537
  16   1.0000      -2.244636       -61.0796
  17   1.0000      -2.244077       -61.0644
  18   1.0000      -2.243591       -61.0512
  19   1.0000      -2.242462       -61.0205
  20   1.0000      -2.242187       -61.0130
  21   1.0000      -2.239975       -60.9528
  22   1.0000      -2.239117       -60.9295
  23   1.0000      -2.236945       -60.8704
  24   1.0000      -2.236865       -60.8682
  25   1.0000      -2.236613       -60.8613
  26   1.0000      -2.236508       -60.8585
  27   1.0000      -2.236178       -60.8495
  28   1.0000      -2.235917       -60.8424
  29   1.0000      -2.235682       -60.8360
  30   1.0000      -2.235598       -60.8337
  31   1.0000      -2.235132       -60.8210
  32   1.0000      -2.235025       -60.8181
  33   1.0000      -2.234959       -60.8163
  34   1.0000      -2.234558       -60.8054
  35   1.0000      -2.234453       -60.8025
  36   1.0000      -2.232370       -60.7459
  37   1.0000      -2.232206       -60.7414
  38   1.0000      -2.229359       -60.6639
  39   1.0000      -2.229207       -60.6598
  40   1.0000      -2.229035       -60.6551
  41   1.0000      -2.228910       -60.6517
  42   1.0000      -2.228346       -60.6364
  43   1.0000      -2.227855       -60.6230
  44   1.0000      -2.226454       -60.5849
  45   1.0000      -2.226197       -60.5779
  46   1.0000      -1.852114       -50.3986
  47   1.0000      -1.851469       -50.3810
  48   1.0000      -1.849187       -50.3189
  49   1.0000      -0.402577       -10.9547
  50   1.0000      -0.383586       -10.4379
  51   1.0000      -0.371061       -10.0971
  52   1.0000      -0.365178        -9.9370
  53   1.0000      -0.363141        -9.8816
  54   1.0000      -0.362307        -9.8589
  55   1.0000      -0.354287        -9.6406
  56   1.0000      -0.351737        -9.5713
  57   1.0000      -0.336048        -9.1443
  58   1.0000      -0.331501        -9.0206
  59   1.0000      -0.329926        -8.9778
  60   1.0000      -0.329788        -8.9740
  61   1.0000      -0.326634        -8.8882
  62   1.0000      -0.325070        -8.8456
  63   1.0000      -0.318138        -8.6570
  64   1.0000      -0.314917        -8.5693
  65   1.0000      -0.313902        -8.5417
  66   1.0000      -0.311285        -8.4705
  67   1.0000      -0.307767        -8.3748
  68   1.0000      -0.305113        -8.3025
  69   1.0000      -0.302043        -8.2190
  70   1.0000      -0.300781        -8.1847
  71   1.0000      -0.295069        -8.0292
  72   1.0000      -0.293734        -7.9929
  73   1.0000      -0.291441        -7.9305
  74   1.0000      -0.291398        -7.9294
  75   1.0000      -0.288312        -7.8454
  76   1.0000      -0.287215        -7.8155
  77   1.0000      -0.286893        -7.8068
  78   1.0000      -0.281848        -7.6695
  79   1.0000      -0.280372        -7.6293
  80   1.0000      -0.278347        -7.5742
  81   1.0000      -0.278095        -7.5674
  82   1.0000      -0.275964        -7.5094
  83   1.0000      -0.271022        -7.3749
  84   1.0000      -0.269733        -7.3398
  85   1.0000      -0.268237        -7.2991
  86   1.0000      -0.267898        -7.2899
  87   1.0000      -0.265735        -7.2310
  88   1.0000      -0.265436        -7.2229
  89   1.0000      -0.261792        -7.1237
  90   1.0000      -0.259854        -7.0710
  91   1.0000      -0.259508        -7.0616
  92   1.0000      -0.258723        -7.0402
  93   1.0000      -0.256236        -6.9725
  94   1.0000      -0.256124        -6.9695
  95   1.0000      -0.255253        -6.9458
  96   1.0000      -0.249357        -6.7853
  97   1.0000      -0.248504        -6.7621
  98   1.0000      -0.248241        -6.7550
  99   1.0000      -0.244157        -6.6439
 100   1.0000      -0.240048        -6.5320
 101   1.0000      -0.235064        -6.3964
 102   1.0000      -0.232298        -6.3211
 103   1.0000      -0.216777        -5.8988
 104   1.0000      -0.198782        -5.4091
 105   1.0000      -0.177395        -4.8272
 106   0.0000      -0.145282        -3.9533
 107   0.0000      -0.144191        -3.9236
 108   0.0000      -0.143334        -3.9003
 109   0.0000      -0.129618        -3.5271
 110   0.0000      -0.128698        -3.5021

MULLIKEN ATOMIC CHARGES AND SPIN POPULATIONS
--------------------------------------------
   0 Au:   -0.021290   -0.009265
   1 Au:   -0.041753   -0.237344
   2 Au:    0.405045   -0.130365
   3 Au:   -0.077908   -0.234047
   4 Au:    0.203738   -0.044462
   5 Au:   -0.078245   -0.233305
   6 Au:    0.407888   -0.132616
   7 Au:   -0.040796   -0.236533
   8 Au:    0.249192   -0.057592
   9 Au:   -0.023799   -0.010308
  10 Mn:   -0.982073    4.325837
Sum of atomic charges         :    0.0000000

LOEWDIN ATOMIC CHARGES AND SPIN POPULATIONS
-------------------------------------------
   0 Au:   -0.008974   -0.014652
   1 Au:   -0.030809   -0.139123
   2 Au:    0.085532   -0.151179
   3 Au:   -0.035889   -0.135718
   4 Au:    0.095106   -0.147110
   5 Au:   -0.036725   -0.135800
   6 Au:    0.086001   -0.152241
   7 Au:   -0.031889   -0.139333
   8 Au:    0.097085   -0.158448
   9 Au:   -0.009157   -0.015466
  10 Mn:   -0.210280    4.189070

  Mayer bond orders larger than 0.100000
B(  0-Au,  1-Au) :   0.1733 B(  0-Au,  2-Au) :   0.2980 B(  0-Au,  3-Au) :   0.1742
B(  0-Au,  9-Au) :   0.6410 B(  0-Au, 10-Mn) :   0.5248 B(  1-Au,  2-Au) :   0.3666
B(  1-Au,  3-Au) :   0.1323 B(  1-Au,  4-Au) :   0.4431 B(  1-Au, 10-Mn) :   0.5096
B(  2-Au,  3-Au) :   0.3766 B(  3-Au,  8-Au) :   0.4509 B(  3-Au, 10-Mn) :   0.5321
B(  4-Au,  7-Au) :   0.4437 B(  4-Au, 10-Mn) :   0.5260 B(  5-Au,  6-Au) :   0.3752
B(  5-Au,  7-Au) :   0.1371 B(  5-Au,  8-Au) :   0.4512 B(  5-Au,  9-Au) :   0.1751
B(  5-Au, 10-Mn) :   0.5316 B(  6-Au,  7-Au) :   0.3658 B(  6-Au,  9-Au) :   0.2988
B(  7-Au,  9-Au) :   0.1741 B(  7-Au, 10-Mn) :   0.5075 B(  8-Au, 10-Mn) :   0.4743
B(  9-Au, 10-Mn) :   0.5234

FINAL SINGLE POINT ENERGY     -2509.027877583865

DIPOLE MOMENT
-------------
                                X             Y             Z
Electronic contribution:     10.58566       8.63802     -17.78696
Nuclear contribution   :    -10.57947      -8.62573      17.76632
                        -----------------------------------------
Total Dipole Moment    :      0.00619       0.01229      -0.02064
                        -----------------------------------------
Magnitude (a.u.)       :      0.02481
Magnitude (Debye)      :      0.06306

Rotational constants in cm-1:     0.002321     0.001265     0.001081
Rotational constants in MHz :    69.593545    37.921419    32.413894

                             ****ORCA TERMINATED NORMALLY****
TOTAL RUN TIME: 0 days 0 hours 3 minutes 14 seconds 529 msec
