                         Program Version 5.0.3 -  RELEASE  -
|  1> !R2SCAN def2-TZVP VERYSLOWCONV
|  2> !KDIIS
|  3> %scf
|  4>   AutoTRAHIter 200
|  5>   maxiter 400
|  6> end
|  7>
|  8> %pal nprocs 6 end
|  9>
| 10> *xyzfile 0 6 pbe.xyz
| 11>
| 12> $new_job
| 13>
| 14> !R2SCAN def2-TZVP VERYSLOWCONV
| 15> !KDIIS
| 16> %scf
| 17>   AutoTRAHIter 200
| 18>   maxiter 400
| 19> end
| 20>
| 21>
| 22> %pal nprocs 6 end
| 23>
| 24> *xyzfile 0 4 pbe.xyz
| 25>
| 26>
| 27>
| 28>
| 29>
| 30>                          ****END OF INPUT****
 Total Charge           Charge          ....    0
 Multiplicity           Mult            ....    6
 Number of Electrons    NEL             ....  215
FINAL SINGLE POINT ENERGY     -2509.439567343230

CARTESIAN COORDINATES (ANGSTROEM)
---------------------------------
  Au     6.772700    6.564091    5.489250
  Au     5.550359    4.098449    6.499087
  Au     4.181592    5.651520    4.781527
  Au     4.357408    7.049726    7.054535
  Au     7.313707    3.361920    8.318957
  Au     7.860090    8.043671    9.581876
  Au    10.454133    7.453994    9.297370
  Au     9.112388    5.131655    9.086565
  Au     5.237337    8.087999    9.313997
  Au     8.845377    7.153584    6.981333
  Mn     6.676404    6.021499    8.130989

 Multiplicity           Mult            ....    4
 Number of Electrons    NEL             ....  215
 Basis Dimension        Dim             ....  445

ORBITAL ENERGIES
----------------
                 SPIN UP ORBITALS
  NO   OCC          E(Eh)            E(eV)
   0   1.0000    -235.047317     -6395.9627
   1   1.0000     -27.227649      -740.9020
   2   1.0000     -23.274994      -633.3448
   3   1.0000     -23.273965      -633.3168
   4   1.0000     -23.273547      -633.3054
   5   1.0000      -4.113982      -111.9471
   6   1.0000      -4.113906      -111.9451
   7   1.0000      -4.113583      -111.9363
   8   1.0000      -4.113539      -111.9351
   9   1.0000      -4.113327      -111.9293
  10   1.0000      -4.113299      -111.9285
  11   1.0000      -4.113099      -111.9231
  12   1.0000      -4.112683      -111.9118
  13   1.0000      -4.112525      -111.9075
  14   1.0000      -4.111900      -111.8905
  15   1.0000      -3.250286       -88.4448
  16   1.0000      -2.308016       -62.8043
  17   1.0000      -2.307502       -62.7903
  18   1.0000      -2.307186       -62.7817
  19   1.0000      -2.306278       -62.7570
  20   1.0000      -2.306066       -62.7512
  21   1.0000      -2.302820       -62.6629
  22   1.0000      -2.302619       -62.6575
  23   1.0000      -2.300862       -62.6096
  24   1.0000      -2.300784       -62.6075
  25   1.0000      -2.300303       -62.5944
  26   1.0000      -2.300277       -62.5937
  27   1.0000      -2.299899       -62.5834
  28   1.0000      -2.299872       -62.5827
  29   1.0000      -2.299368       -62.5690
  30   1.0000      -2.299285       -62.5667
  31   1.0000      -2.299096       -62.5616
  32   1.0000      -2.298365       -62.5417
  33   1.0000      -2.297744       -62.5248
  34   1.0000      -2.297600       -62.5209
  35   1.0000      -2.296976       -62.5039
  36   1.0000      -2.295187       -62.4552
  37   1.0000      -2.295006       -62.4503
  38   1.0000      -2.293389       -62.4063
  39   1.0000      -2.293223       -62.4018
  40   1.0000      -2.293135       -62.3994
  41   1.0000      -2.292945       -62.3942
  42   1.0000      -2.292149       -62.3726
  43   1.0000      -2.291548       -62.3562
  44   1.0000      -2.291340       -62.3505
  45   1.0000      -2.291155       -62.3455
  46   1.0000      -2.108655       -57.3794
  47   1.0000      -2.106239       -57.3137
  48   1.0000      -2.104795       -57.2744
  49   1.0000      -0.410222       -11.1627
  50   1.0000      -0.387920       -10.5559
  51   1.0000      -0.381344       -10.3769
  52   1.0000      -0.375130       -10.2078
  53   1.0000      -0.373922       -10.1749
  54   1.0000      -0.373115       -10.1530
  55   1.0000      -0.368763       -10.0345
  56   1.0000      -0.364687        -9.9236
  57   1.0000      -0.351538        -9.5658
  58   1.0000      -0.348202        -9.4751
  59   1.0000      -0.347428        -9.4540
  60   1.0000      -0.344220        -9.3667
  61   1.0000      -0.343931        -9.3588
  62   1.0000      -0.338809        -9.2195
  63   1.0000      -0.332591        -9.0503
  64   1.0000      -0.332313        -9.0427
  65   1.0000      -0.328682        -8.9439
  66   1.0000      -0.326825        -8.8934
  67   1.0000      -0.321935        -8.7603
  68   1.0000      -0.316307        -8.6071
  69   1.0000      -0.312717        -8.5095
  70   1.0000      -0.310832        -8.4582
  71   1.0000      -0.307799        -8.3756
  72   1.0000      -0.301541        -8.2053
  73   1.0000      -0.300768        -8.1843
  74   1.0000      -0.298138        -8.1128
  75   1.0000      -0.295801        -8.0492
  76   1.0000      -0.294351        -8.0097
  77   1.0000      -0.294337        -8.0093
  78   1.0000      -0.292816        -7.9679
  79   1.0000      -0.292082        -7.9480
  80   1.0000      -0.291540        -7.9332
  81   1.0000      -0.288424        -7.8484
  82   1.0000      -0.287363        -7.8195
  83   1.0000      -0.281934        -7.6718
  84   1.0000      -0.281166        -7.6509
  85   1.0000      -0.281002        -7.6464
  86   1.0000      -0.276058        -7.5119
  87   1.0000      -0.275843        -7.5061
  88   1.0000      -0.274421        -7.4674
  89   1.0000      -0.272767        -7.4224
  90   1.0000      -0.270056        -7.3486
  91   1.0000      -0.268119        -7.2959
  92   1.0000      -0.267643        -7.2829
  93   1.0000      -0.267002        -7.2655
  94   1.0000      -0.265331        -7.2200
  95   1.0000      -0.264643        -7.2013
  96   1.0000      -0.262307        -7.1377
  97   1.0000      -0.262074        -7.1314
  98   1.0000      -0.261755        -7.1227
  99   1.0000      -0.258047        -7.0218
 100   1.0000      -0.257159        -6.9977
 101   1.0000      -0.254937        -6.9372
 102   1.0000      -0.251946        -6.8558
 103   1.0000      -0.250683        -6.8214
 104   1.0000      -0.242158        -6.5895
 105   1.0000      -0.237477        -6.4621
 106   1.0000      -0.237049        -6.4504
 107   1.0000      -0.235976        -6.4212
 108   1.0000      -0.210585        -5.7303
 109   0.0000      -0.176154        -4.7934
 110   0.0000      -0.162719        -4.4278
 111   0.0000      -0.128881        -3.5070
 112   0.0000      -0.127558        -3.4710
 113   0.0000      -0.124934        -3.3996

                 SPIN DOWN ORBITALS
  NO   OCC          E(Eh)            E(eV)
   0   1.0000    -235.046290     -6395.9347
   1   1.0000     -27.138259      -738.4696
   2   1.0000     -23.205805      -631.4621
   3   1.0000     -23.205712      -631.4595
   4   1.0000     -23.205319      -631.4488
   5   1.0000      -4.114892      -111.9719
   6   1.0000      -4.114803      -111.9695
   7   1.0000      -4.114026      -111.9483
   8   1.0000      -4.113920      -111.9455
   9   1.0000      -4.113628      -111.9375
  10   1.0000      -4.113445      -111.9325
  11   1.0000      -4.113130      -111.9240
  12   1.0000      -4.112957      -111.9192
  13   1.0000      -4.112530      -111.9076
  14   1.0000      -4.112116      -111.8964
  15   1.0000      -3.036438       -82.6257
  16   1.0000      -2.308699       -62.8229
  17   1.0000      -2.307946       -62.8024
  18   1.0000      -2.307689       -62.7954
  19   1.0000      -2.306278       -62.7570
  20   1.0000      -2.305432       -62.7340
  21   1.0000      -2.303960       -62.6939
  22   1.0000      -2.303126       -62.6712
  23   1.0000      -2.301257       -62.6204
  24   1.0000      -2.300956       -62.6122
  25   1.0000      -2.300243       -62.5928
  26   1.0000      -2.300078       -62.5883
  27   1.0000      -2.299869       -62.5826
  28   1.0000      -2.299548       -62.5739
  29   1.0000      -2.299374       -62.5692
  30   1.0000      -2.299108       -62.5619
  31   1.0000      -2.298770       -62.5527
  32   1.0000      -2.298566       -62.5472
  33   1.0000      -2.298350       -62.5413
  34   1.0000      -2.298117       -62.5349
  35   1.0000      -2.297833       -62.5272
  36   1.0000      -2.296223       -62.4834
  37   1.0000      -2.295905       -62.4747
  38   1.0000      -2.293366       -62.4057
  39   1.0000      -2.293200       -62.4011
  40   1.0000      -2.293087       -62.3981
  41   1.0000      -2.292897       -62.3929
  42   1.0000      -2.292030       -62.3693
  43   1.0000      -2.291418       -62.3527
  44   1.0000      -2.291364       -62.3512
  45   1.0000      -2.291290       -62.3492
  46   1.0000      -1.895042       -51.5667
  47   1.0000      -1.893770       -51.5321
  48   1.0000      -1.892837       -51.5067
  49   1.0000      -0.409360       -11.1393
  50   1.0000      -0.389837       -10.6080
  51   1.0000      -0.380559       -10.3555
  52   1.0000      -0.374923       -10.2022
  53   1.0000      -0.371969       -10.1218
  54   1.0000      -0.371907       -10.1201
  55   1.0000      -0.364032        -9.9058
  56   1.0000      -0.360464        -9.8087
  57   1.0000      -0.346201        -9.4206
  58   1.0000      -0.341395        -9.2898
  59   1.0000      -0.339763        -9.2454
  60   1.0000      -0.339382        -9.2351
  61   1.0000      -0.335900        -9.1403
  62   1.0000      -0.334320        -9.0973
  63   1.0000      -0.327781        -8.9194
  64   1.0000      -0.324758        -8.8371
  65   1.0000      -0.323361        -8.7991
  66   1.0000      -0.321066        -8.7366
  67   1.0000      -0.317217        -8.6319
  68   1.0000      -0.314336        -8.5535
  69   1.0000      -0.311061        -8.4644
  70   1.0000      -0.310219        -8.4415
  71   1.0000      -0.303909        -8.2698
  72   1.0000      -0.302858        -8.2412
  73   1.0000      -0.300566        -8.1788
  74   1.0000      -0.299801        -8.1580
  75   1.0000      -0.296882        -8.0786
  76   1.0000      -0.296040        -8.0557
  77   1.0000      -0.295792        -8.0489
  78   1.0000      -0.291010        -7.9188
  79   1.0000      -0.288704        -7.8560
  80   1.0000      -0.287488        -7.8229
  81   1.0000      -0.287140        -7.8135
  82   1.0000      -0.285379        -7.7656
  83   1.0000      -0.279709        -7.6113
  84   1.0000      -0.278179        -7.5696
  85   1.0000      -0.277051        -7.5390
  86   1.0000      -0.276175        -7.5151
  87   1.0000      -0.274518        -7.4700
  88   1.0000      -0.274158        -7.4602
  89   1.0000      -0.270464        -7.3597
  90   1.0000      -0.268128        -7.2961
  91   1.0000      -0.267669        -7.2837
  92   1.0000      -0.267537        -7.2801
  93   1.0000      -0.263544        -7.1714
  94   1.0000      -0.263323        -7.1654
  95   1.0000      -0.262988        -7.1563
  96   1.0000      -0.257489        -7.0066
  97   1.0000      -0.256294        -6.9741
  98   1.0000      -0.256101        -6.9689
  99   1.0000      -0.249162        -6.7801
 100   1.0000      -0.247154        -6.7254
 101   1.0000      -0.242297        -6.5932
 102   1.0000      -0.238854        -6.4995
 103   1.0000      -0.220261        -5.9936
 104   1.0000      -0.201284        -5.4772
 105   1.0000      -0.179041        -4.8719
 106   0.0000      -0.137919        -3.7530
 107   0.0000      -0.137260        -3.7350
 108   0.0000      -0.136168        -3.7053
 109   0.0000      -0.113139        -3.0787
 110   0.0000      -0.111879        -3.0444

MULLIKEN ATOMIC CHARGES AND SPIN POPULATIONS
--------------------------------------------
   0 Au:   -0.024435   -0.008660
   1 Au:   -0.050279   -0.261967
   2 Au:    0.361721   -0.167216
   3 Au:   -0.087174   -0.257209
   4 Au:    0.205927   -0.042747
   5 Au:   -0.087532   -0.256160
   6 Au:    0.364522   -0.169833
   7 Au:   -0.049448   -0.260716
   8 Au:    0.252222   -0.057445
   9 Au:   -0.026977   -0.009696
  10 Mn:   -0.858547    4.491649
Sum of atomic charges         :   -0.0000000

LOEWDIN ATOMIC CHARGES AND SPIN POPULATIONS
-------------------------------------------
   0 Au:   -0.017856   -0.020297
   1 Au:   -0.037920   -0.157803
   2 Au:    0.081725   -0.167917
   3 Au:   -0.043386   -0.154180
   4 Au:    0.089335   -0.163708
   5 Au:   -0.044157   -0.154115
   6 Au:    0.082208   -0.168903
   7 Au:   -0.038943   -0.157840
   8 Au:    0.091205   -0.174420
   9 Au:   -0.017972   -0.021048
  10 Mn:   -0.144239    4.340231

  Mayer bond orders larger than 0.100000
B(  0-Au,  1-Au) :   0.1346 B(  0-Au,  2-Au) :   0.2938 B(  0-Au,  3-Au) :   0.1352
B(  0-Au,  9-Au) :   0.6584 B(  0-Au, 10-Mn) :   0.5001 B(  1-Au,  2-Au) :   0.3580
B(  1-Au,  3-Au) :   0.1125 B(  1-Au,  4-Au) :   0.4344 B(  1-Au, 10-Mn) :   0.4807
B(  2-Au,  3-Au) :   0.3677 B(  3-Au,  8-Au) :   0.4428 B(  3-Au, 10-Mn) :   0.5034
B(  4-Au,  7-Au) :   0.4350 B(  4-Au, 10-Mn) :   0.5153 B(  5-Au,  6-Au) :   0.3663
B(  5-Au,  7-Au) :   0.1168 B(  5-Au,  8-Au) :   0.4431 B(  5-Au,  9-Au) :   0.1360
B(  5-Au, 10-Mn) :   0.5030 B(  6-Au,  7-Au) :   0.3572 B(  6-Au,  9-Au) :   0.2947
B(  7-Au,  9-Au) :   0.1353 B(  7-Au, 10-Mn) :   0.4789 B(  8-Au, 10-Mn) :   0.4648
B(  9-Au, 10-Mn) :   0.4986

FINAL SINGLE POINT ENERGY     -2509.435745775183

DIPOLE MOMENT
-------------
                                X             Y             Z
Electronic contribution:     10.57227       8.62361     -17.76170
Nuclear contribution   :    -10.57947      -8.62573      17.76632
                        -----------------------------------------
Total Dipole Moment    :     -0.00720      -0.00213       0.00462
                        -----------------------------------------
Magnitude (a.u.)       :      0.00881
Magnitude (Debye)      :      0.02240

Rotational constants in cm-1:     0.002321     0.001265     0.001081
Rotational constants in MHz :    69.593545    37.921419    32.413894

                             ****ORCA TERMINATED NORMALLY****
TOTAL RUN TIME: 0 days 0 hours 4 minutes 6 seconds 366 msec
