                         Program Version 5.0.3 -  RELEASE  -
|  1> !SC-NEVPT2 def2-TZVP def2-TZVP/C
|  2> !MOREAD RIJCOSX def2/J
|  3> %maxcore 4000
|  4> %moinp "casscf.gbw"
|  5> %pal nprocs 6 end
|  6>
|  7> %casscf
|  8>  mult 5,3
|  9>  bweight 1,1
| 10>  nroots 5,45
| 11>  nel 6
| 12>  norb 5
| 13>  ptsettings
| 14>   d4tpre 1e-14 # default = 1e-10
| 15>   d3tpre 1e-14
| 16>  end
| 17>  rel
| 18>    dosoc true
| 19>    gtensor true
| 20>  end
| 21> end
| 22>
| 23>
| 24> *xyzfile 0 5 pbe.xyz
| 25>
| 26>
| 27>                          ****END OF INPUT****

CARTESIAN COORDINATES (ANGSTROEM)
---------------------------------
  Au     4.640727    7.342586    5.916960
  Au     6.266442    9.607293    5.773482
  Au     5.953980    9.884465    8.532732
  Au     8.861896    6.757327    9.333998
  Au     6.345916    7.497728   10.012192
  Au     5.336401    5.522484    7.977943
  Au     3.985990    7.907525    8.564409
  Au    10.697463    7.757989    7.448589
  Au     8.650563    9.421772    8.259063
  Au     8.761671    8.474263    5.580897
  Au    10.668465    5.016784    8.047842
  Au     9.735458    5.866052    5.532473
  Au     7.922767    4.907160    7.462670
  Au     7.035945    6.272128    5.095006
  Fe     6.891541    7.585634    7.426178

 Total Charge           Charge          ....    0
 Multiplicity           Mult            ....    5
 Number of Electrons    NEL             ....  292
 Basis Dimension        Dim             ....  605

ORBITAL ENERGIES
----------------

  NO   OCC          E(Eh)            E(eV)
   0   2.0000    -261.400228     -7113.0618
   1   2.0000     -31.962374      -869.7404
   2   2.0000     -27.442543      -746.7496
   3   2.0000     -27.442290      -746.7427
   4   2.0000     -27.442179      -746.7396
   5   2.0000      -4.728877      -128.6793
   6   2.0000      -4.724685      -128.5652
   7   2.0000      -4.724672      -128.5649
   8   2.0000      -4.723706      -128.5386
   9   2.0000      -4.719086      -128.4128
  10   2.0000      -4.718500      -128.3969
  11   2.0000      -4.712702      -128.2391
  12   2.0000      -4.711809      -128.2148
  13   2.0000      -4.710490      -128.1789
  14   2.0000      -4.708065      -128.1130
  15   2.0000      -4.707501      -128.0976
  16   2.0000      -4.706593      -128.0729
  17   2.0000      -4.706293      -128.0647
  18   2.0000      -4.705563      -128.0449
  19   2.0000      -4.196128      -114.1825
  20   2.0000      -2.776110       -75.5418
  21   2.0000      -2.775900       -75.5361
  22   2.0000      -2.774795       -75.5060
  23   2.0000      -2.767648       -75.3115
  24   2.0000      -2.766391       -75.2773
  25   2.0000      -2.765531       -75.2539
  26   2.0000      -2.763487       -75.1983
  27   2.0000      -2.762972       -75.1843
  28   2.0000      -2.762079       -75.1600
  29   2.0000      -2.761731       -75.1505
  30   2.0000      -2.760699       -75.1224
  31   2.0000      -2.759734       -75.0962
  32   2.0000      -2.759525       -75.0905
  33   2.0000      -2.757715       -75.0412
  34   2.0000      -2.756637       -75.0119
  35   2.0000      -2.756158       -74.9989
  36   2.0000      -2.755543       -74.9821
  37   2.0000      -2.753966       -74.9392
  38   2.0000      -2.753351       -74.9225
  39   2.0000      -2.752680       -74.9042
  40   2.0000      -2.751999       -74.8857
  41   2.0000      -2.751521       -74.8727
  42   2.0000      -2.750708       -74.8506
  43   2.0000      -2.750172       -74.8360
  44   2.0000      -2.748374       -74.7871
  45   2.0000      -2.747096       -74.7523
  46   2.0000      -2.745896       -74.7196
  47   2.0000      -2.745519       -74.7094
  48   2.0000      -2.745287       -74.7031
  49   2.0000      -2.745042       -74.6964
  50   2.0000      -2.744581       -74.6838
  51   2.0000      -2.744157       -74.6723
  52   2.0000      -2.744052       -74.6694
  53   2.0000      -2.743755       -74.6614
  54   2.0000      -2.743432       -74.6526
  55   2.0000      -2.743378       -74.6511
  56   2.0000      -2.743101       -74.6436
  57   2.0000      -2.742559       -74.6288
  58   2.0000      -2.740544       -74.5740
  59   2.0000      -2.740510       -74.5731
  60   2.0000      -2.739746       -74.5523
  61   2.0000      -2.739442       -74.5440
  62   2.0000      -2.739284       -74.5397
  63   2.0000      -2.738512       -74.5187
  64   2.0000      -2.738358       -74.5145
  65   2.0000      -0.588694       -16.0192
  66   2.0000      -0.559951       -15.2370
  67   2.0000      -0.554571       -15.0906
  68   2.0000      -0.552302       -15.0289
  69   2.0000      -0.552196       -15.0260
  70   2.0000      -0.551251       -15.0003
  71   2.0000      -0.549789       -14.9605
  72   2.0000      -0.547181       -14.8895
  73   2.0000      -0.546253       -14.8643
  74   2.0000      -0.542816       -14.7708
  75   2.0000      -0.542079       -14.7507
  76   2.0000      -0.539443       -14.6790
  77   2.0000      -0.538775       -14.6608
  78   2.0000      -0.537315       -14.6211
  79   2.0000      -0.536467       -14.5980
  80   2.0000      -0.535867       -14.5817
  81   2.0000      -0.531702       -14.4684
  82   2.0000      -0.529641       -14.4123
  83   2.0000      -0.529073       -14.3968
  84   2.0000      -0.527857       -14.3637
  85   2.0000      -0.525556       -14.3011
  86   2.0000      -0.521279       -14.1847
  87   2.0000      -0.515332       -14.0229
  88   2.0000      -0.512973       -13.9587
  89   2.0000      -0.509912       -13.8754
  90   2.0000      -0.506228       -13.7752
  91   2.0000      -0.504263       -13.7217
  92   2.0000      -0.500833       -13.6284
  93   2.0000      -0.497820       -13.5464
  94   2.0000      -0.495493       -13.4831
  95   2.0000      -0.492026       -13.3887
  96   2.0000      -0.490547       -13.3485
  97   2.0000      -0.488402       -13.2901
  98   2.0000      -0.487176       -13.2567
  99   2.0000      -0.486039       -13.2258
 100   2.0000      -0.485762       -13.2182
 101   2.0000      -0.480972       -13.0879
 102   2.0000      -0.477085       -12.9822
 103   2.0000      -0.476034       -12.9536
 104   2.0000      -0.471698       -12.8355
 105   2.0000      -0.471360       -12.8264
 106   2.0000      -0.470834       -12.8120
 107   2.0000      -0.463946       -12.6246
 108   2.0000      -0.463372       -12.6090
 109   2.0000      -0.457886       -12.4597
 110   2.0000      -0.457432       -12.4473
 111   2.0000      -0.455441       -12.3932
 112   2.0000      -0.453713       -12.3462
 113   2.0000      -0.452302       -12.3078
 114   2.0000      -0.449599       -12.2342
 115   2.0000      -0.448597       -12.2070
 116   2.0000      -0.445880       -12.1330
 117   2.0000      -0.443196       -12.0600
 118   2.0000      -0.442139       -12.0312
 119   2.0000      -0.437923       -11.9165
 120   2.0000      -0.437420       -11.9028
 121   2.0000      -0.436144       -11.8681
 122   2.0000      -0.433543       -11.7973
 123   2.0000      -0.432704       -11.7745
 124   2.0000      -0.429548       -11.6886
 125   2.0000      -0.429138       -11.6774
 126   2.0000      -0.426432       -11.6038
 127   2.0000      -0.421437       -11.4679
 128   2.0000      -0.417914       -11.3720
 129   2.0000      -0.417636       -11.3644
 130   2.0000      -0.414412       -11.2767
 131   2.0000      -0.411553       -11.1989
 132   2.0000      -0.408127       -11.1057
 133   2.0000      -0.405598       -11.0369
 134   2.0000      -0.405219       -11.0266
 135   2.0000      -0.388459       -10.5705
 136   2.0000      -0.388249       -10.5648
 137   2.0000      -0.341979        -9.3057
 138   2.0000      -0.337999        -9.1974
 139   2.0000      -0.257129        -6.9968
 140   2.0000      -0.242465        -6.5978
 141   2.0000      -0.242384        -6.5956
 142   2.0000      -0.217321        -5.9136
 143   1.2000      -0.272755        -7.4220
 144   1.2000      -0.277344        -7.5469
 145   1.2000      -0.271489        -7.3876
 146   1.2000      -0.277572        -7.5531
 147   1.2000      -0.264478        -7.1968
 148   0.0000      -0.048102        -1.3089
 149   0.0000      -0.017210        -0.4683
 150   0.0000      -0.010687        -0.2908
 151   0.0000      -0.009736        -0.2649
 152   0.0000      -0.007900        -0.2150

MULLIKEN ATOMIC CHARGES AND SPIN DENSITIES
------------------------------------------
   0 Au:    0.213224    0.007183
   1 Au:    0.304050    0.006940
   2 Au:    0.210697    0.007286
   3 Au:   -0.223736    0.007487
   4 Au:    0.189956    0.009758
   5 Au:    0.201136    0.009749
   6 Au:    0.248401    0.002927
   7 Au:    0.186795    0.003744
   8 Au:    0.131710    0.008754
   9 Au:    0.079693    0.006601
  10 Au:    0.379448    0.002181
  11 Au:    0.196294    0.003734
  12 Au:   -0.240554    0.007414
  13 Au:    0.146022    0.008430
  14 Fe:   -2.023136    2.907811
Sum of atomic charges       :    0.0000000

LOEWDIN ATOMIC CHARGES AND SPIN DENSITIES
-----------------------------------------
   0 Au:    0.024920    0.009067
   1 Au:    0.096569    0.008721
   2 Au:    0.023692    0.009172
   3 Au:   -0.085506    0.009132
   4 Au:    0.020294    0.012010
   5 Au:    0.022039    0.012007
   6 Au:    0.065381    0.004113
   7 Au:   -0.017909    0.004316
   8 Au:    0.028604    0.011170
   9 Au:   -0.013952    0.009442
  10 Au:    0.131418    0.003375
  11 Au:   -0.015589    0.004291
  12 Au:   -0.087534    0.009052
  13 Au:    0.029595    0.010895
  14 Fe:   -0.222022    2.883237

  Mayer bond orders larger than 0.100000
B(  0-Au,  1-Au) :   0.2287 B(  0-Au,  5-Au) :   0.1349 B(  0-Au,  6-Au) :   0.1883
B(  0-Au, 13-Au) :   0.2014 B(  0-Au, 14-Fe) :   0.3760 B(  1-Au,  2-Au) :   0.2241
B(  1-Au,  9-Au) :   0.1189 B(  1-Au, 14-Fe) :   0.4187 B(  2-Au,  4-Au) :   0.1321
B(  2-Au,  6-Au) :   0.1869 B(  2-Au,  8-Au) :   0.2107 B(  2-Au, 14-Fe) :   0.3785
B(  3-Au,  4-Au) :   0.4003 B(  3-Au,  7-Au) :   0.2417 B(  3-Au, 10-Au) :   0.3150
B(  3-Au, 12-Au) :   0.1736 B(  3-Au, 14-Fe) :   0.4074 B(  4-Au,  6-Au) :   0.2117
B(  4-Au, 14-Fe) :   0.4389 B(  5-Au,  6-Au) :   0.2103 B(  5-Au, 12-Au) :   0.3956
B(  5-Au, 14-Fe) :   0.4344 B(  6-Au, 14-Fe) :   0.2654 B(  7-Au,  8-Au) :   0.3246
B(  7-Au,  9-Au) :   0.2547 B(  7-Au, 10-Au) :   0.1621 B(  7-Au, 11-Au) :   0.1582
B(  7-Au, 14-Fe) :   0.1153 B(  8-Au,  9-Au) :   0.2550 B(  8-Au, 14-Fe) :   0.4538
B(  9-Au, 11-Au) :   0.2569 B(  9-Au, 13-Au) :   0.2694 B(  9-Au, 14-Fe) :   0.3069
B( 10-Au, 11-Au) :   0.1602 B( 10-Au, 12-Au) :   0.3242 B( 11-Au, 12-Au) :   0.2468
B( 11-Au, 13-Au) :   0.3172 B( 11-Au, 14-Fe) :   0.1112 B( 12-Au, 13-Au) :   0.1062
B( 12-Au, 14-Fe) :   0.4078 B( 13-Au, 14-Fe) :   0.4455

FINAL SINGLE POINT ENERGY     -3156.753055608759

DIPOLE MOMENT
-------------
                                X             Y             Z
Electronic contribution:     22.64016     -10.53584      -1.34475
Nuclear contribution   :    -22.85850      10.80819       1.16784
                        -----------------------------------------
Total Dipole Moment    :     -0.21833       0.27234      -0.17691
                        -----------------------------------------
Magnitude (a.u.)       :      0.39133
Magnitude (Debye)      :      0.99468

Rotational constants in cm-1:     0.001368     0.000879     0.000879
Rotational constants in MHz :    41.014798    26.356590    26.340709

                             ****ORCA TERMINATED NORMALLY****
TOTAL RUN TIME: 0 days 4 hours 33 minutes 33 seconds 873 msec
