                         Program Version 5.0.3 -  RELEASE  -
|  1> %pal nprocs 1 end
|  2>
|  3> !PBE def2-TZVP OPT UNO
|  4> !SLOWCONV KDIIS
|  5>
|  6> %geom maxiter 300 end
|  7>
|  8> *xyzfile 0 3 4.xyz                           ****END OF INPUT****
 Total Charge           Charge          ....    0
 Multiplicity           Mult            ....    3
 Number of Electrons    NEL             ....  252
FINAL SINGLE POINT ENERGY     -2674.134998478353
FINAL SINGLE POINT ENERGY     -2674.137869575472
FINAL SINGLE POINT ENERGY     -2674.139467020413
FINAL SINGLE POINT ENERGY     -2674.141192850968
FINAL SINGLE POINT ENERGY     -2674.142431553122
FINAL SINGLE POINT ENERGY     -2674.143518728024
FINAL SINGLE POINT ENERGY     -2674.144558824765
FINAL SINGLE POINT ENERGY     -2674.145309569352
FINAL SINGLE POINT ENERGY     -2674.145860221604
FINAL SINGLE POINT ENERGY     -2674.146299083929
FINAL SINGLE POINT ENERGY     -2674.147589504147
FINAL SINGLE POINT ENERGY     -2674.147633908925
FINAL SINGLE POINT ENERGY     -2674.147645027613
FINAL SINGLE POINT ENERGY     -2674.147662797960
FINAL SINGLE POINT ENERGY     -2674.147698028961
FINAL SINGLE POINT ENERGY     -2674.147719280466
FINAL SINGLE POINT ENERGY     -2674.147739025009
FINAL SINGLE POINT ENERGY     -2674.147747694846
FINAL SINGLE POINT ENERGY     -2674.147750210968
                    ***********************HURRAY********************

CARTESIAN COORDINATES (ANGSTROEM)
---------------------------------
  Au     8.774593    5.312964   11.069863
  Au     6.391537    4.385235    9.894776
  Au     7.763016    3.379600    7.743069
  Au    10.224859    4.253261    8.791593
  Au    10.644535    6.729138    7.768871
  Au     8.311835    5.358054    5.973885
  Au     8.613205    7.958316    6.086615
  Au     9.149954    7.854868   10.202518
  Au    10.061246    9.396553    8.113532
  Au     8.276228   10.648704    6.432977
  Au     6.036970    7.059322    9.639675
  Au     7.223895    9.005093    8.348705
  Cr     8.203061    5.984823    8.549332

 Multiplicity           Mult            ....    3
 Number of Electrons    NEL             ....  252
 Basis Dimension        Dim             ....  525

ORBITAL ENERGIES
----------------
                 SPIN UP ORBITALS
  NO   OCC          E(Eh)            E(eV)
   0   1.0000    -214.507763     -5837.0530
   1   1.0000     -24.310771      -661.5297
   2   1.0000     -20.675494      -562.6088
   3   1.0000     -20.674146      -562.5721
   4   1.0000     -20.673151      -562.5451
   5   1.0000      -4.023747      -109.4917
   6   1.0000      -4.023595      -109.4876
   7   1.0000      -4.023455      -109.4838
   8   1.0000      -4.022510      -109.4581
   9   1.0000      -4.022413      -109.4554
  10   1.0000      -4.019082      -109.3648
  11   1.0000      -4.018472      -109.3482
  12   1.0000      -4.018296      -109.3434
  13   1.0000      -4.018022      -109.3359
  14   1.0000      -4.017902      -109.3327
  15   1.0000      -4.016501      -109.2946
  16   1.0000      -4.016169      -109.2855
  17   1.0000      -2.808467       -76.4223
  18   1.0000      -2.243690       -61.0539
  19   1.0000      -2.242415       -61.0192
  20   1.0000      -2.241568       -60.9962
  21   1.0000      -2.241066       -60.9825
  22   1.0000      -2.240255       -60.9604
  23   1.0000      -2.238263       -60.9062
  24   1.0000      -2.237965       -60.8981
  25   1.0000      -2.236172       -60.8493
  26   1.0000      -2.235806       -60.8394
  27   1.0000      -2.235700       -60.8365
  28   1.0000      -2.235307       -60.8258
  29   1.0000      -2.235064       -60.8192
  30   1.0000      -2.234542       -60.8050
  31   1.0000      -2.234308       -60.7986
  32   1.0000      -2.234225       -60.7964
  33   1.0000      -2.233867       -60.7866
  34   1.0000      -2.233437       -60.7749
  35   1.0000      -2.233376       -60.7732
  36   1.0000      -2.232814       -60.7580
  37   1.0000      -2.232532       -60.7503
  38   1.0000      -2.231860       -60.7320
  39   1.0000      -2.231419       -60.7200
  40   1.0000      -2.230903       -60.7060
  41   1.0000      -2.230747       -60.7017
  42   1.0000      -2.230241       -60.6879
  43   1.0000      -2.229817       -60.6764
  44   1.0000      -2.229558       -60.6693
  45   1.0000      -2.229469       -60.6669
  46   1.0000      -2.229209       -60.6599
  47   1.0000      -2.228684       -60.6456
  48   1.0000      -2.227483       -60.6129
  49   1.0000      -2.226712       -60.5919
  50   1.0000      -2.225280       -60.5529
  51   1.0000      -2.224043       -60.5193
  52   1.0000      -2.223273       -60.4983
  53   1.0000      -2.223135       -60.4946
  54   1.0000      -1.799740       -48.9734
  55   1.0000      -1.796975       -48.8982
  56   1.0000      -1.795792       -48.8660
  57   1.0000      -0.411041       -11.1850
  58   1.0000      -0.388130       -10.5616
  59   1.0000      -0.368941       -10.0394
  60   1.0000      -0.368843       -10.0367
  61   1.0000      -0.357046        -9.7157
  62   1.0000      -0.355433        -9.6718
  63   1.0000      -0.352409        -9.5895
  64   1.0000      -0.351011        -9.5515
  65   1.0000      -0.346848        -9.4382
  66   1.0000      -0.344738        -9.3808
  67   1.0000      -0.340732        -9.2718
  68   1.0000      -0.339592        -9.2408
  69   1.0000      -0.338563        -9.2128
  70   1.0000      -0.334638        -9.1060
  71   1.0000      -0.332043        -9.0353
  72   1.0000      -0.327846        -8.9211
  73   1.0000      -0.325395        -8.8544
  74   1.0000      -0.321258        -8.7419
  75   1.0000      -0.318239        -8.6597
  76   1.0000      -0.315620        -8.5885
  77   1.0000      -0.315327        -8.5805
  78   1.0000      -0.314363        -8.5543
  79   1.0000      -0.313732        -8.5371
  80   1.0000      -0.310846        -8.4585
  81   1.0000      -0.308964        -8.4073
  82   1.0000      -0.304380        -8.2826
  83   1.0000      -0.303599        -8.2613
  84   1.0000      -0.295974        -8.0539
  85   1.0000      -0.293111        -7.9760
  86   1.0000      -0.292400        -7.9566
  87   1.0000      -0.290856        -7.9146
  88   1.0000      -0.290158        -7.8956
  89   1.0000      -0.289281        -7.8717
  90   1.0000      -0.288207        -7.8425
  91   1.0000      -0.283744        -7.7211
  92   1.0000      -0.279715        -7.6114
  93   1.0000      -0.279521        -7.6061
  94   1.0000      -0.275677        -7.5015
  95   1.0000      -0.275240        -7.4897
  96   1.0000      -0.273521        -7.4429
  97   1.0000      -0.271800        -7.3960
  98   1.0000      -0.270368        -7.3571
  99   1.0000      -0.269950        -7.3457
 100   1.0000      -0.268204        -7.2982
 101   1.0000      -0.266959        -7.2643
 102   1.0000      -0.264804        -7.2057
 103   1.0000      -0.262089        -7.1318
 104   1.0000      -0.261941        -7.1278
 105   1.0000      -0.258242        -7.0271
 106   1.0000      -0.257283        -7.0010
 107   1.0000      -0.253519        -6.8986
 108   1.0000      -0.252799        -6.8790
 109   1.0000      -0.251282        -6.8377
 110   1.0000      -0.250994        -6.8299
 111   1.0000      -0.249379        -6.7859
 112   1.0000      -0.246360        -6.7038
 113   1.0000      -0.245426        -6.6784
 114   1.0000      -0.241120        -6.5612
 115   1.0000      -0.240009        -6.5310
 116   1.0000      -0.239189        -6.5087
 117   1.0000      -0.237210        -6.4548
 118   1.0000      -0.235622        -6.4116
 119   1.0000      -0.231498        -6.2994
 120   1.0000      -0.227744        -6.1972
 121   1.0000      -0.223260        -6.0752
 122   1.0000      -0.215774        -5.8715
 123   1.0000      -0.211285        -5.7494
 124   1.0000      -0.210758        -5.7350
 125   1.0000      -0.207408        -5.6438
 126   1.0000      -0.205119        -5.5816
 127   0.0000      -0.178576        -4.8593
 128   0.0000      -0.177106        -4.8193
 129   0.0000      -0.161323        -4.3898
 130   0.0000      -0.138333        -3.7642
 131   0.0000      -0.124549        -3.3891

                 SPIN DOWN ORBITALS
  NO   OCC          E(Eh)            E(eV)
   0   1.0000    -214.507335     -5837.0413
   1   1.0000     -24.266976      -660.3380
   2   1.0000     -20.641964      -561.6964
   3   1.0000     -20.641768      -561.6911
   4   1.0000     -20.638644      -561.6061
   5   1.0000      -4.024296      -109.5067
   6   1.0000      -4.023769      -109.4923
   7   1.0000      -4.023576      -109.4871
   8   1.0000      -4.022847      -109.4672
   9   1.0000      -4.022752      -109.4646
  10   1.0000      -4.019590      -109.3786
  11   1.0000      -4.018608      -109.3519
  12   1.0000      -4.018424      -109.3469
  13   1.0000      -4.017301      -109.3163
  14   1.0000      -4.017175      -109.3129
  15   1.0000      -4.016671      -109.2992
  16   1.0000      -4.016345      -109.2903
  17   1.0000      -2.690583       -73.2145
  18   1.0000      -2.243942       -61.0608
  19   1.0000      -2.242541       -61.0226
  20   1.0000      -2.241737       -61.0008
  21   1.0000      -2.240906       -60.9782
  22   1.0000      -2.240012       -60.9538
  23   1.0000      -2.238373       -60.9092
  24   1.0000      -2.238287       -60.9069
  25   1.0000      -2.236317       -60.8533
  26   1.0000      -2.235869       -60.8411
  27   1.0000      -2.235774       -60.8385
  28   1.0000      -2.235512       -60.8314
  29   1.0000      -2.235433       -60.8292
  30   1.0000      -2.234590       -60.8063
  31   1.0000      -2.234065       -60.7920
  32   1.0000      -2.233506       -60.7768
  33   1.0000      -2.233432       -60.7748
  34   1.0000      -2.233175       -60.7678
  35   1.0000      -2.232983       -60.7625
  36   1.0000      -2.232916       -60.7607
  37   1.0000      -2.232297       -60.7439
  38   1.0000      -2.232153       -60.7400
  39   1.0000      -2.231473       -60.7215
  40   1.0000      -2.231229       -60.7148
  41   1.0000      -2.231143       -60.7125
  42   1.0000      -2.230740       -60.7015
  43   1.0000      -2.230326       -60.6902
  44   1.0000      -2.229964       -60.6804
  45   1.0000      -2.229873       -60.6779
  46   1.0000      -2.229689       -60.6729
  47   1.0000      -2.229180       -60.6591
  48   1.0000      -2.227784       -60.6211
  49   1.0000      -2.226978       -60.5992
  50   1.0000      -2.225763       -60.5661
  51   1.0000      -2.224493       -60.5315
  52   1.0000      -2.222700       -60.4828
  53   1.0000      -2.222558       -60.4789
  54   1.0000      -1.684303       -45.8322
  55   1.0000      -1.683589       -45.8128
  56   1.0000      -1.676391       -45.6169
  57   1.0000      -0.408816       -11.1245
  58   1.0000      -0.384470       -10.4620
  59   1.0000      -0.369044       -10.0422
  60   1.0000      -0.368820       -10.0361
  61   1.0000      -0.356958        -9.7133
  62   1.0000      -0.353553        -9.6207
  63   1.0000      -0.350323        -9.5328
  64   1.0000      -0.346998        -9.4423
  65   1.0000      -0.345360        -9.3977
  66   1.0000      -0.342028        -9.3070
  67   1.0000      -0.339886        -9.2488
  68   1.0000      -0.339657        -9.2425
  69   1.0000      -0.336050        -9.1444
  70   1.0000      -0.335792        -9.1374
  71   1.0000      -0.329549        -8.9675
  72   1.0000      -0.327521        -8.9123
  73   1.0000      -0.325736        -8.8637
  74   1.0000      -0.321254        -8.7418
  75   1.0000      -0.317572        -8.6416
  76   1.0000      -0.316208        -8.6045
  77   1.0000      -0.315673        -8.5899
  78   1.0000      -0.313086        -8.5195
  79   1.0000      -0.312056        -8.4915
  80   1.0000      -0.311443        -8.4748
  81   1.0000      -0.307519        -8.3680
  82   1.0000      -0.304644        -8.2898
  83   1.0000      -0.303271        -8.2524
  84   1.0000      -0.294482        -8.0133
  85   1.0000      -0.293458        -7.9854
  86   1.0000      -0.293375        -7.9831
  87   1.0000      -0.291227        -7.9247
  88   1.0000      -0.290551        -7.9063
  89   1.0000      -0.288444        -7.8490
  90   1.0000      -0.286853        -7.8057
  91   1.0000      -0.284291        -7.7359
  92   1.0000      -0.280711        -7.6385
  93   1.0000      -0.279717        -7.6115
  94   1.0000      -0.276063        -7.5121
  95   1.0000      -0.276005        -7.5105
  96   1.0000      -0.273901        -7.4532
  97   1.0000      -0.272174        -7.4062
  98   1.0000      -0.271322        -7.3830
  99   1.0000      -0.269723        -7.3395
 100   1.0000      -0.269698        -7.3388
 101   1.0000      -0.267793        -7.2870
 102   1.0000      -0.265358        -7.2208
 103   1.0000      -0.263229        -7.1628
 104   1.0000      -0.262087        -7.1318
 105   1.0000      -0.259484        -7.0609
 106   1.0000      -0.258234        -7.0269
 107   1.0000      -0.254368        -6.9217
 108   1.0000      -0.253965        -6.9107
 109   1.0000      -0.252221        -6.8633
 110   1.0000      -0.251470        -6.8429
 111   1.0000      -0.250490        -6.8162
 112   1.0000      -0.246951        -6.7199
 113   1.0000      -0.246780        -6.7152
 114   1.0000      -0.242167        -6.5897
 115   1.0000      -0.241461        -6.5705
 116   1.0000      -0.239940        -6.5291
 117   1.0000      -0.238081        -6.4785
 118   1.0000      -0.237666        -6.4672
 119   1.0000      -0.232856        -6.3363
 120   1.0000      -0.229984        -6.2582
 121   1.0000      -0.220052        -5.9879
 122   1.0000      -0.201258        -5.4765
 123   1.0000      -0.196605        -5.3499
 124   1.0000      -0.192707        -5.2438
 125   0.0000      -0.151498        -4.1225
 126   0.0000      -0.137235        -3.7344
 127   0.0000      -0.124391        -3.3849
 128   0.0000      -0.120373        -3.2755
 129   0.0000      -0.117890        -3.2079

MULLIKEN ATOMIC CHARGES AND SPIN POPULATIONS
--------------------------------------------
   0 Au:    0.337500   -0.116227
   1 Au:    0.352367   -0.111896
   2 Au:    0.352579   -0.111789
   3 Au:    0.331382   -0.116491
   4 Au:    0.231349   -0.109161
   5 Au:    0.210771   -0.022273
   6 Au:   -0.063518   -0.130695
   7 Au:    0.228980   -0.108691
   8 Au:    0.292246   -0.160018
   9 Au:    0.434432   -0.027805
  10 Au:    0.210925   -0.022670
  11 Au:   -0.058607   -0.131678
  12 Cr:   -2.860407    3.169392
Sum of atomic charges         :   -0.0000000

LOEWDIN ATOMIC CHARGES AND SPIN POPULATIONS
-------------------------------------------
   0 Au:    0.118882   -0.098791
   1 Au:    0.098746   -0.103233
   2 Au:    0.098192   -0.103283
   3 Au:    0.119439   -0.099161
   4 Au:    0.087093   -0.097831
   5 Au:    0.132732   -0.039835
   6 Au:   -0.030984   -0.087925
   7 Au:    0.087704   -0.097447
   8 Au:    0.024451   -0.133120
   9 Au:    0.139013   -0.054725
  10 Au:    0.131638   -0.040205
  11 Au:   -0.031181   -0.088839
  12 Cr:   -0.975725    3.044394

  Mayer bond orders larger than 0.100000
B(  0-Au,  1-Au) :   0.1735 B(  0-Au,  3-Au) :   0.2555 B(  0-Au,  7-Au) :   0.3179
B(  0-Au, 12-Cr) :   0.6984 B(  1-Au,  2-Au) :   0.2891 B(  1-Au,  4-Au) :   0.1005
B(  1-Au, 10-Au) :   0.2856 B(  1-Au, 12-Cr) :   0.5415 B(  2-Au,  3-Au) :   0.1737
B(  2-Au,  5-Au) :   0.2859 B(  2-Au, 12-Cr) :   0.5407 B(  3-Au,  4-Au) :   0.3187
B(  3-Au, 12-Cr) :   0.6952 B(  4-Au,  6-Au) :   0.1312 B(  4-Au,  7-Au) :   0.1174
B(  4-Au,  8-Au) :   0.2801 B(  4-Au, 12-Cr) :   0.6746 B(  5-Au,  6-Au) :   0.4892
B(  5-Au, 12-Cr) :   0.7149 B(  6-Au,  8-Au) :   0.1963 B(  6-Au,  9-Au) :   0.4188
B(  6-Au, 11-Au) :   0.2660 B(  6-Au, 12-Cr) :   0.4381 B(  7-Au,  8-Au) :   0.2821
B(  7-Au, 11-Au) :   0.1309 B(  7-Au, 12-Cr) :   0.6762 B(  8-Au,  9-Au) :   0.2732
B(  8-Au, 11-Au) :   0.1969 B(  8-Au, 12-Cr) :   0.2572 B(  9-Au, 11-Au) :   0.4161
B( 10-Au, 11-Au) :   0.4880 B( 10-Au, 12-Cr) :   0.7158 B( 11-Au, 12-Cr) :   0.4400

FINAL SINGLE POINT ENERGY     -2674.147751354141

DIPOLE MOMENT
-------------
                                X             Y             Z
Electronic contribution:      9.06064      27.85586      -7.27776
Nuclear contribution   :     -8.87833     -27.85715       7.38871
                        -----------------------------------------
Total Dipole Moment    :      0.18231      -0.00129       0.11095
                        -----------------------------------------
Magnitude (a.u.)       :      0.21342
Magnitude (Debye)      :      0.54246

Rotational constants in cm-1:     0.001761     0.001025     0.000952
Rotational constants in MHz :    52.782073    30.737114    28.548189

                             ****ORCA TERMINATED NORMALLY****
TOTAL RUN TIME: 0 days 2 hours 26 minutes 42 seconds 937 msec
