                         Program Version 5.0.3 -  RELEASE  -
|  1> !SC-NEVPT2 def2-TZVP def2-TZVP/C
|  2> !MOREAD RIJCOSX def2/J
|  3> %maxcore 4000
|  4> %moinp "casscf.gbw"
|  5> %pal nprocs 8 end
|  6>
|  7> %casscf
|  8>  mult 5,3
|  9>  bweight 1,1
| 10>  nroots 5,45
| 11>  nel 6
| 12>  norb 5
| 13>  ptsettings
| 14>   d4tpre 1e-14 # default = 1e-10
| 15>   d3tpre 1e-14
| 16>  end
| 17>  rel
| 18>    dosoc true
| 19>    gtensor true
| 20>  end
| 21> end
| 22>
| 23>
| 24> *xyzfile 0 5 pbe.xyz
| 25>
| 26>
| 27>                          ****END OF INPUT****

CARTESIAN COORDINATES (ANGSTROEM)
---------------------------------
  Au     3.567893    8.780388    8.356887
  Au     6.630330    5.734774    8.787202
  Au     6.910355    7.434511   10.801239
  Au     5.043433    9.615704   10.580018
  Au     5.630183   10.914194    8.084902
  Au     5.350559    9.177122    6.021337
  Au     4.575957    6.574178    6.961692
  Au     7.682727   10.049816    9.892699
  Au     7.214710    7.004397    6.271883
  Au     8.079930    9.503655    7.176450
  Fe     6.139903    8.285328    8.447435

 Total Charge           Charge          ....    0
 Multiplicity           Mult            ....    5
 Number of Electrons    NEL             ....  216
 Basis Dimension        Dim             ....  445

ORBITAL ENERGIES
----------------

  NO   OCC          E(Eh)            E(eV)
   0   2.0000    -261.274581     -7109.6428
   1   2.0000     -31.823404      -865.9589
   2   2.0000     -27.312943      -743.2230
   3   2.0000     -27.300515      -742.8848
   4   2.0000     -27.300073      -742.8728
   5   2.0000      -4.722184      -128.4972
   6   2.0000      -4.721835      -128.4877
   7   2.0000      -4.720943      -128.4634
   8   2.0000      -4.720797      -128.4594
   9   2.0000      -4.705086      -128.0319
  10   2.0000      -4.705044      -128.0308
  11   2.0000      -4.704783      -128.0237
  12   2.0000      -4.704748      -128.0227
  13   2.0000      -4.699877      -127.8902
  14   2.0000      -4.699387      -127.8768
  15   2.0000      -4.054840      -110.3378
  16   2.0000      -2.764691       -75.2311
  17   2.0000      -2.761480       -75.1437
  18   2.0000      -2.760697       -75.1224
  19   2.0000      -2.760497       -75.1169
  20   2.0000      -2.759343       -75.0856
  21   2.0000      -2.759025       -75.0769
  22   2.0000      -2.758245       -75.0556
  23   2.0000      -2.757682       -75.0404
  24   2.0000      -2.756468       -75.0073
  25   2.0000      -2.755712       -74.9867
  26   2.0000      -2.755669       -74.9856
  27   2.0000      -2.754980       -74.9668
  28   2.0000      -2.744331       -74.6770
  29   2.0000      -2.744286       -74.6758
  30   2.0000      -2.742559       -74.6288
  31   2.0000      -2.741092       -74.5889
  32   2.0000      -2.741028       -74.5872
  33   2.0000      -2.740727       -74.5790
  34   2.0000      -2.740663       -74.5772
  35   2.0000      -2.739988       -74.5589
  36   2.0000      -2.739872       -74.5557
  37   2.0000      -2.739441       -74.5440
  38   2.0000      -2.739370       -74.5420
  39   2.0000      -2.737257       -74.4845
  40   2.0000      -2.737129       -74.4811
  41   2.0000      -2.736352       -74.4599
  42   2.0000      -2.735534       -74.4377
  43   2.0000      -2.733224       -74.3748
  44   2.0000      -2.732461       -74.3540
  45   2.0000      -2.731677       -74.3327
  46   2.0000      -2.644748       -71.9673
  47   2.0000      -2.636408       -71.7403
  48   2.0000      -2.636101       -71.7320
  49   2.0000      -0.568038       -15.4571
  50   2.0000      -0.553823       -15.0703
  51   2.0000      -0.549525       -14.9533
  52   2.0000      -0.546599       -14.8737
  53   2.0000      -0.543470       -14.7886
  54   2.0000      -0.538540       -14.6544
  55   2.0000      -0.534923       -14.5560
  56   2.0000      -0.534579       -14.5466
  57   2.0000      -0.533811       -14.5257
  58   2.0000      -0.526291       -14.3211
  59   2.0000      -0.524548       -14.2737
  60   2.0000      -0.520578       -14.1657
  61   2.0000      -0.514661       -14.0046
  62   2.0000      -0.513958       -13.9855
  63   2.0000      -0.510651       -13.8955
  64   2.0000      -0.508214       -13.8292
  65   2.0000      -0.506609       -13.7855
  66   2.0000      -0.502586       -13.6761
  67   2.0000      -0.501090       -13.6354
  68   2.0000      -0.499626       -13.5955
  69   2.0000      -0.496217       -13.5028
  70   2.0000      -0.492288       -13.3958
  71   2.0000      -0.489070       -13.3083
  72   2.0000      -0.487992       -13.2790
  73   2.0000      -0.484516       -13.1844
  74   2.0000      -0.480122       -13.0648
  75   2.0000      -0.475025       -12.9261
  76   2.0000      -0.473281       -12.8786
  77   2.0000      -0.467658       -12.7256
  78   2.0000      -0.461785       -12.5658
  79   2.0000      -0.461476       -12.5574
  80   2.0000      -0.459661       -12.5080
  81   2.0000      -0.452069       -12.3014
  82   2.0000      -0.449341       -12.2272
  83   2.0000      -0.447346       -12.1729
  84   2.0000      -0.445511       -12.1230
  85   2.0000      -0.444647       -12.0995
  86   2.0000      -0.443953       -12.0806
  87   2.0000      -0.441914       -12.0251
  88   2.0000      -0.437791       -11.9129
  89   2.0000      -0.435069       -11.8388
  90   2.0000      -0.434796       -11.8314
  91   2.0000      -0.428518       -11.6606
  92   2.0000      -0.427247       -11.6260
  93   2.0000      -0.423458       -11.5229
  94   2.0000      -0.421925       -11.4812
  95   2.0000      -0.421875       -11.4798
  96   2.0000      -0.417615       -11.3639
  97   2.0000      -0.414765       -11.2863
  98   2.0000      -0.409770       -11.1504
  99   2.0000      -0.401429       -10.9235
 100   2.0000      -0.373823       -10.1722
 101   2.0000      -0.334187        -9.0937
 102   2.0000      -0.310041        -8.4367
 103   2.0000      -0.291462        -7.9311
 104   2.0000      -0.210585        -5.7303
 105   1.2000      -0.133657        -3.6370
 106   1.2000      -0.155167        -4.2223
 107   1.2000      -0.159886        -4.3507
 108   1.2000      -0.164057        -4.4642
 109   1.2000      -0.122242        -3.3264
 110   0.0000      -0.039265        -1.0685
 111   0.0000      -0.029355        -0.7988
 112   0.0000       0.002092         0.0569
 113   0.0000       0.004132         0.1124
 114   0.0000       0.044561         1.2126

MULLIKEN ATOMIC CHARGES AND SPIN DENSITIES
------------------------------------------
   0 Au:    0.300344    0.042538
   1 Au:    0.285230    0.004797
   2 Au:    0.278400    0.004944
   3 Au:    0.084189    0.116979
   4 Au:    0.257757    0.021761
   5 Au:    0.253660    0.021821
   6 Au:    0.078766    0.114108
   7 Au:    0.079058    0.114256
   8 Au:    0.083712    0.116546
   9 Au:    0.300049    0.042752
  10 Fe:   -2.001166    2.399498
Sum of atomic charges       :    0.0000000

LOEWDIN ATOMIC CHARGES AND SPIN DENSITIES
-----------------------------------------
   0 Au:    0.120491    0.076561
   1 Au:    0.050995    0.024217
   2 Au:    0.050144    0.024391
   3 Au:    0.033583    0.090869
   4 Au:    0.028889    0.037642
   5 Au:    0.028679    0.037617
   6 Au:    0.033908    0.088751
   7 Au:    0.033807    0.088909
   8 Au:    0.033196    0.090644
   9 Au:    0.120682    0.076755
  10 Fe:   -0.534374    2.363644

  Mayer bond orders larger than 0.100000
B(  0-Au,  3-Au) :   0.2062 B(  0-Au,  4-Au) :   0.1581 B(  0-Au,  5-Au) :   0.1629
B(  0-Au,  6-Au) :   0.1993 B(  0-Au,  9-Au) :   0.1088 B(  0-Au, 10-Fe) :   0.2677
B(  1-Au,  2-Au) :   0.5282 B(  1-Au, 10-Fe) :   0.3989 B(  2-Au, 10-Fe) :   0.4029
B(  3-Au,  4-Au) :   0.1325 B(  3-Au,  7-Au) :   0.2340 B(  3-Au, 10-Fe) :   0.3798
B(  4-Au,  5-Au) :   0.3492 B(  4-Au,  7-Au) :   0.1375 B(  4-Au,  9-Au) :   0.1604
B(  4-Au, 10-Fe) :   0.3710 B(  5-Au,  6-Au) :   0.1344 B(  5-Au,  8-Au) :   0.1313
B(  5-Au,  9-Au) :   0.1586 B(  5-Au, 10-Fe) :   0.3727 B(  6-Au,  8-Au) :   0.2355
B(  6-Au, 10-Fe) :   0.3782 B(  7-Au,  9-Au) :   0.2000 B(  7-Au, 10-Fe) :   0.3778
B(  8-Au,  9-Au) :   0.2073 B(  8-Au, 10-Fe) :   0.3802 B(  9-Au, 10-Fe) :   0.2675

FINAL SINGLE POINT ENERGY     -2615.593043555162

DIPOLE MOMENT
-------------
                                X             Y             Z
Electronic contribution:     -2.83512       7.69038      -6.11777
Nuclear contribution   :      2.70053      -7.33113       5.83336
                        -----------------------------------------
Total Dipole Moment    :     -0.13459       0.35925      -0.28441
                        -----------------------------------------
Magnitude (a.u.)       :      0.47756
Magnitude (Debye)      :      1.21386

Rotational constants in cm-1:     0.002045     0.001763     0.001619
Rotational constants in MHz :    61.304219    52.865788    48.535942

                             ****ORCA TERMINATED NORMALLY****
TOTAL RUN TIME: 0 days 0 hours 26 minutes 6 seconds 994 msec
