                         Program Version 5.0.3 -  RELEASE  -
|  1> !R2SCAN def2-TZVP VERYSLOWCONV
|  2>
|  3> %pal nprocs 16 end
|  4>
|  5> %scf
|  6>   AutoTRAHIter 200
|  7>   maxiter 400
|  8> end
|  9>
| 10> *xyzfile 0 5 pbe.xyz
| 11>
| 12> $new_job
| 13>
| 14> !R2SCAN def2-TZVP VERYSLOWCONV
| 15>
| 16>
| 17> %pal nprocs 16 end
| 18>
| 19> %scf
| 20>   AutoTRAHIter 200
| 21>   maxiter 400
| 22> end
| 23>
| 24> *xyzfile 0 3 pbe.xyz
| 25>
| 26>
| 27>
| 28>
| 29>
| 30>                          ****END OF INPUT****
 Total Charge           Charge          ....    0
 Multiplicity           Mult            ....    5
 Number of Electrons    NEL             ....  292
FINAL SINGLE POINT ENERGY     -3165.575213967561

CARTESIAN COORDINATES (ANGSTROEM)
---------------------------------
  Au     7.080532    5.283059    7.320395
  Au     8.783703    6.165548    5.404195
  Au     7.157217    8.403894    4.721445
  Au     8.841413   10.444020    6.146051
  Au     9.926650    8.501200    4.507662
  Au     9.653123    6.010096    8.097135
  Au    10.588475    8.531537    7.279928
  Au     6.329151    8.505825    9.394353
  Au     8.010635   10.571223    8.752826
  Au     5.324738    7.392601    6.534137
  Au     7.601467    6.040208   10.032880
  Au     5.000152    6.115183    8.957864
  Au     9.234053    8.259889    9.705848
  Au     6.144287   10.012649    6.749460
  Fe     7.940904    8.005388    7.291902

 Multiplicity           Mult            ....    3
 Number of Electrons    NEL             ....  292
 Basis Dimension        Dim             ....  605

ORBITAL ENERGIES
----------------
                 SPIN UP ORBITALS
  NO   OCC          E(Eh)            E(eV)
   0   1.0000    -255.628822     -6956.0139
   1   1.0000     -29.922722      -814.2387
   2   1.0000     -25.761494      -701.0059
   3   1.0000     -25.756929      -700.8817
   4   1.0000     -25.741787      -700.4696
   5   1.0000      -4.124580      -112.2355
   6   1.0000      -4.123819      -112.2148
   7   1.0000      -4.123653      -112.2103
   8   1.0000      -4.123045      -112.1938
   9   1.0000      -4.120315      -112.1195
  10   1.0000      -4.119465      -112.0963
  11   1.0000      -4.119001      -112.0837
  12   1.0000      -4.118689      -112.0752
  13   1.0000      -4.117616      -112.0460
  14   1.0000      -4.116233      -112.0084
  15   1.0000      -4.115937      -112.0003
  16   1.0000      -4.114663      -111.9657
  17   1.0000      -4.111284      -111.8737
  18   1.0000      -4.110857      -111.8621
  19   1.0000      -3.502938       -95.3198
  20   1.0000      -2.313387       -62.9505
  21   1.0000      -2.312557       -62.9279
  22   1.0000      -2.312375       -62.9229
  23   1.0000      -2.311766       -62.9063
  24   1.0000      -2.311135       -62.8892
  25   1.0000      -2.310358       -62.8680
  26   1.0000      -2.309869       -62.8547
  27   1.0000      -2.309473       -62.8440
  28   1.0000      -2.309110       -62.8341
  29   1.0000      -2.308999       -62.8311
  30   1.0000      -2.308664       -62.8219
  31   1.0000      -2.308158       -62.8082
  32   1.0000      -2.307463       -62.7893
  33   1.0000      -2.307039       -62.7777
  34   1.0000      -2.306576       -62.7651
  35   1.0000      -2.306376       -62.7597
  36   1.0000      -2.305619       -62.7391
  37   1.0000      -2.305244       -62.7289
  38   1.0000      -2.304782       -62.7163
  39   1.0000      -2.304360       -62.7048
  40   1.0000      -2.304073       -62.6970
  41   1.0000      -2.303659       -62.6858
  42   1.0000      -2.303458       -62.6803
  43   1.0000      -2.303285       -62.6756
  44   1.0000      -2.303095       -62.6704
  45   1.0000      -2.302877       -62.6645
  46   1.0000      -2.301895       -62.6378
  47   1.0000      -2.301583       -62.6293
  48   1.0000      -2.301398       -62.6242
  49   1.0000      -2.300956       -62.6122
  50   1.0000      -2.300772       -62.6072
  51   1.0000      -2.300576       -62.6019
  52   1.0000      -2.299773       -62.5800
  53   1.0000      -2.299192       -62.5642
  54   1.0000      -2.298012       -62.5321
  55   1.0000      -2.297972       -62.5310
  56   1.0000      -2.297695       -62.5235
  57   1.0000      -2.297224       -62.5106
  58   1.0000      -2.296893       -62.5016
  59   1.0000      -2.296731       -62.4972
  60   1.0000      -2.294628       -62.4400
  61   1.0000      -2.294614       -62.4396
  62   1.0000      -2.285020       -62.1786
  63   1.0000      -2.275722       -61.9255
  64   1.0000      -2.243967       -61.0615
  65   1.0000      -0.439928       -11.9711
  66   1.0000      -0.395226       -10.7546
  67   1.0000      -0.393249       -10.7008
  68   1.0000      -0.389774       -10.6063
  69   1.0000      -0.388684       -10.5766
  70   1.0000      -0.383902       -10.4465
  71   1.0000      -0.379106       -10.3160
  72   1.0000      -0.377259       -10.2657
  73   1.0000      -0.374607       -10.1936
  74   1.0000      -0.372775       -10.1437
  75   1.0000      -0.365497        -9.9457
  76   1.0000      -0.364561        -9.9202
  77   1.0000      -0.361779        -9.8445
  78   1.0000      -0.361282        -9.8310
  79   1.0000      -0.359427        -9.7805
  80   1.0000      -0.357985        -9.7413
  81   1.0000      -0.355946        -9.6858
  82   1.0000      -0.355482        -9.6732
  83   1.0000      -0.351103        -9.5540
  84   1.0000      -0.350166        -9.5285
  85   1.0000      -0.349769        -9.5177
  86   1.0000      -0.345114        -9.3910
  87   1.0000      -0.342768        -9.3272
  88   1.0000      -0.341917        -9.3040
  89   1.0000      -0.339181        -9.2296
  90   1.0000      -0.336435        -9.1549
  91   1.0000      -0.334090        -9.0911
  92   1.0000      -0.331077        -9.0091
  93   1.0000      -0.329225        -8.9587
  94   1.0000      -0.328769        -8.9463
  95   1.0000      -0.325402        -8.8546
  96   1.0000      -0.323533        -8.8038
  97   1.0000      -0.322014        -8.7625
  98   1.0000      -0.320378        -8.7179
  99   1.0000      -0.316290        -8.6067
 100   1.0000      -0.312351        -8.4995
 101   1.0000      -0.309159        -8.4126
 102   1.0000      -0.307647        -8.3715
 103   1.0000      -0.305457        -8.3119
 104   1.0000      -0.299873        -8.1600
 105   1.0000      -0.296936        -8.0800
 106   1.0000      -0.294206        -8.0057
 107   1.0000      -0.292881        -7.9697
 108   1.0000      -0.291492        -7.9319
 109   1.0000      -0.290420        -7.9027
 110   1.0000      -0.287141        -7.8135
 111   1.0000      -0.285240        -7.7618
 112   1.0000      -0.284087        -7.7304
 113   1.0000      -0.282757        -7.6942
 114   1.0000      -0.281386        -7.6569
 115   1.0000      -0.280361        -7.6290
 116   1.0000      -0.277699        -7.5566
 117   1.0000      -0.276658        -7.5282
 118   1.0000      -0.275112        -7.4862
 119   1.0000      -0.273338        -7.4379
 120   1.0000      -0.271552        -7.3893
 121   1.0000      -0.270723        -7.3667
 122   1.0000      -0.268573        -7.3082
 123   1.0000      -0.268093        -7.2952
 124   1.0000      -0.266670        -7.2565
 125   1.0000      -0.265592        -7.2271
 126   1.0000      -0.264650        -7.2015
 127   1.0000      -0.264026        -7.1845
 128   1.0000      -0.263129        -7.1601
 129   1.0000      -0.262058        -7.1310
 130   1.0000      -0.261023        -7.1028
 131   1.0000      -0.259355        -7.0574
 132   1.0000      -0.258722        -7.0402
 133   1.0000      -0.257653        -7.0111
 134   1.0000      -0.256615        -6.9829
 135   1.0000      -0.255316        -6.9475
 136   1.0000      -0.254143        -6.9156
 137   1.0000      -0.252371        -6.8674
 138   1.0000      -0.251914        -6.8549
 139   1.0000      -0.250270        -6.8102
 140   1.0000      -0.249959        -6.8017
 141   1.0000      -0.245780        -6.6880
 142   1.0000      -0.243660        -6.6303
 143   1.0000      -0.236536        -6.4365
 144   1.0000      -0.220999        -6.0137
 145   1.0000      -0.200697        -5.4612
 146   1.0000      -0.199630        -5.4322
 147   0.0000      -0.192460        -5.2371
 148   0.0000      -0.173970        -4.7340
 149   0.0000      -0.139660        -3.8003
 150   0.0000      -0.130600        -3.5538
 151   0.0000      -0.117639        -3.2011

                 SPIN DOWN ORBITALS
  NO   OCC          E(Eh)            E(eV)
   0   1.0000    -255.627898     -6955.9887
   1   1.0000     -29.847275      -812.1856
   2   1.0000     -25.699488      -699.3186
   3   1.0000     -25.696928      -699.2490
   4   1.0000     -25.691178      -699.0925
   5   1.0000      -4.124862      -112.2432
   6   1.0000      -4.124031      -112.2206
   7   1.0000      -4.123725      -112.2122
   8   1.0000      -4.123559      -112.2077
   9   1.0000      -4.120461      -112.1234
  10   1.0000      -4.119937      -112.1092
  11   1.0000      -4.119585      -112.0996
  12   1.0000      -4.119095      -112.0863
  13   1.0000      -4.118602      -112.0729
  14   1.0000      -4.116061      -112.0037
  15   1.0000      -4.116050      -112.0034
  16   1.0000      -4.115838      -111.9976
  17   1.0000      -4.112334      -111.9023
  18   1.0000      -4.112101      -111.8960
  19   1.0000      -3.333898       -90.7200
  20   1.0000      -2.313266       -62.9472
  21   1.0000      -2.313058       -62.9415
  22   1.0000      -2.312296       -62.9208
  23   1.0000      -2.311949       -62.9113
  24   1.0000      -2.311045       -62.8867
  25   1.0000      -2.310627       -62.8753
  26   1.0000      -2.309821       -62.8534
  27   1.0000      -2.309635       -62.8484
  28   1.0000      -2.309361       -62.8409
  29   1.0000      -2.309124       -62.8345
  30   1.0000      -2.308805       -62.8258
  31   1.0000      -2.308117       -62.8071
  32   1.0000      -2.307923       -62.8018
  33   1.0000      -2.307607       -62.7932
  34   1.0000      -2.306971       -62.7759
  35   1.0000      -2.306401       -62.7604
  36   1.0000      -2.306007       -62.7496
  37   1.0000      -2.305673       -62.7405
  38   1.0000      -2.305259       -62.7293
  39   1.0000      -2.305244       -62.7289
  40   1.0000      -2.304330       -62.7040
  41   1.0000      -2.304060       -62.6967
  42   1.0000      -2.303908       -62.6925
  43   1.0000      -2.303659       -62.6857
  44   1.0000      -2.303072       -62.6698
  45   1.0000      -2.302901       -62.6651
  46   1.0000      -2.302171       -62.6453
  47   1.0000      -2.302041       -62.6417
  48   1.0000      -2.301867       -62.6370
  49   1.0000      -2.301676       -62.6318
  50   1.0000      -2.301320       -62.6221
  51   1.0000      -2.301180       -62.6183
  52   1.0000      -2.300850       -62.6093
  53   1.0000      -2.300591       -62.6023
  54   1.0000      -2.298782       -62.5530
  55   1.0000      -2.298723       -62.5514
  56   1.0000      -2.298493       -62.5452
  57   1.0000      -2.298402       -62.5427
  58   1.0000      -2.298280       -62.5394
  59   1.0000      -2.297565       -62.5199
  60   1.0000      -2.295727       -62.4699
  61   1.0000      -2.295493       -62.4636
  62   1.0000      -2.109168       -57.3934
  63   1.0000      -2.104994       -57.2798
  64   1.0000      -2.093030       -56.9542
  65   1.0000      -0.438151       -11.9227
  66   1.0000      -0.396932       -10.8011
  67   1.0000      -0.392634       -10.6841
  68   1.0000      -0.390565       -10.6278
  69   1.0000      -0.382527       -10.4091
  70   1.0000      -0.379131       -10.3167
  71   1.0000      -0.377080       -10.2609
  72   1.0000      -0.375048       -10.2056
  73   1.0000      -0.371803       -10.1173
  74   1.0000      -0.367253        -9.9935
  75   1.0000      -0.365958        -9.9582
  76   1.0000      -0.363630        -9.8949
  77   1.0000      -0.361730        -9.8432
  78   1.0000      -0.361530        -9.8377
  79   1.0000      -0.359252        -9.7757
  80   1.0000      -0.357465        -9.7271
  81   1.0000      -0.356334        -9.6963
  82   1.0000      -0.354955        -9.6588
  83   1.0000      -0.351769        -9.5721
  84   1.0000      -0.350678        -9.5424
  85   1.0000      -0.349829        -9.5193
  86   1.0000      -0.345849        -9.4110
  87   1.0000      -0.343713        -9.3529
  88   1.0000      -0.342569        -9.3218
  89   1.0000      -0.339891        -9.2489
  90   1.0000      -0.337216        -9.1761
  91   1.0000      -0.333699        -9.0804
  92   1.0000      -0.331920        -9.0320
  93   1.0000      -0.326751        -8.8914
  94   1.0000      -0.326438        -8.8828
  95   1.0000      -0.324747        -8.8368
  96   1.0000      -0.320145        -8.7116
  97   1.0000      -0.318081        -8.6554
  98   1.0000      -0.315570        -8.5871
  99   1.0000      -0.309901        -8.4328
 100   1.0000      -0.308006        -8.3813
 101   1.0000      -0.305226        -8.3056
 102   1.0000      -0.301052        -8.1920
 103   1.0000      -0.299664        -8.1543
 104   1.0000      -0.297112        -8.0848
 105   1.0000      -0.295159        -8.0317
 106   1.0000      -0.292937        -7.9712
 107   1.0000      -0.291898        -7.9430
 108   1.0000      -0.291046        -7.9198
 109   1.0000      -0.288842        -7.8598
 110   1.0000      -0.287916        -7.8346
 111   1.0000      -0.284755        -7.7486
 112   1.0000      -0.283856        -7.7241
 113   1.0000      -0.282190        -7.6788
 114   1.0000      -0.281083        -7.6486
 115   1.0000      -0.279879        -7.6159
 116   1.0000      -0.277190        -7.5427
 117   1.0000      -0.276022        -7.5110
 118   1.0000      -0.275603        -7.4995
 119   1.0000      -0.273746        -7.4490
 120   1.0000      -0.270719        -7.3666
 121   1.0000      -0.269685        -7.3385
 122   1.0000      -0.267771        -7.2864
 123   1.0000      -0.266162        -7.2426
 124   1.0000      -0.265803        -7.2329
 125   1.0000      -0.265042        -7.2122
 126   1.0000      -0.263694        -7.1755
 127   1.0000      -0.262659        -7.1473
 128   1.0000      -0.261286        -7.1099
 129   1.0000      -0.259286        -7.0555
 130   1.0000      -0.258747        -7.0409
 131   1.0000      -0.257885        -7.0174
 132   1.0000      -0.257025        -6.9940
 133   1.0000      -0.255877        -6.9628
 134   1.0000      -0.254214        -6.9175
 135   1.0000      -0.253307        -6.8928
 136   1.0000      -0.252213        -6.8631
 137   1.0000      -0.246212        -6.6998
 138   1.0000      -0.238493        -6.4897
 139   1.0000      -0.229589        -6.2474
 140   1.0000      -0.213106        -5.7989
 141   1.0000      -0.210134        -5.7180
 142   1.0000      -0.208385        -5.6704
 143   1.0000      -0.193960        -5.2779
 144   1.0000      -0.177157        -4.8207
 145   0.0000      -0.149002        -4.0546
 146   0.0000      -0.142905        -3.8886
 147   0.0000      -0.140289        -3.8175
 148   0.0000      -0.132916        -3.6168
 149   0.0000      -0.127045        -3.4571

MULLIKEN ATOMIC CHARGES AND SPIN POPULATIONS
--------------------------------------------
   0 Au:    0.048884   -0.044259
   1 Au:    0.118525    0.004053
   2 Au:    0.160377   -0.023529
   3 Au:    0.145482   -0.196110
   4 Au:    0.272950   -0.044303
   5 Au:    0.272053   -0.109025
   6 Au:    0.104518    0.006849
   7 Au:   -0.058736   -0.086376
   8 Au:    0.253108   -0.017551
   9 Au:    0.063540   -0.027422
  10 Au:    0.145184   -0.224557
  11 Au:    0.324111   -0.054629
  12 Au:    0.209849   -0.061891
  13 Au:    0.296236   -0.152423
  14 Fe:   -2.356081    3.031171
Sum of atomic charges         :   -0.0000000

LOEWDIN ATOMIC CHARGES AND SPIN POPULATIONS
-------------------------------------------
   0 Au:   -0.002388   -0.074892
   1 Au:    0.039143   -0.025680
   2 Au:    0.031649   -0.046376
   3 Au:    0.010893   -0.127085
   4 Au:    0.064706   -0.069428
   5 Au:    0.059901   -0.084043
   6 Au:    0.048685   -0.032944
   7 Au:    0.002890   -0.078935
   8 Au:    0.076891   -0.094969
   9 Au:    0.030517   -0.048922
  10 Au:    0.010798   -0.149219
  11 Au:    0.079887   -0.094769
  12 Au:    0.042203   -0.065334
  13 Au:    0.075899   -0.118584
  14 Fe:   -0.571674    3.111181

  Mayer bond orders larger than 0.100000
B(  0-Au,  1-Au) :   0.3455 B(  0-Au,  5-Au) :   0.1778 B(  0-Au,  9-Au) :   0.1762
B(  0-Au, 10-Au) :   0.1761 B(  0-Au, 11-Au) :   0.2905 B(  0-Au, 14-Fe) :   0.3762
B(  1-Au,  2-Au) :   0.1641 B(  1-Au,  4-Au) :   0.2954 B(  1-Au,  5-Au) :   0.1503
B(  1-Au, 14-Fe) :   0.4659 B(  2-Au,  3-Au) :   0.1065 B(  2-Au,  4-Au) :   0.2945
B(  2-Au,  9-Au) :   0.2448 B(  2-Au, 13-Au) :   0.1862 B(  2-Au, 14-Fe) :   0.4277
B(  3-Au,  4-Au) :   0.2766 B(  3-Au,  6-Au) :   0.2331 B(  3-Au,  8-Au) :   0.2851
B(  3-Au, 13-Au) :   0.1801 B(  3-Au, 14-Fe) :   0.3091 B(  4-Au,  6-Au) :   0.2155
B(  4-Au, 14-Fe) :   0.1309 B(  5-Au,  6-Au) :   0.1998 B(  5-Au, 10-Au) :   0.2131
B(  5-Au, 12-Au) :   0.1707 B(  5-Au, 14-Fe) :   0.4745 B(  6-Au, 12-Au) :   0.1777
B(  6-Au, 14-Fe) :   0.4905 B(  7-Au,  8-Au) :   0.3016 B(  7-Au, 10-Au) :   0.2764
B(  7-Au, 11-Au) :   0.3132 B(  7-Au, 12-Au) :   0.1397 B(  7-Au, 13-Au) :   0.1013
B(  7-Au, 14-Fe) :   0.4565 B(  8-Au, 12-Au) :   0.1826 B(  8-Au, 13-Au) :   0.1763
B(  8-Au, 14-Fe) :   0.3686 B(  9-Au, 11-Au) :   0.2867 B(  9-Au, 13-Au) :   0.2349
B(  9-Au, 14-Fe) :   0.4733 B( 10-Au, 11-Au) :   0.2230 B( 10-Au, 12-Au) :   0.2964
B( 10-Au, 14-Fe) :   0.1590 B( 12-Au, 14-Fe) :   0.4635 B( 13-Au, 14-Fe) :   0.4669

FINAL SINGLE POINT ENERGY     -3165.554646468182

DIPOLE MOMENT
-------------
                                X             Y             Z
Electronic contribution:     -4.12705      -4.91127       4.20624
Nuclear contribution   :      4.08258       5.01367      -4.13844
                        -----------------------------------------
Total Dipole Moment    :     -0.04447       0.10240       0.06780
                        -----------------------------------------
Magnitude (a.u.)       :      0.13062
Magnitude (Debye)      :      0.33200

Rotational constants in cm-1:     0.001254     0.000970     0.000958
Rotational constants in MHz :    37.594930    29.086374    28.731432

                             ****ORCA TERMINATED NORMALLY****
TOTAL RUN TIME: 0 days 0 hours 36 minutes 26 seconds 387 msec
