                         Program Version 5.0.3 -  RELEASE  -
|  1> !RI-B2PLYP def2-TZVP def2-TZVP/C
|  2> !RIJCOSX VERYSLOWCONV
|  3>
|  4> %scf
|  5>   AutoTRAHIter 200
|  6>   maxiter 400
|  7> end
|  8>
|  9>
| 10> %pal nprocs 6 end
| 11>
| 12> *xyzfile 0 5 pbe.xyz
| 13>
| 14> $new_job
| 15>
| 16> !RI-B2PLYP def2-TZVP def2-TZVP/C
| 17> !RIJCOSX VERYSLOWCONV
| 18>
| 19> %scf
| 20>   AutoTRAHIter 200
| 21>   maxiter 400
| 22> end
| 23>
| 24>
| 25> %pal nprocs 6 end
| 26>
| 27> *xyzfile 0 3 pbe.xyz
| 28>
| 29>
| 30>
| 31>
| 32>
| 33>                          ****END OF INPUT****
 Total Charge           Charge          ....    0
 Multiplicity           Mult            ....    5
 Number of Electrons    NEL             ....  214
MP2 TOTAL ENERGY:    -2400.127566958 Eh
FINAL SINGLE POINT ENERGY     -2400.127566957907

CARTESIAN COORDINATES (ANGSTROEM)
---------------------------------
  Au     9.346472    5.337908    7.562423
  Au     8.869469    3.321015    9.406400
  Au    10.317889    4.916169   11.258274
  Au     8.721444    8.027830    8.089398
  Au     5.595484    5.372158   10.604199
  Au    10.746670    6.907953    9.464028
  Au     7.660798    4.123381   11.846248
  Au     6.591180    9.417626    7.306687
  Au     6.740068    4.566147    8.135757
  Au     6.009201    7.223286    8.695735
  Cr     8.201290    5.993262    9.974960

 Multiplicity           Mult            ....    3
 Number of Electrons    NEL             ....  214
 Basis Dimension        Dim             ....  445

ORBITAL ENERGIES
----------------
                 SPIN UP ORBITALS
  NO   OCC          E(Eh)            E(eV)
   0   1.0000    -217.784039     -5926.2050
   1   1.0000     -25.471820      -693.1235
   2   1.0000     -21.611011      -588.0655
   3   1.0000     -21.610885      -588.0621
   4   1.0000     -21.605351      -587.9115
   5   1.0000      -4.402628      -119.8016
   6   1.0000      -4.402432      -119.7963
   7   1.0000      -4.399219      -119.7088
   8   1.0000      -4.399064      -119.7046
   9   1.0000      -4.398606      -119.6922
  10   1.0000      -4.398459      -119.6882
  11   1.0000      -4.397778      -119.6696
  12   1.0000      -4.397713      -119.6679
  13   1.0000      -4.394746      -119.5871
  14   1.0000      -4.367598      -118.8484
  15   1.0000      -3.258393       -88.6654
  16   1.0000      -2.524863       -68.7050
  17   1.0000      -2.523241       -68.6609
  18   1.0000      -2.522982       -68.6538
  19   1.0000      -2.521399       -68.6107
  20   1.0000      -2.520462       -68.5852
  21   1.0000      -2.520250       -68.5795
  22   1.0000      -2.519416       -68.5568
  23   1.0000      -2.519122       -68.5488
  24   1.0000      -2.518923       -68.5434
  25   1.0000      -2.518516       -68.5323
  26   1.0000      -2.517312       -68.4996
  27   1.0000      -2.517244       -68.4977
  28   1.0000      -2.516465       -68.4765
  29   1.0000      -2.515541       -68.4514
  30   1.0000      -2.515329       -68.4456
  31   1.0000      -2.514331       -68.4184
  32   1.0000      -2.514207       -68.4150
  33   1.0000      -2.513439       -68.3942
  34   1.0000      -2.513164       -68.3867
  35   1.0000      -2.512794       -68.3766
  36   1.0000      -2.512045       -68.3562
  37   1.0000      -2.511669       -68.3460
  38   1.0000      -2.511397       -68.3386
  39   1.0000      -2.511166       -68.3323
  40   1.0000      -2.510515       -68.3146
  41   1.0000      -2.510009       -68.3008
  42   1.0000      -2.509340       -68.2826
  43   1.0000      -2.487226       -67.6809
  44   1.0000      -2.484363       -67.6029
  45   1.0000      -2.479812       -67.4791
  46   1.0000      -2.152806       -58.5808
  47   1.0000      -2.137028       -58.1515
  48   1.0000      -2.135577       -58.1120
  49   1.0000      -0.495331       -13.4786
  50   1.0000      -0.488619       -13.2960
  51   1.0000      -0.479801       -13.0560
  52   1.0000      -0.473885       -12.8951
  53   1.0000      -0.470548       -12.8043
  54   1.0000      -0.467127       -12.7112
  55   1.0000      -0.464810       -12.6481
  56   1.0000      -0.451794       -12.2939
  57   1.0000      -0.444121       -12.0851
  58   1.0000      -0.440870       -11.9967
  59   1.0000      -0.438297       -11.9267
  60   1.0000      -0.437533       -11.9059
  61   1.0000      -0.435900       -11.8614
  62   1.0000      -0.434981       -11.8364
  63   1.0000      -0.430308       -11.7093
  64   1.0000      -0.428027       -11.6472
  65   1.0000      -0.426872       -11.6158
  66   1.0000      -0.424420       -11.5491
  67   1.0000      -0.420788       -11.4502
  68   1.0000      -0.415054       -11.2942
  69   1.0000      -0.414273       -11.2729
  70   1.0000      -0.411176       -11.1887
  71   1.0000      -0.410065       -11.1584
  72   1.0000      -0.403395       -10.9769
  73   1.0000      -0.400126       -10.8880
  74   1.0000      -0.397235       -10.8093
  75   1.0000      -0.392486       -10.6801
  76   1.0000      -0.389260       -10.5923
  77   1.0000      -0.386579       -10.5194
  78   1.0000      -0.383279       -10.4295
  79   1.0000      -0.381180       -10.3724
  80   1.0000      -0.378686       -10.3046
  81   1.0000      -0.378637       -10.3032
  82   1.0000      -0.375090       -10.2067
  83   1.0000      -0.372977       -10.1492
  84   1.0000      -0.370706       -10.0874
  85   1.0000      -0.367986       -10.0134
  86   1.0000      -0.366515        -9.9734
  87   1.0000      -0.361887        -9.8475
  88   1.0000      -0.361066        -9.8251
  89   1.0000      -0.360714        -9.8155
  90   1.0000      -0.359351        -9.7784
  91   1.0000      -0.356732        -9.7072
  92   1.0000      -0.353781        -9.6269
  93   1.0000      -0.351922        -9.5763
  94   1.0000      -0.350573        -9.5396
  95   1.0000      -0.347243        -9.4490
  96   1.0000      -0.346675        -9.4335
  97   1.0000      -0.344511        -9.3746
  98   1.0000      -0.342946        -9.3320
  99   1.0000      -0.338706        -9.2167
 100   1.0000      -0.336501        -9.1567
 101   1.0000      -0.329664        -8.9706
 102   1.0000      -0.320049        -8.7090
 103   1.0000      -0.315636        -8.5889
 104   1.0000      -0.307643        -8.3714
 105   1.0000      -0.297751        -8.1022
 106   1.0000      -0.253123        -6.8878
 107   1.0000      -0.233386        -6.3508
 108   0.0000      -0.132619        -3.6087
 109   0.0000      -0.078553        -2.1375
 110   0.0000      -0.078086        -2.1248
 111   0.0000      -0.069095        -1.8802
 112   0.0000      -0.052697        -1.4340

                 SPIN DOWN ORBITALS
  NO   OCC          E(Eh)            E(eV)
   0   1.0000    -217.782725     -5926.1692
   1   1.0000     -25.402773      -691.2446
   2   1.0000     -21.553640      -586.5044
   3   1.0000     -21.553235      -586.4933
   4   1.0000     -21.528883      -585.8307
   5   1.0000      -4.402238      -119.7910
   6   1.0000      -4.402050      -119.7859
   7   1.0000      -4.399976      -119.7294
   8   1.0000      -4.399883      -119.7269
   9   1.0000      -4.399821      -119.7252
  10   1.0000      -4.399739      -119.7230
  11   1.0000      -4.398859      -119.6990
  12   1.0000      -4.398819      -119.6979
  13   1.0000      -4.395561      -119.6093
  14   1.0000      -4.369443      -118.8986
  15   1.0000      -3.049460       -82.9800
  16   1.0000      -2.524005       -68.6817
  17   1.0000      -2.523556       -68.6694
  18   1.0000      -2.523411       -68.6655
  19   1.0000      -2.520924       -68.5978
  20   1.0000      -2.520692       -68.5915
  21   1.0000      -2.520575       -68.5883
  22   1.0000      -2.519820       -68.5678
  23   1.0000      -2.519421       -68.5569
  24   1.0000      -2.519231       -68.5517
  25   1.0000      -2.518914       -68.5431
  26   1.0000      -2.517582       -68.5069
  27   1.0000      -2.517219       -68.4970
  28   1.0000      -2.517193       -68.4963
  29   1.0000      -2.516449       -68.4761
  30   1.0000      -2.515825       -68.4591
  31   1.0000      -2.514636       -68.4267
  32   1.0000      -2.514277       -68.4170
  33   1.0000      -2.513494       -68.3956
  34   1.0000      -2.513433       -68.3940
  35   1.0000      -2.512749       -68.3754
  36   1.0000      -2.512317       -68.3636
  37   1.0000      -2.512149       -68.3590
  38   1.0000      -2.512086       -68.3573
  39   1.0000      -2.510986       -68.3274
  40   1.0000      -2.510879       -68.3245
  41   1.0000      -2.510730       -68.3204
  42   1.0000      -2.510547       -68.3155
  43   1.0000      -2.490008       -67.7566
  44   1.0000      -2.486381       -67.6579
  45   1.0000      -2.480670       -67.5025
  46   1.0000      -1.921573       -52.2887
  47   1.0000      -1.920771       -52.2668
  48   1.0000      -1.863044       -50.6960
  49   1.0000      -0.491319       -13.3695
  50   1.0000      -0.475679       -12.9439
  51   1.0000      -0.474976       -12.9248
  52   1.0000      -0.468055       -12.7364
  53   1.0000      -0.460185       -12.5223
  54   1.0000      -0.455285       -12.3889
  55   1.0000      -0.451294       -12.2803
  56   1.0000      -0.449464       -12.2305
  57   1.0000      -0.444867       -12.1055
  58   1.0000      -0.444068       -12.0837
  59   1.0000      -0.440722       -11.9927
  60   1.0000      -0.437542       -11.9061
  61   1.0000      -0.434049       -11.8111
  62   1.0000      -0.431762       -11.7489
  63   1.0000      -0.428933       -11.6719
  64   1.0000      -0.428504       -11.6602
  65   1.0000      -0.426005       -11.5922
  66   1.0000      -0.420438       -11.4407
  67   1.0000      -0.416775       -11.3410
  68   1.0000      -0.414005       -11.2656
  69   1.0000      -0.410703       -11.1758
  70   1.0000      -0.406770       -11.0688
  71   1.0000      -0.400183       -10.8895
  72   1.0000      -0.399111       -10.8604
  73   1.0000      -0.392151       -10.6710
  74   1.0000      -0.391057       -10.6412
  75   1.0000      -0.389151       -10.5893
  76   1.0000      -0.388242       -10.5646
  77   1.0000      -0.385672       -10.4947
  78   1.0000      -0.380563       -10.3556
  79   1.0000      -0.380446       -10.3525
  80   1.0000      -0.379534       -10.3277
  81   1.0000      -0.376179       -10.2364
  82   1.0000      -0.373851       -10.1730
  83   1.0000      -0.371399       -10.1063
  84   1.0000      -0.370280       -10.0758
  85   1.0000      -0.368304       -10.0221
  86   1.0000      -0.367598       -10.0028
  87   1.0000      -0.361332        -9.8323
  88   1.0000      -0.359468        -9.7816
  89   1.0000      -0.356849        -9.7103
  90   1.0000      -0.352401        -9.5893
  91   1.0000      -0.350974        -9.5505
  92   1.0000      -0.349883        -9.5208
  93   1.0000      -0.347721        -9.4620
  94   1.0000      -0.345816        -9.4101
  95   1.0000      -0.341453        -9.2914
  96   1.0000      -0.341187        -9.2842
  97   1.0000      -0.334064        -9.0903
  98   1.0000      -0.323956        -8.8153
  99   1.0000      -0.318980        -8.6799
 100   1.0000      -0.318546        -8.6681
 101   1.0000      -0.312158        -8.4943
 102   1.0000      -0.272723        -7.4212
 103   1.0000      -0.249920        -6.8007
 104   1.0000      -0.227117        -6.1802
 105   1.0000      -0.167384        -4.5548
 106   0.0000      -0.088998        -2.4218
 107   0.0000      -0.084943        -2.3114
 108   0.0000      -0.057596        -1.5673
 109   0.0000      -0.042690        -1.1617
 110   0.0000      -0.031518        -0.8577

MULLIKEN ATOMIC CHARGES AND SPIN POPULATIONS
--------------------------------------------
   0 Au:    0.188663   -0.000797
   1 Au:    0.084860   -0.148234
   2 Au:    0.347461   -0.247036
   3 Au:   -0.108706   -0.011283
   4 Au:    0.351672   -0.215076
   5 Au:    0.353867   -0.212237
   6 Au:    0.346948   -0.248250
   7 Au:    0.317049   -0.241106
   8 Au:    0.186925   -0.001697
   9 Au:   -0.109383   -0.010283
  10 Cr:   -1.959356    3.335999
Sum of atomic charges         :   -0.0000000

LOEWDIN ATOMIC CHARGES AND SPIN POPULATIONS
-------------------------------------------
   0 Au:    0.071712   -0.052734
   1 Au:    0.025754   -0.106795
   2 Au:    0.083882   -0.228673
   3 Au:   -0.045295   -0.079194
   4 Au:    0.098509   -0.192035
   5 Au:    0.099244   -0.190410
   6 Au:    0.083863   -0.228352
   7 Au:    0.069762   -0.175974
   8 Au:    0.072230   -0.052735
   9 Au:   -0.045418   -0.080170
  10 Cr:   -0.514244    3.387071

  Mayer bond orders larger than 0.100000
B(  0-Au,  1-Au) :   0.3055 B(  0-Au,  3-Au) :   0.2269 B(  0-Au,  5-Au) :   0.1247
B(  0-Au,  8-Au) :   0.3511 B(  0-Au, 10-Cr) :   0.4012 B(  1-Au,  2-Au) :   0.1657
B(  1-Au,  6-Au) :   0.1663 B(  1-Au,  8-Au) :   0.3034 B(  1-Au, 10-Cr) :   0.3552
B(  2-Au,  5-Au) :   0.2183 B(  2-Au,  6-Au) :   0.2407 B(  2-Au, 10-Cr) :   0.6228
B(  3-Au,  5-Au) :   0.2831 B(  3-Au,  7-Au) :   0.5229 B(  3-Au,  9-Au) :   0.3188
B(  3-Au, 10-Cr) :   0.5174 B(  4-Au,  6-Au) :   0.2189 B(  4-Au,  8-Au) :   0.1230
B(  4-Au,  9-Au) :   0.2842 B(  4-Au, 10-Cr) :   0.6161 B(  5-Au, 10-Cr) :   0.6141
B(  6-Au, 10-Cr) :   0.6214 B(  7-Au,  9-Au) :   0.5250 B(  8-Au,  9-Au) :   0.2263
B(  8-Au, 10-Cr) :   0.4041 B(  9-Au, 10-Cr) :   0.5158

MP2 TOTAL ENERGY:    -2400.067606864 Eh
FINAL SINGLE POINT ENERGY     -2400.067606863774

DIPOLE MOMENT
-------------
                                X             Y             Z
Electronic contribution:     -4.76507      -2.98585     -25.64306
Nuclear contribution   :      4.94295       2.51354      25.79589
                        -----------------------------------------
Total Dipole Moment    :      0.17789      -0.47231       0.15283
                        -----------------------------------------
Magnitude (a.u.)       :      0.52733
Magnitude (Debye)      :      1.34037

Rotational constants in cm-1:     0.002208     0.001491     0.001173
Rotational constants in MHz :    66.180446    44.700447    35.173789

                             ****ORCA TERMINATED NORMALLY****
TOTAL RUN TIME: 0 days 0 hours 19 minutes 36 seconds 107 msec
