                         Program Version 5.0.3 -  RELEASE  -
|  1> !PBE def2-TZVP VERYSLOWCONV
|  2>
|  3> %scf
|  4>   AutoTRAHIter 200
|  5>   maxiter 400
|  6> end
|  7>
|  8>
|  9> %pal nprocs 6 end
| 10>
| 11> *xyzfile 0 5 pbe.xyz
| 12>
| 13> $new_job
| 14>
| 15> !PBE def2-TZVP VERYSLOWCONV
| 16>
| 17> %scf
| 18>   AutoTRAHIter 200
| 19>   maxiter 400
| 20> end
| 21>
| 22>
| 23> %pal nprocs 6 end
| 24>
| 25> *xyzfile 0 3 pbe.xyz
| 26>
| 27>
| 28>
| 29>
| 30>
| 31>                          ****END OF INPUT****
 Total Charge           Charge          ....    0
 Multiplicity           Mult            ....    5
 Number of Electrons    NEL             ....  214
FINAL SINGLE POINT ENERGY     -2402.498198444642

CARTESIAN COORDINATES (ANGSTROEM)
---------------------------------
  Au     9.346472    5.337908    7.562423
  Au     8.869469    3.321015    9.406400
  Au    10.317889    4.916169   11.258274
  Au     8.721444    8.027830    8.089398
  Au     5.595484    5.372158   10.604199
  Au    10.746670    6.907953    9.464028
  Au     7.660798    4.123381   11.846248
  Au     6.591180    9.417626    7.306687
  Au     6.740068    4.566147    8.135757
  Au     6.009201    7.223286    8.695735
  Cr     8.201290    5.993262    9.974960

 Multiplicity           Mult            ....    3
 Number of Electrons    NEL             ....  214
 Basis Dimension        Dim             ....  445

ORBITAL ENERGIES
----------------
                 SPIN UP ORBITALS
  NO   OCC          E(Eh)            E(eV)
   0   1.0000    -214.503665     -5836.9415
   1   1.0000     -24.301383      -661.2743
   2   1.0000     -20.668511      -562.4188
   3   1.0000     -20.666103      -562.3532
   4   1.0000     -20.661309      -562.2228
   5   1.0000      -4.027309      -109.5886
   6   1.0000      -4.027216      -109.5861
   7   1.0000      -4.025718      -109.5454
   8   1.0000      -4.025715      -109.5453
   9   1.0000      -4.025238      -109.5323
  10   1.0000      -4.025089      -109.5282
  11   1.0000      -4.020809      -109.4118
  12   1.0000      -4.018160      -109.3397
  13   1.0000      -4.018037      -109.3364
  14   1.0000      -4.002791      -108.9215
  15   1.0000      -2.798664       -76.1555
  16   1.0000      -2.246664       -61.1348
  17   1.0000      -2.246205       -61.1224
  18   1.0000      -2.242658       -61.0258
  19   1.0000      -2.241804       -61.0026
  20   1.0000      -2.241732       -61.0006
  21   1.0000      -2.240165       -60.9580
  22   1.0000      -2.239697       -60.9453
  23   1.0000      -2.239523       -60.9405
  24   1.0000      -2.239266       -60.9335
  25   1.0000      -2.239049       -60.9276
  26   1.0000      -2.238834       -60.9218
  27   1.0000      -2.238007       -60.8993
  28   1.0000      -2.236919       -60.8697
  29   1.0000      -2.235808       -60.8394
  30   1.0000      -2.235272       -60.8249
  31   1.0000      -2.235154       -60.8216
  32   1.0000      -2.234619       -60.8071
  33   1.0000      -2.234599       -60.8065
  34   1.0000      -2.233986       -60.7899
  35   1.0000      -2.233856       -60.7863
  36   1.0000      -2.233683       -60.7816
  37   1.0000      -2.233249       -60.7698
  38   1.0000      -2.231562       -60.7239
  39   1.0000      -2.231121       -60.7119
  40   1.0000      -2.229869       -60.6778
  41   1.0000      -2.227071       -60.6017
  42   1.0000      -2.226591       -60.5886
  43   1.0000      -2.220946       -60.4350
  44   1.0000      -2.216710       -60.3197
  45   1.0000      -2.208791       -60.1043
  46   1.0000      -1.790727       -48.7282
  47   1.0000      -1.789762       -48.7019
  48   1.0000      -1.783793       -48.5395
  49   1.0000      -0.410229       -11.1629
  50   1.0000      -0.379868       -10.3367
  51   1.0000      -0.378190       -10.2911
  52   1.0000      -0.365547        -9.9470
  53   1.0000      -0.360209        -9.8018
  54   1.0000      -0.353442        -9.6176
  55   1.0000      -0.348844        -9.4925
  56   1.0000      -0.347086        -9.4447
  57   1.0000      -0.339267        -9.2319
  58   1.0000      -0.338452        -9.2097
  59   1.0000      -0.333843        -9.0843
  60   1.0000      -0.331858        -9.0303
  61   1.0000      -0.330335        -8.9889
  62   1.0000      -0.325197        -8.8491
  63   1.0000      -0.325131        -8.8473
  64   1.0000      -0.321313        -8.7434
  65   1.0000      -0.321223        -8.7409
  66   1.0000      -0.315266        -8.5788
  67   1.0000      -0.314291        -8.5523
  68   1.0000      -0.309258        -8.4153
  69   1.0000      -0.306736        -8.3467
  70   1.0000      -0.303810        -8.2671
  71   1.0000      -0.300281        -8.1711
  72   1.0000      -0.299019        -8.1367
  73   1.0000      -0.296490        -8.0679
  74   1.0000      -0.294241        -8.0067
  75   1.0000      -0.292552        -7.9608
  76   1.0000      -0.289356        -7.8738
  77   1.0000      -0.285570        -7.7708
  78   1.0000      -0.281167        -7.6509
  79   1.0000      -0.279000        -7.5920
  80   1.0000      -0.276760        -7.5310
  81   1.0000      -0.275888        -7.5073
  82   1.0000      -0.273157        -7.4330
  83   1.0000      -0.272841        -7.4244
  84   1.0000      -0.271633        -7.3915
  85   1.0000      -0.267773        -7.2865
  86   1.0000      -0.265618        -7.2278
  87   1.0000      -0.262754        -7.1499
  88   1.0000      -0.260070        -7.0769
  89   1.0000      -0.259215        -7.0536
  90   1.0000      -0.255570        -6.9544
  91   1.0000      -0.253064        -6.8862
  92   1.0000      -0.250981        -6.8295
  93   1.0000      -0.249757        -6.7962
  94   1.0000      -0.248864        -6.7719
  95   1.0000      -0.247676        -6.7396
  96   1.0000      -0.247137        -6.7249
  97   1.0000      -0.246426        -6.7056
  98   1.0000      -0.243603        -6.6288
  99   1.0000      -0.242239        -6.5917
 100   1.0000      -0.234617        -6.3842
 101   1.0000      -0.228907        -6.2289
 102   1.0000      -0.228686        -6.2229
 103   1.0000      -0.223058        -6.0697
 104   1.0000      -0.217040        -5.9060
 105   1.0000      -0.210620        -5.7313
 106   1.0000      -0.207103        -5.6356
 107   1.0000      -0.195816        -5.3284
 108   0.0000      -0.184204        -5.0124
 109   0.0000      -0.170196        -4.6313
 110   0.0000      -0.143526        -3.9055
 111   0.0000      -0.141912        -3.8616
 112   0.0000      -0.135276        -3.6811

                 SPIN DOWN ORBITALS
  NO   OCC          E(Eh)            E(eV)
   0   1.0000    -214.503291     -5836.9313
   1   1.0000     -24.260355      -660.1578
   2   1.0000     -20.641571      -561.6857
   3   1.0000     -20.638460      -561.6010
   4   1.0000     -20.621841      -561.1488
   5   1.0000      -4.028269      -109.6148
   6   1.0000      -4.028176      -109.6122
   7   1.0000      -4.026108      -109.5560
   8   1.0000      -4.026108      -109.5560
   9   1.0000      -4.024656      -109.5165
  10   1.0000      -4.024506      -109.5124
  11   1.0000      -4.020469      -109.4025
  12   1.0000      -4.018176      -109.3401
  13   1.0000      -4.018052      -109.3367
  14   1.0000      -4.004105      -108.9572
  15   1.0000      -2.688238       -73.1507
  16   1.0000      -2.248160       -61.1755
  17   1.0000      -2.247625       -61.1610
  18   1.0000      -2.242346       -61.0173
  19   1.0000      -2.242267       -61.0152
  20   1.0000      -2.241798       -61.0024
  21   1.0000      -2.241215       -60.9866
  22   1.0000      -2.240080       -60.9557
  23   1.0000      -2.239850       -60.9494
  24   1.0000      -2.239113       -60.9293
  25   1.0000      -2.239053       -60.9277
  26   1.0000      -2.238874       -60.9229
  27   1.0000      -2.238384       -60.9095
  28   1.0000      -2.236384       -60.8551
  29   1.0000      -2.235764       -60.8382
  30   1.0000      -2.235349       -60.8269
  31   1.0000      -2.235192       -60.8227
  32   1.0000      -2.234627       -60.8073
  33   1.0000      -2.234207       -60.7959
  34   1.0000      -2.233943       -60.7887
  35   1.0000      -2.233567       -60.7785
  36   1.0000      -2.233441       -60.7750
  37   1.0000      -2.233098       -60.7657
  38   1.0000      -2.231574       -60.7242
  39   1.0000      -2.231241       -60.7152
  40   1.0000      -2.230025       -60.6821
  41   1.0000      -2.226948       -60.5983
  42   1.0000      -2.226525       -60.5868
  43   1.0000      -2.222823       -60.4861
  44   1.0000      -2.218211       -60.3606
  45   1.0000      -2.209695       -60.1289
  46   1.0000      -1.697111       -46.1807
  47   1.0000      -1.690046       -45.9885
  48   1.0000      -1.649962       -44.8978
  49   1.0000      -0.406608       -11.0644
  50   1.0000      -0.380176       -10.3451
  51   1.0000      -0.378468       -10.2986
  52   1.0000      -0.363002        -9.8778
  53   1.0000      -0.359794        -9.7905
  54   1.0000      -0.349588        -9.5128
  55   1.0000      -0.349133        -9.5004
  56   1.0000      -0.345916        -9.4128
  57   1.0000      -0.339159        -9.2290
  58   1.0000      -0.339088        -9.2271
  59   1.0000      -0.334947        -9.1144
  60   1.0000      -0.332218        -9.0401
  61   1.0000      -0.330204        -8.9853
  62   1.0000      -0.325510        -8.8576
  63   1.0000      -0.324465        -8.8291
  64   1.0000      -0.320870        -8.7313
  65   1.0000      -0.319936        -8.7059
  66   1.0000      -0.315649        -8.5893
  67   1.0000      -0.314907        -8.5691
  68   1.0000      -0.309012        -8.4086
  69   1.0000      -0.306026        -8.3274
  70   1.0000      -0.303491        -8.2584
  71   1.0000      -0.300801        -8.1852
  72   1.0000      -0.297623        -8.0987
  73   1.0000      -0.295441        -8.0394
  74   1.0000      -0.294331        -8.0092
  75   1.0000      -0.292339        -7.9550
  76   1.0000      -0.288240        -7.8434
  77   1.0000      -0.286381        -7.7928
  78   1.0000      -0.281608        -7.6629
  79   1.0000      -0.278768        -7.5857
  80   1.0000      -0.276846        -7.5334
  81   1.0000      -0.276764        -7.5311
  82   1.0000      -0.274760        -7.4766
  83   1.0000      -0.273759        -7.4494
  84   1.0000      -0.271871        -7.3980
  85   1.0000      -0.268407        -7.3037
  86   1.0000      -0.266685        -7.2569
  87   1.0000      -0.264363        -7.1937
  88   1.0000      -0.261856        -7.1255
  89   1.0000      -0.259678        -7.0662
  90   1.0000      -0.256257        -6.9731
  91   1.0000      -0.253616        -6.9013
  92   1.0000      -0.251527        -6.8444
  93   1.0000      -0.251294        -6.8381
  94   1.0000      -0.250168        -6.8074
  95   1.0000      -0.249581        -6.7915
  96   1.0000      -0.248430        -6.7601
  97   1.0000      -0.247366        -6.7312
  98   1.0000      -0.244884        -6.6636
  99   1.0000      -0.243900        -6.6369
 100   1.0000      -0.237350        -6.4586
 101   1.0000      -0.229157        -6.2357
 102   1.0000      -0.227945        -6.2027
 103   1.0000      -0.219964        -5.9855
 104   1.0000      -0.199547        -5.4300
 105   1.0000      -0.161906        -4.4057
 106   0.0000      -0.156368        -4.2550
 107   0.0000      -0.148360        -4.0371
 108   0.0000      -0.128895        -3.5074
 109   0.0000      -0.118567        -3.2264
 110   0.0000      -0.112779        -3.0689

MULLIKEN ATOMIC CHARGES AND SPIN POPULATIONS
--------------------------------------------
   0 Au:    0.170525    0.014675
   1 Au:    0.146227   -0.107681
   2 Au:    0.347420   -0.117911
   3 Au:   -0.035404   -0.106038
   4 Au:    0.393266   -0.085572
   5 Au:    0.393404   -0.084476
   6 Au:    0.346702   -0.118496
   7 Au:    0.310915   -0.293876
   8 Au:    0.169606    0.014186
   9 Au:   -0.035826   -0.105323
  10 Cr:   -2.206835    2.990512
Sum of atomic charges         :   -0.0000000

LOEWDIN ATOMIC CHARGES AND SPIN POPULATIONS
-------------------------------------------
   0 Au:    0.085498   -0.013460
   1 Au:    0.056163   -0.066025
   2 Au:    0.099710   -0.105321
   3 Au:   -0.000280   -0.106352
   4 Au:    0.130826   -0.093571
   5 Au:    0.131012   -0.092971
   6 Au:    0.099759   -0.105594
   7 Au:    0.076904   -0.261050
   8 Au:    0.085866   -0.013307
   9 Au:   -0.000165   -0.106377
  10 Cr:   -0.765295    2.964029

  Mayer bond orders larger than 0.100000
B(  0-Au,  1-Au) :   0.3151 B(  0-Au,  3-Au) :   0.2577 B(  0-Au,  5-Au) :   0.1630
B(  0-Au,  8-Au) :   0.3636 B(  0-Au, 10-Cr) :   0.4607 B(  1-Au,  2-Au) :   0.2065
B(  1-Au,  6-Au) :   0.2080 B(  1-Au,  8-Au) :   0.3141 B(  1-Au, 10-Cr) :   0.4557
B(  2-Au,  5-Au) :   0.2637 B(  2-Au,  6-Au) :   0.2274 B(  2-Au, 10-Cr) :   0.7271
B(  3-Au,  5-Au) :   0.3329 B(  3-Au,  7-Au) :   0.5086 B(  3-Au,  9-Au) :   0.2379
B(  3-Au, 10-Cr) :   0.6056 B(  4-Au,  6-Au) :   0.2641 B(  4-Au,  8-Au) :   0.1615
B(  4-Au,  9-Au) :   0.3344 B(  4-Au, 10-Cr) :   0.7258 B(  5-Au, 10-Cr) :   0.7244
B(  6-Au, 10-Cr) :   0.7250 B(  7-Au,  9-Au) :   0.5096 B(  7-Au, 10-Cr) :   0.1116
B(  8-Au,  9-Au) :   0.2569 B(  8-Au, 10-Cr) :   0.4630 B(  9-Au, 10-Cr) :   0.6055

FINAL SINGLE POINT ENERGY     -2402.465497379670

DIPOLE MOMENT
-------------
                                X             Y             Z
Electronic contribution:     -4.85545      -2.79841     -25.78641
Nuclear contribution   :      4.94295       2.51354      25.79589
                        -----------------------------------------
Total Dipole Moment    :      0.08751      -0.28487       0.00948
                        -----------------------------------------
Magnitude (a.u.)       :      0.29816
Magnitude (Debye)      :      0.75785

Rotational constants in cm-1:     0.002208     0.001491     0.001173
Rotational constants in MHz :    66.180446    44.700447    35.173789

                             ****ORCA TERMINATED NORMALLY****
TOTAL RUN TIME: 0 days 0 hours 16 minutes 5 seconds 460 msec
