                         Program Version 5.0.3 -  RELEASE  -
|  1> !R2SCAN def2-TZVP VERYSLOWCONV
|  2> !KDIIS
|  3> %scf
|  4>   AutoTRAHIter 200
|  5>   maxiter 400
|  6> end
|  7>
|  8> %pal nprocs 6 end
|  9>
| 10> *xyzfile 0 5 pbe.xyz
| 11>
| 12> $new_job
| 13>
| 14> !R2SCAN def2-TZVP VERYSLOWCONV
| 15> !KDIIS
| 16> %scf
| 17>   AutoTRAHIter 200
| 18>   maxiter 400
| 19> end
| 20>
| 21>
| 22> %pal nprocs 6 end
| 23>
| 24> *xyzfile 0 3 pbe.xyz
| 25>
| 26>
| 27>
| 28>
| 29>
| 30>                          ****END OF INPUT****
 Total Charge           Charge          ....    0
 Multiplicity           Mult            ....    5
 Number of Electrons    NEL             ....  214
FINAL SINGLE POINT ENERGY     -2402.891929814532

CARTESIAN COORDINATES (ANGSTROEM)
---------------------------------
  Au     9.346472    5.337908    7.562423
  Au     8.869469    3.321015    9.406400
  Au    10.317889    4.916169   11.258274
  Au     8.721444    8.027830    8.089398
  Au     5.595484    5.372158   10.604199
  Au    10.746670    6.907953    9.464028
  Au     7.660798    4.123381   11.846248
  Au     6.591180    9.417626    7.306687
  Au     6.740068    4.566147    8.135757
  Au     6.009201    7.223286    8.695735
  Cr     8.201290    5.993262    9.974960

 Multiplicity           Mult            ....    3
 Number of Electrons    NEL             ....  214
 Basis Dimension        Dim             ....  445

ORBITAL ENERGIES
----------------
                 SPIN UP ORBITALS
  NO   OCC          E(Eh)            E(eV)
   0   1.0000    -215.301213     -5858.6439
   1   1.0000     -24.601179      -669.4321
   2   1.0000     -20.871155      -567.9330
   3   1.0000     -20.867527      -567.8343
   4   1.0000     -20.863403      -567.7221
   5   1.0000      -4.119092      -112.0862
   6   1.0000      -4.118914      -112.0813
   7   1.0000      -4.117413      -112.0405
   8   1.0000      -4.117036      -112.0302
   9   1.0000      -4.116596      -112.0183
  10   1.0000      -4.116284      -112.0098
  11   1.0000      -4.112357      -111.9029
  12   1.0000      -4.108517      -111.7984
  13   1.0000      -4.108356      -111.7940
  14   1.0000      -4.094176      -111.4082
  15   1.0000      -2.919461       -79.4426
  16   1.0000      -2.310943       -62.8839
  17   1.0000      -2.310425       -62.8699
  18   1.0000      -2.306893       -62.7738
  19   1.0000      -2.306025       -62.7501
  20   1.0000      -2.305630       -62.7394
  21   1.0000      -2.304841       -62.7179
  22   1.0000      -2.303815       -62.6900
  23   1.0000      -2.303722       -62.6875
  24   1.0000      -2.303428       -62.6795
  25   1.0000      -2.303363       -62.6777
  26   1.0000      -2.303030       -62.6686
  27   1.0000      -2.302470       -62.6534
  28   1.0000      -2.301388       -62.6240
  29   1.0000      -2.299892       -62.5832
  30   1.0000      -2.299554       -62.5740
  31   1.0000      -2.299516       -62.5730
  32   1.0000      -2.299093       -62.5615
  33   1.0000      -2.298783       -62.5531
  34   1.0000      -2.298241       -62.5383
  35   1.0000      -2.297886       -62.5287
  36   1.0000      -2.297199       -62.5100
  37   1.0000      -2.297022       -62.5051
  38   1.0000      -2.295855       -62.4734
  39   1.0000      -2.294446       -62.4350
  40   1.0000      -2.293139       -62.3995
  41   1.0000      -2.290545       -62.3289
  42   1.0000      -2.290010       -62.3144
  43   1.0000      -2.284577       -62.1665
  44   1.0000      -2.280766       -62.0628
  45   1.0000      -2.273413       -61.8627
  46   1.0000      -1.867990       -50.8306
  47   1.0000      -1.866916       -50.8014
  48   1.0000      -1.863109       -50.6978
  49   1.0000      -0.416620       -11.3368
  50   1.0000      -0.388368       -10.5680
  51   1.0000      -0.385850       -10.4995
  52   1.0000      -0.374906       -10.2017
  53   1.0000      -0.368342       -10.0231
  54   1.0000      -0.363223        -9.8838
  55   1.0000      -0.358234        -9.7480
  56   1.0000      -0.356426        -9.6988
  57   1.0000      -0.348798        -9.4913
  58   1.0000      -0.347784        -9.4637
  59   1.0000      -0.343047        -9.3348
  60   1.0000      -0.341518        -9.2932
  61   1.0000      -0.339651        -9.2424
  62   1.0000      -0.334847        -9.1117
  63   1.0000      -0.334758        -9.1092
  64   1.0000      -0.330997        -9.0069
  65   1.0000      -0.330453        -8.9921
  66   1.0000      -0.324210        -8.8222
  67   1.0000      -0.323724        -8.8090
  68   1.0000      -0.318786        -8.6746
  69   1.0000      -0.316135        -8.6025
  70   1.0000      -0.313338        -8.5263
  71   1.0000      -0.308880        -8.4051
  72   1.0000      -0.307798        -8.3756
  73   1.0000      -0.306120        -8.3300
  74   1.0000      -0.302856        -8.2411
  75   1.0000      -0.301887        -8.2148
  76   1.0000      -0.298448        -8.1212
  77   1.0000      -0.294037        -8.0011
  78   1.0000      -0.289733        -7.8840
  79   1.0000      -0.288202        -7.8424
  80   1.0000      -0.285492        -7.7686
  81   1.0000      -0.284589        -7.7441
  82   1.0000      -0.282123        -7.6770
  83   1.0000      -0.281124        -7.6498
  84   1.0000      -0.280660        -7.6372
  85   1.0000      -0.276169        -7.5150
  86   1.0000      -0.274278        -7.4635
  87   1.0000      -0.270303        -7.3553
  88   1.0000      -0.267915        -7.2903
  89   1.0000      -0.267798        -7.2871
  90   1.0000      -0.263647        -7.1742
  91   1.0000      -0.261301        -7.1104
  92   1.0000      -0.259109        -7.0507
  93   1.0000      -0.257388        -7.0039
  94   1.0000      -0.256291        -6.9740
  95   1.0000      -0.255277        -6.9464
  96   1.0000      -0.254837        -6.9345
  97   1.0000      -0.254400        -6.9226
  98   1.0000      -0.251007        -6.8303
  99   1.0000      -0.247345        -6.7306
 100   1.0000      -0.241383        -6.5684
 101   1.0000      -0.235687        -6.4134
 102   1.0000      -0.234472        -6.3803
 103   1.0000      -0.231741        -6.3060
 104   1.0000      -0.226392        -6.1604
 105   1.0000      -0.223796        -6.0898
 106   1.0000      -0.219781        -5.9806
 107   1.0000      -0.205765        -5.5992
 108   0.0000      -0.186677        -5.0797
 109   0.0000      -0.170822        -4.6483
 110   0.0000      -0.140719        -3.8292
 111   0.0000      -0.136040        -3.7018
 112   0.0000      -0.129928        -3.5355

                 SPIN DOWN ORBITALS
  NO   OCC          E(Eh)            E(eV)
   0   1.0000    -215.300652     -5858.6286
   1   1.0000     -24.540386      -667.7779
   2   1.0000     -20.829444      -566.7980
   3   1.0000     -20.822721      -566.6151
   4   1.0000     -20.809535      -566.2562
   5   1.0000      -4.120247      -112.1176
   6   1.0000      -4.120065      -112.1127
   7   1.0000      -4.118321      -112.0652
   8   1.0000      -4.117986      -112.0561
   9   1.0000      -4.116027      -112.0028
  10   1.0000      -4.115755      -111.9954
  11   1.0000      -4.112589      -111.9092
  12   1.0000      -4.108648      -111.8020
  13   1.0000      -4.108482      -111.7975
  14   1.0000      -4.096193      -111.4631
  15   1.0000      -2.760850       -75.1266
  16   1.0000      -2.312832       -62.9354
  17   1.0000      -2.312222       -62.9188
  18   1.0000      -2.307151       -62.7808
  19   1.0000      -2.306794       -62.7711
  20   1.0000      -2.306059       -62.7511
  21   1.0000      -2.305782       -62.7435
  22   1.0000      -2.304600       -62.7114
  23   1.0000      -2.304284       -62.7027
  24   1.0000      -2.303632       -62.6850
  25   1.0000      -2.303231       -62.6741
  26   1.0000      -2.303048       -62.6691
  27   1.0000      -2.302559       -62.6558
  28   1.0000      -2.300979       -62.6128
  29   1.0000      -2.300082       -62.5884
  30   1.0000      -2.299758       -62.5796
  31   1.0000      -2.299618       -62.5758
  32   1.0000      -2.299119       -62.5622
  33   1.0000      -2.298687       -62.5505
  34   1.0000      -2.298116       -62.5349
  35   1.0000      -2.297820       -62.5269
  36   1.0000      -2.297216       -62.5104
  37   1.0000      -2.297076       -62.5066
  38   1.0000      -2.296019       -62.4779
  39   1.0000      -2.294306       -62.4312
  40   1.0000      -2.293061       -62.3973
  41   1.0000      -2.290395       -62.3248
  42   1.0000      -2.289876       -62.3107
  43   1.0000      -2.287447       -62.2446
  44   1.0000      -2.282784       -62.1177
  45   1.0000      -2.274571       -61.8942
  46   1.0000      -1.726798       -46.9886
  47   1.0000      -1.712512       -46.5998
  48   1.0000      -1.682560       -45.7848
  49   1.0000      -0.413517       -11.2524
  50   1.0000      -0.389342       -10.5945
  51   1.0000      -0.387219       -10.5368
  52   1.0000      -0.372431       -10.1344
  53   1.0000      -0.368497       -10.0273
  54   1.0000      -0.359098        -9.7715
  55   1.0000      -0.358469        -9.7544
  56   1.0000      -0.354464        -9.6455
  57   1.0000      -0.349370        -9.5068
  58   1.0000      -0.349185        -9.5018
  59   1.0000      -0.345115        -9.3911
  60   1.0000      -0.342462        -9.3189
  61   1.0000      -0.339778        -9.2458
  62   1.0000      -0.335711        -9.1352
  63   1.0000      -0.334403        -9.0996
  64   1.0000      -0.331265        -9.0142
  65   1.0000      -0.329916        -8.9775
  66   1.0000      -0.325646        -8.8613
  67   1.0000      -0.324719        -8.8360
  68   1.0000      -0.318685        -8.6719
  69   1.0000      -0.315474        -8.5845
  70   1.0000      -0.313481        -8.5302
  71   1.0000      -0.310543        -8.4503
  72   1.0000      -0.306461        -8.3392
  73   1.0000      -0.304925        -8.2974
  74   1.0000      -0.303914        -8.2699
  75   1.0000      -0.301758        -8.2113
  76   1.0000      -0.296870        -8.0782
  77   1.0000      -0.295429        -8.0390
  78   1.0000      -0.291282        -7.9262
  79   1.0000      -0.288138        -7.8406
  80   1.0000      -0.285929        -7.7805
  81   1.0000      -0.285889        -7.7794
  82   1.0000      -0.284331        -7.7371
  83   1.0000      -0.283397        -7.7116
  84   1.0000      -0.281197        -7.6517
  85   1.0000      -0.277821        -7.5599
  86   1.0000      -0.275963        -7.5093
  87   1.0000      -0.272818        -7.4237
  88   1.0000      -0.270560        -7.3623
  89   1.0000      -0.268518        -7.3067
  90   1.0000      -0.265173        -7.2157
  91   1.0000      -0.262255        -7.1363
  92   1.0000      -0.260122        -7.0783
  93   1.0000      -0.260081        -7.0772
  94   1.0000      -0.258790        -7.0420
  95   1.0000      -0.258412        -7.0317
  96   1.0000      -0.257068        -6.9952
  97   1.0000      -0.255852        -6.9621
  98   1.0000      -0.253036        -6.8855
  99   1.0000      -0.250963        -6.8291
 100   1.0000      -0.245335        -6.6759
 101   1.0000      -0.236436        -6.4338
 102   1.0000      -0.232927        -6.3383
 103   1.0000      -0.223741        -6.0883
 104   1.0000      -0.201626        -5.4865
 105   1.0000      -0.158246        -4.3061
 106   0.0000      -0.153076        -4.1654
 107   0.0000      -0.145088        -3.9481
 108   0.0000      -0.106672        -2.9027
 109   0.0000      -0.106390        -2.8950
 110   0.0000      -0.104044        -2.8312

MULLIKEN ATOMIC CHARGES AND SPIN POPULATIONS
--------------------------------------------
   0 Au:    0.174975    0.015622
   1 Au:    0.127824   -0.188911
   2 Au:    0.321827   -0.178823
   3 Au:   -0.041194   -0.088823
   4 Au:    0.340499   -0.199129
   5 Au:    0.346305   -0.182240
   6 Au:    0.321068   -0.178827
   7 Au:    0.290684   -0.376266
   8 Au:    0.168619    0.009039
   9 Au:   -0.034473   -0.088418
  10 Cr:   -2.016133    3.456778
Sum of atomic charges         :   -0.0000000

LOEWDIN ATOMIC CHARGES AND SPIN POPULATIONS
-------------------------------------------
   0 Au:    0.083268   -0.033039
   1 Au:    0.051881   -0.121984
   2 Au:    0.091703   -0.158260
   3 Au:    0.000422   -0.117746
   4 Au:    0.117919   -0.169703
   5 Au:    0.120801   -0.160353
   6 Au:    0.092117   -0.157902
   7 Au:    0.069337   -0.303254
   8 Au:    0.083815   -0.034002
   9 Au:   -0.000610   -0.121482
  10 Cr:   -0.710653    3.377725

  Mayer bond orders larger than 0.100000
B(  0-Au,  1-Au) :   0.3039 B(  0-Au,  3-Au) :   0.2464 B(  0-Au,  5-Au) :   0.1527
B(  0-Au,  8-Au) :   0.3668 B(  0-Au, 10-Cr) :   0.4258 B(  1-Au,  2-Au) :   0.1765
B(  1-Au,  6-Au) :   0.1787 B(  1-Au,  8-Au) :   0.2889 B(  1-Au, 10-Cr) :   0.4295
B(  2-Au,  5-Au) :   0.2439 B(  2-Au,  6-Au) :   0.2307 B(  2-Au, 10-Cr) :   0.7018
B(  3-Au,  5-Au) :   0.3175 B(  3-Au,  7-Au) :   0.4773 B(  3-Au,  9-Au) :   0.2278
B(  3-Au, 10-Cr) :   0.5898 B(  4-Au,  6-Au) :   0.2428 B(  4-Au,  8-Au) :   0.1416
B(  4-Au,  9-Au) :   0.3214 B(  4-Au, 10-Cr) :   0.7018 B(  5-Au, 10-Cr) :   0.6944
B(  6-Au, 10-Cr) :   0.7004 B(  7-Au,  9-Au) :   0.4838 B(  8-Au,  9-Au) :   0.2501
B(  8-Au, 10-Cr) :   0.4381 B(  9-Au, 10-Cr) :   0.5818

FINAL SINGLE POINT ENERGY     -2402.852924223630

DIPOLE MOMENT
-------------
                                X             Y             Z
Electronic contribution:     -4.84908      -2.78549     -25.82303
Nuclear contribution   :      4.94295       2.51354      25.79589
                        -----------------------------------------
Total Dipole Moment    :      0.09387      -0.27195      -0.02713
                        -----------------------------------------
Magnitude (a.u.)       :      0.28897
Magnitude (Debye)      :      0.73451

Rotational constants in cm-1:     0.002208     0.001491     0.001173
Rotational constants in MHz :    66.180446    44.700447    35.173789

                             ****ORCA TERMINATED NORMALLY****
TOTAL RUN TIME: 0 days 0 hours 6 minutes 29 seconds 114 msec
