                         Program Version 5.0.3 -  RELEASE  -
|  1> %pal nprocs 1 end
|  2>
|  3> !PBE def2-TZVP OPT UNO
|  4> !SLOWCONV KDIIS
|  5>
|  6> %geom maxiter 300 end
|  7>
|  8> *xyzfile 0 3 5.xyz                           ****END OF INPUT****
 Total Charge           Charge          ....    0
 Multiplicity           Mult            ....    3
 Number of Electrons    NEL             ....  328
FINAL SINGLE POINT ENERGY     -3217.475101300798
FINAL SINGLE POINT ENERGY     -3217.477774406471
FINAL SINGLE POINT ENERGY     -3217.478391972357
FINAL SINGLE POINT ENERGY     -3217.478646645498
FINAL SINGLE POINT ENERGY     -3217.478884791248
FINAL SINGLE POINT ENERGY     -3217.479049356076
FINAL SINGLE POINT ENERGY     -3217.479168343410
FINAL SINGLE POINT ENERGY     -3217.479315575265
FINAL SINGLE POINT ENERGY     -3217.479402912624
FINAL SINGLE POINT ENERGY     -3217.479460075678
FINAL SINGLE POINT ENERGY     -3217.479514343670
FINAL SINGLE POINT ENERGY     -3217.479561978465
FINAL SINGLE POINT ENERGY     -3217.479592165585
FINAL SINGLE POINT ENERGY     -3217.479606659459
FINAL SINGLE POINT ENERGY     -3217.479613884443
FINAL SINGLE POINT ENERGY     -3217.479617587237
                    ***********************HURRAY********************

CARTESIAN COORDINATES (ANGSTROEM)
---------------------------------
  Au     9.796898    8.275430   10.346947
  Au    10.018345    6.002777    8.757944
  Au     7.310273    9.502772   10.141337
  Au     5.262915    5.487197    8.547052
  Au     7.480229    6.732565    9.714829
  Au     5.144164    8.301494    8.903928
  Au    11.097653    8.403125    7.873384
  Au     9.465279   10.520299    8.713260
  Au     7.833197    4.815303    7.538404
  Au     9.483880    9.737256    6.046784
  Au     9.357228    6.927450    6.182528
  Au     7.221646    5.680316    4.901455
  Au     7.308379    8.523364    4.834273
  Au     4.512267    5.972377    5.796691
  Au     4.796129    8.814475    6.130623
  Au     7.017658    9.951537    7.377466
  Cr     6.638738    7.144431    7.020043

 Multiplicity           Mult            ....    3
 Number of Electrons    NEL             ....  328
 Basis Dimension        Dim             ....  685

ORBITAL ENERGIES
----------------
                 SPIN UP ORBITALS
  NO   OCC          E(Eh)            E(eV)
   0   1.0000    -214.505429     -5836.9895
   1   1.0000     -24.307318      -661.4357
   2   1.0000     -20.673542      -562.5557
   3   1.0000     -20.673526      -562.5552
   4   1.0000     -20.665364      -562.3331
   5   1.0000      -4.036622      -109.8421
   6   1.0000      -4.036517      -109.8392
   7   1.0000      -4.036371      -109.8352
   8   1.0000      -4.033917      -109.7685
   9   1.0000      -4.033752      -109.7640
  10   1.0000      -4.033507      -109.7573
  11   1.0000      -4.031123      -109.6924
  12   1.0000      -4.030889      -109.6861
  13   1.0000      -4.030381      -109.6722
  14   1.0000      -4.022620      -109.4610
  15   1.0000      -4.022612      -109.4608
  16   1.0000      -4.022588      -109.4602
  17   1.0000      -4.016637      -109.2983
  18   1.0000      -4.016350      -109.2904
  19   1.0000      -4.015898      -109.2781
  20   1.0000      -4.011288      -109.1527
  21   1.0000      -2.807423       -76.3939
  22   1.0000      -2.252630       -61.2972
  23   1.0000      -2.252500       -61.2936
  24   1.0000      -2.252350       -61.2896
  25   1.0000      -2.250427       -61.2372
  26   1.0000      -2.250131       -61.2292
  27   1.0000      -2.249610       -61.2150
  28   1.0000      -2.249247       -61.2051
  29   1.0000      -2.249122       -61.2017
  30   1.0000      -2.248884       -61.1953
  31   1.0000      -2.248057       -61.1727
  32   1.0000      -2.247832       -61.1666
  33   1.0000      -2.247597       -61.1602
  34   1.0000      -2.247191       -61.1492
  35   1.0000      -2.246953       -61.1427
  36   1.0000      -2.246921       -61.1418
  37   1.0000      -2.246081       -61.1190
  38   1.0000      -2.246029       -61.1176
  39   1.0000      -2.245971       -61.1160
  40   1.0000      -2.243765       -61.0559
  41   1.0000      -2.243585       -61.0511
  42   1.0000      -2.243326       -61.0440
  43   1.0000      -2.241794       -61.0023
  44   1.0000      -2.241507       -60.9945
  45   1.0000      -2.241191       -60.9859
  46   1.0000      -2.240989       -60.9804
  47   1.0000      -2.240869       -60.9771
  48   1.0000      -2.240579       -60.9693
  49   1.0000      -2.238049       -60.9004
  50   1.0000      -2.237994       -60.8989
  51   1.0000      -2.237482       -60.8850
  52   1.0000      -2.235987       -60.8443
  53   1.0000      -2.235900       -60.8419
  54   1.0000      -2.235883       -60.8415
  55   1.0000      -2.233672       -60.7813
  56   1.0000      -2.233637       -60.7804
  57   1.0000      -2.233397       -60.7738
  58   1.0000      -2.231683       -60.7272
  59   1.0000      -2.231503       -60.7223
  60   1.0000      -2.231375       -60.7188
  61   1.0000      -2.230599       -60.6977
  62   1.0000      -2.229276       -60.6617
  63   1.0000      -2.228830       -60.6496
  64   1.0000      -2.227058       -60.6013
  65   1.0000      -2.226627       -60.5896
  66   1.0000      -2.225039       -60.5464
  67   1.0000      -2.224638       -60.5355
  68   1.0000      -2.222646       -60.4813
  69   1.0000      -2.222339       -60.4729
  70   1.0000      -1.800962       -49.0067
  71   1.0000      -1.800924       -49.0056
  72   1.0000      -1.788868       -48.6776
  73   1.0000      -0.428498       -11.6600
  74   1.0000      -0.389767       -10.6061
  75   1.0000      -0.389493       -10.5986
  76   1.0000      -0.386513       -10.5175
  77   1.0000      -0.372991       -10.1496
  78   1.0000      -0.372949       -10.1484
  79   1.0000      -0.365533        -9.9466
  80   1.0000      -0.361783        -9.8446
  81   1.0000      -0.361610        -9.8399
  82   1.0000      -0.361286        -9.8311
  83   1.0000      -0.356774        -9.7083
  84   1.0000      -0.356706        -9.7065
  85   1.0000      -0.354883        -9.6569
  86   1.0000      -0.352722        -9.5981
  87   1.0000      -0.352501        -9.5920
  88   1.0000      -0.351209        -9.5569
  89   1.0000      -0.351172        -9.5559
  90   1.0000      -0.351044        -9.5524
  91   1.0000      -0.347701        -9.4614
  92   1.0000      -0.341572        -9.2946
  93   1.0000      -0.341555        -9.2942
  94   1.0000      -0.337900        -9.1947
  95   1.0000      -0.337220        -9.1762
  96   1.0000      -0.337045        -9.1715
  97   1.0000      -0.336890        -9.1672
  98   1.0000      -0.330012        -8.9801
  99   1.0000      -0.328462        -8.9379
 100   1.0000      -0.328450        -8.9376
 101   1.0000      -0.326229        -8.8771
 102   1.0000      -0.321846        -8.7579
 103   1.0000      -0.320932        -8.7330
 104   1.0000      -0.319030        -8.6812
 105   1.0000      -0.318777        -8.6744
 106   1.0000      -0.318305        -8.6615
 107   1.0000      -0.311446        -8.4749
 108   1.0000      -0.311144        -8.4667
 109   1.0000      -0.307719        -8.3735
 110   1.0000      -0.305394        -8.3102
 111   1.0000      -0.304890        -8.2965
 112   1.0000      -0.304242        -8.2788
 113   1.0000      -0.302598        -8.2341
 114   1.0000      -0.301614        -8.2073
 115   1.0000      -0.301336        -8.1998
 116   1.0000      -0.294957        -8.0262
 117   1.0000      -0.293622        -7.9899
 118   1.0000      -0.293251        -7.9798
 119   1.0000      -0.289332        -7.8731
 120   1.0000      -0.289300        -7.8723
 121   1.0000      -0.288160        -7.8412
 122   1.0000      -0.286373        -7.7926
 123   1.0000      -0.286091        -7.7849
 124   1.0000      -0.282847        -7.6967
 125   1.0000      -0.276585        -7.5262
 126   1.0000      -0.275717        -7.5026
 127   1.0000      -0.275620        -7.5000
 128   1.0000      -0.275481        -7.4962
 129   1.0000      -0.271762        -7.3950
 130   1.0000      -0.270763        -7.3678
 131   1.0000      -0.270549        -7.3620
 132   1.0000      -0.266534        -7.2528
 133   1.0000      -0.266464        -7.2508
 134   1.0000      -0.261832        -7.1248
 135   1.0000      -0.260444        -7.0870
 136   1.0000      -0.259758        -7.0684
 137   1.0000      -0.259743        -7.0680
 138   1.0000      -0.257483        -7.0065
 139   1.0000      -0.256680        -6.9846
 140   1.0000      -0.256534        -6.9806
 141   1.0000      -0.254740        -6.9318
 142   1.0000      -0.254636        -6.9290
 143   1.0000      -0.253371        -6.8946
 144   1.0000      -0.252704        -6.8764
 145   1.0000      -0.251118        -6.8333
 146   1.0000      -0.251015        -6.8305
 147   1.0000      -0.249370        -6.7857
 148   1.0000      -0.249263        -6.7828
 149   1.0000      -0.243320        -6.6211
 150   1.0000      -0.243268        -6.6197
 151   1.0000      -0.242509        -6.5990
 152   1.0000      -0.242321        -6.5939
 153   1.0000      -0.240695        -6.5496
 154   1.0000      -0.238476        -6.4893
 155   1.0000      -0.238429        -6.4880
 156   1.0000      -0.235265        -6.4019
 157   1.0000      -0.226581        -6.1656
 158   1.0000      -0.220655        -6.0043
 159   1.0000      -0.220597        -6.0027
 160   1.0000      -0.217427        -5.9165
 161   1.0000      -0.217385        -5.9153
 162   1.0000      -0.203669        -5.5421
 163   1.0000      -0.203568        -5.5394
 164   1.0000      -0.199036        -5.4161
 165   0.0000      -0.185178        -5.0390
 166   0.0000      -0.185055        -5.0356
 167   0.0000      -0.150510        -4.0956
 168   0.0000      -0.140781        -3.8309
 169   0.0000      -0.140692        -3.8284

                 SPIN DOWN ORBITALS
  NO   OCC          E(Eh)            E(eV)
   0   1.0000    -214.505015     -5836.9782
   1   1.0000     -24.263047      -660.2311
   2   1.0000     -20.641737      -561.6902
   3   1.0000     -20.641711      -561.6895
   4   1.0000     -20.627493      -561.3026
   5   1.0000      -4.036611      -109.8418
   6   1.0000      -4.036514      -109.8391
   7   1.0000      -4.036386      -109.8356
   8   1.0000      -4.033449      -109.7557
   9   1.0000      -4.033314      -109.7521
  10   1.0000      -4.033117      -109.7467
  11   1.0000      -4.030963      -109.6881
  12   1.0000      -4.030745      -109.6822
  13   1.0000      -4.030255      -109.6688
  14   1.0000      -4.023369      -109.4814
  15   1.0000      -4.023361      -109.4812
  16   1.0000      -4.023337      -109.4806
  17   1.0000      -4.017046      -109.3094
  18   1.0000      -4.016764      -109.3017
  19   1.0000      -4.016326      -109.2898
  20   1.0000      -4.010516      -109.1317
  21   1.0000      -2.688276       -73.1517
  22   1.0000      -2.252104       -61.2829
  23   1.0000      -2.251985       -61.2796
  24   1.0000      -2.251851       -61.2760
  25   1.0000      -2.249933       -61.2238
  26   1.0000      -2.249692       -61.2172
  27   1.0000      -2.249593       -61.2145
  28   1.0000      -2.249510       -61.2123
  29   1.0000      -2.249374       -61.2086
  30   1.0000      -2.248901       -61.1957
  31   1.0000      -2.248110       -61.1742
  32   1.0000      -2.247346       -61.1534
  33   1.0000      -2.247231       -61.1503
  34   1.0000      -2.246904       -61.1414
  35   1.0000      -2.246832       -61.1394
  36   1.0000      -2.246566       -61.1322
  37   1.0000      -2.246131       -61.1203
  38   1.0000      -2.245968       -61.1159
  39   1.0000      -2.245938       -61.1151
  40   1.0000      -2.242848       -61.0310
  41   1.0000      -2.242697       -61.0269
  42   1.0000      -2.242485       -61.0211
  43   1.0000      -2.241908       -61.0054
  44   1.0000      -2.241651       -60.9984
  45   1.0000      -2.241192       -60.9859
  46   1.0000      -2.241062       -60.9824
  47   1.0000      -2.240999       -60.9807
  48   1.0000      -2.240611       -60.9701
  49   1.0000      -2.238682       -60.9176
  50   1.0000      -2.238638       -60.9164
  51   1.0000      -2.238185       -60.9041
  52   1.0000      -2.236856       -60.8679
  53   1.0000      -2.236789       -60.8661
  54   1.0000      -2.236779       -60.8658
  55   1.0000      -2.234357       -60.7999
  56   1.0000      -2.234332       -60.7993
  57   1.0000      -2.234127       -60.7937
  58   1.0000      -2.232236       -60.7422
  59   1.0000      -2.232002       -60.7359
  60   1.0000      -2.231824       -60.7310
  61   1.0000      -2.230816       -60.7036
  62   1.0000      -2.229951       -60.6800
  63   1.0000      -2.229563       -60.6695
  64   1.0000      -2.226993       -60.5996
  65   1.0000      -2.225616       -60.5621
  66   1.0000      -2.225423       -60.5568
  67   1.0000      -2.225037       -60.5463
  68   1.0000      -2.222043       -60.4649
  69   1.0000      -2.221747       -60.4568
  70   1.0000      -1.690090       -45.9897
  71   1.0000      -1.690014       -45.9876
  72   1.0000      -1.658351       -45.1260
  73   1.0000      -0.423519       -11.5245
  74   1.0000      -0.389327       -10.5941
  75   1.0000      -0.389077       -10.5873
  76   1.0000      -0.384582       -10.4650
  77   1.0000      -0.369654       -10.0588
  78   1.0000      -0.369610       -10.0576
  79   1.0000      -0.365862        -9.9556
  80   1.0000      -0.362006        -9.8507
  81   1.0000      -0.361796        -9.8450
  82   1.0000      -0.360731        -9.8160
  83   1.0000      -0.356164        -9.6917
  84   1.0000      -0.356107        -9.6902
  85   1.0000      -0.355664        -9.6781
  86   1.0000      -0.352465        -9.5911
  87   1.0000      -0.352233        -9.5847
  88   1.0000      -0.350388        -9.5346
  89   1.0000      -0.348872        -9.4933
  90   1.0000      -0.348759        -9.4902
  91   1.0000      -0.346241        -9.4217
  92   1.0000      -0.340640        -9.2693
  93   1.0000      -0.340625        -9.2689
  94   1.0000      -0.338595        -9.2136
  95   1.0000      -0.338195        -9.2028
  96   1.0000      -0.336635        -9.1603
  97   1.0000      -0.336525        -9.1573
  98   1.0000      -0.330948        -9.0055
  99   1.0000      -0.329239        -8.9591
 100   1.0000      -0.329219        -8.9585
 101   1.0000      -0.326884        -8.8950
 102   1.0000      -0.321652        -8.7526
 103   1.0000      -0.320836        -8.7304
 104   1.0000      -0.319534        -8.6950
 105   1.0000      -0.319239        -8.6869
 106   1.0000      -0.318742        -8.6734
 107   1.0000      -0.311331        -8.4717
 108   1.0000      -0.310921        -8.4606
 109   1.0000      -0.308570        -8.3966
 110   1.0000      -0.304899        -8.2967
 111   1.0000      -0.304137        -8.2760
 112   1.0000      -0.303775        -8.2661
 113   1.0000      -0.301124        -8.1940
 114   1.0000      -0.300912        -8.1882
 115   1.0000      -0.300836        -8.1862
 116   1.0000      -0.293834        -7.9956
 117   1.0000      -0.293548        -7.9879
 118   1.0000      -0.293340        -7.9822
 119   1.0000      -0.288870        -7.8606
 120   1.0000      -0.288292        -7.8448
 121   1.0000      -0.288117        -7.8401
 122   1.0000      -0.285716        -7.7747
 123   1.0000      -0.285442        -7.7673
 124   1.0000      -0.283438        -7.7127
 125   1.0000      -0.277401        -7.5485
 126   1.0000      -0.276400        -7.5212
 127   1.0000      -0.276259        -7.5174
 128   1.0000      -0.275836        -7.5059
 129   1.0000      -0.271659        -7.3922
 130   1.0000      -0.271080        -7.3765
 131   1.0000      -0.270854        -7.3703
 132   1.0000      -0.267080        -7.2676
 133   1.0000      -0.267008        -7.2656
 134   1.0000      -0.262417        -7.1407
 135   1.0000      -0.261179        -7.1070
 136   1.0000      -0.260739        -7.0951
 137   1.0000      -0.260702        -7.0941
 138   1.0000      -0.258888        -7.0447
 139   1.0000      -0.257181        -6.9983
 140   1.0000      -0.257101        -6.9961
 141   1.0000      -0.255618        -6.9557
 142   1.0000      -0.255514        -6.9529
 143   1.0000      -0.253970        -6.9109
 144   1.0000      -0.253365        -6.8944
 145   1.0000      -0.251925        -6.8552
 146   1.0000      -0.251801        -6.8519
 147   1.0000      -0.250336        -6.8120
 148   1.0000      -0.250232        -6.8091
 149   1.0000      -0.244368        -6.6496
 150   1.0000      -0.244253        -6.6465
 151   1.0000      -0.243105        -6.6152
 152   1.0000      -0.242951        -6.6110
 153   1.0000      -0.241920        -6.5830
 154   1.0000      -0.239477        -6.5165
 155   1.0000      -0.239422        -6.5150
 156   1.0000      -0.236037        -6.4229
 157   1.0000      -0.226531        -6.1642
 158   1.0000      -0.218921        -5.9571
 159   1.0000      -0.218865        -5.9556
 160   1.0000      -0.204922        -5.5762
 161   1.0000      -0.204712        -5.5705
 162   1.0000      -0.163926        -4.4607
 163   0.0000      -0.154258        -4.1976
 164   0.0000      -0.154226        -4.1967
 165   0.0000      -0.142790        -3.8855
 166   0.0000      -0.142621        -3.8809
 167   0.0000      -0.138766        -3.7760

MULLIKEN ATOMIC CHARGES AND SPIN POPULATIONS
--------------------------------------------
   0 Au:    0.209242   -0.075553
   1 Au:    0.169965   -0.080505
   2 Au:    0.170230   -0.078981
   3 Au:    0.513145    0.007416
   4 Au:   -0.210088   -0.053544
   5 Au:    0.539478   -0.038487
   6 Au:    0.213987   -0.056650
   7 Au:    0.212663   -0.062960
   8 Au:    0.539571   -0.038605
   9 Au:    0.168348   -0.083264
  10 Au:   -0.209505   -0.049814
  11 Au:    0.513384    0.012446
  12 Au:    0.539391   -0.039169
  13 Au:    0.381441   -0.192591
  14 Au:    0.513243    0.010689
  15 Au:   -0.209143   -0.051284
  16 Cr:   -4.055352    2.870855
Sum of atomic charges         :    0.0000000

LOEWDIN ATOMIC CHARGES AND SPIN POPULATIONS
-------------------------------------------
   0 Au:   -0.004335   -0.080806
   1 Au:    0.049008   -0.087952
   2 Au:    0.048861   -0.088124
   3 Au:    0.160234   -0.053881
   4 Au:    0.016054   -0.043425
   5 Au:    0.121709   -0.075541
   6 Au:   -0.002341   -0.070902
   7 Au:   -0.002974   -0.074215
   8 Au:    0.122200   -0.075374
   9 Au:    0.048978   -0.087664
  10 Au:    0.016405   -0.040273
  11 Au:    0.158838   -0.052814
  12 Au:    0.122381   -0.075229
  13 Au:    0.120087   -0.117218
  14 Au:    0.159171   -0.053234
  15 Au:    0.016277   -0.041489
  16 Cr:   -1.150552    3.118141

  Mayer bond orders larger than 0.100000
B(  0-Au,  1-Au) :   0.2433 B(  0-Au,  2-Au) :   0.2450 B(  0-Au,  4-Au) :   0.3397
B(  0-Au,  6-Au) :   0.3146 B(  0-Au,  7-Au) :   0.3179 B(  1-Au,  4-Au) :   0.3050
B(  1-Au,  6-Au) :   0.2468 B(  1-Au,  8-Au) :   0.1871 B(  1-Au, 10-Au) :   0.2986
B(  1-Au, 16-Cr) :   0.3756 B(  2-Au,  4-Au) :   0.3052 B(  2-Au,  5-Au) :   0.1881
B(  2-Au,  7-Au) :   0.2462 B(  2-Au, 15-Au) :   0.2988 B(  2-Au, 16-Cr) :   0.3759
B(  3-Au,  4-Au) :   0.1709 B(  3-Au,  5-Au) :   0.2204 B(  3-Au,  8-Au) :   0.2190
B(  3-Au, 12-Au) :   0.1405 B(  3-Au, 13-Au) :   0.1950 B(  3-Au, 16-Cr) :   0.6608
B(  4-Au,  5-Au) :   0.1057 B(  4-Au,  8-Au) :   0.1084 B(  4-Au, 16-Cr) :   0.4443
B(  5-Au, 11-Au) :   0.1413 B(  5-Au, 14-Au) :   0.2181 B(  5-Au, 15-Au) :   0.1067
B(  5-Au, 16-Cr) :   0.5799 B(  6-Au,  7-Au) :   0.3080 B(  6-Au,  9-Au) :   0.2444
B(  6-Au, 10-Au) :   0.3535 B(  7-Au,  9-Au) :   0.2442 B(  7-Au, 15-Au) :   0.3485
B(  8-Au, 10-Au) :   0.1029 B(  8-Au, 11-Au) :   0.2186 B(  8-Au, 14-Au) :   0.1412
B(  8-Au, 16-Cr) :   0.5799 B(  9-Au, 10-Au) :   0.2992 B(  9-Au, 12-Au) :   0.1856
B(  9-Au, 15-Au) :   0.3042 B(  9-Au, 16-Cr) :   0.3746 B( 10-Au, 11-Au) :   0.1830
B( 10-Au, 12-Au) :   0.1066 B( 10-Au, 16-Cr) :   0.4488 B( 11-Au, 12-Au) :   0.2164
B( 11-Au, 13-Au) :   0.2101 B( 11-Au, 16-Cr) :   0.6528 B( 12-Au, 14-Au) :   0.2189
B( 12-Au, 15-Au) :   0.1045 B( 12-Au, 16-Cr) :   0.5800 B( 13-Au, 14-Au) :   0.2050
B( 13-Au, 16-Cr) :   0.5756 B( 14-Au, 15-Au) :   0.1786 B( 14-Au, 16-Cr) :   0.6549
B( 15-Au, 16-Cr) :   0.4472

FINAL SINGLE POINT ENERGY     -3217.479619475133

DIPOLE MOMENT
-------------
                                X             Y             Z
Electronic contribution:     36.61398      20.24481      20.56290
Nuclear contribution   :    -37.24712     -20.59476     -20.92427
                        -----------------------------------------
Total Dipole Moment    :     -0.63313      -0.34995      -0.36137
                        -----------------------------------------
Magnitude (a.u.)       :      0.80865
Magnitude (Debye)      :      2.05542

Rotational constants in cm-1:     0.001020     0.000727     0.000727
Rotational constants in MHz :    30.589439    21.787592    21.782688

                             ****ORCA TERMINATED NORMALLY****
TOTAL RUN TIME: 0 days 5 hours 22 minutes 39 seconds 65 msec
