                         Program Version 5.0.3 -  RELEASE  -
|  1> !CASSCF def2-TZVP def2-TZVP/C
|  2> !MOREAD RIJCOSX
|  3> %maxcore 6000
|  4> %moinp "pbe.qro"
|  5> %pal nprocs 2 end
|  6>
|  7> %casscf
|  8>  mult 5,3
|  9>  bweight 1,1
| 10>  nroots 5,45
| 11>  nel 6
| 12>  norb 5
| 13> end
| 14>
| 15>
| 16> *xyzfile 0 5 pbe.xyz
| 17>
| 18>
| 19>                          ****END OF INPUT****

CARTESIAN COORDINATES (ANGSTROEM)
---------------------------------
  Au     8.838456    5.771629    9.213403
  Au     8.102965   10.059260   10.859891
  Au     9.866398    7.874293   10.650702
  Au     5.896744    9.487084    9.211172
  Au     7.127936    7.421573   10.603354
  Au    11.047438    7.769148    8.138592
  Au    10.378822   10.214734    9.218069
  Au     7.915183   11.203530    8.303410
  Au     7.506641    4.979133    6.899189
  Au    10.285648    5.410416    6.856696
  Au     5.979364    6.955868    8.136614
  Au     6.318747    7.005525    5.361981
  Au     8.326327    8.728511    4.446853
  Au     6.635823    9.522442    6.530115
  Au    10.777813    7.717389    5.349004
  Au     9.672941    9.988095    6.541951
  Cr     8.509393    7.529626    7.001602

 Total Charge           Charge          ....    0
 Multiplicity           Mult            ....    5
 Number of Electrons    NEL             ....  328
 Basis Dimension        Dim             ....  685

ORBITAL ENERGIES
----------------

  NO   OCC          E(Eh)            E(eV)
   0   2.0000    -220.497524     -6000.0427
   1   2.0000     -26.332171      -716.5348
   2   2.0000     -22.265949      -605.8873
   3   2.0000     -22.265864      -605.8850
   4   2.0000     -22.252300      -605.5159
   5   2.0000      -4.722858      -128.5155
   6   2.0000      -4.720078      -128.4399
   7   2.0000      -4.717591      -128.3722
   8   2.0000      -4.717479      -128.3691
   9   2.0000      -4.716894      -128.3532
  10   2.0000      -4.716304      -128.3372
  11   2.0000      -4.714986      -128.3013
  12   2.0000      -4.714562      -128.2898
  13   2.0000      -4.712779      -128.2412
  14   2.0000      -4.711064      -128.1946
  15   2.0000      -4.708187      -128.1163
  16   2.0000      -4.708019      -128.1117
  17   2.0000      -4.707863      -128.1075
  18   2.0000      -4.707070      -128.0859
  19   2.0000      -4.706515      -128.0708
  20   2.0000      -4.693765      -127.7238
  21   2.0000      -3.388887       -92.2163
  22   2.0000      -2.762393       -75.1685
  23   2.0000      -2.760126       -75.1068
  24   2.0000      -2.758870       -75.0727
  25   2.0000      -2.758520       -75.0631
  26   2.0000      -2.758274       -75.0564
  27   2.0000      -2.757378       -75.0321
  28   2.0000      -2.757220       -75.0278
  29   2.0000      -2.755722       -74.9870
  30   2.0000      -2.755385       -74.9778
  31   2.0000      -2.754481       -74.9532
  32   2.0000      -2.753903       -74.9375
  33   2.0000      -2.753819       -74.9352
  34   2.0000      -2.753506       -74.9267
  35   2.0000      -2.753043       -74.9141
  36   2.0000      -2.752892       -74.9100
  37   2.0000      -2.752708       -74.9050
  38   2.0000      -2.751890       -74.8827
  39   2.0000      -2.751542       -74.8733
  40   2.0000      -2.750726       -74.8511
  41   2.0000      -2.750176       -74.8361
  42   2.0000      -2.749653       -74.8219
  43   2.0000      -2.749590       -74.8201
  44   2.0000      -2.749255       -74.8110
  45   2.0000      -2.748389       -74.7875
  46   2.0000      -2.748331       -74.7859
  47   2.0000      -2.747843       -74.7726
  48   2.0000      -2.747442       -74.7617
  49   2.0000      -2.747242       -74.7562
  50   2.0000      -2.747014       -74.7501
  51   2.0000      -2.746286       -74.7302
  52   2.0000      -2.745999       -74.7224
  53   2.0000      -2.745852       -74.7184
  54   2.0000      -2.745464       -74.7079
  55   2.0000      -2.744847       -74.6911
  56   2.0000      -2.744648       -74.6857
  57   2.0000      -2.742710       -74.6329
  58   2.0000      -2.742457       -74.6260
  59   2.0000      -2.742415       -74.6249
  60   2.0000      -2.742020       -74.6142
  61   2.0000      -2.741794       -74.6080
  62   2.0000      -2.741417       -74.5977
  63   2.0000      -2.741345       -74.5958
  64   2.0000      -2.740876       -74.5830
  65   2.0000      -2.740575       -74.5748
  66   2.0000      -2.739922       -74.5571
  67   2.0000      -2.729035       -74.2608
  68   2.0000      -2.728923       -74.2578
  69   2.0000      -2.727764       -74.2262
  70   2.0000      -2.155674       -58.6589
  71   2.0000      -2.155613       -58.6572
  72   2.0000      -2.141460       -58.2721
  73   2.0000      -0.560626       -15.2554
  74   2.0000      -0.560370       -15.2484
  75   2.0000      -0.558413       -15.1952
  76   2.0000      -0.556321       -15.1383
  77   2.0000      -0.548453       -14.9242
  78   2.0000      -0.547976       -14.9112
  79   2.0000      -0.547689       -14.9034
  80   2.0000      -0.543378       -14.7861
  81   2.0000      -0.543147       -14.7798
  82   2.0000      -0.542420       -14.7600
  83   2.0000      -0.539874       -14.6907
  84   2.0000      -0.538529       -14.6541
  85   2.0000      -0.537323       -14.6213
  86   2.0000      -0.536798       -14.6070
  87   2.0000      -0.534808       -14.5529
  88   2.0000      -0.533952       -14.5296
  89   2.0000      -0.532817       -14.4987
  90   2.0000      -0.530800       -14.4438
  91   2.0000      -0.530150       -14.4261
  92   2.0000      -0.529768       -14.4157
  93   2.0000      -0.527627       -14.3575
  94   2.0000      -0.526750       -14.3336
  95   2.0000      -0.525948       -14.3118
  96   2.0000      -0.519114       -14.1258
  97   2.0000      -0.518485       -14.1087
  98   2.0000      -0.515403       -14.0248
  99   2.0000      -0.515327       -14.0228
 100   2.0000      -0.513562       -13.9747
 101   2.0000      -0.512297       -13.9403
 102   2.0000      -0.511352       -13.9146
 103   2.0000      -0.510912       -13.9026
 104   2.0000      -0.504708       -13.7338
 105   2.0000      -0.504490       -13.7279
 106   2.0000      -0.502959       -13.6862
 107   2.0000      -0.489739       -13.3265
 108   2.0000      -0.489095       -13.3090
 109   2.0000      -0.486505       -13.2385
 110   2.0000      -0.485186       -13.2026
 111   2.0000      -0.483733       -13.1630
 112   2.0000      -0.482598       -13.1322
 113   2.0000      -0.480548       -13.0764
 114   2.0000      -0.472112       -12.8468
 115   2.0000      -0.469227       -12.7683
 116   2.0000      -0.466919       -12.7055
 117   2.0000      -0.465427       -12.6649
 118   2.0000      -0.464640       -12.6435
 119   2.0000      -0.463067       -12.6007
 120   2.0000      -0.458397       -12.4736
 121   2.0000      -0.456792       -12.4299
 122   2.0000      -0.455171       -12.3858
 123   2.0000      -0.454624       -12.3710
 124   2.0000      -0.453718       -12.3463
 125   2.0000      -0.450677       -12.2635
 126   2.0000      -0.450395       -12.2559
 127   2.0000      -0.449707       -12.2371
 128   2.0000      -0.447520       -12.1776
 129   2.0000      -0.445606       -12.1256
 130   2.0000      -0.444064       -12.0836
 131   2.0000      -0.441494       -12.0137
 132   2.0000      -0.440071       -11.9749
 133   2.0000      -0.438763       -11.9394
 134   2.0000      -0.438028       -11.9194
 135   2.0000      -0.436544       -11.8790
 136   2.0000      -0.435261       -11.8440
 137   2.0000      -0.431875       -11.7519
 138   2.0000      -0.431638       -11.7455
 139   2.0000      -0.429574       -11.6893
 140   2.0000      -0.429271       -11.6811
 141   2.0000      -0.427642       -11.6367
 142   2.0000      -0.427105       -11.6221
 143   2.0000      -0.422310       -11.4916
 144   2.0000      -0.416217       -11.3259
 145   2.0000      -0.416060       -11.3216
 146   2.0000      -0.414688       -11.2842
 147   2.0000      -0.414103       -11.2683
 148   2.0000      -0.411646       -11.2014
 149   2.0000      -0.405575       -11.0362
 150   2.0000      -0.404364       -11.0033
 151   2.0000      -0.398786       -10.8515
 152   2.0000      -0.398534       -10.8447
 153   2.0000      -0.378247       -10.2926
 154   2.0000      -0.377294       -10.2667
 155   2.0000      -0.359330        -9.7779
 156   2.0000      -0.358546        -9.7565
 157   2.0000      -0.263381        -7.1670
 158   2.0000      -0.261763        -7.1229
 159   2.0000      -0.236232        -6.4282
 160   2.0000      -0.226850        -6.1729
 161   1.2000      -0.082735        -2.2513
 162   1.2000      -0.083773        -2.2796
 163   1.2000      -0.085032        -2.3138
 164   1.2000      -0.166127        -4.5205
 165   1.2000      -0.110884        -3.0173
 166   0.0000      -0.024739        -0.6732
 167   0.0000      -0.019922        -0.5421
 168   0.0000      -0.013020        -0.3543
 169   0.0000      -0.004139        -0.1126
 170   0.0000      -0.002670        -0.0727

MULLIKEN ATOMIC CHARGES AND SPIN DENSITIES
------------------------------------------
   0 Au:    0.104100    0.019614
   1 Au:   -0.027891    0.004065
   2 Au:    0.217394    0.021044
   3 Au:    0.215741    0.017836
   4 Au:    0.217215    0.024353
   5 Au:    0.135591    0.035394
   6 Au:    0.200779    0.012926
   7 Au:    0.188455    0.011275
   8 Au:    0.563109    0.017094
   9 Au:    0.569778    0.017864
  10 Au:    0.111598    0.023769
  11 Au:    0.568331    0.017792
  12 Au:    0.564828    0.016899
  13 Au:    0.149826    0.041907
  14 Au:    0.562302    0.017000
  15 Au:    0.168528    0.047333
  16 Cr:   -4.509684    2.653837
Sum of atomic charges       :    0.0000000

LOEWDIN ATOMIC CHARGES AND SPIN DENSITIES
-----------------------------------------
   0 Au:    0.026740    0.049711
   1 Au:   -0.023375    0.008798
   2 Au:    0.045868    0.025974
   3 Au:    0.050038    0.024731
   4 Au:    0.040027    0.027188
   5 Au:    0.027579    0.053753
   6 Au:    0.051788    0.022840
   7 Au:    0.049969    0.022179
   8 Au:    0.150813    0.042796
   9 Au:    0.154844    0.042779
  10 Au:    0.027620    0.051220
  11 Au:    0.156842    0.043164
  12 Au:    0.156452    0.044114
  13 Au:    0.026628    0.054734
  14 Au:    0.157103    0.043656
  15 Au:    0.026762    0.055801
  16 Cr:   -1.125699    2.386562

  Mayer bond orders larger than 0.100000
B(  0-Au,  2-Au) :   0.2340 B(  0-Au,  4-Au) :   0.1908 B(  0-Au,  8-Au) :   0.1438
B(  0-Au,  9-Au) :   0.1455 B(  0-Au, 12-Au) :   0.1283 B(  0-Au, 16-Cr) :   0.3779
B(  1-Au,  2-Au) :   0.2569 B(  1-Au,  3-Au) :   0.2590 B(  1-Au,  4-Au) :   0.2493
B(  1-Au,  6-Au) :   0.2642 B(  1-Au,  7-Au) :   0.2689 B(  2-Au,  4-Au) :   0.2183
B(  2-Au,  5-Au) :   0.1386 B(  2-Au,  6-Au) :   0.1719 B(  2-Au, 16-Cr) :   0.3103
B(  3-Au,  4-Au) :   0.2051 B(  3-Au,  7-Au) :   0.1568 B(  3-Au, 10-Au) :   0.2468
B(  3-Au, 13-Au) :   0.1404 B(  3-Au, 16-Cr) :   0.3212 B(  4-Au, 10-Au) :   0.1657
B(  4-Au, 16-Cr) :   0.2997 B(  5-Au,  6-Au) :   0.2392 B(  5-Au,  9-Au) :   0.1439
B(  5-Au, 11-Au) :   0.1491 B(  5-Au, 14-Au) :   0.1502 B(  5-Au, 15-Au) :   0.1641
B(  5-Au, 16-Cr) :   0.3511 B(  6-Au,  7-Au) :   0.1438 B(  6-Au, 15-Au) :   0.1599
B(  6-Au, 16-Cr) :   0.3483 B(  7-Au, 13-Au) :   0.2193 B(  7-Au, 15-Au) :   0.1766
B(  7-Au, 16-Cr) :   0.3628 B(  8-Au,  9-Au) :   0.1486 B(  8-Au, 10-Au) :   0.1425
B(  8-Au, 11-Au) :   0.1504 B(  8-Au, 15-Au) :   0.1613 B(  8-Au, 16-Cr) :   0.3021
B(  9-Au, 13-Au) :   0.1541 B(  9-Au, 14-Au) :   0.1531 B(  9-Au, 16-Cr) :   0.2871
B( 10-Au, 11-Au) :   0.1468 B( 10-Au, 13-Au) :   0.1236 B( 10-Au, 14-Au) :   0.1353
B( 10-Au, 16-Cr) :   0.3699 B( 11-Au, 12-Au) :   0.1544 B( 11-Au, 13-Au) :   0.1464
B( 11-Au, 16-Cr) :   0.2789 B( 12-Au, 13-Au) :   0.1526 B( 12-Au, 14-Au) :   0.1585
B( 12-Au, 15-Au) :   0.1555 B( 12-Au, 16-Cr) :   0.2690 B( 13-Au, 15-Au) :   0.1740
B( 13-Au, 16-Cr) :   0.3451 B( 14-Au, 15-Au) :   0.1538 B( 14-Au, 16-Cr) :   0.2718
B( 15-Au, 16-Cr) :   0.3382

FINAL SINGLE POINT ENERGY     -3200.152399832623

DIPOLE MOMENT
-------------
                                X             Y             Z
Electronic contribution:     -3.11559      20.74332      30.52144
Nuclear contribution   :      3.24916     -21.25161     -31.53207
                        -----------------------------------------
Total Dipole Moment    :      0.13357      -0.50829      -1.01063
                        -----------------------------------------
Magnitude (a.u.)       :      1.13911
Magnitude (Debye)      :      2.89539

Rotational constants in cm-1:     0.000929     0.000766     0.000763
Rotational constants in MHz :    27.840366    22.968478    22.886918

                             ****ORCA TERMINATED NORMALLY****
TOTAL RUN TIME: 0 days 1 hours 44 minutes 0 seconds 214 msec
