                         Program Version 5.0.3 -  RELEASE  -
|  1> %pal nprocs 1 end
|  2>
|  3> !PBE def2-TZVP OPT UNO
|  4> !SLOWCONV
|  5>
|  6> *xyzfile 0 4 3.xyz                           ****END OF INPUT****
 Total Charge           Charge          ....    0
 Multiplicity           Mult            ....    4
 Number of Electrons    NEL             ....  311
FINAL SINGLE POINT ENERGY     -3300.906169244371
FINAL SINGLE POINT ENERGY     -3300.908664378870
FINAL SINGLE POINT ENERGY     -3300.909498046863
FINAL SINGLE POINT ENERGY     -3300.909968313036
FINAL SINGLE POINT ENERGY     -3300.910172267670
FINAL SINGLE POINT ENERGY     -3300.910289434366
FINAL SINGLE POINT ENERGY     -3300.910383259290
FINAL SINGLE POINT ENERGY     -3300.910426998797
FINAL SINGLE POINT ENERGY     -3300.910452542924
FINAL SINGLE POINT ENERGY     -3300.910482359666
FINAL SINGLE POINT ENERGY     -3300.910513286061
FINAL SINGLE POINT ENERGY     -3300.910532921485
FINAL SINGLE POINT ENERGY     -3300.910557239597
FINAL SINGLE POINT ENERGY     -3300.910579944856
FINAL SINGLE POINT ENERGY     -3300.910595234469
FINAL SINGLE POINT ENERGY     -3300.910602018352
                    ***********************HURRAY********************

CARTESIAN COORDINATES (ANGSTROEM)
---------------------------------
  Au     9.168689    8.700714    5.645794
  Au     6.418867    8.845535    5.465507
  Au    10.120471    9.922433    8.064799
  Au    10.274596    7.050958    7.560646
  Au     7.592941   10.801387    7.020638
  Au     7.781140    6.264874    6.390851
  Au     8.469126    5.833932    9.291482
  Au     9.698383    8.194898   10.206872
  Au     4.988270    6.946666    6.736825
  Au     5.522655    9.283629    8.362707
  Au     7.778877   10.378974    9.742768
  Au     4.614137    6.944255    9.484827
  Au     6.254046    5.166023   10.893965
  Au     6.168135    4.854846    8.116131
  Au     6.938546    7.881509   10.640064
  Fe     7.940363    8.302244    8.042618

 Multiplicity           Mult            ....    4
 Number of Electrons    NEL             ....  311
 Basis Dimension        Dim             ....  645

ORBITAL ENERGIES
----------------
                 SPIN UP ORBITALS
  NO   OCC          E(Eh)            E(eV)
   0   1.0000    -254.757495     -6932.3039
   1   1.0000     -29.594157      -805.2979
   2   1.0000     -25.535544      -694.8575
   3   1.0000     -25.532727      -694.7808
   4   1.0000     -25.520553      -694.4496
   5   1.0000      -4.037954      -109.8783
   6   1.0000      -4.037768      -109.8733
   7   1.0000      -4.033256      -109.7505
   8   1.0000      -4.033222      -109.7495
   9   1.0000      -4.032968      -109.7426
  10   1.0000      -4.032889      -109.7405
  11   1.0000      -4.031058      -109.6907
  12   1.0000      -4.031007      -109.6893
  13   1.0000      -4.028528      -109.6218
  14   1.0000      -4.026695      -109.5719
  15   1.0000      -4.023560      -109.4866
  16   1.0000      -4.021243      -109.4236
  17   1.0000      -4.019956      -109.3886
  18   1.0000      -4.019905      -109.3872
  19   1.0000      -4.017620      -109.3250
  20   1.0000      -3.373099       -91.7867
  21   1.0000      -2.254021       -61.3350
  22   1.0000      -2.253841       -61.3301
  23   1.0000      -2.251138       -61.2566
  24   1.0000      -2.250971       -61.2520
  25   1.0000      -2.250271       -61.2330
  26   1.0000      -2.249973       -61.2249
  27   1.0000      -2.248836       -61.1939
  28   1.0000      -2.248786       -61.1926
  29   1.0000      -2.247661       -61.1620
  30   1.0000      -2.247479       -61.1570
  31   1.0000      -2.246718       -61.1363
  32   1.0000      -2.246404       -61.1278
  33   1.0000      -2.245573       -61.1051
  34   1.0000      -2.245463       -61.1022
  35   1.0000      -2.244734       -61.0823
  36   1.0000      -2.244405       -61.0734
  37   1.0000      -2.244191       -61.0675
  38   1.0000      -2.244071       -61.0643
  39   1.0000      -2.244003       -61.0624
  40   1.0000      -2.243844       -61.0581
  41   1.0000      -2.243771       -61.0561
  42   1.0000      -2.243078       -61.0373
  43   1.0000      -2.242609       -61.0245
  44   1.0000      -2.242243       -61.0145
  45   1.0000      -2.241879       -61.0046
  46   1.0000      -2.241725       -61.0004
  47   1.0000      -2.240262       -60.9606
  48   1.0000      -2.240121       -60.9568
  49   1.0000      -2.239838       -60.9491
  50   1.0000      -2.238537       -60.9137
  51   1.0000      -2.237792       -60.8934
  52   1.0000      -2.237169       -60.8765
  53   1.0000      -2.236084       -60.8469
  54   1.0000      -2.235911       -60.8422
  55   1.0000      -2.234826       -60.8127
  56   1.0000      -2.234305       -60.7985
  57   1.0000      -2.233700       -60.7821
  58   1.0000      -2.233561       -60.7783
  59   1.0000      -2.232973       -60.7623
  60   1.0000      -2.231826       -60.7311
  61   1.0000      -2.230897       -60.7058
  62   1.0000      -2.230266       -60.6886
  63   1.0000      -2.229646       -60.6717
  64   1.0000      -2.228968       -60.6533
  65   1.0000      -2.228437       -60.6388
  66   1.0000      -2.199071       -59.8398
  67   1.0000      -2.193310       -59.6830
  68   1.0000      -2.168477       -59.0072
  69   1.0000      -0.441609       -12.0168
  70   1.0000      -0.394314       -10.7298
  71   1.0000      -0.391427       -10.6513
  72   1.0000      -0.388382       -10.5684
  73   1.0000      -0.381484       -10.3807
  74   1.0000      -0.380749       -10.3607
  75   1.0000      -0.375933       -10.2297
  76   1.0000      -0.372263       -10.1298
  77   1.0000      -0.370589       -10.0842
  78   1.0000      -0.362932        -9.8759
  79   1.0000      -0.362062        -9.8522
  80   1.0000      -0.359668        -9.7871
  81   1.0000      -0.357742        -9.7347
  82   1.0000      -0.354859        -9.6562
  83   1.0000      -0.354520        -9.6470
  84   1.0000      -0.350159        -9.5283
  85   1.0000      -0.348824        -9.4920
  86   1.0000      -0.348283        -9.4773
  87   1.0000      -0.345292        -9.3959
  88   1.0000      -0.344128        -9.3642
  89   1.0000      -0.343902        -9.3580
  90   1.0000      -0.340958        -9.2779
  91   1.0000      -0.340118        -9.2551
  92   1.0000      -0.338751        -9.2179
  93   1.0000      -0.334812        -9.1107
  94   1.0000      -0.331708        -9.0262
  95   1.0000      -0.330802        -9.0016
  96   1.0000      -0.329300        -8.9607
  97   1.0000      -0.329144        -8.9565
  98   1.0000      -0.328220        -8.9313
  99   1.0000      -0.323844        -8.8123
 100   1.0000      -0.320192        -8.7129
 101   1.0000      -0.318760        -8.6739
 102   1.0000      -0.312193        -8.4952
 103   1.0000      -0.310929        -8.4608
 104   1.0000      -0.307658        -8.3718
 105   1.0000      -0.307158        -8.3582
 106   1.0000      -0.304689        -8.2910
 107   1.0000      -0.304068        -8.2741
 108   1.0000      -0.299570        -8.1517
 109   1.0000      -0.298669        -8.1272
 110   1.0000      -0.292890        -7.9699
 111   1.0000      -0.291813        -7.9406
 112   1.0000      -0.291195        -7.9238
 113   1.0000      -0.288204        -7.8424
 114   1.0000      -0.287013        -7.8100
 115   1.0000      -0.286884        -7.8065
 116   1.0000      -0.279888        -7.6161
 117   1.0000      -0.279770        -7.6129
 118   1.0000      -0.277304        -7.5458
 119   1.0000      -0.276611        -7.5270
 120   1.0000      -0.276388        -7.5209
 121   1.0000      -0.275335        -7.4923
 122   1.0000      -0.273193        -7.4340
 123   1.0000      -0.272006        -7.4017
 124   1.0000      -0.271014        -7.3747
 125   1.0000      -0.270041        -7.3482
 126   1.0000      -0.268830        -7.3152
 127   1.0000      -0.267796        -7.2871
 128   1.0000      -0.267625        -7.2824
 129   1.0000      -0.263258        -7.1636
 130   1.0000      -0.262795        -7.1510
 131   1.0000      -0.260792        -7.0965
 132   1.0000      -0.259445        -7.0599
 133   1.0000      -0.259370        -7.0578
 134   1.0000      -0.257546        -7.0082
 135   1.0000      -0.257118        -6.9965
 136   1.0000      -0.256185        -6.9712
 137   1.0000      -0.256033        -6.9670
 138   1.0000      -0.254102        -6.9145
 139   1.0000      -0.253289        -6.8923
 140   1.0000      -0.251715        -6.8495
 141   1.0000      -0.250367        -6.8128
 142   1.0000      -0.250132        -6.8064
 143   1.0000      -0.249201        -6.7811
 144   1.0000      -0.248260        -6.7555
 145   1.0000      -0.246565        -6.7094
 146   1.0000      -0.244923        -6.6647
 147   1.0000      -0.243567        -6.6278
 148   1.0000      -0.242907        -6.6098
 149   1.0000      -0.240365        -6.5407
 150   1.0000      -0.240008        -6.5309
 151   1.0000      -0.237549        -6.4640
 152   1.0000      -0.234148        -6.3715
 153   1.0000      -0.219093        -5.9618
 154   1.0000      -0.209499        -5.7008
 155   1.0000      -0.205729        -5.5982
 156   1.0000      -0.197791        -5.3822
 157   0.0000      -0.188141        -5.1196
 158   0.0000      -0.148067        -4.0291
 159   0.0000      -0.141928        -3.8621
 160   0.0000      -0.132793        -3.6135
 161   0.0000      -0.126793        -3.4502

                 SPIN DOWN ORBITALS
  NO   OCC          E(Eh)            E(eV)
   0   1.0000    -254.756824     -6932.2856
   1   1.0000     -29.536572      -803.7310
   2   1.0000     -25.489893      -693.6152
   3   1.0000     -25.487768      -693.5574
   4   1.0000     -25.480732      -693.3660
   5   1.0000      -4.037132      -109.8559
   6   1.0000      -4.036941      -109.8507
   7   1.0000      -4.033316      -109.7521
   8   1.0000      -4.033236      -109.7499
   9   1.0000      -4.033026      -109.7442
  10   1.0000      -4.032992      -109.7433
  11   1.0000      -4.030918      -109.6868
  12   1.0000      -4.030867      -109.6855
  13   1.0000      -4.028299      -109.6156
  14   1.0000      -4.026322      -109.5618
  15   1.0000      -4.023748      -109.4918
  16   1.0000      -4.021489      -109.4303
  17   1.0000      -4.020018      -109.3902
  18   1.0000      -4.019962      -109.3887
  19   1.0000      -4.017668      -109.3263
  20   1.0000      -3.242545       -88.2341
  21   1.0000      -2.252768       -61.3009
  22   1.0000      -2.252608       -61.2966
  23   1.0000      -2.250675       -61.2440
  24   1.0000      -2.250387       -61.2362
  25   1.0000      -2.250021       -61.2262
  26   1.0000      -2.249849       -61.2215
  27   1.0000      -2.248374       -61.1814
  28   1.0000      -2.248335       -61.1803
  29   1.0000      -2.247366       -61.1539
  30   1.0000      -2.247168       -61.1486
  31   1.0000      -2.246593       -61.1329
  32   1.0000      -2.246331       -61.1258
  33   1.0000      -2.245793       -61.1111
  34   1.0000      -2.245161       -61.0939
  35   1.0000      -2.244626       -61.0794
  36   1.0000      -2.244240       -61.0689
  37   1.0000      -2.244106       -61.0652
  38   1.0000      -2.244021       -61.0629
  39   1.0000      -2.243771       -61.0561
  40   1.0000      -2.243760       -61.0558
  41   1.0000      -2.243637       -61.0525
  42   1.0000      -2.243066       -61.0369
  43   1.0000      -2.242932       -61.0333
  44   1.0000      -2.241938       -61.0062
  45   1.0000      -2.241687       -60.9994
  46   1.0000      -2.241313       -60.9892
  47   1.0000      -2.240136       -60.9572
  48   1.0000      -2.240023       -60.9541
  49   1.0000      -2.239139       -60.9301
  50   1.0000      -2.238273       -60.9065
  51   1.0000      -2.237882       -60.8959
  52   1.0000      -2.237203       -60.8774
  53   1.0000      -2.236317       -60.8533
  54   1.0000      -2.236123       -60.8480
  55   1.0000      -2.234944       -60.8159
  56   1.0000      -2.234866       -60.8138
  57   1.0000      -2.234023       -60.7909
  58   1.0000      -2.233632       -60.7802
  59   1.0000      -2.233207       -60.7687
  60   1.0000      -2.231970       -60.7350
  61   1.0000      -2.231084       -60.7109
  62   1.0000      -2.230328       -60.6903
  63   1.0000      -2.229652       -60.6719
  64   1.0000      -2.228930       -60.6523
  65   1.0000      -2.228384       -60.6374
  66   1.0000      -2.064682       -56.1828
  67   1.0000      -2.061981       -56.1094
  68   1.0000      -2.050802       -55.8051
  69   1.0000      -0.437364       -11.9013
  70   1.0000      -0.393899       -10.7185
  71   1.0000      -0.390801       -10.6342
  72   1.0000      -0.387610       -10.5474
  73   1.0000      -0.374193       -10.1823
  74   1.0000      -0.372695       -10.1415
  75   1.0000      -0.370259       -10.0753
  76   1.0000      -0.367238        -9.9930
  77   1.0000      -0.364738        -9.9250
  78   1.0000      -0.361478        -9.8363
  79   1.0000      -0.360646        -9.8137
  80   1.0000      -0.358622        -9.7586
  81   1.0000      -0.356627        -9.7043
  82   1.0000      -0.354637        -9.6502
  83   1.0000      -0.351792        -9.5728
  84   1.0000      -0.350686        -9.5426
  85   1.0000      -0.347914        -9.4672
  86   1.0000      -0.347234        -9.4487
  87   1.0000      -0.345152        -9.3921
  88   1.0000      -0.344110        -9.3637
  89   1.0000      -0.343653        -9.3513
  90   1.0000      -0.341106        -9.2820
  91   1.0000      -0.340011        -9.2522
  92   1.0000      -0.337737        -9.1903
  93   1.0000      -0.334680        -9.1071
  94   1.0000      -0.330747        -9.0001
  95   1.0000      -0.330522        -8.9940
  96   1.0000      -0.328218        -8.9313
  97   1.0000      -0.328000        -8.9253
  98   1.0000      -0.323539        -8.8040
  99   1.0000      -0.322132        -8.7656
 100   1.0000      -0.318103        -8.6560
 101   1.0000      -0.317781        -8.6473
 102   1.0000      -0.308979        -8.4077
 103   1.0000      -0.308107        -8.3840
 104   1.0000      -0.304700        -8.2913
 105   1.0000      -0.304652        -8.2900
 106   1.0000      -0.300007        -8.1636
 107   1.0000      -0.299749        -8.1566
 108   1.0000      -0.296777        -8.0757
 109   1.0000      -0.296225        -8.0607
 110   1.0000      -0.291156        -7.9228
 111   1.0000      -0.288019        -7.8374
 112   1.0000      -0.287188        -7.8148
 113   1.0000      -0.284249        -7.7348
 114   1.0000      -0.283511        -7.7147
 115   1.0000      -0.280735        -7.6392
 116   1.0000      -0.279291        -7.5999
 117   1.0000      -0.278156        -7.5690
 118   1.0000      -0.277075        -7.5396
 119   1.0000      -0.275841        -7.5060
 120   1.0000      -0.275263        -7.4903
 121   1.0000      -0.274971        -7.4823
 122   1.0000      -0.273029        -7.4295
 123   1.0000      -0.271813        -7.3964
 124   1.0000      -0.270572        -7.3626
 125   1.0000      -0.269527        -7.3342
 126   1.0000      -0.268018        -7.2931
 127   1.0000      -0.267627        -7.2825
 128   1.0000      -0.266810        -7.2603
 129   1.0000      -0.262918        -7.1544
 130   1.0000      -0.261493        -7.1156
 131   1.0000      -0.259177        -7.0526
 132   1.0000      -0.258748        -7.0409
 133   1.0000      -0.257174        -6.9981
 134   1.0000      -0.256230        -6.9724
 135   1.0000      -0.255513        -6.9529
 136   1.0000      -0.253884        -6.9085
 137   1.0000      -0.251080        -6.8322
 138   1.0000      -0.250670        -6.8211
 139   1.0000      -0.249476        -6.7886
 140   1.0000      -0.248160        -6.7528
 141   1.0000      -0.247065        -6.7230
 142   1.0000      -0.245575        -6.6824
 143   1.0000      -0.244574        -6.6552
 144   1.0000      -0.243199        -6.6178
 145   1.0000      -0.241484        -6.5711
 146   1.0000      -0.240998        -6.5579
 147   1.0000      -0.234706        -6.3867
 148   1.0000      -0.226447        -6.1619
 149   1.0000      -0.214387        -5.8338
 150   1.0000      -0.211891        -5.7659
 151   1.0000      -0.206937        -5.6310
 152   1.0000      -0.205172        -5.5830
 153   1.0000      -0.179446        -4.8830
 154   0.0000      -0.162980        -4.4349
 155   0.0000      -0.162708        -4.4275
 156   0.0000      -0.155879        -4.2417
 157   0.0000      -0.154303        -4.1988
 158   0.0000      -0.142263        -3.8712

MULLIKEN ATOMIC CHARGES AND SPIN POPULATIONS
--------------------------------------------
   0 Au:    0.332279   -0.032333
   1 Au:    0.114247    0.039403
   2 Au:    0.257642    0.049905
   3 Au:    0.386840   -0.011509
   4 Au:    0.332870   -0.032391
   5 Au:    0.070976   -0.004106
   6 Au:   -0.203726   -0.078688
   7 Au:    0.335668    0.070352
   8 Au:    0.057532    0.038588
   9 Au:    0.070971   -0.002596
  10 Au:    0.388530   -0.012755
  11 Au:    0.157479    0.057447
  12 Au:    0.417085   -0.066765
  13 Au:    0.158467    0.057925
  14 Au:   -0.203454   -0.078656
  15 Fe:   -2.673406    3.006179
Sum of atomic charges         :   -0.0000000

LOEWDIN ATOMIC CHARGES AND SPIN POPULATIONS
-------------------------------------------
   0 Au:    0.068860   -0.022290
   1 Au:    0.042186   -0.007766
   2 Au:    0.055431    0.028107
   3 Au:    0.095301   -0.022440
   4 Au:    0.068945   -0.022394
   5 Au:    0.051577    0.009212
   6 Au:   -0.028423   -0.046503
   7 Au:    0.086070    0.003162
   8 Au:   -0.003003    0.020968
   9 Au:    0.051443    0.009491
  10 Au:    0.095863   -0.022798
  11 Au:   -0.009568    0.023131
  12 Au:    0.087808   -0.033556
  13 Au:   -0.009819    0.023752
  14 Au:   -0.028676   -0.046446
  15 Fe:   -0.623993    3.106372

  Mayer bond orders larger than 0.100000
B(  0-Au,  1-Au) :   0.2529 B(  0-Au,  2-Au) :   0.1754 B(  0-Au,  3-Au) :   0.2414
B(  0-Au,  4-Au) :   0.1119 B(  0-Au,  5-Au) :   0.1711 B(  0-Au, 15-Fe) :   0.4129
B(  1-Au,  4-Au) :   0.2518 B(  1-Au,  8-Au) :   0.3653 B(  1-Au, 15-Fe) :   0.3766
B(  2-Au,  3-Au) :   0.1425 B(  2-Au,  4-Au) :   0.1750 B(  2-Au,  7-Au) :   0.2427
B(  2-Au, 10-Au) :   0.1433 B(  2-Au, 15-Fe) :   0.4935 B(  3-Au,  5-Au) :   0.1723
B(  3-Au,  6-Au) :   0.2585 B(  3-Au, 15-Fe) :   0.4634 B(  4-Au,  9-Au) :   0.1729
B(  4-Au, 10-Au) :   0.2397 B(  4-Au, 15-Fe) :   0.4127 B(  5-Au,  6-Au) :   0.1685
B(  5-Au,  8-Au) :   0.1806 B(  5-Au, 13-Au) :   0.3668 B(  5-Au, 15-Fe) :   0.5665
B(  6-Au,  7-Au) :   0.2182 B(  6-Au, 12-Au) :   0.3027 B(  6-Au, 13-Au) :   0.3302
B(  6-Au, 14-Au) :   0.2580 B(  6-Au, 15-Fe) :   0.4395 B(  7-Au, 14-Au) :   0.2215
B(  7-Au, 15-Fe) :   0.4205 B(  8-Au,  9-Au) :   0.1797 B(  8-Au, 11-Au) :   0.2758
B(  8-Au, 13-Au) :   0.2781 B(  8-Au, 15-Fe) :   0.2354 B(  9-Au, 10-Au) :   0.1726
B(  9-Au, 11-Au) :   0.3685 B(  9-Au, 14-Au) :   0.1642 B(  9-Au, 15-Fe) :   0.5674
B( 10-Au, 14-Au) :   0.2558 B( 10-Au, 15-Fe) :   0.4647 B( 11-Au, 12-Au) :   0.2318
B( 11-Au, 13-Au) :   0.1922 B( 11-Au, 14-Au) :   0.3312 B( 11-Au, 15-Fe) :   0.1087
B( 12-Au, 13-Au) :   0.2336 B( 12-Au, 14-Au) :   0.3041 B( 13-Au, 15-Fe) :   0.1075
B( 14-Au, 15-Fe) :   0.4391

FINAL SINGLE POINT ENERGY     -3300.910604676968

DIPOLE MOMENT
-------------
                                X             Y             Z
Electronic contribution:    -18.39670     -18.85557       7.63936
Nuclear contribution   :     18.64718      19.02047      -7.60664
                        -----------------------------------------
Total Dipole Moment    :      0.25047       0.16490       0.03272
                        -----------------------------------------
Magnitude (a.u.)       :      0.30166
Magnitude (Debye)      :      0.76676

Rotational constants in cm-1:     0.001144     0.000883     0.000809
Rotational constants in MHz :    34.307185    26.468717    24.259464

                             ****ORCA TERMINATED NORMALLY****
TOTAL RUN TIME: 0 days 4 hours 23 minutes 26 seconds 140 msec
