                         Program Version 5.0.3 -  RELEASE  -
|  1> !CASSCF def2-TZVP def2-TZVP/C
|  2> !MOREAD RIJCOSX
|  3> %maxcore 6000
|  4> %moinp "pbe.qro"
|  5> %pal nprocs 2 end
|  6>
|  7> %casscf
|  8>  mult 5,3
|  9>  bweight 1,1
| 10>  nroots 5,45
| 11>  nel 6
| 12>  norb 5
| 13> end
| 14>
| 15>
| 16> *xyzfile 0 5 pbe.xyz
| 17>
| 18>
| 19>                          ****END OF INPUT****

CARTESIAN COORDINATES (ANGSTROEM)
---------------------------------
  Au     5.597692    9.701086    4.117308
  Au     8.551342    8.862668    8.157489
  Au     5.400589   10.523043    6.835768
  Au     3.771731    8.516230    7.857753
  Au     5.974964    9.306906    9.281758
  Au     4.253166    7.589620    5.291437
  Au     4.599631    5.945477    7.484112
  Au     7.083285    6.801838    9.244645
  Au     6.408471    4.260533    8.670211
  Au     7.199717    5.478397    6.319307
  Au     6.985196    7.297292    4.406885
  Au     7.926341    9.877003    5.746632
  Fe     6.376106    7.989073    6.892467

 Total Charge           Charge          ....    0
 Multiplicity           Mult            ....    5
 Number of Electrons    NEL             ....  254
 Basis Dimension        Dim             ....  525

ORBITAL ENERGIES
----------------

  NO   OCC          E(Eh)            E(eV)
   0   2.0000    -261.393865     -7112.8887
   1   2.0000     -31.955961      -869.5659
   2   2.0000     -27.436173      -746.5762
   3   2.0000     -27.436011      -746.5718
   4   2.0000     -27.435542      -746.5591
   5   2.0000      -4.722213      -128.4980
   6   2.0000      -4.719804      -128.4324
   7   2.0000      -4.719503      -128.4242
   8   2.0000      -4.715467      -128.3144
   9   2.0000      -4.713794      -128.2689
  10   2.0000      -4.713282      -128.2549
  11   2.0000      -4.712327      -128.2289
  12   2.0000      -4.711740      -128.2130
  13   2.0000      -4.708984      -128.1380
  14   2.0000      -4.707708      -128.1032
  15   2.0000      -4.706720      -128.0764
  16   2.0000      -4.703716      -127.9946
  17   2.0000      -4.189883      -114.0125
  18   2.0000      -2.769797       -75.3700
  19   2.0000      -2.769296       -75.3564
  20   2.0000      -2.768962       -75.3473
  21   2.0000      -2.762672       -75.1761
  22   2.0000      -2.760847       -75.1265
  23   2.0000      -2.759390       -75.0868
  24   2.0000      -2.757749       -75.0422
  25   2.0000      -2.756826       -75.0171
  26   2.0000      -2.756045       -74.9958
  27   2.0000      -2.755115       -74.9705
  28   2.0000      -2.754541       -74.9549
  29   2.0000      -2.753442       -74.9250
  30   2.0000      -2.752931       -74.9111
  31   2.0000      -2.752388       -74.8963
  32   2.0000      -2.751664       -74.8766
  33   2.0000      -2.751206       -74.8641
  34   2.0000      -2.750227       -74.8375
  35   2.0000      -2.749929       -74.8294
  36   2.0000      -2.749508       -74.8179
  37   2.0000      -2.748776       -74.7980
  38   2.0000      -2.748421       -74.7883
  39   2.0000      -2.748268       -74.7842
  40   2.0000      -2.747524       -74.7639
  41   2.0000      -2.746885       -74.7465
  42   2.0000      -2.746162       -74.7269
  43   2.0000      -2.745340       -74.7045
  44   2.0000      -2.744770       -74.6890
  45   2.0000      -2.744451       -74.6803
  46   2.0000      -2.743875       -74.6646
  47   2.0000      -2.743522       -74.6550
  48   2.0000      -2.742744       -74.6338
  49   2.0000      -2.741722       -74.6060
  50   2.0000      -2.740552       -74.5742
  51   2.0000      -2.739762       -74.5527
  52   2.0000      -2.739318       -74.5406
  53   2.0000      -2.738869       -74.5284
  54   2.0000      -2.738709       -74.5241
  55   2.0000      -2.737408       -74.4887
  56   2.0000      -2.736750       -74.4708
  57   2.0000      -0.583873       -15.8880
  58   2.0000      -0.561573       -15.2812
  59   2.0000      -0.557077       -15.1588
  60   2.0000      -0.555333       -15.1114
  61   2.0000      -0.548964       -14.9381
  62   2.0000      -0.543320       -14.7845
  63   2.0000      -0.542065       -14.7504
  64   2.0000      -0.539856       -14.6902
  65   2.0000      -0.538385       -14.6502
  66   2.0000      -0.534568       -14.5463
  67   2.0000      -0.532844       -14.4994
  68   2.0000      -0.530474       -14.4349
  69   2.0000      -0.528815       -14.3898
  70   2.0000      -0.527824       -14.3628
  71   2.0000      -0.525992       -14.3130
  72   2.0000      -0.521785       -14.1985
  73   2.0000      -0.518480       -14.1085
  74   2.0000      -0.516205       -14.0467
  75   2.0000      -0.512859       -13.9556
  76   2.0000      -0.511704       -13.9242
  77   2.0000      -0.506800       -13.7907
  78   2.0000      -0.503925       -13.7125
  79   2.0000      -0.502356       -13.6698
  80   2.0000      -0.498144       -13.5552
  81   2.0000      -0.496398       -13.5077
  82   2.0000      -0.492605       -13.4045
  83   2.0000      -0.489199       -13.3118
  84   2.0000      -0.486342       -13.2340
  85   2.0000      -0.479333       -13.0433
  86   2.0000      -0.478745       -13.0273
  87   2.0000      -0.476982       -12.9794
  88   2.0000      -0.475727       -12.9452
  89   2.0000      -0.472820       -12.8661
  90   2.0000      -0.470311       -12.7978
  91   2.0000      -0.465568       -12.6687
  92   2.0000      -0.462863       -12.5951
  93   2.0000      -0.461652       -12.5622
  94   2.0000      -0.460736       -12.5373
  95   2.0000      -0.457374       -12.4458
  96   2.0000      -0.453850       -12.3499
  97   2.0000      -0.453773       -12.3478
  98   2.0000      -0.450512       -12.2590
  99   2.0000      -0.448263       -12.1979
 100   2.0000      -0.445983       -12.1358
 101   2.0000      -0.443608       -12.0712
 102   2.0000      -0.441020       -12.0008
 103   2.0000      -0.440262       -11.9801
 104   2.0000      -0.437476       -11.9043
 105   2.0000      -0.435679       -11.8554
 106   2.0000      -0.432067       -11.7571
 107   2.0000      -0.430817       -11.7231
 108   2.0000      -0.429124       -11.6771
 109   2.0000      -0.427689       -11.6380
 110   2.0000      -0.426586       -11.6080
 111   2.0000      -0.423168       -11.5150
 112   2.0000      -0.419162       -11.4060
 113   2.0000      -0.415200       -11.2982
 114   2.0000      -0.413563       -11.2536
 115   2.0000      -0.410678       -11.1751
 116   2.0000      -0.400501       -10.8982
 117   2.0000      -0.388091       -10.5605
 118   2.0000      -0.364749        -9.9253
 119   2.0000      -0.346850        -9.4383
 120   2.0000      -0.322586        -8.7780
 121   2.0000      -0.255900        -6.9634
 122   2.0000      -0.236504        -6.4356
 123   2.0000      -0.228971        -6.2306
 124   1.2000      -0.273023        -7.4293
 125   1.2000      -0.255891        -6.9632
 126   1.2000      -0.267190        -7.2706
 127   1.2000      -0.273160        -7.4331
 128   1.2000      -0.263612        -7.1732
 129   0.0000      -0.035326        -0.9613
 130   0.0000      -0.021238        -0.5779
 131   0.0000      -0.015213        -0.4140
 132   0.0000      -0.001880        -0.0511
 133   0.0000       0.018738         0.5099

MULLIKEN ATOMIC CHARGES AND SPIN DENSITIES
------------------------------------------
   0 Au:    0.163155    0.004225
   1 Au:    0.321202    0.008078
   2 Au:    0.078809    0.008369
   3 Au:    0.313451    0.005091
   4 Au:    0.267050    0.007279
   5 Au:    0.173833    0.007394
   6 Au:   -0.075632    0.008766
   7 Au:   -0.092500    0.009846
   8 Au:    0.343038    0.003251
   9 Au:   -0.013681    0.009277
  10 Au:    0.209483    0.008818
  11 Au:    0.110743    0.009424
  12 Fe:   -1.798951    2.910182
Sum of atomic charges       :    0.0000000

LOEWDIN ATOMIC CHARGES AND SPIN DENSITIES
-----------------------------------------
   0 Au:    0.057402    0.004988
   1 Au:    0.063389    0.011269
   2 Au:   -0.012827    0.010267
   3 Au:    0.063301    0.007786
   4 Au:    0.023819    0.009744
   5 Au:    0.001833    0.010364
   6 Au:   -0.047112    0.010378
   7 Au:   -0.059738    0.011641
   8 Au:    0.157082    0.004076
   9 Au:   -0.027599    0.011930
  10 Au:    0.009481    0.011728
  11 Au:    0.006029    0.011223
  12 Fe:   -0.235060    2.884606

  Mayer bond orders larger than 0.100000
B(  0-Au,  2-Au) :   0.1778 B(  0-Au,  5-Au) :   0.3170 B(  0-Au, 10-Au) :   0.2523
B(  0-Au, 11-Au) :   0.1532 B(  0-Au, 12-Fe) :   0.2060 B(  1-Au,  7-Au) :   0.2545
B(  1-Au, 11-Au) :   0.3432 B(  1-Au, 12-Fe) :   0.4293 B(  2-Au,  3-Au) :   0.2695
B(  2-Au,  4-Au) :   0.2622 B(  2-Au, 11-Au) :   0.1840 B(  2-Au, 12-Fe) :   0.4132
B(  3-Au,  4-Au) :   0.2363 B(  3-Au,  5-Au) :   0.1716 B(  3-Au,  6-Au) :   0.2744
B(  3-Au, 12-Fe) :   0.3034 B(  4-Au,  7-Au) :   0.2682 B(  4-Au, 12-Fe) :   0.4242
B(  5-Au,  6-Au) :   0.3400 B(  5-Au, 10-Au) :   0.1329 B(  5-Au, 12-Fe) :   0.4115
B(  6-Au,  7-Au) :   0.1351 B(  6-Au,  8-Au) :   0.3130 B(  6-Au,  9-Au) :   0.1636
B(  6-Au, 12-Fe) :   0.4047 B(  7-Au,  8-Au) :   0.3301 B(  7-Au,  9-Au) :   0.1207
B(  7-Au, 12-Fe) :   0.4057 B(  8-Au,  9-Au) :   0.2968 B(  9-Au, 10-Au) :   0.4743
B(  9-Au, 12-Fe) :   0.4619 B( 10-Au, 12-Fe) :   0.4545 B( 11-Au, 12-Fe) :   0.4472

FINAL SINGLE POINT ENERGY     -2880.107558278169

DIPOLE MOMENT
-------------
                                X             Y             Z
Electronic contribution:     -8.94085      -5.68933       2.44724
Nuclear contribution   :      8.75580       5.41869      -2.23150
                        -----------------------------------------
Total Dipole Moment    :     -0.18505      -0.27064       0.21575
                        -----------------------------------------
Magnitude (a.u.)       :      0.39248
Magnitude (Debye)      :      0.99759

Rotational constants in cm-1:     0.001610     0.001188     0.001102
Rotational constants in MHz :    48.266877    35.619819    33.022487

                             ****ORCA TERMINATED NORMALLY****
TOTAL RUN TIME: 0 days 3 hours 17 minutes 37 seconds 456 msec
