                         Program Version 5.0.3 -  RELEASE  -
|  1> !SC-NEVPT2 def2-TZVP def2-TZVP/C
|  2> !MOREAD RIJCOSX def2/J
|  3> %maxcore 4000
|  4> %moinp "casscf.gbw"
|  5> %pal nprocs 8 end
|  6>
|  7> %casscf
|  8>  mult 5,3
|  9>  bweight 1,1
| 10>  nroots 5,45
| 11>  nel 6
| 12>  norb 5
| 13>  ptsettings
| 14>   d4tpre 1e-14 # default = 1e-10
| 15>   d3tpre 1e-14
| 16>  end
| 17>  rel
| 18>    dosoc true
| 19>    gtensor true
| 20>  end
| 21> end
| 22>
| 23>
| 24> *xyzfile 0 5 pbe.xyz
| 25>
| 26>
| 27>                          ****END OF INPUT****

CARTESIAN COORDINATES (ANGSTROEM)
---------------------------------
  Au     7.434561    6.602640    6.471896
  Au     8.101300    9.139070    6.876856
  Au     6.046342    4.238871    6.544525
  Au     6.406096    5.497567    8.951324
  Au     4.482509    6.485011    6.897768
  Au     5.930557   10.688833    7.735827
  Au     6.465513    7.380443   10.819109
  Au     7.748461    9.612338    9.646551
  Au     4.934744    9.617670   10.116784
  Au     3.691781    8.922911    7.642558
  Fe     6.104069    8.048625    8.263127

 Total Charge           Charge          ....    0
 Multiplicity           Mult            ....    5
 Number of Electrons    NEL             ....  216
 Basis Dimension        Dim             ....  445

ORBITAL ENERGIES
----------------

  NO   OCC          E(Eh)            E(eV)
   0   2.0000    -261.270982     -7109.5449
   1   2.0000     -31.821005      -865.8936
   2   2.0000     -27.307582      -743.0771
   3   2.0000     -27.302826      -742.9477
   4   2.0000     -27.295598      -742.7510
   5   2.0000      -4.720426      -128.4493
   6   2.0000      -4.717726      -128.3758
   7   2.0000      -4.707868      -128.1076
   8   2.0000      -4.707583      -128.0998
   9   2.0000      -4.705857      -128.0529
  10   2.0000      -4.704326      -128.0112
  11   2.0000      -4.704201      -128.0078
  12   2.0000      -4.702214      -127.9538
  13   2.0000      -4.702149      -127.9520
  14   2.0000      -4.701533      -127.9352
  15   2.0000      -4.051527      -110.2476
  16   2.0000      -2.761138       -75.1344
  17   2.0000      -2.758332       -75.0580
  18   2.0000      -2.758221       -75.0550
  19   2.0000      -2.756527       -75.0089
  20   2.0000      -2.756440       -75.0066
  21   2.0000      -2.751907       -74.8832
  22   2.0000      -2.747994       -74.7767
  23   2.0000      -2.746815       -74.7446
  24   2.0000      -2.745848       -74.7183
  25   2.0000      -2.745562       -74.7105
  26   2.0000      -2.745367       -74.7052
  27   2.0000      -2.743751       -74.6613
  28   2.0000      -2.743331       -74.6498
  29   2.0000      -2.742511       -74.6275
  30   2.0000      -2.742306       -74.6219
  31   2.0000      -2.741094       -74.5890
  32   2.0000      -2.740030       -74.5600
  33   2.0000      -2.739913       -74.5568
  34   2.0000      -2.739043       -74.5331
  35   2.0000      -2.738495       -74.5182
  36   2.0000      -2.737942       -74.5032
  37   2.0000      -2.737912       -74.5024
  38   2.0000      -2.737291       -74.4855
  39   2.0000      -2.736404       -74.4613
  40   2.0000      -2.735606       -74.4396
  41   2.0000      -2.735499       -74.4367
  42   2.0000      -2.734807       -74.4179
  43   2.0000      -2.734660       -74.4139
  44   2.0000      -2.733501       -74.3823
  45   2.0000      -2.732969       -74.3679
  46   2.0000      -2.638514       -71.7976
  47   2.0000      -2.636320       -71.7379
  48   2.0000      -2.630883       -71.5900
  49   2.0000      -0.558218       -15.1899
  50   2.0000      -0.554195       -15.0804
  51   2.0000      -0.548212       -14.9176
  52   2.0000      -0.544050       -14.8043
  53   2.0000      -0.537643       -14.6300
  54   2.0000      -0.535267       -14.5654
  55   2.0000      -0.531990       -14.4762
  56   2.0000      -0.531692       -14.4681
  57   2.0000      -0.526671       -14.3315
  58   2.0000      -0.519375       -14.1329
  59   2.0000      -0.519337       -14.1319
  60   2.0000      -0.513442       -13.9715
  61   2.0000      -0.512926       -13.9574
  62   2.0000      -0.507989       -13.8231
  63   2.0000      -0.506946       -13.7947
  64   2.0000      -0.506278       -13.7765
  65   2.0000      -0.505805       -13.7636
  66   2.0000      -0.501885       -13.6570
  67   2.0000      -0.496374       -13.5070
  68   2.0000      -0.494141       -13.4463
  69   2.0000      -0.492911       -13.4128
  70   2.0000      -0.488028       -13.2799
  71   2.0000      -0.485603       -13.2139
  72   2.0000      -0.477563       -12.9951
  73   2.0000      -0.472917       -12.8687
  74   2.0000      -0.466679       -12.6990
  75   2.0000      -0.463102       -12.6016
  76   2.0000      -0.462948       -12.5974
  77   2.0000      -0.461204       -12.5500
  78   2.0000      -0.456768       -12.4293
  79   2.0000      -0.456081       -12.4106
  80   2.0000      -0.453045       -12.3280
  81   2.0000      -0.450312       -12.2536
  82   2.0000      -0.449373       -12.2281
  83   2.0000      -0.446244       -12.1429
  84   2.0000      -0.445730       -12.1289
  85   2.0000      -0.443576       -12.0703
  86   2.0000      -0.441250       -12.0070
  87   2.0000      -0.439942       -11.9714
  88   2.0000      -0.434815       -11.8319
  89   2.0000      -0.433745       -11.8028
  90   2.0000      -0.431338       -11.7373
  91   2.0000      -0.428557       -11.6616
  92   2.0000      -0.427015       -11.6197
  93   2.0000      -0.425582       -11.5807
  94   2.0000      -0.423890       -11.5346
  95   2.0000      -0.419345       -11.4110
  96   2.0000      -0.415911       -11.3175
  97   2.0000      -0.404132       -10.9970
  98   2.0000      -0.398822       -10.8525
  99   2.0000      -0.390385       -10.6229
 100   2.0000      -0.371767       -10.1163
 101   2.0000      -0.358834        -9.7644
 102   2.0000      -0.296774        -8.0756
 103   2.0000      -0.292639        -7.9631
 104   2.0000      -0.228682        -6.2227
 105   1.2000      -0.146488        -3.9861
 106   1.2000      -0.132511        -3.6058
 107   1.2000      -0.098028        -2.6675
 108   1.2000      -0.153643        -4.1809
 109   1.2000      -0.184385        -5.0174
 110   0.0000      -0.042289        -1.1507
 111   0.0000      -0.002774        -0.0755
 112   0.0000       0.002658         0.0723
 113   0.0000       0.005494         0.1495
 114   0.0000       0.021282         0.5791

MULLIKEN ATOMIC CHARGES AND SPIN DENSITIES
------------------------------------------
   0 Au:   -0.064872    0.128781
   1 Au:    0.208934    0.037238
   2 Au:    0.347455    0.015281
   3 Au:   -0.069530    0.131830
   4 Au:    0.153489    0.004960
   5 Au:    0.161389    0.105218
   6 Au:    0.209280    0.037932
   7 Au:    0.364644    0.025307
   8 Au:    0.165473    0.105895
   9 Au:    0.165821    0.007335
  10 Fe:   -1.642082    2.400222
Sum of atomic charges       :    0.0000000

LOEWDIN ATOMIC CHARGES AND SPIN DENSITIES
-----------------------------------------
   0 Au:   -0.046415    0.089221
   1 Au:    0.068872    0.075900
   2 Au:    0.123298    0.032606
   3 Au:   -0.047758    0.090561
   4 Au:    0.040483    0.023142
   5 Au:    0.010778    0.085511
   6 Au:    0.068472    0.077610
   7 Au:    0.093615    0.041682
   8 Au:    0.012005    0.085879
   9 Au:    0.114568    0.021692
  10 Fe:   -0.437919    2.376197

  Mayer bond orders larger than 0.100000
B(  0-Au,  1-Au) :   0.3977 B(  0-Au,  2-Au) :   0.3196 B(  0-Au,  3-Au) :   0.1381
B(  0-Au,  4-Au) :   0.1799 B(  0-Au, 10-Fe) :   0.3943 B(  1-Au,  5-Au) :   0.1928
B(  1-Au,  7-Au) :   0.1344 B(  1-Au, 10-Fe) :   0.3758 B(  2-Au,  3-Au) :   0.3220
B(  2-Au,  4-Au) :   0.3177 B(  3-Au,  4-Au) :   0.1798 B(  3-Au,  6-Au) :   0.3964
B(  3-Au, 10-Fe) :   0.3940 B(  4-Au,  9-Au) :   0.4179 B(  4-Au, 10-Fe) :   0.3352
B(  5-Au,  7-Au) :   0.2290 B(  5-Au,  8-Au) :   0.1666 B(  5-Au, 10-Fe) :   0.3330
B(  6-Au,  7-Au) :   0.1363 B(  6-Au,  8-Au) :   0.1945 B(  6-Au, 10-Fe) :   0.3749
B(  7-Au,  8-Au) :   0.2280 B(  7-Au, 10-Fe) :   0.2974 B(  8-Au, 10-Fe) :   0.3324
B(  9-Au, 10-Fe) :   0.4009

FINAL SINGLE POINT ENERGY     -2615.608582400969

DIPOLE MOMENT
-------------
                                X             Y             Z
Electronic contribution:      0.56659      -8.54149      -3.51992
Nuclear contribution   :     -0.76202       8.71534       3.51535
                        -----------------------------------------
Total Dipole Moment    :     -0.19544       0.17385      -0.00457
                        -----------------------------------------
Magnitude (a.u.)       :      0.26161
Magnitude (Debye)      :      0.66496

Rotational constants in cm-1:     0.002296     0.001381     0.001375
Rotational constants in MHz :    68.834349    41.409164    41.229294

                             ****ORCA TERMINATED NORMALLY****
TOTAL RUN TIME: 0 days 3 hours 18 minutes 7 seconds 899 msec
