                         Program Version 5.0.3 -  RELEASE  -
|  1> !RI-B2PLYP def2-TZVP def2-TZVP/C
|  2> !RIJCOSX VERYSLOWCONV
|  3>
|  4> %scf
|  5>   AutoTRAHIter 200
|  6>   maxiter 400
|  7> end
|  8>
|  9>
| 10> %pal nprocs 6 end
| 11>
| 12> *xyzfile 0 5 pbe.xyz
| 13>
| 14> $new_job
| 15>
| 16> !RI-B2PLYP def2-TZVP def2-TZVP/C
| 17> !RIJCOSX VERYSLOWCONV
| 18>
| 19> %scf
| 20>   AutoTRAHIter 200
| 21>   maxiter 400
| 22> end
| 23>
| 24>
| 25> %pal nprocs 6 end
| 26>
| 27> *xyzfile 0 3 pbe.xyz
| 28>
| 29>
| 30>
| 31>
| 32>
| 33>                          ****END OF INPUT****
 Total Charge           Charge          ....    0
 Multiplicity           Mult            ....    5
 Number of Electrons    NEL             ....  328
MP2 TOTAL ENERGY:    -3213.728920284 Eh
FINAL SINGLE POINT ENERGY     -3213.728920284255

CARTESIAN COORDINATES (ANGSTROEM)
---------------------------------
  Au     6.439690    8.402611    8.742717
  Au     6.016457    9.603232    6.197072
  Au     8.720283    4.487923   10.492521
  Au    10.599760    6.650051    6.568332
  Au     7.959489    5.668176    8.078503
  Au     8.260800    5.826897    5.309550
  Au     5.939499    6.803164    6.524347
  Au     9.623428    8.081070    4.309824
  Au     8.176761    9.826803   10.278955
  Au     8.100625    7.126089   10.538007
  Au    10.519362    6.106302    9.273093
  Au    10.591177    8.493238   10.836226
  Au    10.490868    9.723888    6.305963
  Au    10.485514   10.599883    8.923313
  Au     8.084380   10.742173    7.563406
  Au    11.884882    8.260379    8.346099
  Cr     8.298009    8.180011    6.705880

 Multiplicity           Mult            ....    3
 Number of Electrons    NEL             ....  328
 Basis Dimension        Dim             ....  685

ORBITAL ENERGIES
----------------
                 SPIN UP ORBITALS
  NO   OCC          E(Eh)            E(eV)
   0   1.0000    -217.764154     -5925.6639
   1   1.0000     -25.449637      -692.5198
   2   1.0000     -21.588847      -587.4624
   3   1.0000     -21.588724      -587.4591
   4   1.0000     -21.583414      -587.3146
   5   1.0000      -4.407098      -119.9232
   6   1.0000      -4.407094      -119.9231
   7   1.0000      -4.405407      -119.8772
   8   1.0000      -4.405235      -119.8725
   9   1.0000      -4.404479      -119.8520
  10   1.0000      -4.398424      -119.6872
  11   1.0000      -4.398322      -119.6844
  12   1.0000      -4.397148      -119.6525
  13   1.0000      -4.397050      -119.6498
  14   1.0000      -4.396679      -119.6397
  15   1.0000      -4.396598      -119.6375
  16   1.0000      -4.394013      -119.5672
  17   1.0000      -4.393954      -119.5656
  18   1.0000      -4.391460      -119.4977
  19   1.0000      -4.388954      -119.4295
  20   1.0000      -4.382512      -119.2542
  21   1.0000      -3.240172       -88.1696
  22   1.0000      -2.529027       -68.8183
  23   1.0000      -2.528919       -68.8154
  24   1.0000      -2.527399       -68.7740
  25   1.0000      -2.524659       -68.6995
  26   1.0000      -2.524506       -68.6953
  27   1.0000      -2.524103       -68.6843
  28   1.0000      -2.523998       -68.6815
  29   1.0000      -2.523374       -68.6645
  30   1.0000      -2.522341       -68.6364
  31   1.0000      -2.521876       -68.6237
  32   1.0000      -2.521462       -68.6125
  33   1.0000      -2.520854       -68.5959
  34   1.0000      -2.520112       -68.5757
  35   1.0000      -2.519323       -68.5543
  36   1.0000      -2.519167       -68.5500
  37   1.0000      -2.519054       -68.5469
  38   1.0000      -2.518753       -68.5387
  39   1.0000      -2.518664       -68.5363
  40   1.0000      -2.517699       -68.5101
  41   1.0000      -2.515961       -68.4628
  42   1.0000      -2.515740       -68.4568
  43   1.0000      -2.515544       -68.4514
  44   1.0000      -2.515141       -68.4405
  45   1.0000      -2.514867       -68.4330
  46   1.0000      -2.513820       -68.4045
  47   1.0000      -2.513802       -68.4040
  48   1.0000      -2.513529       -68.3966
  49   1.0000      -2.512877       -68.3789
  50   1.0000      -2.512655       -68.3728
  51   1.0000      -2.512319       -68.3637
  52   1.0000      -2.512144       -68.3589
  53   1.0000      -2.511789       -68.3493
  54   1.0000      -2.511546       -68.3427
  55   1.0000      -2.511459       -68.3403
  56   1.0000      -2.510690       -68.3193
  57   1.0000      -2.510471       -68.3134
  58   1.0000      -2.509917       -68.2983
  59   1.0000      -2.509210       -68.2791
  60   1.0000      -2.508674       -68.2645
  61   1.0000      -2.508505       -68.2599
  62   1.0000      -2.508370       -68.2562
  63   1.0000      -2.507754       -68.2395
  64   1.0000      -2.505511       -68.1784
  65   1.0000      -2.505273       -68.1719
  66   1.0000      -2.502986       -68.1097
  67   1.0000      -2.501840       -68.0785
  68   1.0000      -2.497996       -67.9739
  69   1.0000      -2.497294       -67.9548
  70   1.0000      -2.133012       -58.0422
  71   1.0000      -2.122215       -57.7484
  72   1.0000      -2.120595       -57.7043
  73   1.0000      -0.501348       -13.6424
  74   1.0000      -0.494414       -13.4537
  75   1.0000      -0.481978       -13.1153
  76   1.0000      -0.476660       -12.9706
  77   1.0000      -0.471914       -12.8414
  78   1.0000      -0.466872       -12.7042
  79   1.0000      -0.463803       -12.6207
  80   1.0000      -0.463238       -12.6053
  81   1.0000      -0.458700       -12.4819
  82   1.0000      -0.458490       -12.4761
  83   1.0000      -0.457710       -12.4549
  84   1.0000      -0.454485       -12.3672
  85   1.0000      -0.452760       -12.3202
  86   1.0000      -0.452617       -12.3163
  87   1.0000      -0.451092       -12.2748
  88   1.0000      -0.450593       -12.2613
  89   1.0000      -0.449546       -12.2328
  90   1.0000      -0.449202       -12.2234
  91   1.0000      -0.446457       -12.1487
  92   1.0000      -0.445435       -12.1209
  93   1.0000      -0.444728       -12.1017
  94   1.0000      -0.442857       -12.0508
  95   1.0000      -0.441641       -12.0177
  96   1.0000      -0.440377       -11.9833
  97   1.0000      -0.437240       -11.8979
  98   1.0000      -0.436323       -11.8729
  99   1.0000      -0.433269       -11.7898
 100   1.0000      -0.432352       -11.7649
 101   1.0000      -0.428388       -11.6570
 102   1.0000      -0.426306       -11.6004
 103   1.0000      -0.423399       -11.5213
 104   1.0000      -0.423281       -11.5180
 105   1.0000      -0.418494       -11.3878
 106   1.0000      -0.416755       -11.3405
 107   1.0000      -0.410880       -11.1806
 108   1.0000      -0.409184       -11.1345
 109   1.0000      -0.408221       -11.1083
 110   1.0000      -0.406878       -11.0717
 111   1.0000      -0.405015       -11.0210
 112   1.0000      -0.402340       -10.9482
 113   1.0000      -0.399320       -10.8660
 114   1.0000      -0.392477       -10.6798
 115   1.0000      -0.389912       -10.6101
 116   1.0000      -0.386884       -10.5276
 117   1.0000      -0.385432       -10.4881
 118   1.0000      -0.383671       -10.4402
 119   1.0000      -0.381732       -10.3874
 120   1.0000      -0.380933       -10.3657
 121   1.0000      -0.379096       -10.3157
 122   1.0000      -0.378621       -10.3028
 123   1.0000      -0.378277       -10.2934
 124   1.0000      -0.373845       -10.1728
 125   1.0000      -0.373239       -10.1564
 126   1.0000      -0.370724       -10.0879
 127   1.0000      -0.370248       -10.0749
 128   1.0000      -0.368984       -10.0406
 129   1.0000      -0.368466       -10.0265
 130   1.0000      -0.366947        -9.9851
 131   1.0000      -0.365294        -9.9402
 132   1.0000      -0.363892        -9.9020
 133   1.0000      -0.362123        -9.8539
 134   1.0000      -0.361811        -9.8454
 135   1.0000      -0.361434        -9.8351
 136   1.0000      -0.360704        -9.8153
 137   1.0000      -0.359404        -9.7799
 138   1.0000      -0.359310        -9.7773
 139   1.0000      -0.354978        -9.6595
 140   1.0000      -0.354555        -9.6479
 141   1.0000      -0.352694        -9.5973
 142   1.0000      -0.351675        -9.5695
 143   1.0000      -0.350555        -9.5391
 144   1.0000      -0.347854        -9.4656
 145   1.0000      -0.346691        -9.4339
 146   1.0000      -0.345795        -9.4096
 147   1.0000      -0.343404        -9.3445
 148   1.0000      -0.338877        -9.2213
 149   1.0000      -0.337109        -9.1732
 150   1.0000      -0.336076        -9.1451
 151   1.0000      -0.333865        -9.0849
 152   1.0000      -0.332465        -9.0468
 153   1.0000      -0.329610        -8.9691
 154   1.0000      -0.328738        -8.9454
 155   1.0000      -0.324968        -8.8428
 156   1.0000      -0.321996        -8.7620
 157   1.0000      -0.319320        -8.6891
 158   1.0000      -0.318148        -8.6573
 159   1.0000      -0.314934        -8.5698
 160   1.0000      -0.311848        -8.4858
 161   1.0000      -0.254077        -6.9138
 162   1.0000      -0.249965        -6.8019
 163   1.0000      -0.230176        -6.2634
 164   1.0000      -0.229668        -6.2496
 165   0.0000      -0.143908        -3.9159
 166   0.0000      -0.090569        -2.4645
 167   0.0000      -0.087088        -2.3698
 168   0.0000      -0.072234        -1.9656
 169   0.0000      -0.067447        -1.8353

                 SPIN DOWN ORBITALS
  NO   OCC          E(Eh)            E(eV)
   0   1.0000    -217.763038     -5925.6335
   1   1.0000     -25.379001      -690.5977
   2   1.0000     -21.528895      -585.8310
   3   1.0000     -21.528814      -585.8288
   4   1.0000     -21.507576      -585.2509
   5   1.0000      -4.406720      -119.9130
   6   1.0000      -4.406717      -119.9129
   7   1.0000      -4.405332      -119.8752
   8   1.0000      -4.405124      -119.8695
   9   1.0000      -4.405037      -119.8672
  10   1.0000      -4.399512      -119.7168
  11   1.0000      -4.399409      -119.7140
  12   1.0000      -4.397132      -119.6521
  13   1.0000      -4.397075      -119.6505
  14   1.0000      -4.396890      -119.6455
  15   1.0000      -4.396827      -119.6438
  16   1.0000      -4.395062      -119.5957
  17   1.0000      -4.395004      -119.5941
  18   1.0000      -4.393049      -119.5409
  19   1.0000      -4.389846      -119.4538
  20   1.0000      -4.384980      -119.3214
  21   1.0000      -3.024202       -82.2927
  22   1.0000      -2.528635       -68.8077
  23   1.0000      -2.528193       -68.7956
  24   1.0000      -2.527938       -68.7887
  25   1.0000      -2.524455       -68.6939
  26   1.0000      -2.524255       -68.6885
  27   1.0000      -2.523361       -68.6641
  28   1.0000      -2.522930       -68.6524
  29   1.0000      -2.522624       -68.6441
  30   1.0000      -2.521874       -68.6237
  31   1.0000      -2.521531       -68.6143
  32   1.0000      -2.521439       -68.6118
  33   1.0000      -2.521062       -68.6016
  34   1.0000      -2.520380       -68.5830
  35   1.0000      -2.520122       -68.5760
  36   1.0000      -2.519656       -68.5633
  37   1.0000      -2.518783       -68.5396
  38   1.0000      -2.518697       -68.5372
  39   1.0000      -2.518333       -68.5273
  40   1.0000      -2.518242       -68.5249
  41   1.0000      -2.516903       -68.4884
  42   1.0000      -2.516014       -68.4642
  43   1.0000      -2.515385       -68.4471
  44   1.0000      -2.515232       -68.4429
  45   1.0000      -2.515062       -68.4383
  46   1.0000      -2.514672       -68.4277
  47   1.0000      -2.514623       -68.4264
  48   1.0000      -2.514187       -68.4145
  49   1.0000      -2.513791       -68.4037
  50   1.0000      -2.513008       -68.3824
  51   1.0000      -2.512817       -68.3772
  52   1.0000      -2.512506       -68.3688
  53   1.0000      -2.511828       -68.3503
  54   1.0000      -2.511644       -68.3453
  55   1.0000      -2.511634       -68.3450
  56   1.0000      -2.511245       -68.3345
  57   1.0000      -2.511167       -68.3323
  58   1.0000      -2.510241       -68.3071
  59   1.0000      -2.510074       -68.3026
  60   1.0000      -2.509513       -68.2873
  61   1.0000      -2.509308       -68.2817
  62   1.0000      -2.508762       -68.2669
  63   1.0000      -2.508705       -68.2653
  64   1.0000      -2.506447       -68.2039
  65   1.0000      -2.506151       -68.1958
  66   1.0000      -2.504675       -68.1557
  67   1.0000      -2.503641       -68.1275
  68   1.0000      -2.499568       -68.0167
  69   1.0000      -2.499178       -68.0061
  70   1.0000      -1.894340       -51.5476
  71   1.0000      -1.892601       -51.5003
  72   1.0000      -1.843271       -50.1580
  73   1.0000      -0.500122       -13.6090
  74   1.0000      -0.484660       -13.1883
  75   1.0000      -0.481028       -13.0894
  76   1.0000      -0.477963       -13.0060
  77   1.0000      -0.467884       -12.7318
  78   1.0000      -0.464202       -12.6316
  79   1.0000      -0.462502       -12.5853
  80   1.0000      -0.462062       -12.5733
  81   1.0000      -0.458388       -12.4734
  82   1.0000      -0.457021       -12.4362
  83   1.0000      -0.456589       -12.4244
  84   1.0000      -0.454190       -12.3591
  85   1.0000      -0.452806       -12.3215
  86   1.0000      -0.452664       -12.3176
  87   1.0000      -0.450514       -12.2591
  88   1.0000      -0.450145       -12.2491
  89   1.0000      -0.449772       -12.2389
  90   1.0000      -0.449294       -12.2259
  91   1.0000      -0.448401       -12.2016
  92   1.0000      -0.445474       -12.1220
  93   1.0000      -0.445321       -12.1178
  94   1.0000      -0.444567       -12.0973
  95   1.0000      -0.442389       -12.0380
  96   1.0000      -0.437278       -11.8989
  97   1.0000      -0.434869       -11.8334
  98   1.0000      -0.434679       -11.8282
  99   1.0000      -0.430004       -11.7010
 100   1.0000      -0.429899       -11.6981
 101   1.0000      -0.426569       -11.6075
 102   1.0000      -0.425552       -11.5799
 103   1.0000      -0.421082       -11.4582
 104   1.0000      -0.419578       -11.4173
 105   1.0000      -0.413547       -11.2532
 106   1.0000      -0.412196       -11.2164
 107   1.0000      -0.409597       -11.1457
 108   1.0000      -0.407357       -11.0847
 109   1.0000      -0.406491       -11.0612
 110   1.0000      -0.405555       -11.0357
 111   1.0000      -0.403133       -10.9698
 112   1.0000      -0.399295       -10.8654
 113   1.0000      -0.392251       -10.6737
 114   1.0000      -0.389132       -10.5888
 115   1.0000      -0.388075       -10.5601
 116   1.0000      -0.386937       -10.5291
 117   1.0000      -0.383182       -10.4269
 118   1.0000      -0.382210       -10.4005
 119   1.0000      -0.381493       -10.3809
 120   1.0000      -0.379690       -10.3319
 121   1.0000      -0.379067       -10.3149
 122   1.0000      -0.377808       -10.2807
 123   1.0000      -0.375499       -10.2179
 124   1.0000      -0.374717       -10.1966
 125   1.0000      -0.373730       -10.1697
 126   1.0000      -0.372111       -10.1256
 127   1.0000      -0.369899       -10.0655
 128   1.0000      -0.368331       -10.0228
 129   1.0000      -0.365854        -9.9554
 130   1.0000      -0.365786        -9.9536
 131   1.0000      -0.364508        -9.9188
 132   1.0000      -0.363992        -9.9047
 133   1.0000      -0.362393        -9.8612
 134   1.0000      -0.361927        -9.8485
 135   1.0000      -0.360842        -9.8190
 136   1.0000      -0.360498        -9.8096
 137   1.0000      -0.359859        -9.7923
 138   1.0000      -0.354818        -9.6551
 139   1.0000      -0.354735        -9.6528
 140   1.0000      -0.352911        -9.6032
 141   1.0000      -0.351716        -9.5707
 142   1.0000      -0.349895        -9.5211
 143   1.0000      -0.349239        -9.5033
 144   1.0000      -0.346494        -9.4286
 145   1.0000      -0.346102        -9.4179
 146   1.0000      -0.339767        -9.2455
 147   1.0000      -0.339616        -9.2414
 148   1.0000      -0.338132        -9.2010
 149   1.0000      -0.334227        -9.0948
 150   1.0000      -0.331949        -9.0328
 151   1.0000      -0.330972        -9.0062
 152   1.0000      -0.328249        -8.9321
 153   1.0000      -0.323544        -8.8041
 154   1.0000      -0.323349        -8.7988
 155   1.0000      -0.319405        -8.6914
 156   1.0000      -0.312729        -8.5098
 157   1.0000      -0.266323        -7.2470
 158   1.0000      -0.262672        -7.1477
 159   1.0000      -0.245058        -6.6684
 160   1.0000      -0.228832        -6.2268
 161   1.0000      -0.224681        -6.1139
 162   1.0000      -0.172540        -4.6951
 163   0.0000      -0.085959        -2.3391
 164   0.0000      -0.084658        -2.3037
 165   0.0000      -0.082056        -2.2329
 166   0.0000      -0.069229        -1.8838
 167   0.0000      -0.061631        -1.6771

MULLIKEN ATOMIC CHARGES AND SPIN POPULATIONS
--------------------------------------------
   0 Au:    0.202973   -0.220808
   1 Au:    0.447442   -0.117109
   2 Au:    0.464976   -0.395474
   3 Au:    0.202641   -0.220088
   4 Au:   -0.478197    0.025343
   5 Au:    0.582755   -0.064267
   6 Au:    0.584401   -0.062616
   7 Au:    0.449140   -0.117427
   8 Au:    0.179424   -0.061769
   9 Au:   -0.170739    0.018630
  10 Au:   -0.177221    0.019372
  11 Au:    0.167187   -0.341541
  12 Au:    0.260886   -0.009107
  13 Au:    0.114399   -0.090877
  14 Au:    0.265586   -0.007978
  15 Au:    0.183894   -0.062740
  16 Cr:   -3.279546    3.708456
Sum of atomic charges         :    0.0000000

LOEWDIN ATOMIC CHARGES AND SPIN POPULATIONS
-------------------------------------------
   0 Au:    0.016329   -0.092139
   1 Au:    0.174302   -0.114965
   2 Au:    0.135152   -0.270254
   3 Au:    0.016116   -0.091933
   4 Au:   -0.065470   -0.045926
   5 Au:    0.133739   -0.085165
   6 Au:    0.134273   -0.084337
   7 Au:    0.174188   -0.115602
   8 Au:    0.046247   -0.100403
   9 Au:   -0.054145   -0.103541
  10 Au:   -0.055076   -0.103403
  11 Au:    0.060080   -0.199010
  12 Au:    0.027421   -0.074383
  13 Au:    0.003803   -0.108356
  14 Au:    0.028280   -0.074054
  15 Au:    0.047066   -0.100767
  16 Cr:   -0.822307    3.764238

  Mayer bond orders larger than 0.100000
B(  0-Au,  1-Au) :   0.1838 B(  0-Au,  6-Au) :   0.2070 B(  0-Au,  8-Au) :   0.2447
B(  0-Au,  9-Au) :   0.2517 B(  0-Au, 16-Cr) :   0.4435 B(  1-Au,  6-Au) :   0.1988
B(  1-Au, 14-Au) :   0.2773 B(  1-Au, 16-Cr) :   0.4291 B(  2-Au,  4-Au) :   0.3904
B(  2-Au,  9-Au) :   0.2292 B(  2-Au, 10-Au) :   0.2306 B(  3-Au,  5-Au) :   0.2074
B(  3-Au,  7-Au) :   0.1838 B(  3-Au, 10-Au) :   0.2510 B(  3-Au, 15-Au) :   0.2453
B(  3-Au, 16-Cr) :   0.4437 B(  4-Au,  5-Au) :   0.2037 B(  4-Au,  6-Au) :   0.2050
B(  4-Au,  9-Au) :   0.3018 B(  4-Au, 10-Au) :   0.3042 B(  4-Au, 16-Cr) :   0.3955
B(  5-Au,  6-Au) :   0.1552 B(  5-Au,  7-Au) :   0.2005 B(  5-Au, 16-Cr) :   0.3889
B(  6-Au, 16-Cr) :   0.3887 B(  7-Au, 12-Au) :   0.2774 B(  7-Au, 16-Cr) :   0.4266
B(  8-Au,  9-Au) :   0.3105 B(  8-Au, 11-Au) :   0.2233 B(  8-Au, 13-Au) :   0.2263
B(  8-Au, 14-Au) :   0.1229 B(  8-Au, 16-Cr) :   0.2726 B(  9-Au, 10-Au) :   0.2373
B(  9-Au, 11-Au) :   0.2423 B(  9-Au, 16-Cr) :   0.3068 B( 10-Au, 11-Au) :   0.2440
B( 10-Au, 15-Au) :   0.3110 B( 10-Au, 16-Cr) :   0.3087 B( 11-Au, 13-Au) :   0.1736
B( 11-Au, 15-Au) :   0.2213 B( 12-Au, 13-Au) :   0.2263 B( 12-Au, 14-Au) :   0.2201
B( 12-Au, 15-Au) :   0.1226 B( 12-Au, 16-Cr) :   0.5731 B( 13-Au, 14-Au) :   0.2251
B( 13-Au, 15-Au) :   0.2268 B( 13-Au, 16-Cr) :   0.2297 B( 14-Au, 16-Cr) :   0.5715
B( 15-Au, 16-Cr) :   0.2703

MP2 TOTAL ENERGY:    -3213.684387951 Eh
FINAL SINGLE POINT ENERGY     -3213.684387950665

DIPOLE MOMENT
-------------
                                X             Y             Z
Electronic contribution:     19.76627     -10.05524      45.76291
Nuclear contribution   :    -20.12713       9.87803     -46.30727
                        -----------------------------------------
Total Dipole Moment    :     -0.36086      -0.17721      -0.54436
                        -----------------------------------------
Magnitude (a.u.)       :      0.67672
Magnitude (Debye)      :      1.72010

Rotational constants in cm-1:     0.000865     0.000785     0.000717
Rotational constants in MHz :    25.929728    23.528301    21.497504

                             ****ORCA TERMINATED NORMALLY****
TOTAL RUN TIME: 0 days 0 hours 37 minutes 20 seconds 52 msec
