                         Program Version 5.0.3 -  RELEASE  -
|  1> !PBE def2-TZVP VERYSLOWCONV
|  2>
|  3> %scf
|  4>   AutoTRAHIter 600
|  5>   maxiter 800
|  6> end
|  7>
|  8>
|  9> %pal nprocs 6 end
| 10>
| 11> *xyzfile 0 5 pbe.xyz
| 12>
| 13> $new_job
| 14>
| 15> !PBE def2-TZVP VERYSLOWCONV
| 16> !HCORE KDIIS NOTRAH
| 17> %scf
| 18>   AutoTRAHIter 600
| 19>   maxiter 800
| 20> end
| 21>
| 22>
| 23> %pal nprocs 6 end
| 24>
| 25> *xyzfile 0 3 pbe.xyz
| 26>
| 27>
| 28>
| 29>
| 30>
| 31>                          ****END OF INPUT****
 Total Charge           Charge          ....    0
 Multiplicity           Mult            ....    5
 Number of Electrons    NEL             ....  328
FINAL SINGLE POINT ENERGY     -3217.503402522966

CARTESIAN COORDINATES (ANGSTROEM)
---------------------------------
  Au     6.439690    8.402611    8.742717
  Au     6.016457    9.603232    6.197072
  Au     8.720283    4.487923   10.492521
  Au    10.599760    6.650051    6.568332
  Au     7.959489    5.668176    8.078503
  Au     8.260800    5.826897    5.309550
  Au     5.939499    6.803164    6.524347
  Au     9.623428    8.081070    4.309824
  Au     8.176761    9.826803   10.278955
  Au     8.100625    7.126089   10.538007
  Au    10.519362    6.106302    9.273093
  Au    10.591177    8.493238   10.836226
  Au    10.490868    9.723888    6.305963
  Au    10.485514   10.599883    8.923313
  Au     8.084380   10.742173    7.563406
  Au    11.884882    8.260379    8.346099
  Cr     8.298009    8.180011    6.705880

 Multiplicity           Mult            ....    3
 Number of Electrons    NEL             ....  328
 Basis Dimension        Dim             ....  685

ORBITAL ENERGIES
----------------
                 SPIN UP ORBITALS
  NO   OCC          E(Eh)            E(eV)
   0   1.0000    -214.511291     -5837.1490
   1   1.0000     -24.304540      -661.3602
   2   1.0000     -20.672350      -562.5232
   3   1.0000     -20.668526      -562.4192
   4   1.0000     -20.668247      -562.4116
   5   1.0000      -4.035952      -109.8238
   6   1.0000      -4.035584      -109.8138
   7   1.0000      -4.033595      -109.7597
   8   1.0000      -4.032799      -109.7380
   9   1.0000      -4.032566      -109.7317
  10   1.0000      -4.031947      -109.7148
  11   1.0000      -4.030902      -109.6864
  12   1.0000      -4.027434      -109.5920
  13   1.0000      -4.027369      -109.5903
  14   1.0000      -4.023812      -109.4935
  15   1.0000      -4.023716      -109.4909
  16   1.0000      -4.023199      -109.4768
  17   1.0000      -4.022127      -109.4476
  18   1.0000      -4.022068      -109.4460
  19   1.0000      -4.015104      -109.2565
  20   1.0000      -4.012421      -109.1835
  21   1.0000      -2.792504       -75.9879
  22   1.0000      -2.252945       -61.3058
  23   1.0000      -2.252549       -61.2950
  24   1.0000      -2.251613       -61.2695
  25   1.0000      -2.248683       -61.1898
  26   1.0000      -2.248549       -61.1861
  27   1.0000      -2.248293       -61.1792
  28   1.0000      -2.248081       -61.1734
  29   1.0000      -2.247612       -61.1606
  30   1.0000      -2.247381       -61.1543
  31   1.0000      -2.246821       -61.1391
  32   1.0000      -2.246036       -61.1178
  33   1.0000      -2.245831       -61.1122
  34   1.0000      -2.245697       -61.1085
  35   1.0000      -2.245449       -61.1018
  36   1.0000      -2.245055       -61.0911
  37   1.0000      -2.244869       -61.0860
  38   1.0000      -2.244097       -61.0650
  39   1.0000      -2.243900       -61.0596
  40   1.0000      -2.243472       -61.0480
  41   1.0000      -2.242935       -61.0334
  42   1.0000      -2.242031       -61.0088
  43   1.0000      -2.240788       -60.9750
  44   1.0000      -2.240243       -60.9601
  45   1.0000      -2.240049       -60.9548
  46   1.0000      -2.239736       -60.9463
  47   1.0000      -2.239444       -60.9384
  48   1.0000      -2.239338       -60.9355
  49   1.0000      -2.239258       -60.9333
  50   1.0000      -2.238244       -60.9057
  51   1.0000      -2.237484       -60.8850
  52   1.0000      -2.236696       -60.8636
  53   1.0000      -2.236285       -60.8524
  54   1.0000      -2.236213       -60.8504
  55   1.0000      -2.236094       -60.8472
  56   1.0000      -2.235993       -60.8445
  57   1.0000      -2.235612       -60.8341
  58   1.0000      -2.234824       -60.8127
  59   1.0000      -2.232616       -60.7526
  60   1.0000      -2.232496       -60.7493
  61   1.0000      -2.232205       -60.7414
  62   1.0000      -2.231997       -60.7357
  63   1.0000      -2.230850       -60.7045
  64   1.0000      -2.230117       -60.6846
  65   1.0000      -2.226844       -60.5955
  66   1.0000      -2.226460       -60.5851
  67   1.0000      -2.226371       -60.5826
  68   1.0000      -2.224979       -60.5448
  69   1.0000      -2.222208       -60.4694
  70   1.0000      -1.790668       -48.7266
  71   1.0000      -1.784506       -48.5589
  72   1.0000      -1.770699       -48.1832
  73   1.0000      -0.425413       -11.5761
  74   1.0000      -0.396025       -10.7764
  75   1.0000      -0.391074       -10.6417
  76   1.0000      -0.388786       -10.5794
  77   1.0000      -0.377414       -10.2700
  78   1.0000      -0.370309       -10.0766
  79   1.0000      -0.367972       -10.0130
  80   1.0000      -0.365690        -9.9509
  81   1.0000      -0.361050        -9.8247
  82   1.0000      -0.356710        -9.7066
  83   1.0000      -0.355374        -9.6702
  84   1.0000      -0.354870        -9.6565
  85   1.0000      -0.352890        -9.6026
  86   1.0000      -0.350782        -9.5453
  87   1.0000      -0.350187        -9.5291
  88   1.0000      -0.348656        -9.4874
  89   1.0000      -0.348492        -9.4829
  90   1.0000      -0.346721        -9.4348
  91   1.0000      -0.346604        -9.4316
  92   1.0000      -0.343910        -9.3583
  93   1.0000      -0.342266        -9.3135
  94   1.0000      -0.338886        -9.2216
  95   1.0000      -0.337128        -9.1737
  96   1.0000      -0.335794        -9.1374
  97   1.0000      -0.334060        -9.0902
  98   1.0000      -0.331635        -9.0242
  99   1.0000      -0.331288        -9.0148
 100   1.0000      -0.329240        -8.9591
 101   1.0000      -0.326655        -8.8887
 102   1.0000      -0.322132        -8.7657
 103   1.0000      -0.321797        -8.7565
 104   1.0000      -0.317990        -8.6530
 105   1.0000      -0.315585        -8.5875
 106   1.0000      -0.314896        -8.5688
 107   1.0000      -0.312277        -8.4975
 108   1.0000      -0.310133        -8.4391
 109   1.0000      -0.309470        -8.4211
 110   1.0000      -0.306357        -8.3364
 111   1.0000      -0.304480        -8.2853
 112   1.0000      -0.301144        -8.1945
 113   1.0000      -0.298220        -8.1150
 114   1.0000      -0.296161        -8.0589
 115   1.0000      -0.290219        -7.8973
 116   1.0000      -0.287815        -7.8318
 117   1.0000      -0.285934        -7.7807
 118   1.0000      -0.284979        -7.7547
 119   1.0000      -0.284256        -7.7350
 120   1.0000      -0.283859        -7.7242
 121   1.0000      -0.281849        -7.6695
 122   1.0000      -0.281647        -7.6640
 123   1.0000      -0.280363        -7.6291
 124   1.0000      -0.278582        -7.5806
 125   1.0000      -0.277113        -7.5406
 126   1.0000      -0.275835        -7.5059
 127   1.0000      -0.272577        -7.4172
 128   1.0000      -0.272188        -7.4066
 129   1.0000      -0.271719        -7.3938
 130   1.0000      -0.271207        -7.3799
 131   1.0000      -0.270453        -7.3594
 132   1.0000      -0.269790        -7.3414
 133   1.0000      -0.268179        -7.2975
 134   1.0000      -0.267484        -7.2786
 135   1.0000      -0.267283        -7.2731
 136   1.0000      -0.266800        -7.2600
 137   1.0000      -0.264264        -7.1910
 138   1.0000      -0.262972        -7.1558
 139   1.0000      -0.259676        -7.0661
 140   1.0000      -0.258828        -7.0431
 141   1.0000      -0.258664        -7.0386
 142   1.0000      -0.257252        -7.0002
 143   1.0000      -0.256152        -6.9702
 144   1.0000      -0.256040        -6.9672
 145   1.0000      -0.251492        -6.8434
 146   1.0000      -0.251104        -6.8329
 147   1.0000      -0.251003        -6.8301
 148   1.0000      -0.248683        -6.7670
 149   1.0000      -0.247068        -6.7231
 150   1.0000      -0.244559        -6.6548
 151   1.0000      -0.243183        -6.6173
 152   1.0000      -0.241559        -6.5732
 153   1.0000      -0.240284        -6.5385
 154   1.0000      -0.240163        -6.5352
 155   1.0000      -0.234733        -6.3874
 156   1.0000      -0.230682        -6.2772
 157   1.0000      -0.225893        -6.1469
 158   1.0000      -0.224752        -6.1158
 159   1.0000      -0.221516        -6.0277
 160   1.0000      -0.215269        -5.8578
 161   1.0000      -0.209023        -5.6878
 162   1.0000      -0.201751        -5.4899
 163   1.0000      -0.200217        -5.4482
 164   1.0000      -0.197176        -5.3654
 165   0.0000      -0.180703        -4.9172
 166   0.0000      -0.178789        -4.8651
 167   0.0000      -0.153083        -4.1656
 168   0.0000      -0.138798        -3.7769
 169   0.0000      -0.135628        -3.6906

                 SPIN DOWN ORBITALS
  NO   OCC          E(Eh)            E(eV)
   0   1.0000    -214.511017     -5837.1415
   1   1.0000     -24.273820      -660.5242
   2   1.0000     -20.656033      -562.0792
   3   1.0000     -20.644410      -561.7630
   4   1.0000     -20.638251      -561.5954
   5   1.0000      -4.035753      -109.8184
   6   1.0000      -4.035269      -109.8053
   7   1.0000      -4.033260      -109.7506
   8   1.0000      -4.032283      -109.7240
   9   1.0000      -4.032056      -109.7178
  10   1.0000      -4.031646      -109.7067
  11   1.0000      -4.030428      -109.6735
  12   1.0000      -4.027482      -109.5933
  13   1.0000      -4.027395      -109.5910
  14   1.0000      -4.023466      -109.4841
  15   1.0000      -4.023332      -109.4804
  16   1.0000      -4.023239      -109.4779
  17   1.0000      -4.022223      -109.4502
  18   1.0000      -4.022183      -109.4492
  19   1.0000      -4.015451      -109.2660
  20   1.0000      -4.012620      -109.1890
  21   1.0000      -2.710394       -73.7536
  22   1.0000      -2.252757       -61.3006
  23   1.0000      -2.252245       -61.2867
  24   1.0000      -2.250983       -61.2524
  25   1.0000      -2.248309       -61.1796
  26   1.0000      -2.248194       -61.1765
  27   1.0000      -2.247863       -61.1675
  28   1.0000      -2.247616       -61.1608
  29   1.0000      -2.247111       -61.1470
  30   1.0000      -2.246895       -61.1411
  31   1.0000      -2.246560       -61.1320
  32   1.0000      -2.245928       -61.1148
  33   1.0000      -2.245625       -61.1066
  34   1.0000      -2.245510       -61.1034
  35   1.0000      -2.245207       -61.0952
  36   1.0000      -2.244785       -61.0837
  37   1.0000      -2.244625       -61.0793
  38   1.0000      -2.243496       -61.0486
  39   1.0000      -2.243437       -61.0470
  40   1.0000      -2.242858       -61.0313
  41   1.0000      -2.242496       -61.0214
  42   1.0000      -2.241691       -60.9995
  43   1.0000      -2.240443       -60.9656
  44   1.0000      -2.239946       -60.9520
  45   1.0000      -2.239729       -60.9461
  46   1.0000      -2.239544       -60.9411
  47   1.0000      -2.239358       -60.9360
  48   1.0000      -2.239245       -60.9330
  49   1.0000      -2.239057       -60.9278
  50   1.0000      -2.238276       -60.9066
  51   1.0000      -2.237513       -60.8858
  52   1.0000      -2.236865       -60.8682
  53   1.0000      -2.236348       -60.8541
  54   1.0000      -2.236050       -60.8460
  55   1.0000      -2.235835       -60.8402
  56   1.0000      -2.235748       -60.8378
  57   1.0000      -2.235671       -60.8357
  58   1.0000      -2.234908       -60.8149
  59   1.0000      -2.232590       -60.7519
  60   1.0000      -2.232360       -60.7456
  61   1.0000      -2.232108       -60.7387
  62   1.0000      -2.232078       -60.7379
  63   1.0000      -2.230925       -60.7066
  64   1.0000      -2.230169       -60.6860
  65   1.0000      -2.226962       -60.5987
  66   1.0000      -2.226900       -60.5970
  67   1.0000      -2.226788       -60.5940
  68   1.0000      -2.225200       -60.5508
  69   1.0000      -2.222345       -60.4731
  70   1.0000      -1.729232       -47.0548
  71   1.0000      -1.693588       -46.0849
  72   1.0000      -1.679965       -45.7142
  73   1.0000      -0.423381       -11.5208
  74   1.0000      -0.395002       -10.7486
  75   1.0000      -0.391151       -10.6438
  76   1.0000      -0.387688       -10.5495
  77   1.0000      -0.377318       -10.2674
  78   1.0000      -0.369799       -10.0627
  79   1.0000      -0.366714        -9.9788
  80   1.0000      -0.365481        -9.9452
  81   1.0000      -0.360576        -9.8118
  82   1.0000      -0.355902        -9.6846
  83   1.0000      -0.355320        -9.6687
  84   1.0000      -0.353879        -9.6295
  85   1.0000      -0.350811        -9.5460
  86   1.0000      -0.350342        -9.5333
  87   1.0000      -0.349061        -9.4984
  88   1.0000      -0.348427        -9.4812
  89   1.0000      -0.347770        -9.4633
  90   1.0000      -0.346701        -9.4342
  91   1.0000      -0.345973        -9.4144
  92   1.0000      -0.343811        -9.3556
  93   1.0000      -0.342277        -9.3138
  94   1.0000      -0.338831        -9.2201
  95   1.0000      -0.336998        -9.1702
  96   1.0000      -0.334606        -9.1051
  97   1.0000      -0.333301        -9.0696
  98   1.0000      -0.331128        -9.0105
  99   1.0000      -0.330109        -8.9827
 100   1.0000      -0.328400        -8.9362
 101   1.0000      -0.326377        -8.8812
 102   1.0000      -0.321964        -8.7611
 103   1.0000      -0.320956        -8.7337
 104   1.0000      -0.317799        -8.6478
 105   1.0000      -0.315599        -8.5879
 106   1.0000      -0.312326        -8.4988
 107   1.0000      -0.311708        -8.4820
 108   1.0000      -0.309018        -8.4088
 109   1.0000      -0.305899        -8.3239
 110   1.0000      -0.305408        -8.3106
 111   1.0000      -0.303905        -8.2697
 112   1.0000      -0.300651        -8.1811
 113   1.0000      -0.297560        -8.0970
 114   1.0000      -0.293062        -7.9746
 115   1.0000      -0.289976        -7.8906
 116   1.0000      -0.287795        -7.8313
 117   1.0000      -0.285658        -7.7732
 118   1.0000      -0.284453        -7.7404
 119   1.0000      -0.283837        -7.7236
 120   1.0000      -0.283127        -7.7043
 121   1.0000      -0.281768        -7.6673
 122   1.0000      -0.281218        -7.6523
 123   1.0000      -0.280544        -7.6340
 124   1.0000      -0.278442        -7.5768
 125   1.0000      -0.277181        -7.5425
 126   1.0000      -0.275919        -7.5081
 127   1.0000      -0.272491        -7.4149
 128   1.0000      -0.272320        -7.4102
 129   1.0000      -0.271448        -7.3865
 130   1.0000      -0.271232        -7.3806
 131   1.0000      -0.269939        -7.3454
 132   1.0000      -0.269562        -7.3352
 133   1.0000      -0.268018        -7.2931
 134   1.0000      -0.267208        -7.2711
 135   1.0000      -0.267005        -7.2656
 136   1.0000      -0.266771        -7.2592
 137   1.0000      -0.264380        -7.1941
 138   1.0000      -0.262866        -7.1529
 139   1.0000      -0.259576        -7.0634
 140   1.0000      -0.259032        -7.0486
 141   1.0000      -0.258649        -7.0382
 142   1.0000      -0.257404        -7.0043
 143   1.0000      -0.256465        -6.9788
 144   1.0000      -0.256219        -6.9721
 145   1.0000      -0.251621        -6.8469
 146   1.0000      -0.251170        -6.8347
 147   1.0000      -0.251060        -6.8317
 148   1.0000      -0.248657        -6.7663
 149   1.0000      -0.247091        -6.7237
 150   1.0000      -0.244616        -6.6563
 151   1.0000      -0.242909        -6.6099
 152   1.0000      -0.241407        -6.5690
 153   1.0000      -0.240228        -6.5369
 154   1.0000      -0.240197        -6.5361
 155   1.0000      -0.234955        -6.3935
 156   1.0000      -0.229907        -6.2561
 157   1.0000      -0.224219        -6.1013
 158   1.0000      -0.224079        -6.0975
 159   1.0000      -0.218976        -5.9586
 160   1.0000      -0.207620        -5.6496
 161   1.0000      -0.201707        -5.4887
 162   1.0000      -0.174707        -4.7540
 163   0.0000      -0.159445        -4.3387
 164   0.0000      -0.149347        -4.0639
 165   0.0000      -0.147713        -4.0195
 166   0.0000      -0.144494        -3.9319
 167   0.0000      -0.132833        -3.6146

MULLIKEN ATOMIC CHARGES AND SPIN POPULATIONS
--------------------------------------------
   0 Au:    0.147920   -0.000935
   1 Au:    0.411138    0.006379
   2 Au:    0.517674   -0.097627
   3 Au:    0.143291   -0.003741
   4 Au:   -0.487340    0.018764
   5 Au:    0.596733   -0.004377
   6 Au:    0.595634    0.010508
   7 Au:    0.410841    0.000542
   8 Au:    0.193537    0.011570
   9 Au:   -0.105757   -0.024519
  10 Au:   -0.112159   -0.025611
  11 Au:    0.133721    0.021575
  12 Au:    0.260632   -0.001860
  13 Au:    0.183473   -0.043788
  14 Au:    0.266931   -0.013820
  15 Au:    0.200400    0.016274
  16 Cr:   -3.356667    2.130666
Sum of atomic charges         :   -0.0000000

LOEWDIN ATOMIC CHARGES AND SPIN POPULATIONS
-------------------------------------------
   0 Au:    0.043383   -0.007869
   1 Au:    0.167041   -0.009876
   2 Au:    0.157483   -0.073090
   3 Au:    0.044476   -0.013893
   4 Au:   -0.045273   -0.000852
   5 Au:    0.138170   -0.015739
   6 Au:    0.136169   -0.004037
   7 Au:    0.167929   -0.014786
   8 Au:    0.037077   -0.010771
   9 Au:   -0.061832   -0.011332
  10 Au:   -0.062843   -0.011212
  11 Au:    0.027147    0.010512
  12 Au:    0.060684   -0.009045
  13 Au:    0.018499   -0.037832
  14 Au:    0.064699   -0.020784
  15 Au:    0.037288   -0.005443
  16 Cr:   -0.930096    2.236048

  Mayer bond orders larger than 0.100000
B(  0-Au,  1-Au) :   0.1593 B(  0-Au,  4-Au) :   0.1626 B(  0-Au,  6-Au) :   0.2125
B(  0-Au,  7-Au) :   0.1513 B(  0-Au,  8-Au) :   0.2645 B(  0-Au,  9-Au) :   0.2618
B(  0-Au, 16-Cr) :   0.5530 B(  1-Au,  3-Au) :   0.1527 B(  1-Au,  6-Au) :   0.2500
B(  1-Au, 14-Au) :   0.3136 B(  1-Au, 16-Cr) :   0.5737 B(  2-Au,  4-Au) :   0.4046
B(  2-Au,  9-Au) :   0.3095 B(  2-Au, 10-Au) :   0.3113 B(  3-Au,  4-Au) :   0.1614
B(  3-Au,  5-Au) :   0.2104 B(  3-Au,  7-Au) :   0.1603 B(  3-Au, 10-Au) :   0.2588
B(  3-Au, 15-Au) :   0.2616 B(  3-Au, 16-Cr) :   0.5627 B(  4-Au,  5-Au) :   0.2228
B(  4-Au,  6-Au) :   0.2246 B(  4-Au,  9-Au) :   0.2688 B(  4-Au, 10-Au) :   0.2681
B(  4-Au, 16-Cr) :   0.3089 B(  5-Au,  6-Au) :   0.2291 B(  5-Au,  7-Au) :   0.2495
B(  5-Au, 16-Cr) :   0.5010 B(  6-Au, 16-Cr) :   0.4850 B(  7-Au, 12-Au) :   0.3102
B(  7-Au, 16-Cr) :   0.5668 B(  8-Au,  9-Au) :   0.3335 B(  8-Au, 11-Au) :   0.2788
B(  8-Au, 13-Au) :   0.2234 B(  8-Au, 14-Au) :   0.1826 B(  8-Au, 16-Cr) :   0.2572
B(  9-Au, 10-Au) :   0.2704 B(  9-Au, 11-Au) :   0.2747 B(  9-Au, 16-Cr) :   0.3113
B( 10-Au, 11-Au) :   0.2797 B( 10-Au, 15-Au) :   0.3316 B( 10-Au, 16-Cr) :   0.3108
B( 11-Au, 13-Au) :   0.2829 B( 11-Au, 15-Au) :   0.2779 B( 11-Au, 16-Cr) :   0.1171
B( 12-Au, 13-Au) :   0.2689 B( 12-Au, 14-Au) :   0.2432 B( 12-Au, 15-Au) :   0.1843
B( 12-Au, 16-Cr) :   0.5675 B( 13-Au, 14-Au) :   0.2629 B( 13-Au, 15-Au) :   0.2291
B( 13-Au, 16-Cr) :   0.2990 B( 14-Au, 16-Cr) :   0.5777 B( 15-Au, 16-Cr) :   0.2574

FINAL SINGLE POINT ENERGY     -3217.463984722664

DIPOLE MOMENT
-------------
                                X             Y             Z
Electronic contribution:     19.75055     -10.14609      45.78954
Nuclear contribution   :    -20.12713       9.87803     -46.30727
                        -----------------------------------------
Total Dipole Moment    :     -0.37658      -0.26806      -0.51773
                        -----------------------------------------
Magnitude (a.u.)       :      0.69406
Magnitude (Debye)      :      1.76415

Rotational constants in cm-1:     0.000865     0.000785     0.000717
Rotational constants in MHz :    25.929728    23.528301    21.497504

                             ****ORCA TERMINATED NORMALLY****
TOTAL RUN TIME: 0 days 0 hours 36 minutes 9 seconds 51 msec
