                         Program Version 5.0.3 -  RELEASE  -
|  1> !R2SCAN def2-TZVP VERYSLOWCONV
|  2> !KDIIS
|  3> %scf
|  4>   AutoTRAHIter 200
|  5>   maxiter 400
|  6> end
|  7>
|  8> %pal nprocs 6 end
|  9>
| 10> *xyzfile 0 5 pbe.xyz
| 11>
| 12> $new_job
| 13>
| 14> !R2SCAN def2-TZVP VERYSLOWCONV
| 15> !KDIIS
| 16> %scf
| 17>   AutoTRAHIter 200
| 18>   maxiter 400
| 19> end
| 20>
| 21>
| 22> %pal nprocs 6 end
| 23>
| 24> *xyzfile 0 3 pbe.xyz
| 25>
| 26>
| 27>
| 28>
| 29>
| 30>                          ****END OF INPUT****
 Total Charge           Charge          ....    0
 Multiplicity           Mult            ....    5
 Number of Electrons    NEL             ....  328
FINAL SINGLE POINT ENERGY     -3218.033665541557

CARTESIAN COORDINATES (ANGSTROEM)
---------------------------------
  Au     6.439690    8.402611    8.742717
  Au     6.016457    9.603232    6.197072
  Au     8.720283    4.487923   10.492521
  Au    10.599760    6.650051    6.568332
  Au     7.959489    5.668176    8.078503
  Au     8.260800    5.826897    5.309550
  Au     5.939499    6.803164    6.524347
  Au     9.623428    8.081070    4.309824
  Au     8.176761    9.826803   10.278955
  Au     8.100625    7.126089   10.538007
  Au    10.519362    6.106302    9.273093
  Au    10.591177    8.493238   10.836226
  Au    10.490868    9.723888    6.305963
  Au    10.485514   10.599883    8.923313
  Au     8.084380   10.742173    7.563406
  Au    11.884882    8.260379    8.346099
  Cr     8.298009    8.180011    6.705880

 Multiplicity           Mult            ....    3
 Number of Electrons    NEL             ....  328
 Basis Dimension        Dim             ....  685

ORBITAL ENERGIES
----------------
                 SPIN UP ORBITALS
  NO   OCC          E(Eh)            E(eV)
   0   1.0000    -215.310843     -5858.9059
   1   1.0000     -24.612156      -669.7308
   2   1.0000     -20.881640      -568.2183
   3   1.0000     -20.877470      -568.1048
   4   1.0000     -20.875970      -568.0640
   5   1.0000      -4.128317      -112.3372
   6   1.0000      -4.128248      -112.3353
   7   1.0000      -4.126568      -112.2896
   8   1.0000      -4.126409      -112.2853
   9   1.0000      -4.124467      -112.2325
  10   1.0000      -4.124383      -112.2302
  11   1.0000      -4.124010      -112.2200
  12   1.0000      -4.117444      -112.0413
  13   1.0000      -4.117314      -112.0378
  14   1.0000      -4.116501      -112.0157
  15   1.0000      -4.116424      -112.0136
  16   1.0000      -4.115074      -111.9769
  17   1.0000      -4.113822      -111.9428
  18   1.0000      -4.113798      -111.9421
  19   1.0000      -4.102697      -111.6401
  20   1.0000      -4.101540      -111.6086
  21   1.0000      -2.928902       -79.6995
  22   1.0000      -2.318045       -63.0772
  23   1.0000      -2.317952       -63.0747
  24   1.0000      -2.316241       -63.0281
  25   1.0000      -2.313922       -62.9650
  26   1.0000      -2.313904       -62.9645
  27   1.0000      -2.313744       -62.9602
  28   1.0000      -2.313707       -62.9592
  29   1.0000      -2.313383       -62.9503
  30   1.0000      -2.313263       -62.9471
  31   1.0000      -2.312683       -62.9313
  32   1.0000      -2.311760       -62.9062
  33   1.0000      -2.311131       -62.8891
  34   1.0000      -2.310869       -62.8819
  35   1.0000      -2.310810       -62.8803
  36   1.0000      -2.310202       -62.8638
  37   1.0000      -2.309726       -62.8508
  38   1.0000      -2.309274       -62.8386
  39   1.0000      -2.308667       -62.8220
  40   1.0000      -2.307850       -62.7998
  41   1.0000      -2.307529       -62.7910
  42   1.0000      -2.306450       -62.7617
  43   1.0000      -2.306343       -62.7588
  44   1.0000      -2.305658       -62.7401
  45   1.0000      -2.305460       -62.7348
  46   1.0000      -2.305260       -62.7293
  47   1.0000      -2.303976       -62.6944
  48   1.0000      -2.302813       -62.6627
  49   1.0000      -2.302453       -62.6529
  50   1.0000      -2.302304       -62.6489
  51   1.0000      -2.301843       -62.6363
  52   1.0000      -2.301578       -62.6291
  53   1.0000      -2.301307       -62.6217
  54   1.0000      -2.300895       -62.6105
  55   1.0000      -2.300130       -62.5897
  56   1.0000      -2.300025       -62.5869
  57   1.0000      -2.299289       -62.5668
  58   1.0000      -2.298269       -62.5391
  59   1.0000      -2.298086       -62.5341
  60   1.0000      -2.298016       -62.5322
  61   1.0000      -2.297466       -62.5172
  62   1.0000      -2.295678       -62.4686
  63   1.0000      -2.295234       -62.4565
  64   1.0000      -2.291828       -62.3638
  65   1.0000      -2.288680       -62.2781
  66   1.0000      -2.287881       -62.2564
  67   1.0000      -2.286727       -62.2250
  68   1.0000      -2.285024       -62.1787
  69   1.0000      -2.284193       -62.1560
  70   1.0000      -1.876210       -51.0543
  71   1.0000      -1.875563       -51.0367
  72   1.0000      -1.874033       -50.9950
  73   1.0000      -0.432574       -11.7709
  74   1.0000      -0.403670       -10.9844
  75   1.0000      -0.398813       -10.8523
  76   1.0000      -0.395993       -10.7755
  77   1.0000      -0.386310       -10.5120
  78   1.0000      -0.380337       -10.3495
  79   1.0000      -0.377275       -10.2662
  80   1.0000      -0.375412       -10.2155
  81   1.0000      -0.370044       -10.0694
  82   1.0000      -0.366799        -9.9811
  83   1.0000      -0.365903        -9.9567
  84   1.0000      -0.364241        -9.9115
  85   1.0000      -0.363972        -9.9042
  86   1.0000      -0.361856        -9.8466
  87   1.0000      -0.359361        -9.7787
  88   1.0000      -0.358913        -9.7665
  89   1.0000      -0.358265        -9.7489
  90   1.0000      -0.356777        -9.7084
  91   1.0000      -0.356750        -9.7077
  92   1.0000      -0.352769        -9.5993
  93   1.0000      -0.352095        -9.5810
  94   1.0000      -0.347919        -9.4674
  95   1.0000      -0.347178        -9.4472
  96   1.0000      -0.346556        -9.4303
  97   1.0000      -0.344839        -9.3835
  98   1.0000      -0.342558        -9.3215
  99   1.0000      -0.341773        -9.3001
 100   1.0000      -0.339214        -9.2305
 101   1.0000      -0.337203        -9.1757
 102   1.0000      -0.332425        -9.0457
 103   1.0000      -0.332370        -9.0442
 104   1.0000      -0.327492        -8.9115
 105   1.0000      -0.325665        -8.8618
 106   1.0000      -0.323368        -8.7993
 107   1.0000      -0.321377        -8.7451
 108   1.0000      -0.321060        -8.7365
 109   1.0000      -0.317808        -8.6480
 110   1.0000      -0.315463        -8.5842
 111   1.0000      -0.314015        -8.5448
 112   1.0000      -0.310344        -8.4449
 113   1.0000      -0.306286        -8.3345
 114   1.0000      -0.305456        -8.3119
 115   1.0000      -0.298734        -8.1290
 116   1.0000      -0.297494        -8.0952
 117   1.0000      -0.296006        -8.0547
 118   1.0000      -0.294294        -8.0082
 119   1.0000      -0.292513        -7.9597
 120   1.0000      -0.292449        -7.9579
 121   1.0000      -0.290493        -7.9047
 122   1.0000      -0.290267        -7.8986
 123   1.0000      -0.289501        -7.8777
 124   1.0000      -0.286895        -7.8068
 125   1.0000      -0.286190        -7.7876
 126   1.0000      -0.284575        -7.7437
 127   1.0000      -0.282293        -7.6816
 128   1.0000      -0.281654        -7.6642
 129   1.0000      -0.280762        -7.6399
 130   1.0000      -0.279466        -7.6047
 131   1.0000      -0.278894        -7.5891
 132   1.0000      -0.278036        -7.5658
 133   1.0000      -0.277240        -7.5441
 134   1.0000      -0.276739        -7.5305
 135   1.0000      -0.276389        -7.5209
 136   1.0000      -0.273619        -7.4455
 137   1.0000      -0.273337        -7.4379
 138   1.0000      -0.271604        -7.3907
 139   1.0000      -0.268280        -7.3003
 140   1.0000      -0.267237        -7.2719
 141   1.0000      -0.265937        -7.2365
 142   1.0000      -0.265001        -7.2110
 143   1.0000      -0.263739        -7.1767
 144   1.0000      -0.263213        -7.1624
 145   1.0000      -0.259962        -7.0739
 146   1.0000      -0.259503        -7.0614
 147   1.0000      -0.258649        -7.0382
 148   1.0000      -0.257007        -6.9935
 149   1.0000      -0.253313        -6.8930
 150   1.0000      -0.250741        -6.8230
 151   1.0000      -0.250703        -6.8220
 152   1.0000      -0.248280        -6.7561
 153   1.0000      -0.247930        -6.7465
 154   1.0000      -0.247127        -6.7247
 155   1.0000      -0.240737        -6.5508
 156   1.0000      -0.240610        -6.5473
 157   1.0000      -0.239286        -6.5113
 158   1.0000      -0.232412        -6.3243
 159   1.0000      -0.232032        -6.3139
 160   1.0000      -0.229345        -6.2408
 161   1.0000      -0.228509        -6.2181
 162   1.0000      -0.222586        -6.0569
 163   1.0000      -0.209358        -5.6969
 164   1.0000      -0.201325        -5.4783
 165   0.0000      -0.193009        -5.2520
 166   0.0000      -0.187737        -5.1086
 167   0.0000      -0.150039        -4.0828
 168   0.0000      -0.135524        -3.6878
 169   0.0000      -0.132750        -3.6123

                 SPIN DOWN ORBITALS
  NO   OCC          E(Eh)            E(eV)
   0   1.0000    -215.310292     -5858.8909
   1   1.0000     -24.551412      -668.0779
   2   1.0000     -20.840031      -567.0861
   3   1.0000     -20.831338      -566.8495
   4   1.0000     -20.823453      -566.6350
   5   1.0000      -4.128098      -112.3312
   6   1.0000      -4.128020      -112.3291
   7   1.0000      -4.126526      -112.2885
   8   1.0000      -4.126367      -112.2841
   9   1.0000      -4.124910      -112.2445
  10   1.0000      -4.124823      -112.2421
  11   1.0000      -4.123457      -112.2050
  12   1.0000      -4.118247      -112.0632
  13   1.0000      -4.118115      -112.0596
  14   1.0000      -4.116487      -112.0153
  15   1.0000      -4.116416      -112.0134
  16   1.0000      -4.115943      -112.0005
  17   1.0000      -4.114375      -111.9578
  18   1.0000      -4.114342      -111.9569
  19   1.0000      -4.104360      -111.6853
  20   1.0000      -4.102272      -111.6285
  21   1.0000      -2.770940       -75.4011
  22   1.0000      -2.317655       -63.0666
  23   1.0000      -2.317553       -63.0638
  24   1.0000      -2.315926       -63.0195
  25   1.0000      -2.314247       -62.9739
  26   1.0000      -2.314002       -62.9672
  27   1.0000      -2.313762       -62.9607
  28   1.0000      -2.313327       -62.9488
  29   1.0000      -2.313153       -62.9441
  30   1.0000      -2.313097       -62.9426
  31   1.0000      -2.312452       -62.9250
  32   1.0000      -2.312426       -62.9243
  33   1.0000      -2.311044       -62.8867
  34   1.0000      -2.310806       -62.8802
  35   1.0000      -2.310589       -62.8743
  36   1.0000      -2.310492       -62.8717
  37   1.0000      -2.309919       -62.8561
  38   1.0000      -2.309169       -62.8357
  39   1.0000      -2.309024       -62.8317
  40   1.0000      -2.308903       -62.8285
  41   1.0000      -2.306922       -62.7745
  42   1.0000      -2.306219       -62.7554
  43   1.0000      -2.306150       -62.7535
  44   1.0000      -2.305687       -62.7409
  45   1.0000      -2.305341       -62.7315
  46   1.0000      -2.305161       -62.7266
  47   1.0000      -2.304712       -62.7144
  48   1.0000      -2.303527       -62.6822
  49   1.0000      -2.303132       -62.6714
  50   1.0000      -2.302953       -62.6665
  51   1.0000      -2.302457       -62.6530
  52   1.0000      -2.301824       -62.6358
  53   1.0000      -2.301695       -62.6323
  54   1.0000      -2.301650       -62.6311
  55   1.0000      -2.300566       -62.6016
  56   1.0000      -2.300431       -62.5979
  57   1.0000      -2.299838       -62.5818
  58   1.0000      -2.298807       -62.5537
  59   1.0000      -2.298016       -62.5322
  60   1.0000      -2.297726       -62.5243
  61   1.0000      -2.297663       -62.5226
  62   1.0000      -2.296246       -62.4840
  63   1.0000      -2.295787       -62.4715
  64   1.0000      -2.293911       -62.4205
  65   1.0000      -2.289175       -62.2916
  66   1.0000      -2.289138       -62.2906
  67   1.0000      -2.288482       -62.2728
  68   1.0000      -2.286126       -62.2086
  69   1.0000      -2.284820       -62.1731
  70   1.0000      -1.735776       -47.2329
  71   1.0000      -1.718161       -46.7535
  72   1.0000      -1.697820       -46.2000
  73   1.0000      -0.430082       -11.7031
  74   1.0000      -0.401952       -10.9377
  75   1.0000      -0.399145       -10.8613
  76   1.0000      -0.396232       -10.7820
  77   1.0000      -0.387216       -10.5367
  78   1.0000      -0.378855       -10.3092
  79   1.0000      -0.377194       -10.2640
  80   1.0000      -0.374490       -10.1904
  81   1.0000      -0.370279       -10.0758
  82   1.0000      -0.366306        -9.9677
  83   1.0000      -0.365629        -9.9493
  84   1.0000      -0.365007        -9.9323
  85   1.0000      -0.361336        -9.8325
  86   1.0000      -0.361029        -9.8241
  87   1.0000      -0.360090        -9.7986
  88   1.0000      -0.359257        -9.7759
  89   1.0000      -0.358332        -9.7507
  90   1.0000      -0.358160        -9.7460
  91   1.0000      -0.356249        -9.6940
  92   1.0000      -0.354181        -9.6378
  93   1.0000      -0.353111        -9.6086
  94   1.0000      -0.348706        -9.4888
  95   1.0000      -0.347615        -9.4591
  96   1.0000      -0.346496        -9.4286
  97   1.0000      -0.343893        -9.3578
  98   1.0000      -0.342184        -9.3113
  99   1.0000      -0.342075        -9.3083
 100   1.0000      -0.339446        -9.2368
 101   1.0000      -0.337323        -9.1790
 102   1.0000      -0.333005        -9.0615
 103   1.0000      -0.332232        -9.0405
 104   1.0000      -0.327847        -8.9212
 105   1.0000      -0.324804        -8.8384
 106   1.0000      -0.322791        -8.7836
 107   1.0000      -0.322666        -8.7802
 108   1.0000      -0.318103        -8.6560
 109   1.0000      -0.316490        -8.6121
 110   1.0000      -0.315550        -8.5865
 111   1.0000      -0.314205        -8.5500
 112   1.0000      -0.310813        -8.4577
 113   1.0000      -0.306811        -8.3488
 114   1.0000      -0.303222        -8.2511
 115   1.0000      -0.299799        -8.1579
 116   1.0000      -0.298351        -8.1185
 117   1.0000      -0.296009        -8.0548
 118   1.0000      -0.294094        -8.0027
 119   1.0000      -0.293633        -7.9902
 120   1.0000      -0.292087        -7.9481
 121   1.0000      -0.291240        -7.9251
 122   1.0000      -0.291148        -7.9226
 123   1.0000      -0.289792        -7.8856
 124   1.0000      -0.288207        -7.8425
 125   1.0000      -0.287814        -7.8318
 126   1.0000      -0.286230        -7.7887
 127   1.0000      -0.282923        -7.6987
 128   1.0000      -0.282182        -7.6786
 129   1.0000      -0.281846        -7.6694
 130   1.0000      -0.279898        -7.6164
 131   1.0000      -0.279834        -7.6147
 132   1.0000      -0.279082        -7.5942
 133   1.0000      -0.277835        -7.5603
 134   1.0000      -0.277229        -7.5438
 135   1.0000      -0.276709        -7.5296
 136   1.0000      -0.275650        -7.5008
 137   1.0000      -0.274916        -7.4808
 138   1.0000      -0.272064        -7.4032
 139   1.0000      -0.269156        -7.3241
 140   1.0000      -0.268946        -7.3184
 141   1.0000      -0.267268        -7.2727
 142   1.0000      -0.266539        -7.2529
 143   1.0000      -0.265449        -7.2232
 144   1.0000      -0.264969        -7.2102
 145   1.0000      -0.261337        -7.1113
 146   1.0000      -0.260699        -7.0940
 147   1.0000      -0.259858        -7.0711
 148   1.0000      -0.257824        -7.0158
 149   1.0000      -0.254889        -6.9359
 150   1.0000      -0.253018        -6.8850
 151   1.0000      -0.251525        -6.8444
 152   1.0000      -0.249141        -6.7795
 153   1.0000      -0.248960        -6.7746
 154   1.0000      -0.247905        -6.7458
 155   1.0000      -0.242300        -6.5933
 156   1.0000      -0.237435        -6.4609
 157   1.0000      -0.229414        -6.2427
 158   1.0000      -0.229245        -6.2381
 159   1.0000      -0.223978        -6.0947
 160   1.0000      -0.211194        -5.7469
 161   1.0000      -0.203858        -5.5472
 162   1.0000      -0.166224        -4.5232
 163   0.0000      -0.144930        -3.9438
 164   0.0000      -0.144369        -3.9285
 165   0.0000      -0.143252        -3.8981
 166   0.0000      -0.126625        -3.4456
 167   0.0000      -0.123708        -3.3663

MULLIKEN ATOMIC CHARGES AND SPIN POPULATIONS
--------------------------------------------
   0 Au:    0.088644   -0.067991
   1 Au:    0.389372   -0.031172
   2 Au:    0.460120   -0.318526
   3 Au:    0.087577   -0.068192
   4 Au:   -0.491148   -0.011809
   5 Au:    0.553424   -0.058451
   6 Au:    0.554020   -0.057764
   7 Au:    0.390178   -0.031525
   8 Au:    0.169188   -0.037272
   9 Au:   -0.074840   -0.048692
  10 Au:   -0.079959   -0.049127
  11 Au:    0.085959   -0.047278
  12 Au:    0.241374   -0.088789
  13 Au:    0.189417   -0.241323
  14 Au:    0.244683   -0.087709
  15 Au:    0.173013   -0.037741
  16 Cr:   -2.981023    3.283362
Sum of atomic charges         :   -0.0000000

LOEWDIN ATOMIC CHARGES AND SPIN POPULATIONS
-------------------------------------------
   0 Au:    0.038486   -0.066324
   1 Au:    0.159392   -0.066297
   2 Au:    0.121969   -0.236943
   3 Au:    0.038391   -0.066698
   4 Au:   -0.044434   -0.036506
   5 Au:    0.133558   -0.063171
   6 Au:    0.133846   -0.062763
   7 Au:    0.159144   -0.066649
   8 Au:    0.038481   -0.071916
   9 Au:   -0.061005   -0.066940
  10 Au:   -0.061776   -0.067125
  11 Au:    0.019776   -0.053886
  12 Au:    0.061552   -0.116755
  13 Au:    0.014591   -0.158404
  14 Au:    0.062468   -0.116822
  15 Au:    0.039408   -0.072475
  16 Cr:   -0.853846    3.389672

  Mayer bond orders larger than 0.100000
B(  0-Au,  1-Au) :   0.1512 B(  0-Au,  4-Au) :   0.1451 B(  0-Au,  6-Au) :   0.2152
B(  0-Au,  7-Au) :   0.1367 B(  0-Au,  8-Au) :   0.2822 B(  0-Au,  9-Au) :   0.2418
B(  0-Au, 16-Cr) :   0.5298 B(  1-Au,  3-Au) :   0.1372 B(  1-Au,  6-Au) :   0.2585
B(  1-Au, 14-Au) :   0.2911 B(  1-Au, 16-Cr) :   0.5465 B(  2-Au,  4-Au) :   0.3959
B(  2-Au,  9-Au) :   0.2899 B(  2-Au, 10-Au) :   0.2914 B(  3-Au,  4-Au) :   0.1451
B(  3-Au,  5-Au) :   0.2154 B(  3-Au,  7-Au) :   0.1517 B(  3-Au, 10-Au) :   0.2404
B(  3-Au, 15-Au) :   0.2827 B(  3-Au, 16-Cr) :   0.5304 B(  4-Au,  5-Au) :   0.1972
B(  4-Au,  6-Au) :   0.1983 B(  4-Au,  9-Au) :   0.2670 B(  4-Au, 10-Au) :   0.2691
B(  4-Au, 16-Cr) :   0.3976 B(  5-Au,  6-Au) :   0.2152 B(  5-Au,  7-Au) :   0.2599
B(  5-Au, 16-Cr) :   0.4707 B(  6-Au, 16-Cr) :   0.4705 B(  7-Au, 12-Au) :   0.2916
B(  7-Au, 16-Cr) :   0.5435 B(  8-Au,  9-Au) :   0.3206 B(  8-Au, 11-Au) :   0.2568
B(  8-Au, 13-Au) :   0.2347 B(  8-Au, 14-Au) :   0.1567 B(  8-Au, 16-Cr) :   0.2517
B(  9-Au, 10-Au) :   0.2517 B(  9-Au, 11-Au) :   0.2803 B(  9-Au, 16-Cr) :   0.2630
B( 10-Au, 11-Au) :   0.2821 B( 10-Au, 15-Au) :   0.3214 B( 10-Au, 16-Cr) :   0.2640
B( 11-Au, 13-Au) :   0.2467 B( 11-Au, 15-Au) :   0.2549 B( 11-Au, 16-Cr) :   0.1264
B( 12-Au, 13-Au) :   0.2262 B( 12-Au, 14-Au) :   0.2526 B( 12-Au, 15-Au) :   0.1563
B( 12-Au, 16-Cr) :   0.6121 B( 13-Au, 14-Au) :   0.2251 B( 13-Au, 15-Au) :   0.2350
B( 13-Au, 16-Cr) :   0.1955 B( 14-Au, 16-Cr) :   0.6122 B( 15-Au, 16-Cr) :   0.2503

FINAL SINGLE POINT ENERGY     -3217.999139610231

DIPOLE MOMENT
-------------
                                X             Y             Z
Electronic contribution:     19.73034      -9.89610      45.56117
Nuclear contribution   :    -20.12713       9.87803     -46.30727
                        -----------------------------------------
Total Dipole Moment    :     -0.39679      -0.01808      -0.74610
                        -----------------------------------------
Magnitude (a.u.)       :      0.84524
Magnitude (Debye)      :      2.14844

Rotational constants in cm-1:     0.000865     0.000785     0.000717
Rotational constants in MHz :    25.929728    23.528301    21.497504

                             ****ORCA TERMINATED NORMALLY****
TOTAL RUN TIME: 0 days 0 hours 9 minutes 51 seconds 757 msec
