                         Program Version 5.0.3 -  RELEASE  -
|  1> !SC-NEVPT2 def2-TZVP def2-TZVP/C
|  2> !MOREAD RIJCOSX def2/J
|  3> %maxcore 4000
|  4> %moinp "casscf.gbw"
|  5> %pal nprocs 6 end
|  6>
|  7> %casscf
|  8>  mult 6,4
|  9>  bweight 1,1
| 10>  nroots 1,24
| 11>  nel 5
| 12>  norb 5
| 13>  ptsettings
| 14>   d4tpre 1e-14 # default = 1e-10
| 15>   d3tpre 1e-14
| 16>  end
| 17>  rel
| 18>    dosoc true
| 19>    gtensor true
| 20>  end
| 21> end
| 22>
| 23>
| 24> *xyzfile 0 6 pbe.xyz
| 25>
| 26>
| 27>                          ****END OF INPUT****

CARTESIAN COORDINATES (ANGSTROEM)
---------------------------------
  Au     9.620322    7.099092    9.165754
  Au     8.028863    7.113122    4.913406
  Au     9.428267    4.361282    9.257526
  Au     8.906321    5.427267    6.779842
  Au     8.107483    9.801207    5.845744
  Au     6.314062    9.994150    8.016424
  Au     9.092775    9.628130    8.512477
  Au     7.000902    5.635693    9.087997
  Au     5.151813    7.421774    8.387706
  Au     5.647033    8.421811    5.768198
  Mn     7.631699    7.669630    7.476719

 Total Charge           Charge          ....    0
 Multiplicity           Mult            ....    6
 Number of Electrons    NEL             ....  215
 Basis Dimension        Dim             ....  445

ORBITAL ENERGIES
----------------

  NO   OCC          E(Eh)            E(eV)
   0   2.0000    -240.543353     -6545.5174
   1   2.0000     -29.122391      -792.4606
   2   2.0000     -24.827365      -675.5869
   3   2.0000     -24.827049      -675.5784
   4   2.0000     -24.826426      -675.5614
   5   2.0000      -4.726128      -128.6045
   6   2.0000      -4.724931      -128.5719
   7   2.0000      -4.720185      -128.4428
   8   2.0000      -4.719634      -128.4278
   9   2.0000      -4.716113      -128.3320
  10   2.0000      -4.715135      -128.3054
  11   2.0000      -4.703717      -127.9947
  12   2.0000      -4.703315      -127.9837
  13   2.0000      -4.702985      -127.9747
  14   2.0000      -4.692959      -127.7019
  15   2.0000      -3.828546      -104.1800
  16   2.0000      -2.767214       -75.2997
  17   2.0000      -2.766261       -75.2738
  18   2.0000      -2.763338       -75.1943
  19   2.0000      -2.763128       -75.1885
  20   2.0000      -2.761790       -75.1521
  21   2.0000      -2.759704       -75.0954
  22   2.0000      -2.758071       -75.0509
  23   2.0000      -2.757950       -75.0476
  24   2.0000      -2.757892       -75.0461
  25   2.0000      -2.755899       -74.9918
  26   2.0000      -2.754815       -74.9623
  27   2.0000      -2.753577       -74.9286
  28   2.0000      -2.753050       -74.9143
  29   2.0000      -2.752596       -74.9020
  30   2.0000      -2.751133       -74.8621
  31   2.0000      -2.748469       -74.7896
  32   2.0000      -2.747973       -74.7761
  33   2.0000      -2.747079       -74.7518
  34   2.0000      -2.743000       -74.6408
  35   2.0000      -2.740732       -74.5791
  36   2.0000      -2.739588       -74.5480
  37   2.0000      -2.738535       -74.5193
  38   2.0000      -2.737135       -74.4812
  39   2.0000      -2.737002       -74.4776
  40   2.0000      -2.736533       -74.4648
  41   2.0000      -2.736419       -74.4618
  42   2.0000      -2.734790       -74.4174
  43   2.0000      -2.728841       -74.2555
  44   2.0000      -2.725448       -74.1632
  45   2.0000      -2.723198       -74.1020
  46   2.0000      -2.497436       -67.9587
  47   2.0000      -2.496117       -67.9228
  48   2.0000      -2.494661       -67.8832
  49   2.0000      -0.574022       -15.6199
  50   2.0000      -0.556729       -15.1494
  51   2.0000      -0.551189       -14.9986
  52   2.0000      -0.549937       -14.9645
  53   2.0000      -0.544357       -14.8127
  54   2.0000      -0.543243       -14.7824
  55   2.0000      -0.539540       -14.6816
  56   2.0000      -0.535292       -14.5660
  57   2.0000      -0.530371       -14.4321
  58   2.0000      -0.526030       -14.3140
  59   2.0000      -0.520595       -14.1661
  60   2.0000      -0.518692       -14.1143
  61   2.0000      -0.516211       -14.0468
  62   2.0000      -0.514698       -14.0057
  63   2.0000      -0.511324       -13.9138
  64   2.0000      -0.510586       -13.8937
  65   2.0000      -0.509481       -13.8637
  66   2.0000      -0.505434       -13.7535
  67   2.0000      -0.501615       -13.6496
  68   2.0000      -0.500083       -13.6079
  69   2.0000      -0.495962       -13.4958
  70   2.0000      -0.487007       -13.2521
  71   2.0000      -0.485029       -13.1983
  72   2.0000      -0.482835       -13.1386
  73   2.0000      -0.480420       -13.0729
  74   2.0000      -0.473697       -12.8900
  75   2.0000      -0.468579       -12.7507
  76   2.0000      -0.467341       -12.7170
  77   2.0000      -0.465236       -12.6597
  78   2.0000      -0.464274       -12.6335
  79   2.0000      -0.462411       -12.5828
  80   2.0000      -0.459403       -12.5010
  81   2.0000      -0.455676       -12.3996
  82   2.0000      -0.453939       -12.3523
  83   2.0000      -0.449477       -12.2309
  84   2.0000      -0.448675       -12.2091
  85   2.0000      -0.447520       -12.1776
  86   2.0000      -0.444902       -12.1064
  87   2.0000      -0.440805       -11.9949
  88   2.0000      -0.439155       -11.9500
  89   2.0000      -0.438134       -11.9222
  90   2.0000      -0.434660       -11.8277
  91   2.0000      -0.433157       -11.7868
  92   2.0000      -0.429299       -11.6818
  93   2.0000      -0.428563       -11.6618
  94   2.0000      -0.426126       -11.5955
  95   2.0000      -0.420838       -11.4516
  96   2.0000      -0.419029       -11.4024
  97   2.0000      -0.408072       -11.1042
  98   2.0000      -0.401423       -10.9233
  99   2.0000      -0.393185       -10.6991
 100   2.0000      -0.366479        -9.9724
 101   2.0000      -0.309207        -8.4139
 102   2.0000      -0.304378        -8.2826
 103   2.0000      -0.238474        -6.4892
 104   2.0000      -0.203547        -5.5388
 105   1.0000      -0.139565        -3.7978
 106   1.0000      -0.151865        -4.1325
 107   1.0000      -0.146108        -3.9758
 108   1.0000      -0.146702        -3.9920
 109   1.0000      -0.143410        -3.9024
 110   0.0000      -0.050030        -1.3614
 111   0.0000      -0.008760        -0.2384
 112   0.0000      -0.000730        -0.0199
 113   0.0000       0.001878         0.0511
 114   0.0000       0.015701         0.4273

MULLIKEN ATOMIC CHARGES AND SPIN DENSITIES
------------------------------------------
   0 Au:    0.104550    0.011082
   1 Au:    0.299085    0.010171
   2 Au:    0.344052    0.005225
   3 Au:   -0.203718    0.018147
   4 Au:    0.276468    0.010654
   5 Au:    0.054325    0.014220
   6 Au:    0.191357    0.010186
   7 Au:    0.020072    0.013140
   8 Au:    0.223792    0.010190
   9 Au:    0.349258    0.009584
  10 Mn:   -1.659242    3.887401
Sum of atomic charges       :    0.0000000

LOEWDIN ATOMIC CHARGES AND SPIN DENSITIES
-----------------------------------------
   0 Au:    0.000779    0.015683
   1 Au:    0.018372    0.016894
   2 Au:    0.117210    0.006588
   3 Au:   -0.121820    0.021253
   4 Au:    0.027454    0.013796
   5 Au:   -0.050455    0.017378
   6 Au:    0.103299    0.015937
   7 Au:   -0.034587    0.017306
   8 Au:    0.079498    0.016236
   9 Au:    0.056729    0.012679
  10 Mn:   -0.196479    3.846249

  Mayer bond orders larger than 0.100000
B(  0-Au,  2-Au) :   0.3505 B(  0-Au,  3-Au) :   0.1050 B(  0-Au,  6-Au) :   0.4145
B(  0-Au,  7-Au) :   0.2487 B(  0-Au, 10-Mn) :   0.3844 B(  1-Au,  3-Au) :   0.3612
B(  1-Au,  4-Au) :   0.2156 B(  1-Au,  9-Au) :   0.1835 B(  1-Au, 10-Mn) :   0.4502
B(  2-Au,  3-Au) :   0.2694 B(  2-Au,  7-Au) :   0.3272 B(  3-Au, 10-Mn) :   0.6122
B(  4-Au,  5-Au) :   0.1285 B(  4-Au,  9-Au) :   0.3293 B(  4-Au, 10-Mn) :   0.3808
B(  5-Au,  6-Au) :   0.1236 B(  5-Au,  8-Au) :   0.1685 B(  5-Au,  9-Au) :   0.1726
B(  5-Au, 10-Mn) :   0.4793 B(  6-Au, 10-Mn) :   0.4693 B(  7-Au,  8-Au) :   0.4078
B(  7-Au, 10-Mn) :   0.4485 B(  8-Au, 10-Mn) :   0.4671 B(  9-Au, 10-Mn) :   0.3511

FINAL SINGLE POINT ENERGY     -2502.871857570366

DIPOLE MOMENT
-------------
                                X             Y             Z
Electronic contribution:      3.49642      -6.15341       3.81695
Nuclear contribution   :     -3.55243       6.49306      -3.50548
                        -----------------------------------------
Total Dipole Moment    :     -0.05601       0.33965       0.31146
                        -----------------------------------------
Magnitude (a.u.)       :      0.46423
Magnitude (Debye)      :      1.17997

Rotational constants in cm-1:     0.002289     0.001360     0.001359
Rotational constants in MHz :    68.619124    40.759069    40.746877

                             ****ORCA TERMINATED NORMALLY****
TOTAL RUN TIME: 0 days 0 hours 40 minutes 56 seconds 20 msec
