                         Program Version 5.0.3 -  RELEASE  -
|  1> !RI-B2PLYP def2-TZVP def2-TZVP/C
|  2> !RIJCOSX VERYSLOWCONV
|  3>
|  4> %scf
|  5>   AutoTRAHIter 200
|  6>   maxiter 400
|  7> end
|  8>
|  9>
| 10> %pal nprocs 6 end
| 11>
| 12> *xyzfile 0 6 pbe.xyz
| 13>
| 14> $new_job
| 15>
| 16> !RI-B2PLYP def2-TZVP def2-TZVP/C
| 17> !RIJCOSX VERYSLOWCONV
| 18>
| 19> %scf
| 20>   AutoTRAHIter 200
| 21>   maxiter 400
| 22> end
| 23>
| 24>
| 25> %pal nprocs 6 end
| 26>
| 27> *xyzfile 0 4 pbe.xyz
| 28>
| 29>
| 30>
| 31>
| 32>
| 33>                          ****END OF INPUT****
 Total Charge           Charge          ....    0
 Multiplicity           Mult            ....    6
 Number of Electrons    NEL             ....  291
MP2 TOTAL ENERGY:    -3049.077591806 Eh
FINAL SINGLE POINT ENERGY     -3049.077591805888

CARTESIAN COORDINATES (ANGSTROEM)
---------------------------------
  Au    10.200715    8.138489    9.190340
  Au     8.261743    6.085415    9.537576
  Au     5.295542    8.890203    8.582610
  Au     5.594931    6.133895    9.408376
  Au     7.591109    8.722978   10.114483
  Au     9.826736   10.274438    7.547157
  Au     7.181977   10.753991    8.182574
  Au     6.483745    5.945492    6.832938
  Au    10.796544    5.430926    8.833170
  Au     3.936644    6.957619    7.163133
  Au     9.179429    5.710294    6.702737
  Au     7.890487    7.353526    4.900787
  Au     5.623074    8.694726    5.786022
  Au     7.920481   10.136782    5.510692
  Mn     8.011285    8.190130    7.501888

 Multiplicity           Mult            ....    4
 Number of Electrons    NEL             ....  291
 Basis Dimension        Dim             ....  605

ORBITAL ENERGIES
----------------
                 SPIN UP ORBITALS
  NO   OCC          E(Eh)            E(eV)
   0   1.0000    -237.632466     -6466.3082
   1   1.0000     -28.133461      -765.5504
   2   1.0000     -24.051866      -654.4845
   3   1.0000     -24.051129      -654.4645
   4   1.0000     -24.050773      -654.4548
   5   1.0000      -4.405880      -119.8901
   6   1.0000      -4.404776      -119.8600
   7   1.0000      -4.403213      -119.8175
   8   1.0000      -4.401634      -119.7746
   9   1.0000      -4.401120      -119.7606
  10   1.0000      -4.400906      -119.7547
  11   1.0000      -4.400438      -119.7420
  12   1.0000      -4.400208      -119.7358
  13   1.0000      -4.397501      -119.6621
  14   1.0000      -4.393687      -119.5583
  15   1.0000      -4.391614      -119.5019
  16   1.0000      -4.391325      -119.4940
  17   1.0000      -4.390960      -119.4841
  18   1.0000      -4.383182      -119.2725
  19   1.0000      -3.611816       -98.2825
  20   1.0000      -2.527537       -68.7778
  21   1.0000      -2.527059       -68.7648
  22   1.0000      -2.525692       -68.7276
  23   1.0000      -2.523344       -68.6637
  24   1.0000      -2.522886       -68.6512
  25   1.0000      -2.522479       -68.6401
  26   1.0000      -2.522436       -68.6390
  27   1.0000      -2.521785       -68.6213
  28   1.0000      -2.521593       -68.6160
  29   1.0000      -2.521255       -68.6068
  30   1.0000      -2.520424       -68.5842
  31   1.0000      -2.520277       -68.5802
  32   1.0000      -2.519806       -68.5674
  33   1.0000      -2.518570       -68.5338
  34   1.0000      -2.518244       -68.5249
  35   1.0000      -2.518000       -68.5183
  36   1.0000      -2.517584       -68.5069
  37   1.0000      -2.517345       -68.5004
  38   1.0000      -2.516982       -68.4906
  39   1.0000      -2.516682       -68.4824
  40   1.0000      -2.516083       -68.4661
  41   1.0000      -2.515348       -68.4461
  42   1.0000      -2.515099       -68.4393
  43   1.0000      -2.515004       -68.4367
  44   1.0000      -2.514095       -68.4120
  45   1.0000      -2.513488       -68.3955
  46   1.0000      -2.512126       -68.3584
  47   1.0000      -2.511865       -68.3513
  48   1.0000      -2.510851       -68.3237
  49   1.0000      -2.509667       -68.2915
  50   1.0000      -2.509270       -68.2807
  51   1.0000      -2.509044       -68.2746
  52   1.0000      -2.508249       -68.2529
  53   1.0000      -2.507504       -68.2326
  54   1.0000      -2.507302       -68.2272
  55   1.0000      -2.506748       -68.2121
  56   1.0000      -2.506499       -68.2053
  57   1.0000      -2.505637       -68.1818
  58   1.0000      -2.504046       -68.1386
  59   1.0000      -2.501165       -68.0601
  60   1.0000      -2.500027       -68.0292
  61   1.0000      -2.497428       -67.9585
  62   1.0000      -2.414327       -65.6972
  63   1.0000      -2.413177       -65.6659
  64   1.0000      -2.412903       -65.6584
  65   1.0000      -0.522636       -14.2216
  66   1.0000      -0.520423       -14.1614
  67   1.0000      -0.516772       -14.0621
  68   1.0000      -0.516115       -14.0442
  69   1.0000      -0.511472       -13.9179
  70   1.0000      -0.497251       -13.5309
  71   1.0000      -0.475867       -12.9490
  72   1.0000      -0.470522       -12.8036
  73   1.0000      -0.469589       -12.7782
  74   1.0000      -0.464780       -12.6473
  75   1.0000      -0.461179       -12.5493
  76   1.0000      -0.458277       -12.4703
  77   1.0000      -0.456835       -12.4311
  78   1.0000      -0.455057       -12.3827
  79   1.0000      -0.452207       -12.3052
  80   1.0000      -0.449908       -12.2426
  81   1.0000      -0.448411       -12.2019
  82   1.0000      -0.447125       -12.1669
  83   1.0000      -0.442842       -12.0504
  84   1.0000      -0.442161       -12.0318
  85   1.0000      -0.440489       -11.9863
  86   1.0000      -0.438927       -11.9438
  87   1.0000      -0.437180       -11.8963
  88   1.0000      -0.435013       -11.8373
  89   1.0000      -0.432697       -11.7743
  90   1.0000      -0.430825       -11.7234
  91   1.0000      -0.428891       -11.6707
  92   1.0000      -0.426010       -11.5923
  93   1.0000      -0.424512       -11.5516
  94   1.0000      -0.420745       -11.4491
  95   1.0000      -0.418842       -11.3973
  96   1.0000      -0.417553       -11.3622
  97   1.0000      -0.413734       -11.2583
  98   1.0000      -0.413385       -11.2488
  99   1.0000      -0.409250       -11.1363
 100   1.0000      -0.401862       -10.9352
 101   1.0000      -0.399539       -10.8720
 102   1.0000      -0.393637       -10.7114
 103   1.0000      -0.390077       -10.6145
 104   1.0000      -0.389767       -10.6061
 105   1.0000      -0.388409       -10.5692
 106   1.0000      -0.384752       -10.4696
 107   1.0000      -0.383846       -10.4450
 108   1.0000      -0.381545       -10.3824
 109   1.0000      -0.379165       -10.3176
 110   1.0000      -0.377573       -10.2743
 111   1.0000      -0.375467       -10.2170
 112   1.0000      -0.375029       -10.2051
 113   1.0000      -0.373135       -10.1535
 114   1.0000      -0.371641       -10.1129
 115   1.0000      -0.370798       -10.0899
 116   1.0000      -0.370212       -10.0740
 117   1.0000      -0.368315       -10.0224
 118   1.0000      -0.366993        -9.9864
 119   1.0000      -0.365703        -9.9513
 120   1.0000      -0.365025        -9.9328
 121   1.0000      -0.363844        -9.9007
 122   1.0000      -0.363228        -9.8839
 123   1.0000      -0.361451        -9.8356
 124   1.0000      -0.359788        -9.7903
 125   1.0000      -0.359628        -9.7860
 126   1.0000      -0.355374        -9.6702
 127   1.0000      -0.353367        -9.6156
 128   1.0000      -0.350040        -9.5251
 129   1.0000      -0.348129        -9.4731
 130   1.0000      -0.347731        -9.4622
 131   1.0000      -0.345219        -9.3939
 132   1.0000      -0.344360        -9.3705
 133   1.0000      -0.342617        -9.3231
 134   1.0000      -0.340024        -9.2525
 135   1.0000      -0.339056        -9.2262
 136   1.0000      -0.333574        -9.0770
 137   1.0000      -0.331757        -9.0276
 138   1.0000      -0.326943        -8.8966
 139   1.0000      -0.323283        -8.7970
 140   1.0000      -0.321198        -8.7403
 141   1.0000      -0.314780        -8.5656
 142   1.0000      -0.313302        -8.5254
 143   1.0000      -0.301293        -8.1986
 144   1.0000      -0.242608        -6.6017
 145   1.0000      -0.233850        -6.3634
 146   1.0000      -0.216913        -5.9025
 147   0.0000      -0.136401        -3.7117
 148   0.0000      -0.095264        -2.5923
 149   0.0000      -0.086846        -2.3632
 150   0.0000      -0.067684        -1.8418
 151   0.0000      -0.062464        -1.6997

                 SPIN DOWN ORBITALS
  NO   OCC          E(Eh)            E(eV)
   0   1.0000    -237.630428     -6466.2527
   1   1.0000     -28.032015      -762.7899
   2   1.0000     -23.958360      -651.9401
   3   1.0000     -23.958115      -651.9335
   4   1.0000     -23.957855      -651.9264
   5   1.0000      -4.405800      -119.8879
   6   1.0000      -4.405721      -119.8858
   7   1.0000      -4.403536      -119.8263
   8   1.0000      -4.402428      -119.7961
   9   1.0000      -4.401690      -119.7761
  10   1.0000      -4.401113      -119.7604
  11   1.0000      -4.400480      -119.7431
  12   1.0000      -4.400376      -119.7403
  13   1.0000      -4.398327      -119.6846
  14   1.0000      -4.393436      -119.5515
  15   1.0000      -4.393257      -119.5466
  16   1.0000      -4.392335      -119.5215
  17   1.0000      -4.391219      -119.4912
  18   1.0000      -4.384459      -119.3072
  19   1.0000      -3.326587       -90.5210
  20   1.0000      -2.527667       -68.7813
  21   1.0000      -2.526313       -68.7445
  22   1.0000      -2.525423       -68.7203
  23   1.0000      -2.523811       -68.6764
  24   1.0000      -2.522809       -68.6491
  25   1.0000      -2.522459       -68.6396
  26   1.0000      -2.522095       -68.6297
  27   1.0000      -2.521723       -68.6196
  28   1.0000      -2.521508       -68.6137
  29   1.0000      -2.520970       -68.5991
  30   1.0000      -2.520454       -68.5851
  31   1.0000      -2.520257       -68.5797
  32   1.0000      -2.519751       -68.5659
  33   1.0000      -2.518630       -68.5354
  34   1.0000      -2.518103       -68.5211
  35   1.0000      -2.517825       -68.5135
  36   1.0000      -2.517438       -68.5030
  37   1.0000      -2.517272       -68.4985
  38   1.0000      -2.516851       -68.4870
  39   1.0000      -2.516569       -68.4793
  40   1.0000      -2.515967       -68.4629
  41   1.0000      -2.515659       -68.4546
  42   1.0000      -2.515357       -68.4464
  43   1.0000      -2.514877       -68.4333
  44   1.0000      -2.514012       -68.4097
  45   1.0000      -2.513799       -68.4039
  46   1.0000      -2.512862       -68.3785
  47   1.0000      -2.512096       -68.3576
  48   1.0000      -2.511028       -68.3285
  49   1.0000      -2.510904       -68.3252
  50   1.0000      -2.510175       -68.3053
  51   1.0000      -2.510018       -68.3011
  52   1.0000      -2.509199       -68.2788
  53   1.0000      -2.508511       -68.2601
  54   1.0000      -2.508214       -68.2520
  55   1.0000      -2.507492       -68.2323
  56   1.0000      -2.506775       -68.2128
  57   1.0000      -2.506352       -68.2013
  58   1.0000      -2.504246       -68.1440
  59   1.0000      -2.502421       -68.0943
  60   1.0000      -2.501363       -68.0656
  61   1.0000      -2.499246       -68.0079
  62   1.0000      -2.087657       -56.8080
  63   1.0000      -2.086927       -56.7882
  64   1.0000      -2.086372       -56.7731
  65   1.0000      -0.503616       -13.7041
  66   1.0000      -0.481563       -13.1040
  67   1.0000      -0.476179       -12.9575
  68   1.0000      -0.474414       -12.9095
  69   1.0000      -0.471243       -12.8232
  70   1.0000      -0.467851       -12.7309
  71   1.0000      -0.465813       -12.6754
  72   1.0000      -0.461314       -12.5530
  73   1.0000      -0.459463       -12.5026
  74   1.0000      -0.458911       -12.4876
  75   1.0000      -0.458319       -12.4715
  76   1.0000      -0.456385       -12.4189
  77   1.0000      -0.454027       -12.3547
  78   1.0000      -0.449805       -12.2398
  79   1.0000      -0.449647       -12.2355
  80   1.0000      -0.448762       -12.2114
  81   1.0000      -0.444261       -12.0890
  82   1.0000      -0.442308       -12.0358
  83   1.0000      -0.440202       -11.9785
  84   1.0000      -0.438030       -11.9194
  85   1.0000      -0.435978       -11.8636
  86   1.0000      -0.431371       -11.7382
  87   1.0000      -0.430180       -11.7058
  88   1.0000      -0.427902       -11.6438
  89   1.0000      -0.424304       -11.5459
  90   1.0000      -0.423381       -11.5208
  91   1.0000      -0.422490       -11.4965
  92   1.0000      -0.418907       -11.3991
  93   1.0000      -0.416403       -11.3309
  94   1.0000      -0.413626       -11.2553
  95   1.0000      -0.406042       -11.0490
  96   1.0000      -0.403355       -10.9759
  97   1.0000      -0.398517       -10.8442
  98   1.0000      -0.396498       -10.7893
  99   1.0000      -0.394101       -10.7240
 100   1.0000      -0.393604       -10.7105
 101   1.0000      -0.390468       -10.6252
 102   1.0000      -0.388214       -10.5639
 103   1.0000      -0.385472       -10.4892
 104   1.0000      -0.384130       -10.4527
 105   1.0000      -0.382477       -10.4077
 106   1.0000      -0.380993       -10.3673
 107   1.0000      -0.378644       -10.3034
 108   1.0000      -0.378139       -10.2897
 109   1.0000      -0.376170       -10.2361
 110   1.0000      -0.375200       -10.2097
 111   1.0000      -0.371464       -10.1080
 112   1.0000      -0.370408       -10.0793
 113   1.0000      -0.369655       -10.0588
 114   1.0000      -0.367265        -9.9938
 115   1.0000      -0.366465        -9.9720
 116   1.0000      -0.365383        -9.9426
 117   1.0000      -0.364909        -9.9297
 118   1.0000      -0.364455        -9.9173
 119   1.0000      -0.362836        -9.8733
 120   1.0000      -0.361510        -9.8372
 121   1.0000      -0.359624        -9.7859
 122   1.0000      -0.355405        -9.6711
 123   1.0000      -0.352370        -9.5885
 124   1.0000      -0.350911        -9.5488
 125   1.0000      -0.350423        -9.5355
 126   1.0000      -0.347658        -9.4603
 127   1.0000      -0.346750        -9.4355
 128   1.0000      -0.344173        -9.3654
 129   1.0000      -0.343197        -9.3389
 130   1.0000      -0.341274        -9.2865
 131   1.0000      -0.335391        -9.1265
 132   1.0000      -0.335326        -9.1247
 133   1.0000      -0.331652        -9.0247
 134   1.0000      -0.327201        -8.9036
 135   1.0000      -0.325738        -8.8638
 136   1.0000      -0.319510        -8.6943
 137   1.0000      -0.318713        -8.6726
 138   1.0000      -0.315204        -8.5771
 139   1.0000      -0.249819        -6.7979
 140   1.0000      -0.244345        -6.6490
 141   1.0000      -0.232447        -6.3252
 142   1.0000      -0.226553        -6.1648
 143   1.0000      -0.184345        -5.0163
 144   0.0000      -0.091830        -2.4988
 145   0.0000      -0.074787        -2.0350
 146   0.0000      -0.063340        -1.7236
 147   0.0000      -0.060585        -1.6486
 148   0.0000      -0.051262        -1.3949

MULLIKEN ATOMIC CHARGES AND SPIN POPULATIONS
--------------------------------------------
   0 Au:    0.146232   -0.110668
   1 Au:   -0.385498    0.035436
   2 Au:   -0.154814   -0.163873
   3 Au:    0.273766   -0.112764
   4 Au:    0.279418   -0.116063
   5 Au:    0.226651   -0.024802
   6 Au:    0.264038   -0.218471
   7 Au:   -0.258113   -0.110358
   8 Au:    0.365702   -0.094146
   9 Au:    0.397265    0.004455
  10 Au:    0.178057   -0.217746
  11 Au:    0.292773   -0.255779
  12 Au:   -0.033374   -0.144011
  13 Au:    0.194022   -0.032795
  14 Mn:   -1.786124    4.561583
Sum of atomic charges         :   -0.0000000

LOEWDIN ATOMIC CHARGES AND SPIN POPULATIONS
-------------------------------------------
   0 Au:    0.000178   -0.081738
   1 Au:   -0.099849   -0.062826
   2 Au:   -0.072124   -0.122024
   3 Au:    0.008428   -0.112546
   4 Au:    0.072923   -0.106725
   5 Au:    0.061355   -0.080985
   6 Au:    0.035482   -0.119842
   7 Au:   -0.066052   -0.088228
   8 Au:    0.122332   -0.120938
   9 Au:    0.106891   -0.065894
  10 Au:    0.011237   -0.161883
  11 Au:    0.064710   -0.197977
  12 Au:   -0.021637   -0.093210
  13 Au:    0.014133   -0.119123
  14 Mn:   -0.238006    4.533940

  Mayer bond orders larger than 0.100000
B(  0-Au,  1-Au) :   0.2181 B(  0-Au,  4-Au) :   0.1583 B(  0-Au,  5-Au) :   0.2902
B(  0-Au,  8-Au) :   0.2311 B(  0-Au, 14-Mn) :   0.3550 B(  1-Au,  3-Au) :   0.4634
B(  1-Au,  4-Au) :   0.1705 B(  1-Au,  7-Au) :   0.1303 B(  1-Au,  8-Au) :   0.4392
B(  1-Au, 10-Au) :   0.1586 B(  1-Au, 14-Mn) :   0.3515 B(  2-Au,  3-Au) :   0.2372
B(  2-Au,  4-Au) :   0.2842 B(  2-Au,  6-Au) :   0.3144 B(  2-Au,  7-Au) :   0.1125
B(  2-Au,  9-Au) :   0.3082 B(  2-Au, 12-Au) :   0.2122 B(  2-Au, 14-Mn) :   0.2671
B(  3-Au,  7-Au) :   0.2298 B(  3-Au,  9-Au) :   0.1401 B(  3-Au, 14-Mn) :   0.1132
B(  4-Au,  6-Au) :   0.1445 B(  4-Au, 14-Mn) :   0.4727 B(  5-Au,  6-Au) :   0.1507
B(  5-Au, 13-Au) :   0.1651 B(  5-Au, 14-Mn) :   0.4624 B(  6-Au, 13-Au) :   0.1447
B(  6-Au, 14-Mn) :   0.4091 B(  7-Au,  9-Au) :   0.2935 B(  7-Au, 10-Au) :   0.2537
B(  7-Au, 11-Au) :   0.1744 B(  7-Au, 12-Au) :   0.1957 B(  7-Au, 14-Mn) :   0.4922
B(  8-Au, 10-Au) :   0.3553 B(  9-Au, 12-Au) :   0.2903 B( 10-Au, 11-Au) :   0.2463
B( 10-Au, 14-Mn) :   0.3103 B( 11-Au, 12-Au) :   0.1276 B( 11-Au, 13-Au) :   0.1485
B( 11-Au, 14-Mn) :   0.4499 B( 12-Au, 13-Au) :   0.3172 B( 12-Au, 14-Mn) :   0.3185
B( 13-Au, 14-Mn) :   0.4283

MP2 TOTAL ENERGY:    -3049.050058125 Eh
FINAL SINGLE POINT ENERGY     -3049.050058125293

DIPOLE MOMENT
-------------
                                X             Y             Z
Electronic contribution:    -16.48348     -14.21762       8.57532
Nuclear contribution   :     16.62055      14.16508      -8.51557
                        -----------------------------------------
Total Dipole Moment    :      0.13707      -0.05254       0.05975
                        -----------------------------------------
Magnitude (a.u.)       :      0.15848
Magnitude (Debye)      :      0.40284

Rotational constants in cm-1:     0.001136     0.000979     0.000853
Rotational constants in MHz :    34.058789    29.359073    25.584744

                             ****ORCA TERMINATED NORMALLY****
TOTAL RUN TIME: 0 days 1 hours 6 minutes 13 seconds 733 msec
