                         Program Version 5.0.3 -  RELEASE  -
|  1> !PBE def2-TZVP VERYSLOWCONV
|  2> !KDIIS
|  3>
|  4> %scf
|  5>   AutoTRAHIter 200
|  6>   maxiter 400
|  7> end
|  8>
|  9>
| 10> %pal nprocs 6 end
| 11>
| 12> *xyzfile 0 6 pbe.xyz
| 13>
| 14> $new_job
| 15>
| 16> !PBE def2-TZVP VERYSLOWCONV
| 17> !KDIIS
| 18>
| 19> %scf
| 20>   AutoTRAHIter 200
| 21>   maxiter 400
| 22> end
| 23>
| 24>
| 25> %pal nprocs 6 end
| 26>
| 27> *xyzfile 0 4 pbe.xyz
| 28>
| 29>
| 30>
| 31>
| 32>
| 33>                          ****END OF INPUT****
 Total Charge           Charge          ....    0
 Multiplicity           Mult            ....    6
 Number of Electrons    NEL             ....  291
FINAL SINGLE POINT ENERGY     -3052.376330628148

CARTESIAN COORDINATES (ANGSTROEM)
---------------------------------
  Au    10.200715    8.138489    9.190340
  Au     8.261743    6.085415    9.537576
  Au     5.295542    8.890203    8.582610
  Au     5.594931    6.133895    9.408376
  Au     7.591109    8.722978   10.114483
  Au     9.826736   10.274438    7.547157
  Au     7.181977   10.753991    8.182574
  Au     6.483745    5.945492    6.832938
  Au    10.796544    5.430926    8.833170
  Au     3.936644    6.957619    7.163133
  Au     9.179429    5.710294    6.702737
  Au     7.890487    7.353526    4.900787
  Au     5.623074    8.694726    5.786022
  Au     7.920481   10.136782    5.510692
  Mn     8.011285    8.190130    7.501888

 Multiplicity           Mult            ....    4
 Number of Electrons    NEL             ....  291
 Basis Dimension        Dim             ....  605

ORBITAL ENERGIES
----------------
                 SPIN UP ORBITALS
  NO   OCC          E(Eh)            E(eV)
   0   1.0000    -234.207252     -6373.1033
   1   1.0000     -26.900663      -732.0043
   2   1.0000     -23.050440      -627.2344
   3   1.0000     -23.048678      -627.1864
   4   1.0000     -23.048413      -627.1792
   5   1.0000      -4.035317      -109.8066
   6   1.0000      -4.032770      -109.7372
   7   1.0000      -4.031803      -109.7109
   8   1.0000      -4.031321      -109.6978
   9   1.0000      -4.030598      -109.6781
  10   1.0000      -4.029623      -109.6516
  11   1.0000      -4.029321      -109.6434
  12   1.0000      -4.028409      -109.6186
  13   1.0000      -4.026590      -109.5691
  14   1.0000      -4.024232      -109.5049
  15   1.0000      -4.022670      -109.4624
  16   1.0000      -4.021933      -109.4424
  17   1.0000      -4.019987      -109.3894
  18   1.0000      -4.017186      -109.3132
  19   1.0000      -3.110118       -84.6306
  20   1.0000      -2.253211       -61.3130
  21   1.0000      -2.250279       -61.2332
  22   1.0000      -2.249997       -61.2255
  23   1.0000      -2.247873       -61.1677
  24   1.0000      -2.247759       -61.1646
  25   1.0000      -2.246690       -61.1355
  26   1.0000      -2.246579       -61.1325
  27   1.0000      -2.246274       -61.1242
  28   1.0000      -2.246156       -61.1210
  29   1.0000      -2.244858       -61.0857
  30   1.0000      -2.244359       -61.0721
  31   1.0000      -2.243987       -61.0620
  32   1.0000      -2.243803       -61.0570
  33   1.0000      -2.243253       -61.0420
  34   1.0000      -2.242640       -61.0253
  35   1.0000      -2.242360       -61.0177
  36   1.0000      -2.242283       -61.0156
  37   1.0000      -2.241974       -61.0072
  38   1.0000      -2.241516       -60.9948
  39   1.0000      -2.241024       -60.9814
  40   1.0000      -2.240711       -60.9728
  41   1.0000      -2.239854       -60.9495
  42   1.0000      -2.239331       -60.9353
  43   1.0000      -2.238861       -60.9225
  44   1.0000      -2.238575       -60.9147
  45   1.0000      -2.238046       -60.9003
  46   1.0000      -2.237780       -60.8931
  47   1.0000      -2.237213       -60.8777
  48   1.0000      -2.237070       -60.8738
  49   1.0000      -2.237018       -60.8724
  50   1.0000      -2.236354       -60.8543
  51   1.0000      -2.235216       -60.8233
  52   1.0000      -2.234879       -60.8141
  53   1.0000      -2.234583       -60.8061
  54   1.0000      -2.234012       -60.7906
  55   1.0000      -2.233862       -60.7865
  56   1.0000      -2.233285       -60.7708
  57   1.0000      -2.232364       -60.7457
  58   1.0000      -2.230959       -60.7075
  59   1.0000      -2.230040       -60.6825
  60   1.0000      -2.228559       -60.6422
  61   1.0000      -2.226249       -60.5793
  62   1.0000      -2.015172       -54.8356
  63   1.0000      -2.011902       -54.7466
  64   1.0000      -2.010880       -54.7188
  65   1.0000      -0.430018       -11.7014
  66   1.0000      -0.391639       -10.6570
  67   1.0000      -0.389915       -10.6101
  68   1.0000      -0.385267       -10.4837
  69   1.0000      -0.379214       -10.3189
  70   1.0000      -0.371513       -10.1094
  71   1.0000      -0.370051       -10.0696
  72   1.0000      -0.366122        -9.9627
  73   1.0000      -0.362978        -9.8771
  74   1.0000      -0.359318        -9.7775
  75   1.0000      -0.357252        -9.7213
  76   1.0000      -0.355233        -9.6664
  77   1.0000      -0.352779        -9.5996
  78   1.0000      -0.347662        -9.4604
  79   1.0000      -0.346658        -9.4330
  80   1.0000      -0.345533        -9.4024
  81   1.0000      -0.342527        -9.3206
  82   1.0000      -0.340813        -9.2740
  83   1.0000      -0.338792        -9.2190
  84   1.0000      -0.337306        -9.1786
  85   1.0000      -0.334102        -9.0914
  86   1.0000      -0.330831        -9.0024
  87   1.0000      -0.329757        -8.9731
  88   1.0000      -0.327829        -8.9207
  89   1.0000      -0.326576        -8.8866
  90   1.0000      -0.322749        -8.7824
  91   1.0000      -0.321884        -8.7589
  92   1.0000      -0.320118        -8.7108
  93   1.0000      -0.317478        -8.6390
  94   1.0000      -0.316313        -8.6073
  95   1.0000      -0.311197        -8.4681
  96   1.0000      -0.308516        -8.3951
  97   1.0000      -0.307372        -8.3640
  98   1.0000      -0.304081        -8.2745
  99   1.0000      -0.302504        -8.2316
 100   1.0000      -0.299815        -8.1584
 101   1.0000      -0.295639        -8.0447
 102   1.0000      -0.292443        -7.9578
 103   1.0000      -0.291421        -7.9300
 104   1.0000      -0.288968        -7.8632
 105   1.0000      -0.288334        -7.8460
 106   1.0000      -0.285354        -7.7649
 107   1.0000      -0.284483        -7.7412
 108   1.0000      -0.282846        -7.6966
 109   1.0000      -0.281647        -7.6640
 110   1.0000      -0.280614        -7.6359
 111   1.0000      -0.277649        -7.5552
 112   1.0000      -0.275811        -7.5052
 113   1.0000      -0.273475        -7.4416
 114   1.0000      -0.273370        -7.4388
 115   1.0000      -0.272807        -7.4235
 116   1.0000      -0.271417        -7.3856
 117   1.0000      -0.269615        -7.3366
 118   1.0000      -0.269319        -7.3285
 119   1.0000      -0.267911        -7.2902
 120   1.0000      -0.267277        -7.2730
 121   1.0000      -0.265238        -7.2175
 122   1.0000      -0.263828        -7.1791
 123   1.0000      -0.262015        -7.1298
 124   1.0000      -0.260367        -7.0849
 125   1.0000      -0.257919        -7.0183
 126   1.0000      -0.256446        -6.9782
 127   1.0000      -0.254528        -6.9261
 128   1.0000      -0.253887        -6.9086
 129   1.0000      -0.253225        -6.8906
 130   1.0000      -0.252838        -6.8801
 131   1.0000      -0.252454        -6.8696
 132   1.0000      -0.250789        -6.8243
 133   1.0000      -0.250095        -6.8054
 134   1.0000      -0.248968        -6.7748
 135   1.0000      -0.247473        -6.7341
 136   1.0000      -0.245943        -6.6924
 137   1.0000      -0.245338        -6.6760
 138   1.0000      -0.243574        -6.6280
 139   1.0000      -0.242669        -6.6034
 140   1.0000      -0.240952        -6.5566
 141   1.0000      -0.239774        -6.5246
 142   1.0000      -0.235541        -6.4094
 143   1.0000      -0.231709        -6.3051
 144   1.0000      -0.214617        -5.8400
 145   1.0000      -0.210168        -5.7190
 146   1.0000      -0.198462        -5.4004
 147   0.0000      -0.194755        -5.2996
 148   0.0000      -0.163643        -4.4530
 149   0.0000      -0.149390        -4.0651
 150   0.0000      -0.134886        -3.6704
 151   0.0000      -0.127145        -3.4598

                 SPIN DOWN ORBITALS
  NO   OCC          E(Eh)            E(eV)
   0   1.0000    -234.206548     -6373.0842
   1   1.0000     -26.834573      -730.2059
   2   1.0000     -23.000059      -625.8634
   3   1.0000     -22.998987      -625.8342
   4   1.0000     -22.997935      -625.8056
   5   1.0000      -4.035767      -109.8188
   6   1.0000      -4.033041      -109.7446
   7   1.0000      -4.031462      -109.7017
   8   1.0000      -4.031263      -109.6962
   9   1.0000      -4.030335      -109.6710
  10   1.0000      -4.029528      -109.6490
  11   1.0000      -4.029237      -109.6411
  12   1.0000      -4.028371      -109.6175
  13   1.0000      -4.026828      -109.5756
  14   1.0000      -4.023958      -109.4975
  15   1.0000      -4.023486      -109.4846
  16   1.0000      -4.023392      -109.4821
  17   1.0000      -4.019952      -109.3885
  18   1.0000      -4.018336      -109.3445
  19   1.0000      -2.947866       -80.2155
  20   1.0000      -2.253903       -61.3318
  21   1.0000      -2.250592       -61.2417
  22   1.0000      -2.249955       -61.2244
  23   1.0000      -2.247742       -61.1642
  24   1.0000      -2.247265       -61.1512
  25   1.0000      -2.246881       -61.1408
  26   1.0000      -2.246486       -61.1300
  27   1.0000      -2.246345       -61.1262
  28   1.0000      -2.246045       -61.1180
  29   1.0000      -2.245024       -61.0902
  30   1.0000      -2.244296       -61.0704
  31   1.0000      -2.243866       -61.0587
  32   1.0000      -2.243805       -61.0570
  33   1.0000      -2.243215       -61.0410
  34   1.0000      -2.242418       -61.0193
  35   1.0000      -2.242270       -61.0153
  36   1.0000      -2.242247       -61.0146
  37   1.0000      -2.241960       -61.0068
  38   1.0000      -2.241352       -60.9903
  39   1.0000      -2.241038       -60.9817
  40   1.0000      -2.240499       -60.9671
  41   1.0000      -2.239871       -60.9500
  42   1.0000      -2.239428       -60.9379
  43   1.0000      -2.238748       -60.9194
  44   1.0000      -2.238716       -60.9185
  45   1.0000      -2.238544       -60.9139
  46   1.0000      -2.238137       -60.9028
  47   1.0000      -2.237975       -60.8984
  48   1.0000      -2.237753       -60.8923
  49   1.0000      -2.236933       -60.8701
  50   1.0000      -2.236763       -60.8654
  51   1.0000      -2.236629       -60.8618
  52   1.0000      -2.235689       -60.8362
  53   1.0000      -2.234980       -60.8169
  54   1.0000      -2.234026       -60.7909
  55   1.0000      -2.233977       -60.7896
  56   1.0000      -2.233379       -60.7733
  57   1.0000      -2.233160       -60.7674
  58   1.0000      -2.231859       -60.7320
  59   1.0000      -2.231325       -60.7174
  60   1.0000      -2.228780       -60.6482
  61   1.0000      -2.227661       -60.6177
  62   1.0000      -1.855530       -50.4915
  63   1.0000      -1.853678       -50.4411
  64   1.0000      -1.850802       -50.3629
  65   1.0000      -0.425254       -11.5718
  66   1.0000      -0.391748       -10.6600
  67   1.0000      -0.390552       -10.6275
  68   1.0000      -0.382591       -10.4108
  69   1.0000      -0.376198       -10.2369
  70   1.0000      -0.369546       -10.0559
  71   1.0000      -0.366409        -9.9705
  72   1.0000      -0.364983        -9.9317
  73   1.0000      -0.358936        -9.7671
  74   1.0000      -0.357801        -9.7363
  75   1.0000      -0.355713        -9.6794
  76   1.0000      -0.354142        -9.6367
  77   1.0000      -0.352263        -9.5856
  78   1.0000      -0.347119        -9.4456
  79   1.0000      -0.346635        -9.4324
  80   1.0000      -0.346263        -9.4223
  81   1.0000      -0.342544        -9.3211
  82   1.0000      -0.340607        -9.2684
  83   1.0000      -0.337687        -9.1889
  84   1.0000      -0.336345        -9.1524
  85   1.0000      -0.334224        -9.0947
  86   1.0000      -0.330023        -8.9804
  87   1.0000      -0.328958        -8.9514
  88   1.0000      -0.326796        -8.8926
  89   1.0000      -0.323871        -8.8130
  90   1.0000      -0.322752        -8.7825
  91   1.0000      -0.321579        -8.7506
  92   1.0000      -0.319443        -8.6925
  93   1.0000      -0.316863        -8.6223
  94   1.0000      -0.314420        -8.5558
  95   1.0000      -0.308866        -8.4047
  96   1.0000      -0.306368        -8.3367
  97   1.0000      -0.301405        -8.2017
  98   1.0000      -0.300736        -8.1834
  99   1.0000      -0.298105        -8.1118
 100   1.0000      -0.295797        -8.0490
 101   1.0000      -0.293652        -7.9907
 102   1.0000      -0.291339        -7.9277
 103   1.0000      -0.288657        -7.8548
 104   1.0000      -0.288388        -7.8474
 105   1.0000      -0.287833        -7.8323
 106   1.0000      -0.286183        -7.7874
 107   1.0000      -0.283924        -7.7260
 108   1.0000      -0.283078        -7.7029
 109   1.0000      -0.281677        -7.6648
 110   1.0000      -0.280097        -7.6218
 111   1.0000      -0.276301        -7.5185
 112   1.0000      -0.275005        -7.4833
 113   1.0000      -0.273983        -7.4555
 114   1.0000      -0.273006        -7.4289
 115   1.0000      -0.272336        -7.4106
 116   1.0000      -0.271637        -7.3916
 117   1.0000      -0.269922        -7.3449
 118   1.0000      -0.268978        -7.3193
 119   1.0000      -0.268423        -7.3042
 120   1.0000      -0.267447        -7.2776
 121   1.0000      -0.265421        -7.2225
 122   1.0000      -0.263110        -7.1596
 123   1.0000      -0.260494        -7.0884
 124   1.0000      -0.259620        -7.0646
 125   1.0000      -0.256461        -6.9787
 126   1.0000      -0.255712        -6.9583
 127   1.0000      -0.255183        -6.9439
 128   1.0000      -0.254235        -6.9181
 129   1.0000      -0.253724        -6.9042
 130   1.0000      -0.253136        -6.8882
 131   1.0000      -0.250767        -6.8237
 132   1.0000      -0.249120        -6.7789
 133   1.0000      -0.247773        -6.7422
 134   1.0000      -0.246258        -6.7010
 135   1.0000      -0.244728        -6.6594
 136   1.0000      -0.242227        -6.5913
 137   1.0000      -0.238151        -6.4804
 138   1.0000      -0.233479        -6.3533
 139   1.0000      -0.222205        -6.0465
 140   1.0000      -0.218799        -5.9538
 141   1.0000      -0.208679        -5.6784
 142   1.0000      -0.207268        -5.6400
 143   1.0000      -0.174487        -4.7480
 144   0.0000      -0.156232        -4.2513
 145   0.0000      -0.143217        -3.8971
 146   0.0000      -0.137213        -3.7337
 147   0.0000      -0.131865        -3.5882
 148   0.0000      -0.131632        -3.5819

MULLIKEN ATOMIC CHARGES AND SPIN POPULATIONS
--------------------------------------------
   0 Au:    0.171012   -0.045229
   1 Au:   -0.270990   -0.021782
   2 Au:   -0.117095   -0.101027
   3 Au:    0.274850   -0.089243
   4 Au:    0.261298   -0.051296
   5 Au:    0.278378   -0.001188
   6 Au:    0.272307   -0.153485
   7 Au:   -0.245126   -0.100552
   8 Au:    0.386806   -0.096190
   9 Au:    0.426169   -0.010808
  10 Au:    0.207595   -0.144722
  11 Au:    0.308995   -0.162512
  12 Au:   -0.016747   -0.118064
  13 Au:    0.258541   -0.001113
  14 Mn:   -2.195992    4.097210
Sum of atomic charges         :   -0.0000000

LOEWDIN ATOMIC CHARGES AND SPIN POPULATIONS
-------------------------------------------
   0 Au:    0.019428   -0.036971
   1 Au:   -0.073097   -0.043654
   2 Au:   -0.040511   -0.081111
   3 Au:    0.025075   -0.104503
   4 Au:    0.085657   -0.058439
   5 Au:    0.078975   -0.044620
   6 Au:    0.049825   -0.082216
   7 Au:   -0.041316   -0.065766
   8 Au:    0.108579   -0.121979
   9 Au:    0.092695   -0.058895
  10 Au:    0.037317   -0.113652
  11 Au:    0.089922   -0.142684
  12 Au:   -0.008557   -0.074549
  13 Au:    0.038176   -0.069521
  14 Mn:   -0.462170    4.098559

  Mayer bond orders larger than 0.100000
B(  0-Au,  1-Au) :   0.2134 B(  0-Au,  4-Au) :   0.2021 B(  0-Au,  5-Au) :   0.3031
B(  0-Au,  8-Au) :   0.2709 B(  0-Au, 14-Mn) :   0.3865 B(  1-Au,  3-Au) :   0.4944
B(  1-Au,  4-Au) :   0.2022 B(  1-Au,  7-Au) :   0.1329 B(  1-Au,  8-Au) :   0.4554
B(  1-Au, 10-Au) :   0.1712 B(  1-Au, 14-Mn) :   0.3640 B(  2-Au,  3-Au) :   0.2548
B(  2-Au,  4-Au) :   0.2960 B(  2-Au,  6-Au) :   0.3399 B(  2-Au,  7-Au) :   0.1078
B(  2-Au,  9-Au) :   0.3224 B(  2-Au, 12-Au) :   0.2507 B(  2-Au, 14-Mn) :   0.2950
B(  3-Au,  7-Au) :   0.2848 B(  3-Au,  9-Au) :   0.1754 B(  3-Au, 14-Mn) :   0.1346
B(  4-Au,  6-Au) :   0.1637 B(  4-Au, 14-Mn) :   0.5298 B(  5-Au,  6-Au) :   0.1990
B(  5-Au, 13-Au) :   0.2156 B(  5-Au, 14-Mn) :   0.4721 B(  6-Au, 13-Au) :   0.1785
B(  6-Au, 14-Mn) :   0.4539 B(  7-Au,  9-Au) :   0.3265 B(  7-Au, 10-Au) :   0.2918
B(  7-Au, 11-Au) :   0.2126 B(  7-Au, 12-Au) :   0.1988 B(  7-Au, 14-Mn) :   0.5254
B(  8-Au, 10-Au) :   0.4017 B(  9-Au, 12-Au) :   0.3215 B( 10-Au, 11-Au) :   0.2627
B( 10-Au, 14-Mn) :   0.3367 B( 11-Au, 12-Au) :   0.1778 B( 11-Au, 13-Au) :   0.1580
B( 11-Au, 14-Mn) :   0.4864 B( 12-Au, 13-Au) :   0.3193 B( 12-Au, 14-Mn) :   0.3538
B( 13-Au, 14-Mn) :   0.4508

FINAL SINGLE POINT ENERGY     -3052.355549455064

DIPOLE MOMENT
-------------
                                X             Y             Z
Electronic contribution:    -16.55952     -14.26066       8.56130
Nuclear contribution   :     16.62055      14.16508      -8.51557
                        -----------------------------------------
Total Dipole Moment    :      0.06102      -0.09557       0.04573
                        -----------------------------------------
Magnitude (a.u.)       :      0.12227
Magnitude (Debye)      :      0.31078

Rotational constants in cm-1:     0.001136     0.000979     0.000853
Rotational constants in MHz :    34.058789    29.359073    25.584744

                             ****ORCA TERMINATED NORMALLY****
TOTAL RUN TIME: 0 days 0 hours 8 minutes 40 seconds 165 msec
