                         Program Version 5.0.3 -  RELEASE  -
|  1> !R2SCAN def2-TZVP VERYSLOWCONV
|  2> !KDIIS
|  3> %scf
|  4>   AutoTRAHIter 200
|  5>   maxiter 400
|  6> end
|  7>
|  8> %pal nprocs 6 end
|  9>
| 10> *xyzfile 0 6 pbe.xyz
| 11>
| 12> $new_job
| 13>
| 14> !R2SCAN def2-TZVP VERYSLOWCONV
| 15> !KDIIS
| 16> %scf
| 17>   AutoTRAHIter 200
| 18>   maxiter 400
| 19> end
| 20>
| 21>
| 22> %pal nprocs 6 end
| 23>
| 24> *xyzfile 0 4 pbe.xyz
| 25>
| 26>
| 27>
| 28>
| 29>
| 30>                          ****END OF INPUT****
 Total Charge           Charge          ....    0
 Multiplicity           Mult            ....    6
 Number of Electrons    NEL             ....  291
FINAL SINGLE POINT ENERGY     -3052.876344248044

CARTESIAN COORDINATES (ANGSTROEM)
---------------------------------
  Au    10.200715    8.138489    9.190340
  Au     8.261743    6.085415    9.537576
  Au     5.295542    8.890203    8.582610
  Au     5.594931    6.133895    9.408376
  Au     7.591109    8.722978   10.114483
  Au     9.826736   10.274438    7.547157
  Au     7.181977   10.753991    8.182574
  Au     6.483745    5.945492    6.832938
  Au    10.796544    5.430926    8.833170
  Au     3.936644    6.957619    7.163133
  Au     9.179429    5.710294    6.702737
  Au     7.890487    7.353526    4.900787
  Au     5.623074    8.694726    5.786022
  Au     7.920481   10.136782    5.510692
  Mn     8.011285    8.190130    7.501888

 Multiplicity           Mult            ....    4
 Number of Electrons    NEL             ....  291
 Basis Dimension        Dim             ....  605

ORBITAL ENERGIES
----------------
                 SPIN UP ORBITALS
  NO   OCC          E(Eh)            E(eV)
   0   1.0000    -235.050629     -6396.0528
   1   1.0000     -27.227977      -740.9109
   2   1.0000     -23.275678      -633.3634
   3   1.0000     -23.274296      -633.3258
   4   1.0000     -23.274038      -633.3188
   5   1.0000      -4.126090      -112.2766
   6   1.0000      -4.123760      -112.2132
   7   1.0000      -4.123441      -112.2045
   8   1.0000      -4.122128      -112.1688
   9   1.0000      -4.122105      -112.1682
  10   1.0000      -4.120676      -112.1293
  11   1.0000      -4.120510      -112.1248
  12   1.0000      -4.119486      -112.0969
  13   1.0000      -4.117177      -112.0341
  14   1.0000      -4.115467      -111.9876
  15   1.0000      -4.113343      -111.9298
  16   1.0000      -4.113283      -111.9281
  17   1.0000      -4.111341      -111.8753
  18   1.0000      -4.107160      -111.7615
  19   1.0000      -3.250433       -88.4488
  20   1.0000      -2.316665       -63.0397
  21   1.0000      -2.313952       -62.9658
  22   1.0000      -2.313719       -62.9595
  23   1.0000      -2.312350       -62.9222
  24   1.0000      -2.311492       -62.8989
  25   1.0000      -2.310843       -62.8812
  26   1.0000      -2.310457       -62.8707
  27   1.0000      -2.310422       -62.8698
  28   1.0000      -2.309927       -62.8563
  29   1.0000      -2.308669       -62.8221
  30   1.0000      -2.308380       -62.8142
  31   1.0000      -2.307960       -62.8028
  32   1.0000      -2.307610       -62.7933
  33   1.0000      -2.307352       -62.7862
  34   1.0000      -2.306625       -62.7665
  35   1.0000      -2.306274       -62.7569
  36   1.0000      -2.306159       -62.7538
  37   1.0000      -2.305654       -62.7400
  38   1.0000      -2.305580       -62.7380
  39   1.0000      -2.304896       -62.7194
  40   1.0000      -2.304642       -62.7125
  41   1.0000      -2.304145       -62.6990
  42   1.0000      -2.303356       -62.6775
  43   1.0000      -2.302660       -62.6586
  44   1.0000      -2.302429       -62.6523
  45   1.0000      -2.301829       -62.6359
  46   1.0000      -2.301688       -62.6321
  47   1.0000      -2.301206       -62.6190
  48   1.0000      -2.300833       -62.6089
  49   1.0000      -2.300447       -62.5984
  50   1.0000      -2.299784       -62.5803
  51   1.0000      -2.298822       -62.5541
  52   1.0000      -2.298636       -62.5491
  53   1.0000      -2.298515       -62.5458
  54   1.0000      -2.297773       -62.5256
  55   1.0000      -2.297240       -62.5111
  56   1.0000      -2.297062       -62.5062
  57   1.0000      -2.295215       -62.4560
  58   1.0000      -2.294857       -62.4462
  59   1.0000      -2.292691       -62.3873
  60   1.0000      -2.292587       -62.3845
  61   1.0000      -2.289048       -62.2882
  62   1.0000      -2.108991       -57.3886
  63   1.0000      -2.106053       -57.3086
  64   1.0000      -2.105746       -57.3003
  65   1.0000      -0.435848       -11.8600
  66   1.0000      -0.399074       -10.8594
  67   1.0000      -0.396027       -10.7764
  68   1.0000      -0.393107       -10.6970
  69   1.0000      -0.389298       -10.5933
  70   1.0000      -0.381840       -10.3904
  71   1.0000      -0.380081       -10.3425
  72   1.0000      -0.375470       -10.2171
  73   1.0000      -0.374488       -10.1903
  74   1.0000      -0.369846       -10.0640
  75   1.0000      -0.366317        -9.9680
  76   1.0000      -0.365139        -9.9359
  77   1.0000      -0.362543        -9.8653
  78   1.0000      -0.357366        -9.7244
  79   1.0000      -0.355905        -9.6847
  80   1.0000      -0.355032        -9.6609
  81   1.0000      -0.352985        -9.6052
  82   1.0000      -0.351175        -9.5560
  83   1.0000      -0.348379        -9.4799
  84   1.0000      -0.347297        -9.4504
  85   1.0000      -0.343585        -9.3494
  86   1.0000      -0.341102        -9.2819
  87   1.0000      -0.339687        -9.2434
  88   1.0000      -0.337089        -9.1727
  89   1.0000      -0.336935        -9.1685
  90   1.0000      -0.333282        -9.0691
  91   1.0000      -0.331338        -9.0162
  92   1.0000      -0.330511        -8.9937
  93   1.0000      -0.327616        -8.9149
  94   1.0000      -0.325920        -8.8687
  95   1.0000      -0.321143        -8.7388
  96   1.0000      -0.319409        -8.6915
  97   1.0000      -0.317591        -8.6421
  98   1.0000      -0.314879        -8.5683
  99   1.0000      -0.313897        -8.5416
 100   1.0000      -0.309305        -8.4166
 101   1.0000      -0.305516        -8.3135
 102   1.0000      -0.302368        -8.2279
 103   1.0000      -0.300526        -8.1777
 104   1.0000      -0.298193        -8.1143
 105   1.0000      -0.297551        -8.0968
 106   1.0000      -0.294055        -8.0016
 107   1.0000      -0.293633        -7.9902
 108   1.0000      -0.291471        -7.9313
 109   1.0000      -0.290506        -7.9051
 110   1.0000      -0.289930        -7.8894
 111   1.0000      -0.287822        -7.8320
 112   1.0000      -0.284783        -7.7494
 113   1.0000      -0.283120        -7.7041
 114   1.0000      -0.281982        -7.6731
 115   1.0000      -0.281570        -7.6619
 116   1.0000      -0.280180        -7.6241
 117   1.0000      -0.278896        -7.5892
 118   1.0000      -0.278192        -7.5700
 119   1.0000      -0.277337        -7.5467
 120   1.0000      -0.276299        -7.5185
 121   1.0000      -0.275097        -7.4858
 122   1.0000      -0.273853        -7.4519
 123   1.0000      -0.272199        -7.4069
 124   1.0000      -0.269785        -7.3412
 125   1.0000      -0.267698        -7.2844
 126   1.0000      -0.267171        -7.2701
 127   1.0000      -0.264522        -7.1980
 128   1.0000      -0.263006        -7.1567
 129   1.0000      -0.262256        -7.1364
 130   1.0000      -0.261655        -7.1200
 131   1.0000      -0.261146        -7.1061
 132   1.0000      -0.260496        -7.0885
 133   1.0000      -0.259221        -7.0538
 134   1.0000      -0.257904        -7.0179
 135   1.0000      -0.257321        -7.0021
 136   1.0000      -0.256058        -6.9677
 137   1.0000      -0.253553        -6.8995
 138   1.0000      -0.251861        -6.8535
 139   1.0000      -0.251079        -6.8322
 140   1.0000      -0.249721        -6.7952
 141   1.0000      -0.246703        -6.7131
 142   1.0000      -0.242300        -6.5933
 143   1.0000      -0.238227        -6.4825
 144   1.0000      -0.217643        -5.9224
 145   1.0000      -0.213405        -5.8070
 146   1.0000      -0.200531        -5.4567
 147   0.0000      -0.194280        -5.2866
 148   0.0000      -0.159754        -4.3471
 149   0.0000      -0.145501        -3.9593
 150   0.0000      -0.130598        -3.5537
 151   0.0000      -0.122738        -3.3399

                 SPIN DOWN ORBITALS
  NO   OCC          E(Eh)            E(eV)
   0   1.0000    -235.049624     -6396.0254
   1   1.0000     -27.139386      -738.5002
   2   1.0000     -23.207322      -631.5033
   3   1.0000     -23.206670      -631.4856
   4   1.0000     -23.206183      -631.4724
   5   1.0000      -4.126913      -112.2990
   6   1.0000      -4.124302      -112.2280
   7   1.0000      -4.123205      -112.1981
   8   1.0000      -4.122233      -112.1717
   9   1.0000      -4.122081      -112.1675
  10   1.0000      -4.120746      -112.1312
  11   1.0000      -4.120570      -112.1264
  12   1.0000      -4.119671      -112.1020
  13   1.0000      -4.117656      -112.0471
  14   1.0000      -4.115275      -111.9823
  15   1.0000      -4.115228      -111.9811
  16   1.0000      -4.114094      -111.9502
  17   1.0000      -4.111468      -111.8787
  18   1.0000      -4.108579      -111.8001
  19   1.0000      -3.038895       -82.6925
  20   1.0000      -2.317747       -63.0691
  21   1.0000      -2.314613       -62.9838
  22   1.0000      -2.313838       -62.9627
  23   1.0000      -2.311710       -62.9048
  24   1.0000      -2.311514       -62.8995
  25   1.0000      -2.310832       -62.8809
  26   1.0000      -2.310702       -62.8774
  27   1.0000      -2.310529       -62.8727
  28   1.0000      -2.310434       -62.8701
  29   1.0000      -2.308861       -62.8273
  30   1.0000      -2.308337       -62.8130
  31   1.0000      -2.307911       -62.8015
  32   1.0000      -2.307715       -62.7961
  33   1.0000      -2.307499       -62.7902
  34   1.0000      -2.306375       -62.7597
  35   1.0000      -2.306289       -62.7573
  36   1.0000      -2.306097       -62.7521
  37   1.0000      -2.305683       -62.7408
  38   1.0000      -2.305561       -62.7375
  39   1.0000      -2.305003       -62.7223
  40   1.0000      -2.304536       -62.7096
  41   1.0000      -2.304181       -62.6999
  42   1.0000      -2.303490       -62.6811
  43   1.0000      -2.303058       -62.6694
  44   1.0000      -2.302731       -62.6605
  45   1.0000      -2.302471       -62.6534
  46   1.0000      -2.301992       -62.6404
  47   1.0000      -2.301718       -62.6329
  48   1.0000      -2.301327       -62.6223
  49   1.0000      -2.301036       -62.6144
  50   1.0000      -2.300789       -62.6076
  51   1.0000      -2.300345       -62.5956
  52   1.0000      -2.299117       -62.5621
  53   1.0000      -2.298390       -62.5424
  54   1.0000      -2.298220       -62.5377
  55   1.0000      -2.297886       -62.5286
  56   1.0000      -2.296999       -62.5045
  57   1.0000      -2.296462       -62.4899
  58   1.0000      -2.296167       -62.4819
  59   1.0000      -2.294298       -62.4310
  60   1.0000      -2.292997       -62.3956
  61   1.0000      -2.290645       -62.3316
  62   1.0000      -1.897992       -51.6470
  63   1.0000      -1.896848       -51.6159
  64   1.0000      -1.895160       -51.5699
  65   1.0000      -0.431607       -11.7446
  66   1.0000      -0.399675       -10.8757
  67   1.0000      -0.397224       -10.8090
  68   1.0000      -0.390057       -10.6140
  69   1.0000      -0.384661       -10.4672
  70   1.0000      -0.378426       -10.2975
  71   1.0000      -0.375315       -10.2129
  72   1.0000      -0.374258       -10.1841
  73   1.0000      -0.368305       -10.0221
  74   1.0000      -0.367057        -9.9881
  75   1.0000      -0.365131        -9.9357
  76   1.0000      -0.363812        -9.8998
  77   1.0000      -0.361766        -9.8442
  78   1.0000      -0.356801        -9.7091
  79   1.0000      -0.356221        -9.6933
  80   1.0000      -0.355814        -9.6822
  81   1.0000      -0.352101        -9.5811
  82   1.0000      -0.350321        -9.5327
  83   1.0000      -0.347027        -9.4431
  84   1.0000      -0.346193        -9.4204
  85   1.0000      -0.343940        -9.3591
  86   1.0000      -0.339701        -9.2437
  87   1.0000      -0.338350        -9.2070
  88   1.0000      -0.336786        -9.1644
  89   1.0000      -0.333578        -9.0771
  90   1.0000      -0.332251        -9.0410
  91   1.0000      -0.331104        -9.0098
  92   1.0000      -0.328911        -8.9501
  93   1.0000      -0.326276        -8.8784
  94   1.0000      -0.323669        -8.8075
  95   1.0000      -0.317861        -8.6494
  96   1.0000      -0.315276        -8.5791
  97   1.0000      -0.310485        -8.4487
  98   1.0000      -0.309603        -8.4247
  99   1.0000      -0.306859        -8.3500
 100   1.0000      -0.304815        -8.2944
 101   1.0000      -0.302188        -8.2230
 102   1.0000      -0.300421        -8.1749
 103   1.0000      -0.297806        -8.1037
 104   1.0000      -0.297011        -8.0821
 105   1.0000      -0.296823        -8.0770
 106   1.0000      -0.294908        -8.0249
 107   1.0000      -0.292752        -7.9662
 108   1.0000      -0.291505        -7.9323
 109   1.0000      -0.290599        -7.9076
 110   1.0000      -0.288937        -7.8624
 111   1.0000      -0.285259        -7.7623
 112   1.0000      -0.283785        -7.7222
 113   1.0000      -0.282508        -7.6874
 114   1.0000      -0.281778        -7.6676
 115   1.0000      -0.280804        -7.6411
 116   1.0000      -0.280139        -7.6230
 117   1.0000      -0.278513        -7.5787
 118   1.0000      -0.277677        -7.5560
 119   1.0000      -0.277131        -7.5411
 120   1.0000      -0.275975        -7.5097
 121   1.0000      -0.273966        -7.4550
 122   1.0000      -0.271227        -7.3805
 123   1.0000      -0.268506        -7.3064
 124   1.0000      -0.267603        -7.2819
 125   1.0000      -0.264887        -7.2079
 126   1.0000      -0.263508        -7.1704
 127   1.0000      -0.263330        -7.1656
 128   1.0000      -0.262374        -7.1396
 129   1.0000      -0.261654        -7.1200
 130   1.0000      -0.260898        -7.0994
 131   1.0000      -0.258392        -7.0312
 132   1.0000      -0.256525        -6.9804
 133   1.0000      -0.254928        -6.9369
 134   1.0000      -0.253907        -6.9092
 135   1.0000      -0.252276        -6.8648
 136   1.0000      -0.249279        -6.7832
 137   1.0000      -0.244725        -6.6593
 138   1.0000      -0.240215        -6.5366
 139   1.0000      -0.225169        -6.1272
 140   1.0000      -0.221397        -6.0245
 141   1.0000      -0.210906        -5.7390
 142   1.0000      -0.208905        -5.6846
 143   1.0000      -0.173941        -4.7332
 144   0.0000      -0.151684        -4.1275
 145   0.0000      -0.137433        -3.7397
 146   0.0000      -0.127719        -3.4754
 147   0.0000      -0.123885        -3.3711
 148   0.0000      -0.117592        -3.1998

MULLIKEN ATOMIC CHARGES AND SPIN POPULATIONS
--------------------------------------------
   0 Au:    0.150870   -0.058232
   1 Au:   -0.266309   -0.011893
   2 Au:   -0.103242   -0.121393
   3 Au:    0.244012   -0.106595
   4 Au:    0.245810   -0.066261
   5 Au:    0.241109   -0.009856
   6 Au:    0.254588   -0.182466
   7 Au:   -0.231255   -0.109860
   8 Au:    0.357934   -0.112427
   9 Au:    0.394008   -0.012493
  10 Au:    0.195693   -0.166287
  11 Au:    0.289092   -0.195526
  12 Au:   -0.027520   -0.131142
  13 Au:    0.219967   -0.006782
  14 Mn:   -1.964757    4.291212
Sum of atomic charges         :   -0.0000000

LOEWDIN ATOMIC CHARGES AND SPIN POPULATIONS
-------------------------------------------
   0 Au:    0.013489   -0.048509
   1 Au:   -0.077799   -0.053050
   2 Au:   -0.045684   -0.096732
   3 Au:    0.017248   -0.116771
   4 Au:    0.081697   -0.071073
   5 Au:    0.070271   -0.054583
   6 Au:    0.045575   -0.096600
   7 Au:   -0.045432   -0.077614
   8 Au:    0.106679   -0.132373
   9 Au:    0.089865   -0.065690
  10 Au:    0.031437   -0.127326
  11 Au:    0.082087   -0.162923
  12 Au:   -0.012900   -0.084152
  13 Au:    0.029406   -0.082982
  14 Mn:   -0.385940    4.270378

  Mayer bond orders larger than 0.100000
B(  0-Au,  1-Au) :   0.1893 B(  0-Au,  4-Au) :   0.1916 B(  0-Au,  5-Au) :   0.3085
B(  0-Au,  8-Au) :   0.2599 B(  0-Au, 14-Mn) :   0.3802 B(  1-Au,  3-Au) :   0.4993
B(  1-Au,  4-Au) :   0.1828 B(  1-Au,  7-Au) :   0.1241 B(  1-Au,  8-Au) :   0.4439
B(  1-Au, 10-Au) :   0.1398 B(  1-Au, 14-Mn) :   0.3433 B(  2-Au,  3-Au) :   0.2366
B(  2-Au,  4-Au) :   0.2938 B(  2-Au,  6-Au) :   0.3312 B(  2-Au,  9-Au) :   0.3193
B(  2-Au, 12-Au) :   0.2286 B(  2-Au, 14-Mn) :   0.2718 B(  3-Au,  7-Au) :   0.2647
B(  3-Au,  9-Au) :   0.1615 B(  3-Au, 14-Mn) :   0.1226 B(  4-Au,  6-Au) :   0.1622
B(  4-Au, 14-Mn) :   0.5214 B(  5-Au,  6-Au) :   0.1784 B(  5-Au, 13-Au) :   0.2000
B(  5-Au, 14-Mn) :   0.4706 B(  6-Au, 13-Au) :   0.1604 B(  6-Au, 14-Mn) :   0.4404
B(  7-Au,  9-Au) :   0.3129 B(  7-Au, 10-Au) :   0.2807 B(  7-Au, 11-Au) :   0.1993
B(  7-Au, 12-Au) :   0.1836 B(  7-Au, 14-Mn) :   0.5124 B(  8-Au, 10-Au) :   0.3938
B(  9-Au, 12-Au) :   0.3160 B( 10-Au, 11-Au) :   0.2674 B( 10-Au, 14-Mn) :   0.3334
B( 11-Au, 12-Au) :   0.1528 B( 11-Au, 13-Au) :   0.1460 B( 11-Au, 14-Mn) :   0.4807
B( 12-Au, 13-Au) :   0.3155 B( 12-Au, 14-Mn) :   0.3381 B( 13-Au, 14-Mn) :   0.4308

FINAL SINGLE POINT ENERGY     -3052.852980005177

DIPOLE MOMENT
-------------
                                X             Y             Z
Electronic contribution:    -16.52890     -14.25095       8.56316
Nuclear contribution   :     16.62055      14.16508      -8.51557
                        -----------------------------------------
Total Dipole Moment    :      0.09164      -0.08587       0.04759
                        -----------------------------------------
Magnitude (a.u.)       :      0.13430
Magnitude (Debye)      :      0.34136

Rotational constants in cm-1:     0.001136     0.000979     0.000853
Rotational constants in MHz :    34.058789    29.359073    25.584744

                             ****ORCA TERMINATED NORMALLY****
TOTAL RUN TIME: 0 days 0 hours 14 minutes 32 seconds 647 msec
