                         Program Version 5.0.3 -  RELEASE  -
|  1> %pal nprocs 1 end
|  2>
|  3> !PBE def2-TZVP OPT UNO
|  4> !SLOWCONV
|  5>
|  6> *xyzfile 0 5 4.xyz                           ****END OF INPUT****
 Total Charge           Charge          ....    0
 Multiplicity           Mult            ....    5
 Number of Electrons    NEL             ....  292
FINAL SINGLE POINT ENERGY     -3165.060821062420
FINAL SINGLE POINT ENERGY     -3165.063708079317
FINAL SINGLE POINT ENERGY     -3165.064767570494
FINAL SINGLE POINT ENERGY     -3165.065732465919
FINAL SINGLE POINT ENERGY     -3165.066523975403
FINAL SINGLE POINT ENERGY     -3165.067174185318
FINAL SINGLE POINT ENERGY     -3165.067756555496
FINAL SINGLE POINT ENERGY     -3165.068112177931
FINAL SINGLE POINT ENERGY     -3165.068508849555
FINAL SINGLE POINT ENERGY     -3165.068798510999
FINAL SINGLE POINT ENERGY     -3165.068996169188
FINAL SINGLE POINT ENERGY     -3165.069133195441
FINAL SINGLE POINT ENERGY     -3165.069209343155
FINAL SINGLE POINT ENERGY     -3165.069233911338
FINAL SINGLE POINT ENERGY     -3165.069240474294
                    ***********************HURRAY********************

CARTESIAN COORDINATES (ANGSTROEM)
---------------------------------
  Au     6.305628    9.014371    9.031280
  Au     8.735667    5.904696    8.862535
  Au     9.005907    8.663708    9.383534
  Au     8.375974   10.745516    5.484367
  Au     6.074389    6.247279    8.530792
  Au    10.442262   10.047937    7.214382
  Au    10.755290    7.348018    7.522981
  Au     6.794291    8.572291    4.762463
  Au     8.059735   11.032881    8.258156
  Au     9.049718    5.624010    6.078713
  Au     6.387097    5.956057    5.746341
  Au     5.838479   10.609171    6.628954
  Au     4.817217    8.065891    6.772122
  Au     9.498277    8.225057    5.093071
  Fe     7.813583    7.863510    7.135131

 Multiplicity           Mult            ....    5
 Number of Electrons    NEL             ....  292
 Basis Dimension        Dim             ....  605

ORBITAL ENERGIES
----------------
                 SPIN UP ORBITALS
  NO   OCC          E(Eh)            E(eV)
   0   1.0000    -254.785144     -6933.0562
   1   1.0000     -29.625628      -806.1543
   2   1.0000     -25.562702      -695.5965
   3   1.0000     -25.561857      -695.5735
   4   1.0000     -25.556784      -695.4354
   5   1.0000      -4.036624      -109.8421
   6   1.0000      -4.036533      -109.8397
   7   1.0000      -4.036306      -109.8335
   8   1.0000      -4.036180      -109.8301
   9   1.0000      -4.030318      -109.6705
  10   1.0000      -4.030262      -109.6690
  11   1.0000      -4.027819      -109.6025
  12   1.0000      -4.027690      -109.5990
  13   1.0000      -4.027275      -109.5877
  14   1.0000      -4.027163      -109.5847
  15   1.0000      -4.022964      -109.4704
  16   1.0000      -4.022840      -109.4670
  17   1.0000      -4.020342      -109.3991
  18   1.0000      -4.019984      -109.3893
  19   1.0000      -3.404608       -92.6441
  20   1.0000      -2.253161       -61.3116
  21   1.0000      -2.253049       -61.3086
  22   1.0000      -2.251273       -61.2602
  23   1.0000      -2.251152       -61.2570
  24   1.0000      -2.250575       -61.2413
  25   1.0000      -2.250510       -61.2395
  26   1.0000      -2.248999       -61.1984
  27   1.0000      -2.248956       -61.1972
  28   1.0000      -2.247429       -61.1557
  29   1.0000      -2.247367       -61.1540
  30   1.0000      -2.246255       -61.1237
  31   1.0000      -2.246153       -61.1209
  32   1.0000      -2.245358       -61.0993
  33   1.0000      -2.245086       -61.0919
  34   1.0000      -2.243764       -61.0559
  35   1.0000      -2.243555       -61.0502
  36   1.0000      -2.242924       -61.0331
  37   1.0000      -2.242808       -61.0299
  38   1.0000      -2.242673       -61.0262
  39   1.0000      -2.242394       -61.0186
  40   1.0000      -2.241669       -60.9989
  41   1.0000      -2.241310       -60.9891
  42   1.0000      -2.241214       -60.9865
  43   1.0000      -2.240777       -60.9746
  44   1.0000      -2.238822       -60.9214
  45   1.0000      -2.238774       -60.9201
  46   1.0000      -2.238651       -60.9168
  47   1.0000      -2.238615       -60.9158
  48   1.0000      -2.238187       -60.9042
  49   1.0000      -2.237859       -60.8952
  50   1.0000      -2.237680       -60.8904
  51   1.0000      -2.236809       -60.8667
  52   1.0000      -2.236228       -60.8509
  53   1.0000      -2.235737       -60.8375
  54   1.0000      -2.235319       -60.8261
  55   1.0000      -2.234236       -60.7966
  56   1.0000      -2.233579       -60.7788
  57   1.0000      -2.233155       -60.7672
  58   1.0000      -2.232176       -60.7406
  59   1.0000      -2.231689       -60.7273
  60   1.0000      -2.231189       -60.7138
  61   1.0000      -2.230879       -60.7053
  62   1.0000      -2.222188       -60.4688
  63   1.0000      -2.220887       -60.4334
  64   1.0000      -2.210056       -60.1387
  65   1.0000      -0.437887       -11.9155
  66   1.0000      -0.390439       -10.6244
  67   1.0000      -0.388886       -10.5821
  68   1.0000      -0.383731       -10.4419
  69   1.0000      -0.381652       -10.3853
  70   1.0000      -0.375947       -10.2300
  71   1.0000      -0.373993       -10.1769
  72   1.0000      -0.373326       -10.1587
  73   1.0000      -0.370725       -10.0879
  74   1.0000      -0.367298        -9.9947
  75   1.0000      -0.358688        -9.7604
  76   1.0000      -0.356929        -9.7125
  77   1.0000      -0.355977        -9.6866
  78   1.0000      -0.354827        -9.6553
  79   1.0000      -0.352847        -9.6015
  80   1.0000      -0.350920        -9.5490
  81   1.0000      -0.349458        -9.5092
  82   1.0000      -0.348381        -9.4799
  83   1.0000      -0.347677        -9.4608
  84   1.0000      -0.344594        -9.3769
  85   1.0000      -0.341169        -9.2837
  86   1.0000      -0.339091        -9.2271
  87   1.0000      -0.338948        -9.2232
  88   1.0000      -0.338888        -9.2216
  89   1.0000      -0.336269        -9.1503
  90   1.0000      -0.335003        -9.1159
  91   1.0000      -0.330620        -8.9966
  92   1.0000      -0.326393        -8.8816
  93   1.0000      -0.325640        -8.8611
  94   1.0000      -0.322637        -8.7794
  95   1.0000      -0.319400        -8.6913
  96   1.0000      -0.317297        -8.6341
  97   1.0000      -0.316874        -8.6226
  98   1.0000      -0.315114        -8.5747
  99   1.0000      -0.314008        -8.5446
 100   1.0000      -0.310878        -8.4594
 101   1.0000      -0.309743        -8.4285
 102   1.0000      -0.300092        -8.1659
 103   1.0000      -0.298696        -8.1279
 104   1.0000      -0.296920        -8.0796
 105   1.0000      -0.296211        -8.0603
 106   1.0000      -0.293528        -7.9873
 107   1.0000      -0.292053        -7.9472
 108   1.0000      -0.289806        -7.8860
 109   1.0000      -0.283164        -7.7053
 110   1.0000      -0.280518        -7.6333
 111   1.0000      -0.280226        -7.6253
 112   1.0000      -0.276384        -7.5208
 113   1.0000      -0.275511        -7.4970
 114   1.0000      -0.274337        -7.4651
 115   1.0000      -0.271985        -7.4011
 116   1.0000      -0.271499        -7.3879
 117   1.0000      -0.270384        -7.3575
 118   1.0000      -0.268239        -7.2992
 119   1.0000      -0.268228        -7.2989
 120   1.0000      -0.266487        -7.2515
 121   1.0000      -0.264701        -7.2029
 122   1.0000      -0.264272        -7.1912
 123   1.0000      -0.264087        -7.1862
 124   1.0000      -0.261640        -7.1196
 125   1.0000      -0.261027        -7.1029
 126   1.0000      -0.260368        -7.0850
 127   1.0000      -0.260295        -7.0830
 128   1.0000      -0.259712        -7.0671
 129   1.0000      -0.257455        -7.0057
 130   1.0000      -0.256983        -6.9929
 131   1.0000      -0.255759        -6.9595
 132   1.0000      -0.254581        -6.9275
 133   1.0000      -0.252874        -6.8811
 134   1.0000      -0.252137        -6.8610
 135   1.0000      -0.248631        -6.7656
 136   1.0000      -0.248513        -6.7624
 137   1.0000      -0.247683        -6.7398
 138   1.0000      -0.243749        -6.6328
 139   1.0000      -0.242700        -6.6042
 140   1.0000      -0.242596        -6.6014
 141   1.0000      -0.242171        -6.5898
 142   1.0000      -0.240059        -6.5323
 143   1.0000      -0.231125        -6.2892
 144   1.0000      -0.212121        -5.7721
 145   1.0000      -0.210464        -5.7270
 146   1.0000      -0.202114        -5.4998
 147   1.0000      -0.196223        -5.3395
 148   0.0000      -0.193111        -5.2548
 149   0.0000      -0.138910        -3.7799
 150   0.0000      -0.127076        -3.4579
 151   0.0000      -0.126486        -3.4419
 152   0.0000      -0.123081        -3.3492

                 SPIN DOWN ORBITALS
  NO   OCC          E(Eh)            E(eV)
   0   1.0000    -254.784381     -6933.0355
   1   1.0000     -29.563459      -804.4626
   2   1.0000     -25.515008      -694.2987
   3   1.0000     -25.513492      -694.2574
   4   1.0000     -25.511950      -694.2155
   5   1.0000      -4.036015      -109.8256
   6   1.0000      -4.035915      -109.8228
   7   1.0000      -4.035699      -109.8170
   8   1.0000      -4.035567      -109.8134
   9   1.0000      -4.030309      -109.6703
  10   1.0000      -4.030193      -109.6671
  11   1.0000      -4.027614      -109.5969
  12   1.0000      -4.027494      -109.5937
  13   1.0000      -4.027079      -109.5824
  14   1.0000      -4.026971      -109.5794
  15   1.0000      -4.022604      -109.4606
  16   1.0000      -4.022480      -109.4573
  17   1.0000      -4.020194      -109.3951
  18   1.0000      -4.019836      -109.3853
  19   1.0000      -3.264949       -88.8438
  20   1.0000      -2.252200       -61.2855
  21   1.0000      -2.252170       -61.2847
  22   1.0000      -2.250155       -61.2298
  23   1.0000      -2.250122       -61.2289
  24   1.0000      -2.249887       -61.2225
  25   1.0000      -2.249845       -61.2214
  26   1.0000      -2.248575       -61.1868
  27   1.0000      -2.248523       -61.1854
  28   1.0000      -2.246911       -61.1415
  29   1.0000      -2.246852       -61.1399
  30   1.0000      -2.245794       -61.1112
  31   1.0000      -2.245701       -61.1086
  32   1.0000      -2.245038       -61.0906
  33   1.0000      -2.244646       -61.0799
  34   1.0000      -2.243460       -61.0476
  35   1.0000      -2.242877       -61.0318
  36   1.0000      -2.242778       -61.0291
  37   1.0000      -2.242709       -61.0272
  38   1.0000      -2.242572       -61.0235
  39   1.0000      -2.242259       -61.0150
  40   1.0000      -2.241320       -60.9894
  41   1.0000      -2.241056       -60.9822
  42   1.0000      -2.240849       -60.9766
  43   1.0000      -2.240409       -60.9646
  44   1.0000      -2.239049       -60.9276
  45   1.0000      -2.238539       -60.9137
  46   1.0000      -2.238496       -60.9126
  47   1.0000      -2.238331       -60.9081
  48   1.0000      -2.238264       -60.9062
  49   1.0000      -2.237487       -60.8851
  50   1.0000      -2.237416       -60.8832
  51   1.0000      -2.236965       -60.8709
  52   1.0000      -2.236369       -60.8547
  53   1.0000      -2.235405       -60.8285
  54   1.0000      -2.234838       -60.8130
  55   1.0000      -2.233876       -60.7869
  56   1.0000      -2.233236       -60.7694
  57   1.0000      -2.233089       -60.7654
  58   1.0000      -2.232209       -60.7415
  59   1.0000      -2.231440       -60.7206
  60   1.0000      -2.231027       -60.7093
  61   1.0000      -2.230747       -60.7017
  62   1.0000      -2.083527       -56.6957
  63   1.0000      -2.080600       -56.6160
  64   1.0000      -2.079022       -56.5731
  65   1.0000      -0.433093       -11.7851
  66   1.0000      -0.389240       -10.5918
  67   1.0000      -0.386043       -10.5048
  68   1.0000      -0.382395       -10.4055
  69   1.0000      -0.370925       -10.0934
  70   1.0000      -0.365650        -9.9498
  71   1.0000      -0.364816        -9.9272
  72   1.0000      -0.362759        -9.8712
  73   1.0000      -0.362669        -9.8687
  74   1.0000      -0.360601        -9.8124
  75   1.0000      -0.356662        -9.7053
  76   1.0000      -0.355560        -9.6753
  77   1.0000      -0.354134        -9.6365
  78   1.0000      -0.353898        -9.6301
  79   1.0000      -0.352890        -9.6026
  80   1.0000      -0.349585        -9.5127
  81   1.0000      -0.348425        -9.4811
  82   1.0000      -0.348026        -9.4703
  83   1.0000      -0.346032        -9.4160
  84   1.0000      -0.343916        -9.3584
  85   1.0000      -0.338634        -9.2147
  86   1.0000      -0.338522        -9.2117
  87   1.0000      -0.338183        -9.2024
  88   1.0000      -0.337332        -9.1793
  89   1.0000      -0.334520        -9.1027
  90   1.0000      -0.329647        -8.9702
  91   1.0000      -0.325648        -8.8613
  92   1.0000      -0.321609        -8.7514
  93   1.0000      -0.318230        -8.6595
  94   1.0000      -0.317374        -8.6362
  95   1.0000      -0.316437        -8.6107
  96   1.0000      -0.313339        -8.5264
  97   1.0000      -0.313087        -8.5195
  98   1.0000      -0.311017        -8.4632
  99   1.0000      -0.310865        -8.4591
 100   1.0000      -0.305072        -8.3014
 101   1.0000      -0.297107        -8.0847
 102   1.0000      -0.295227        -8.0335
 103   1.0000      -0.294196        -8.0055
 104   1.0000      -0.293923        -7.9981
 105   1.0000      -0.292443        -7.9578
 106   1.0000      -0.289775        -7.8852
 107   1.0000      -0.287182        -7.8146
 108   1.0000      -0.282071        -7.6755
 109   1.0000      -0.279184        -7.5970
 110   1.0000      -0.278354        -7.5744
 111   1.0000      -0.275100        -7.4859
 112   1.0000      -0.271208        -7.3800
 113   1.0000      -0.271068        -7.3761
 114   1.0000      -0.270584        -7.3630
 115   1.0000      -0.267279        -7.2730
 116   1.0000      -0.265938        -7.2365
 117   1.0000      -0.265306        -7.2194
 118   1.0000      -0.265069        -7.2129
 119   1.0000      -0.263760        -7.1773
 120   1.0000      -0.262807        -7.1513
 121   1.0000      -0.261544        -7.1170
 122   1.0000      -0.260629        -7.0921
 123   1.0000      -0.260433        -7.0867
 124   1.0000      -0.256982        -6.9928
 125   1.0000      -0.256440        -6.9781
 126   1.0000      -0.255856        -6.9622
 127   1.0000      -0.254140        -6.9155
 128   1.0000      -0.253057        -6.8860
 129   1.0000      -0.252462        -6.8699
 130   1.0000      -0.247828        -6.7438
 131   1.0000      -0.247606        -6.7377
 132   1.0000      -0.247001        -6.7212
 133   1.0000      -0.243767        -6.6333
 134   1.0000      -0.242352        -6.5947
 135   1.0000      -0.241778        -6.5791
 136   1.0000      -0.241650        -6.5756
 137   1.0000      -0.239492        -6.5169
 138   1.0000      -0.231387        -6.2964
 139   1.0000      -0.218151        -5.9362
 140   1.0000      -0.216337        -5.8868
 141   1.0000      -0.211559        -5.7568
 142   1.0000      -0.211160        -5.7460
 143   1.0000      -0.204894        -5.5754
 144   0.0000      -0.179536        -4.8854
 145   0.0000      -0.176973        -4.8157
 146   0.0000      -0.171855        -4.6764
 147   0.0000      -0.169285        -4.6065
 148   0.0000      -0.168661        -4.5895

MULLIKEN ATOMIC CHARGES AND SPIN POPULATIONS
--------------------------------------------
   0 Au:    0.149891    0.000423
   1 Au:    0.262171    0.068360
   2 Au:    0.157715   -0.008034
   3 Au:    0.111507    0.121554
   4 Au:    0.262246    0.060380
   5 Au:    0.107571    0.092576
   6 Au:    0.192964    0.064995
   7 Au:    0.155143   -0.007936
   8 Au:    0.112630    0.121422
   9 Au:    0.262840    0.067188
  10 Au:    0.261380    0.062226
  11 Au:    0.107729    0.095046
  12 Au:    0.197569    0.061185
  13 Au:    0.153430   -0.000625
  14 Fe:   -2.494785    3.201238
Sum of atomic charges         :   -0.0000000

LOEWDIN ATOMIC CHARGES AND SPIN POPULATIONS
-------------------------------------------
   0 Au:    0.047855    0.027926
   1 Au:    0.058719    0.044143
   2 Au:    0.050743    0.025758
   3 Au:   -0.009082    0.099844
   4 Au:    0.059875    0.040646
   5 Au:    0.013804    0.069239
   6 Au:    0.036228    0.022748
   7 Au:    0.048660    0.025677
   8 Au:   -0.009127    0.100035
   9 Au:    0.058142    0.044683
  10 Au:    0.060265    0.040375
  11 Au:    0.012179    0.071486
  12 Au:    0.038592    0.018495
  13 Au:    0.050177    0.027528
  14 Fe:   -0.517030    3.341415

  Mayer bond orders larger than 0.100000
B(  0-Au,  2-Au) :   0.2768 B(  0-Au,  4-Au) :   0.1758 B(  0-Au,  8-Au) :   0.2424
B(  0-Au, 11-Au) :   0.1591 B(  0-Au, 12-Au) :   0.1662 B(  0-Au, 14-Fe) :   0.5588
B(  1-Au,  2-Au) :   0.1793 B(  1-Au,  4-Au) :   0.3018 B(  1-Au,  6-Au) :   0.2145
B(  1-Au,  9-Au) :   0.1826 B(  1-Au, 14-Fe) :   0.4695 B(  2-Au,  5-Au) :   0.1499
B(  2-Au,  6-Au) :   0.1637 B(  2-Au,  8-Au) :   0.2363 B(  2-Au, 14-Fe) :   0.5646
B(  3-Au,  5-Au) :   0.2928 B(  3-Au,  7-Au) :   0.2427 B(  3-Au,  8-Au) :   0.2142
B(  3-Au, 11-Au) :   0.2916 B(  3-Au, 13-Au) :   0.2370 B(  3-Au, 14-Fe) :   0.2837
B(  4-Au, 10-Au) :   0.1818 B(  4-Au, 12-Au) :   0.2112 B(  4-Au, 14-Fe) :   0.4771
B(  5-Au,  6-Au) :   0.3340 B(  5-Au,  8-Au) :   0.2947 B(  5-Au, 13-Au) :   0.1470
B(  5-Au, 14-Fe) :   0.2693 B(  6-Au,  9-Au) :   0.2122 B(  6-Au, 13-Au) :   0.1624
B(  6-Au, 14-Fe) :   0.3680 B(  7-Au, 10-Au) :   0.1748 B(  7-Au, 11-Au) :   0.1594
B(  7-Au, 12-Au) :   0.1686 B(  7-Au, 13-Au) :   0.2762 B(  7-Au, 14-Fe) :   0.5579
B(  8-Au, 11-Au) :   0.2911 B(  8-Au, 14-Fe) :   0.2826 B(  9-Au, 10-Au) :   0.3018
B(  9-Au, 13-Au) :   0.1805 B(  9-Au, 14-Fe) :   0.4700 B( 10-Au, 12-Au) :   0.2137
B( 10-Au, 14-Fe) :   0.4759 B( 11-Au, 12-Au) :   0.3265 B( 11-Au, 14-Fe) :   0.2678
B( 12-Au, 14-Fe) :   0.3619 B( 13-Au, 14-Fe) :   0.5660

FINAL SINGLE POINT ENERGY     -3165.069244757496

DIPOLE MOMENT
-------------
                                X             Y             Z
Electronic contribution:      1.99840      15.99270      -1.40020
Nuclear contribution   :     -2.04465     -16.27437       1.42392
                        -----------------------------------------
Total Dipole Moment    :     -0.04625      -0.28167       0.02373
                        -----------------------------------------
Magnitude (a.u.)       :      0.28643
Magnitude (Debye)      :      0.72803

Rotational constants in cm-1:     0.001148     0.001112     0.000948
Rotational constants in MHz :    34.412688    33.337662    28.418928

                             ****ORCA TERMINATED NORMALLY****
TOTAL RUN TIME: 0 days 5 hours 41 minutes 15 seconds 794 msec
