                         Program Version 5.0.3 -  RELEASE  -
|  1> %pal nprocs 1 end
|  2>
|  3> !PBE def2-TZVP OPT UNO
|  4> !SLOWCONV KDIIS
|  5>
|  6> %geom maxiter 300 end
|  7>
|  8> *xyzfile 0 5 0.xyz                           ****END OF INPUT****
 Total Charge           Charge          ....    0
 Multiplicity           Mult            ....    5
 Number of Electrons    NEL             ....  216
FINAL SINGLE POINT ENERGY     -2621.734048908066
FINAL SINGLE POINT ENERGY     -2621.735768108113
FINAL SINGLE POINT ENERGY     -2621.737019387163
FINAL SINGLE POINT ENERGY     -2621.737741216642
FINAL SINGLE POINT ENERGY     -2621.737904455432
FINAL SINGLE POINT ENERGY     -2621.738027708432
FINAL SINGLE POINT ENERGY     -2621.738091017991
FINAL SINGLE POINT ENERGY     -2621.738195136656
FINAL SINGLE POINT ENERGY     -2621.738260699529
FINAL SINGLE POINT ENERGY     -2621.738299329590
FINAL SINGLE POINT ENERGY     -2621.738341137091
FINAL SINGLE POINT ENERGY     -2621.738353525443
FINAL SINGLE POINT ENERGY     -2621.738357413832
                    ***********************HURRAY********************

CARTESIAN COORDINATES (ANGSTROEM)
---------------------------------
  Au    10.970560   10.147441    8.089200
  Au     8.332911    9.316415    8.257525
  Au    10.312585    7.925119    9.602382
  Au     6.298791    7.640287    7.936105
  Au     9.383590    5.474484   10.033428
  Au     8.167506    3.441321    5.288905
  Au    10.542556    7.990392    6.495552
  Au     9.600032    5.732484    5.553492
  Au     6.682214    5.364426    6.622805
  Au     8.676097    3.981481    7.954428
  Fe     8.710592    6.676593    7.825817

 Multiplicity           Mult            ....    5
 Number of Electrons    NEL             ....  216
 Basis Dimension        Dim             ....  445

ORBITAL ENERGIES
----------------
                 SPIN UP ORBITALS
  NO   OCC          E(Eh)            E(eV)
   0   1.0000    -254.774075     -6932.7550
   1   1.0000     -29.618980      -805.9734
   2   1.0000     -25.557601      -695.4577
   3   1.0000     -25.556365      -695.4240
   4   1.0000     -25.546801      -695.1638
   5   1.0000      -4.025234      -109.5322
   6   1.0000      -4.025117      -109.5290
   7   1.0000      -4.024768      -109.5195
   8   1.0000      -4.024706      -109.5178
   9   1.0000      -4.023862      -109.4948
  10   1.0000      -4.023646      -109.4890
  11   1.0000      -4.022797      -109.4659
  12   1.0000      -4.022481      -109.4573
  13   1.0000      -4.016682      -109.2995
  14   1.0000      -4.016671      -109.2992
  15   1.0000      -3.397656       -92.4549
  16   1.0000      -2.244881       -61.0863
  17   1.0000      -2.244621       -61.0792
  18   1.0000      -2.244307       -61.0707
  19   1.0000      -2.243925       -61.0603
  20   1.0000      -2.243899       -61.0596
  21   1.0000      -2.241408       -60.9918
  22   1.0000      -2.241307       -60.9891
  23   1.0000      -2.240178       -60.9583
  24   1.0000      -2.239882       -60.9503
  25   1.0000      -2.239394       -60.9370
  26   1.0000      -2.238515       -60.9131
  27   1.0000      -2.238395       -60.9098
  28   1.0000      -2.237139       -60.8756
  29   1.0000      -2.236736       -60.8647
  30   1.0000      -2.236211       -60.8504
  31   1.0000      -2.235834       -60.8401
  32   1.0000      -2.232687       -60.7545
  33   1.0000      -2.232395       -60.7466
  34   1.0000      -2.231945       -60.7343
  35   1.0000      -2.231812       -60.7307
  36   1.0000      -2.231229       -60.7148
  37   1.0000      -2.231140       -60.7124
  38   1.0000      -2.229786       -60.6755
  39   1.0000      -2.229529       -60.6686
  40   1.0000      -2.228073       -60.6290
  41   1.0000      -2.227967       -60.6261
  42   1.0000      -2.227752       -60.6202
  43   1.0000      -2.227225       -60.6059
  44   1.0000      -2.226874       -60.5963
  45   1.0000      -2.226811       -60.5946
  46   1.0000      -2.218529       -60.3692
  47   1.0000      -2.215922       -60.2983
  48   1.0000      -2.196807       -59.7782
  49   1.0000      -0.410071       -11.1586
  50   1.0000      -0.382500       -10.4083
  51   1.0000      -0.376223       -10.2376
  52   1.0000      -0.373146       -10.1538
  53   1.0000      -0.366941        -9.9850
  54   1.0000      -0.365895        -9.9565
  55   1.0000      -0.362241        -9.8571
  56   1.0000      -0.360288        -9.8039
  57   1.0000      -0.351095        -9.5538
  58   1.0000      -0.348703        -9.4887
  59   1.0000      -0.341065        -9.2809
  60   1.0000      -0.332972        -9.0606
  61   1.0000      -0.331730        -9.0268
  62   1.0000      -0.329954        -8.9785
  63   1.0000      -0.329397        -8.9634
  64   1.0000      -0.329279        -8.9601
  65   1.0000      -0.326170        -8.8755
  66   1.0000      -0.318253        -8.6601
  67   1.0000      -0.317952        -8.6519
  68   1.0000      -0.316446        -8.6109
  69   1.0000      -0.311639        -8.4801
  70   1.0000      -0.303455        -8.2574
  71   1.0000      -0.299008        -8.1364
  72   1.0000      -0.296725        -8.0743
  73   1.0000      -0.296071        -8.0565
  74   1.0000      -0.288688        -7.8556
  75   1.0000      -0.288668        -7.8551
  76   1.0000      -0.288248        -7.8436
  77   1.0000      -0.288029        -7.8377
  78   1.0000      -0.283277        -7.7083
  79   1.0000      -0.280560        -7.6344
  80   1.0000      -0.279364        -7.6019
  81   1.0000      -0.278546        -7.5796
  82   1.0000      -0.278060        -7.5664
  83   1.0000      -0.276128        -7.5138
  84   1.0000      -0.273707        -7.4480
  85   1.0000      -0.270139        -7.3509
  86   1.0000      -0.269236        -7.3263
  87   1.0000      -0.268810        -7.3147
  88   1.0000      -0.267870        -7.2891
  89   1.0000      -0.265031        -7.2118
  90   1.0000      -0.263695        -7.1755
  91   1.0000      -0.261867        -7.1258
  92   1.0000      -0.261578        -7.1179
  93   1.0000      -0.261516        -7.1162
  94   1.0000      -0.260578        -7.0907
  95   1.0000      -0.257577        -7.0090
  96   1.0000      -0.256512        -6.9801
  97   1.0000      -0.254820        -6.9340
  98   1.0000      -0.253675        -6.9028
  99   1.0000      -0.251990        -6.8570
 100   1.0000      -0.248589        -6.7644
 101   1.0000      -0.248236        -6.7548
 102   1.0000      -0.243121        -6.6157
 103   1.0000      -0.241980        -6.5846
 104   1.0000      -0.240603        -6.5472
 105   1.0000      -0.236492        -6.4353
 106   1.0000      -0.234604        -6.3839
 107   1.0000      -0.229274        -6.2389
 108   1.0000      -0.216950        -5.9035
 109   1.0000      -0.184926        -5.0321
 110   0.0000      -0.173690        -4.7264
 111   0.0000      -0.138543        -3.7700
 112   0.0000      -0.129751        -3.5307
 113   0.0000      -0.123738        -3.3671
 114   0.0000      -0.101828        -2.7709

                 SPIN DOWN ORBITALS
  NO   OCC          E(Eh)            E(eV)
   0   1.0000    -254.773281     -6932.7334
   1   1.0000     -29.556620      -804.2765
   2   1.0000     -25.508331      -694.1170
   3   1.0000     -25.508185      -694.1130
   4   1.0000     -25.502881      -693.9687
   5   1.0000      -4.024406      -109.5097
   6   1.0000      -4.024286      -109.5064
   7   1.0000      -4.023936      -109.4969
   8   1.0000      -4.023870      -109.4951
   9   1.0000      -4.022284      -109.4519
  10   1.0000      -4.022031      -109.4450
  11   1.0000      -4.020918      -109.4147
  12   1.0000      -4.020602      -109.4061
  13   1.0000      -4.016586      -109.2969
  14   1.0000      -4.016575      -109.2966
  15   1.0000      -3.257012       -88.6278
  16   1.0000      -2.243650       -61.0528
  17   1.0000      -2.242931       -61.0333
  18   1.0000      -2.242829       -61.0305
  19   1.0000      -2.242365       -61.0179
  20   1.0000      -2.242072       -61.0099
  21   1.0000      -2.240174       -60.9582
  22   1.0000      -2.240043       -60.9547
  23   1.0000      -2.237869       -60.8955
  24   1.0000      -2.237640       -60.8893
  25   1.0000      -2.237323       -60.8807
  26   1.0000      -2.237210       -60.8776
  27   1.0000      -2.236791       -60.8662
  28   1.0000      -2.235663       -60.8355
  29   1.0000      -2.235189       -60.8226
  30   1.0000      -2.234719       -60.8098
  31   1.0000      -2.234102       -60.7930
  32   1.0000      -2.232293       -60.7438
  33   1.0000      -2.231765       -60.7294
  34   1.0000      -2.231417       -60.7199
  35   1.0000      -2.231306       -60.7169
  36   1.0000      -2.230653       -60.6992
  37   1.0000      -2.230593       -60.6975
  38   1.0000      -2.228299       -60.6351
  39   1.0000      -2.228027       -60.6277
  40   1.0000      -2.227900       -60.6242
  41   1.0000      -2.227750       -60.6202
  42   1.0000      -2.226920       -60.5976
  43   1.0000      -2.226886       -60.5966
  44   1.0000      -2.226295       -60.5806
  45   1.0000      -2.225740       -60.5655
  46   1.0000      -2.075192       -56.4689
  47   1.0000      -2.073813       -56.4313
  48   1.0000      -2.069832       -56.3230
  49   1.0000      -0.404982       -11.0201
  50   1.0000      -0.382019       -10.3953
  51   1.0000      -0.370499       -10.0818
  52   1.0000      -0.368599       -10.0301
  53   1.0000      -0.360016        -9.7965
  54   1.0000      -0.354600        -9.6492
  55   1.0000      -0.353659        -9.6236
  56   1.0000      -0.353208        -9.6113
  57   1.0000      -0.338236        -9.2039
  58   1.0000      -0.334879        -9.1125
  59   1.0000      -0.332413        -9.0454
  60   1.0000      -0.332186        -9.0392
  61   1.0000      -0.324109        -8.8195
  62   1.0000      -0.322504        -8.7758
  63   1.0000      -0.319209        -8.6861
  64   1.0000      -0.319027        -8.6812
  65   1.0000      -0.318209        -8.6589
  66   1.0000      -0.312243        -8.4966
  67   1.0000      -0.310849        -8.4586
  68   1.0000      -0.308081        -8.3833
  69   1.0000      -0.302485        -8.2310
  70   1.0000      -0.297536        -8.0964
  71   1.0000      -0.297453        -8.0941
  72   1.0000      -0.295200        -8.0328
  73   1.0000      -0.290046        -7.8925
  74   1.0000      -0.287061        -7.8113
  75   1.0000      -0.286448        -7.7947
  76   1.0000      -0.286201        -7.7879
  77   1.0000      -0.280964        -7.6454
  78   1.0000      -0.278652        -7.5825
  79   1.0000      -0.278049        -7.5661
  80   1.0000      -0.275296        -7.4912
  81   1.0000      -0.273337        -7.4379
  82   1.0000      -0.272190        -7.4067
  83   1.0000      -0.271607        -7.3908
  84   1.0000      -0.268825        -7.3151
  85   1.0000      -0.267380        -7.2758
  86   1.0000      -0.266127        -7.2417
  87   1.0000      -0.263791        -7.1781
  88   1.0000      -0.263529        -7.1710
  89   1.0000      -0.263055        -7.1581
  90   1.0000      -0.259549        -7.0627
  91   1.0000      -0.259175        -7.0525
  92   1.0000      -0.256990        -6.9930
  93   1.0000      -0.256753        -6.9866
  94   1.0000      -0.254220        -6.9177
  95   1.0000      -0.249100        -6.7784
  96   1.0000      -0.248622        -6.7653
  97   1.0000      -0.247812        -6.7433
  98   1.0000      -0.245116        -6.6700
  99   1.0000      -0.243451        -6.6246
 100   1.0000      -0.236511        -6.4358
 101   1.0000      -0.236103        -6.4247
 102   1.0000      -0.230747        -6.2790
 103   1.0000      -0.224430        -6.1071
 104   1.0000      -0.199832        -5.4377
 105   1.0000      -0.194658        -5.2969
 106   0.0000      -0.172658        -4.6983
 107   0.0000      -0.172249        -4.6871
 108   0.0000      -0.165770        -4.5108
 109   0.0000      -0.161059        -4.3826
 110   0.0000      -0.158834        -4.3221

MULLIKEN ATOMIC CHARGES AND SPIN POPULATIONS
--------------------------------------------
   0 Au:    0.357268    0.118686
   1 Au:    0.038465    0.004762
   2 Au:    0.039051    0.000837
   3 Au:    0.238000    0.085659
   4 Au:    0.238376    0.083896
   5 Au:    0.356929    0.118859
   6 Au:    0.016098    0.135277
   7 Au:    0.016099    0.135335
   8 Au:    0.036850    0.006176
   9 Au:    0.041449   -0.000291
  10 Fe:   -1.378585    3.310803
Sum of atomic charges         :    0.0000000

LOEWDIN ATOMIC CHARGES AND SPIN POPULATIONS
-------------------------------------------
   0 Au:    0.066806    0.088082
   1 Au:   -0.014088    0.026371
   2 Au:   -0.014041    0.024702
   3 Au:    0.123177    0.059952
   4 Au:    0.124858    0.056137
   5 Au:    0.066545    0.088172
   6 Au:    0.016785    0.125345
   7 Au:    0.017105    0.125604
   8 Au:   -0.013636    0.027154
   9 Au:   -0.014067    0.024145
  10 Fe:   -0.359445    3.354336

  Mayer bond orders larger than 0.100000
B(  0-Au,  1-Au) :   0.3080 B(  0-Au,  2-Au) :   0.3114 B(  0-Au,  6-Au) :   0.3780
B(  1-Au,  2-Au) :   0.2992 B(  1-Au,  3-Au) :   0.3911 B(  1-Au,  6-Au) :   0.1056
B(  1-Au, 10-Fe) :   0.5671 B(  2-Au,  4-Au) :   0.3903 B(  2-Au,  6-Au) :   0.1069
B(  2-Au, 10-Fe) :   0.5672 B(  3-Au,  8-Au) :   0.3902 B(  3-Au, 10-Fe) :   0.6134
B(  4-Au,  9-Au) :   0.3906 B(  4-Au, 10-Fe) :   0.6092 B(  5-Au,  7-Au) :   0.3786
B(  5-Au,  8-Au) :   0.3066 B(  5-Au,  9-Au) :   0.3122 B(  6-Au,  7-Au) :   0.5150
B(  6-Au, 10-Fe) :   0.6597 B(  7-Au,  8-Au) :   0.1041 B(  7-Au,  9-Au) :   0.1077
B(  7-Au, 10-Fe) :   0.6602 B(  8-Au,  9-Au) :   0.2991 B(  8-Au, 10-Fe) :   0.5695
B(  9-Au, 10-Fe) :   0.5657

FINAL SINGLE POINT ENERGY     -2621.738359025171

DIPOLE MOMENT
-------------
                                X             Y             Z
Electronic contribution:      6.96218       0.92170      -9.05441
Nuclear contribution   :     -7.04881      -0.93907       9.18295
                        -----------------------------------------
Total Dipole Moment    :     -0.08663      -0.01737       0.12854
                        -----------------------------------------
Magnitude (a.u.)       :      0.15598
Magnitude (Debye)      :      0.39646

Rotational constants in cm-1:     0.002437     0.001193     0.001174
Rotational constants in MHz :    73.048490    35.777097    35.189543

                             ****ORCA TERMINATED NORMALLY****
TOTAL RUN TIME: 0 days 1 hours 7 minutes 21 seconds 693 msec
