                         Program Version 5.0.3 -  RELEASE  -
|  1> %pal nprocs 1 end
|  2>
|  3> !PBE def2-TZVP OPT UNO
|  4> !SLOWCONV KDIIS
|  5>
|  6> %geom maxiter 300 end
|  7>
|  8> *xyzfile 0 6 8.xyz                           ****END OF INPUT****
 Total Charge           Charge          ....    0
 Multiplicity           Mult            ....    6
 Number of Electrons    NEL             ....  253
FINAL SINGLE POINT ENERGY     -2780.693224344420
FINAL SINGLE POINT ENERGY     -2780.695741079806
FINAL SINGLE POINT ENERGY     -2780.697634668214
FINAL SINGLE POINT ENERGY     -2780.698644450586
FINAL SINGLE POINT ENERGY     -2780.699683395526
FINAL SINGLE POINT ENERGY     -2780.700147931891
FINAL SINGLE POINT ENERGY     -2780.700358532538
FINAL SINGLE POINT ENERGY     -2780.700454452749
FINAL SINGLE POINT ENERGY     -2780.700517489412
FINAL SINGLE POINT ENERGY     -2780.700522072860
FINAL SINGLE POINT ENERGY     -2780.700538053055
FINAL SINGLE POINT ENERGY     -2780.700538873989
                    ***********************HURRAY********************

CARTESIAN COORDINATES (ANGSTROEM)
---------------------------------
  Au     9.244805    6.943356    6.019619
  Au     6.718053    7.250413    5.287987
  Au     4.055270    7.764955    5.376700
  Au     9.323203    5.814004    8.859157
  Au    11.494314    6.852477    7.532431
  Au     9.908348    9.004264    8.173069
  Au     8.512599    7.997079   10.311913
  Au     5.291929    8.388183    9.384256
  Au     6.687267    5.888417    9.613627
  Au     5.492601    9.542651    6.901492
  Au     7.468358   10.138520    8.708064
  Au     4.909358    6.355975    7.578373
  Mn     7.435525    7.651922    7.772803

 Multiplicity           Mult            ....    6
 Number of Electrons    NEL             ....  253
 Basis Dimension        Dim             ....  525

ORBITAL ENERGIES
----------------
                 SPIN UP ORBITALS
  NO   OCC          E(Eh)            E(eV)
   0   1.0000    -234.198003     -6372.8516
   1   1.0000     -26.894456      -731.8354
   2   1.0000     -23.043514      -627.0459
   3   1.0000     -23.043442      -627.0439
   4   1.0000     -23.041152      -626.9816
   5   1.0000      -4.036655      -109.8430
   6   1.0000      -4.036631      -109.8423
   7   1.0000      -4.027656      -109.5981
   8   1.0000      -4.027636      -109.5975
   9   1.0000      -4.026002      -109.5531
  10   1.0000      -4.025731      -109.5457
  11   1.0000      -4.022041      -109.4453
  12   1.0000      -4.021970      -109.4434
  13   1.0000      -4.021965      -109.4432
  14   1.0000      -4.021889      -109.4412
  15   1.0000      -4.017104      -109.3110
  16   1.0000      -4.017069      -109.3100
  17   1.0000      -3.105953       -84.5173
  18   1.0000      -2.251931       -61.2782
  19   1.0000      -2.251909       -61.2776
  20   1.0000      -2.249951       -61.2243
  21   1.0000      -2.249857       -61.2217
  22   1.0000      -2.247493       -61.1574
  23   1.0000      -2.247457       -61.1564
  24   1.0000      -2.247262       -61.1511
  25   1.0000      -2.243060       -61.0368
  26   1.0000      -2.242946       -61.0337
  27   1.0000      -2.242290       -61.0158
  28   1.0000      -2.241859       -61.0041
  29   1.0000      -2.241649       -60.9984
  30   1.0000      -2.240071       -60.9554
  31   1.0000      -2.239796       -60.9480
  32   1.0000      -2.239572       -60.9419
  33   1.0000      -2.238896       -60.9235
  34   1.0000      -2.238891       -60.9233
  35   1.0000      -2.238801       -60.9209
  36   1.0000      -2.238377       -60.9093
  37   1.0000      -2.237997       -60.8990
  38   1.0000      -2.233821       -60.7854
  39   1.0000      -2.233674       -60.7814
  40   1.0000      -2.233092       -60.7655
  41   1.0000      -2.233015       -60.7634
  42   1.0000      -2.232096       -60.7384
  43   1.0000      -2.232008       -60.7360
  44   1.0000      -2.231904       -60.7332
  45   1.0000      -2.231579       -60.7243
  46   1.0000      -2.231383       -60.7190
  47   1.0000      -2.231317       -60.7172
  48   1.0000      -2.231259       -60.7156
  49   1.0000      -2.231221       -60.7146
  50   1.0000      -2.228602       -60.6433
  51   1.0000      -2.228578       -60.6427
  52   1.0000      -2.227322       -60.6085
  53   1.0000      -2.227272       -60.6072
  54   1.0000      -2.010346       -54.7043
  55   1.0000      -2.009910       -54.6924
  56   1.0000      -2.005540       -54.5735
  57   1.0000      -0.424482       -11.5507
  58   1.0000      -0.385801       -10.4982
  59   1.0000      -0.380683       -10.3589
  60   1.0000      -0.380326       -10.3492
  61   1.0000      -0.372564       -10.1380
  62   1.0000      -0.370969       -10.0946
  63   1.0000      -0.367744       -10.0068
  64   1.0000      -0.363224        -9.8838
  65   1.0000      -0.351171        -9.5559
  66   1.0000      -0.349350        -9.5063
  67   1.0000      -0.344266        -9.3679
  68   1.0000      -0.342339        -9.3155
  69   1.0000      -0.341555        -9.2942
  70   1.0000      -0.340104        -9.2547
  71   1.0000      -0.338555        -9.2126
  72   1.0000      -0.335946        -9.1416
  73   1.0000      -0.333102        -9.0642
  74   1.0000      -0.330244        -8.9864
  75   1.0000      -0.328701        -8.9444
  76   1.0000      -0.327865        -8.9217
  77   1.0000      -0.325535        -8.8582
  78   1.0000      -0.324547        -8.8314
  79   1.0000      -0.321440        -8.7468
  80   1.0000      -0.321250        -8.7417
  81   1.0000      -0.319111        -8.6835
  82   1.0000      -0.317256        -8.6330
  83   1.0000      -0.310404        -8.4465
  84   1.0000      -0.302044        -8.2190
  85   1.0000      -0.299861        -8.1596
  86   1.0000      -0.298529        -8.1234
  87   1.0000      -0.294573        -8.0157
  88   1.0000      -0.293343        -7.9823
  89   1.0000      -0.289275        -7.8716
  90   1.0000      -0.289188        -7.8692
  91   1.0000      -0.285235        -7.7616
  92   1.0000      -0.283078        -7.7030
  93   1.0000      -0.282558        -7.6888
  94   1.0000      -0.279363        -7.6018
  95   1.0000      -0.279190        -7.5971
  96   1.0000      -0.277672        -7.5558
  97   1.0000      -0.275674        -7.5015
  98   1.0000      -0.274476        -7.4689
  99   1.0000      -0.274403        -7.4669
 100   1.0000      -0.271674        -7.3926
 101   1.0000      -0.270684        -7.3657
 102   1.0000      -0.268039        -7.2937
 103   1.0000      -0.264532        -7.1983
 104   1.0000      -0.262521        -7.1436
 105   1.0000      -0.261996        -7.1293
 106   1.0000      -0.261861        -7.1256
 107   1.0000      -0.260837        -7.0977
 108   1.0000      -0.257615        -7.0101
 109   1.0000      -0.257146        -6.9973
 110   1.0000      -0.255986        -6.9657
 111   1.0000      -0.255969        -6.9653
 112   1.0000      -0.255462        -6.9515
 113   1.0000      -0.254493        -6.9251
 114   1.0000      -0.252087        -6.8596
 115   1.0000      -0.250885        -6.8269
 116   1.0000      -0.249967        -6.8019
 117   1.0000      -0.249753        -6.7961
 118   1.0000      -0.246560        -6.7092
 119   1.0000      -0.243571        -6.6279
 120   1.0000      -0.241855        -6.5812
 121   1.0000      -0.238974        -6.5028
 122   1.0000      -0.238934        -6.5017
 123   1.0000      -0.234201        -6.3729
 124   1.0000      -0.233093        -6.3428
 125   1.0000      -0.230533        -6.2731
 126   1.0000      -0.214193        -5.8285
 127   1.0000      -0.204121        -5.5544
 128   1.0000      -0.186151        -5.0654
 129   0.0000      -0.165238        -4.4964
 130   0.0000      -0.143920        -3.9163
 131   0.0000      -0.136647        -3.7183
 132   0.0000      -0.131660        -3.5827
 133   0.0000      -0.117727        -3.2035

                 SPIN DOWN ORBITALS
  NO   OCC          E(Eh)            E(eV)
   0   1.0000    -234.197259     -6372.8314
   1   1.0000     -26.827142      -730.0037
   2   1.0000     -22.992619      -625.6610
   3   1.0000     -22.992233      -625.6505
   4   1.0000     -22.989879      -625.5864
   5   1.0000      -4.035332      -109.8070
   6   1.0000      -4.035307      -109.8063
   7   1.0000      -4.026879      -109.5770
   8   1.0000      -4.026863      -109.5765
   9   1.0000      -4.024348      -109.5081
  10   1.0000      -4.024076      -109.5007
  11   1.0000      -4.021047      -109.4182
  12   1.0000      -4.020977      -109.4163
  13   1.0000      -4.020971      -109.4162
  14   1.0000      -4.020901      -109.4143
  15   1.0000      -4.016930      -109.3062
  16   1.0000      -4.016894      -109.3052
  17   1.0000      -2.940707       -80.0207
  18   1.0000      -2.249815       -61.2206
  19   1.0000      -2.249791       -61.2199
  20   1.0000      -2.249067       -61.2002
  21   1.0000      -2.248966       -61.1975
  22   1.0000      -2.246197       -61.1221
  23   1.0000      -2.246154       -61.1210
  24   1.0000      -2.245329       -61.0985
  25   1.0000      -2.242005       -61.0081
  26   1.0000      -2.241920       -61.0058
  27   1.0000      -2.241008       -60.9809
  28   1.0000      -2.240860       -60.9769
  29   1.0000      -2.240156       -60.9577
  30   1.0000      -2.238784       -60.9204
  31   1.0000      -2.238672       -60.9174
  32   1.0000      -2.237987       -60.8987
  33   1.0000      -2.237780       -60.8931
  34   1.0000      -2.237678       -60.8903
  35   1.0000      -2.237596       -60.8881
  36   1.0000      -2.237350       -60.8814
  37   1.0000      -2.236787       -60.8661
  38   1.0000      -2.233057       -60.7646
  39   1.0000      -2.232831       -60.7584
  40   1.0000      -2.231911       -60.7334
  41   1.0000      -2.231845       -60.7316
  42   1.0000      -2.231319       -60.7173
  43   1.0000      -2.231235       -60.7150
  44   1.0000      -2.230754       -60.7019
  45   1.0000      -2.230643       -60.6989
  46   1.0000      -2.230519       -60.6955
  47   1.0000      -2.230467       -60.6941
  48   1.0000      -2.230305       -60.6897
  49   1.0000      -2.229931       -60.6795
  50   1.0000      -2.228342       -60.6363
  51   1.0000      -2.228316       -60.6356
  52   1.0000      -2.227147       -60.6037
  53   1.0000      -2.227094       -60.6023
  54   1.0000      -1.848313       -50.2952
  55   1.0000      -1.847207       -50.2650
  56   1.0000      -1.843629       -50.1677
  57   1.0000      -0.416363       -11.3298
  58   1.0000      -0.382488       -10.4080
  59   1.0000      -0.379009       -10.3134
  60   1.0000      -0.375453       -10.2166
  61   1.0000      -0.366541        -9.9741
  62   1.0000      -0.363758        -9.8984
  63   1.0000      -0.362857        -9.8738
  64   1.0000      -0.356979        -9.7139
  65   1.0000      -0.345848        -9.4110
  66   1.0000      -0.343582        -9.3493
  67   1.0000      -0.343007        -9.3337
  68   1.0000      -0.340730        -9.2717
  69   1.0000      -0.338861        -9.2209
  70   1.0000      -0.338484        -9.2106
  71   1.0000      -0.335068        -9.1177
  72   1.0000      -0.333087        -9.0638
  73   1.0000      -0.330321        -8.9885
  74   1.0000      -0.325373        -8.8538
  75   1.0000      -0.324071        -8.8184
  76   1.0000      -0.322978        -8.7887
  77   1.0000      -0.321012        -8.7352
  78   1.0000      -0.320459        -8.7201
  79   1.0000      -0.317404        -8.6370
  80   1.0000      -0.316562        -8.6141
  81   1.0000      -0.311043        -8.4639
  82   1.0000      -0.305931        -8.3248
  83   1.0000      -0.302777        -8.2390
  84   1.0000      -0.299089        -8.1386
  85   1.0000      -0.297167        -8.0863
  86   1.0000      -0.295532        -8.0418
  87   1.0000      -0.293705        -7.9921
  88   1.0000      -0.289739        -7.8842
  89   1.0000      -0.288162        -7.8413
  90   1.0000      -0.285638        -7.7726
  91   1.0000      -0.283763        -7.7216
  92   1.0000      -0.281119        -7.6496
  93   1.0000      -0.281084        -7.6487
  94   1.0000      -0.276779        -7.5315
  95   1.0000      -0.275082        -7.4854
  96   1.0000      -0.274410        -7.4671
  97   1.0000      -0.273604        -7.4451
  98   1.0000      -0.271578        -7.3900
  99   1.0000      -0.270780        -7.3683
 100   1.0000      -0.269758        -7.3405
 101   1.0000      -0.268658        -7.3105
 102   1.0000      -0.265625        -7.2280
 103   1.0000      -0.263245        -7.1633
 104   1.0000      -0.261092        -7.1047
 105   1.0000      -0.260623        -7.0919
 106   1.0000      -0.259014        -7.0481
 107   1.0000      -0.258354        -7.0302
 108   1.0000      -0.256059        -6.9677
 109   1.0000      -0.255552        -6.9539
 110   1.0000      -0.255143        -6.9428
 111   1.0000      -0.254190        -6.9169
 112   1.0000      -0.253351        -6.8940
 113   1.0000      -0.253242        -6.8911
 114   1.0000      -0.248479        -6.7615
 115   1.0000      -0.247683        -6.7398
 116   1.0000      -0.244098        -6.6422
 117   1.0000      -0.243595        -6.6286
 118   1.0000      -0.236631        -6.4391
 119   1.0000      -0.235172        -6.3994
 120   1.0000      -0.232208        -6.3187
 121   1.0000      -0.220555        -6.0016
 122   1.0000      -0.212501        -5.7825
 123   1.0000      -0.196649        -5.3511
 124   0.0000      -0.176551        -4.8042
 125   0.0000      -0.152549        -4.1511
 126   0.0000      -0.141538        -3.8514
 127   0.0000      -0.137519        -3.7421
 128   0.0000      -0.121461        -3.3051

MULLIKEN ATOMIC CHARGES AND SPIN POPULATIONS
--------------------------------------------
   0 Au:    0.057967    0.056204
   1 Au:    0.058293    0.056073
   2 Au:    0.358081    0.061774
   3 Au:    0.033461    0.084298
   4 Au:    0.357809    0.061774
   5 Au:    0.034407    0.084238
   6 Au:    0.260329    0.048609
   7 Au:    0.260638    0.048501
   8 Au:    0.324879    0.053148
   9 Au:    0.033282    0.084400
  10 Au:    0.325072    0.053128
  11 Au:    0.034717    0.084055
  12 Mn:   -2.138936    4.223799
Sum of atomic charges         :   -0.0000000

LOEWDIN ATOMIC CHARGES AND SPIN POPULATIONS
-------------------------------------------
   0 Au:    0.038452    0.063120
   1 Au:    0.038725    0.062987
   2 Au:    0.074959    0.052439
   3 Au:   -0.010907    0.071494
   4 Au:    0.074539    0.052484
   5 Au:   -0.010638    0.071523
   6 Au:    0.052439    0.045943
   7 Au:    0.052564    0.045810
   8 Au:    0.104065    0.063639
   9 Au:   -0.010954    0.071673
  10 Au:    0.104064    0.063628
  11 Au:   -0.010955    0.071462
  12 Mn:   -0.496354    4.263798

  Mayer bond orders larger than 0.100000
B(  0-Au,  1-Au) :   0.4636 B(  0-Au,  3-Au) :   0.1268 B(  0-Au,  4-Au) :   0.3769
B(  0-Au,  5-Au) :   0.1268 B(  0-Au, 12-Mn) :   0.5864 B(  1-Au,  2-Au) :   0.3759
B(  1-Au,  9-Au) :   0.1261 B(  1-Au, 11-Au) :   0.1270 B(  1-Au, 12-Mn) :   0.5866
B(  2-Au,  9-Au) :   0.3371 B(  2-Au, 11-Au) :   0.3361 B(  3-Au,  4-Au) :   0.3364
B(  3-Au,  5-Au) :   0.1258 B(  3-Au,  6-Au) :   0.2815 B(  3-Au,  8-Au) :   0.3045
B(  3-Au, 12-Mn) :   0.3921 B(  4-Au,  5-Au) :   0.3365 B(  5-Au,  6-Au) :   0.2807
B(  5-Au, 10-Au) :   0.3040 B(  5-Au, 12-Mn) :   0.3931 B(  6-Au,  8-Au) :   0.1879
B(  6-Au, 10-Au) :   0.1890 B(  6-Au, 12-Mn) :   0.4751 B(  7-Au,  8-Au) :   0.1891
B(  7-Au,  9-Au) :   0.2810 B(  7-Au, 10-Au) :   0.1882 B(  7-Au, 11-Au) :   0.2808
B(  7-Au, 12-Mn) :   0.4742 B(  8-Au, 11-Au) :   0.3047 B(  8-Au, 12-Mn) :   0.4420
B(  9-Au, 10-Au) :   0.3050 B(  9-Au, 11-Au) :   0.1261 B(  9-Au, 12-Mn) :   0.3927
B( 10-Au, 12-Mn) :   0.4423 B( 11-Au, 12-Mn) :   0.3932

FINAL SINGLE POINT ENERGY     -2780.700539992307

DIPOLE MOMENT
-------------
                                X             Y             Z
Electronic contribution:     -0.43159       0.42263       1.68952
Nuclear contribution   :      0.36442      -0.35543      -1.43425
                        -----------------------------------------
Total Dipole Moment    :     -0.06718       0.06720       0.25528
                        -----------------------------------------
Magnitude (a.u.)       :      0.27239
Magnitude (Debye)      :      0.69235

Rotational constants in cm-1:     0.001746     0.001047     0.000958
Rotational constants in MHz :    52.342186    31.390193    28.725520

                             ****ORCA TERMINATED NORMALLY****
TOTAL RUN TIME: 0 days 2 hours 5 minutes 42 seconds 305 msec
