                         Program Version 5.0.3 -  RELEASE  -
|  1> %pal nprocs 1 end
|  2>
|  3> !PBE def2-TZVP OPT UNO
|  4> !SLOWCONV KDIIS
|  5>
|  6> %geom maxiter 300 end
|  7>
|  8> *xyzfile 0 5 3.xyz                           ****END OF INPUT****
 Total Charge           Charge          ....    0
 Multiplicity           Mult            ....    5
 Number of Electrons    NEL             ....  216
FINAL SINGLE POINT ENERGY     -2621.736594332642
FINAL SINGLE POINT ENERGY     -2621.738169587146
FINAL SINGLE POINT ENERGY     -2621.738525581354
FINAL SINGLE POINT ENERGY     -2621.739377677065
FINAL SINGLE POINT ENERGY     -2621.739422151033
FINAL SINGLE POINT ENERGY     -2621.739479669910
FINAL SINGLE POINT ENERGY     -2621.739497115616
FINAL SINGLE POINT ENERGY     -2621.739512382770
FINAL SINGLE POINT ENERGY     -2621.739535968824
FINAL SINGLE POINT ENERGY     -2621.739547137036
FINAL SINGLE POINT ENERGY     -2621.739553302576
FINAL SINGLE POINT ENERGY     -2621.739555176699
                    ***********************HURRAY********************

CARTESIAN COORDINATES (ANGSTROEM)
---------------------------------
  Au    10.061932    2.863342    7.278145
  Au    11.600888    4.974662    7.573515
  Au     8.598929    4.855320    8.567224
  Au    13.825454    6.275031    8.049339
  Au     9.314092    4.804353    5.415430
  Au     7.965973    7.088525    5.173839
  Au    11.793561    7.955567    7.576102
  Au     7.295993    7.136462    8.136776
  Au     9.553844    9.241498    7.057204
  Au     6.913903    9.300731    6.458050
  Fe     9.632895    6.693393    7.114578

 Multiplicity           Mult            ....    5
 Number of Electrons    NEL             ....  216
 Basis Dimension        Dim             ....  445

ORBITAL ENERGIES
----------------
                 SPIN UP ORBITALS
  NO   OCC          E(Eh)            E(eV)
   0   1.0000    -254.760575     -6932.3877
   1   1.0000     -29.605394      -805.6037
   2   1.0000     -25.551556      -695.2932
   3   1.0000     -25.535532      -694.8571
   4   1.0000     -25.533197      -694.7936
   5   1.0000      -4.036383      -109.8356
   6   1.0000      -4.031949      -109.7149
   7   1.0000      -4.023815      -109.4936
   8   1.0000      -4.021882      -109.4410
   9   1.0000      -4.021864      -109.4405
  10   1.0000      -4.021149      -109.4210
  11   1.0000      -4.017041      -109.3093
  12   1.0000      -4.016981      -109.3076
  13   1.0000      -4.015957      -109.2798
  14   1.0000      -4.012926      -109.1973
  15   1.0000      -3.385393       -92.1212
  16   1.0000      -2.257374       -61.4263
  17   1.0000      -2.252813       -61.3022
  18   1.0000      -2.250991       -61.2526
  19   1.0000      -2.246637       -61.1341
  20   1.0000      -2.241817       -61.0029
  21   1.0000      -2.241257       -60.9877
  22   1.0000      -2.241059       -60.9823
  23   1.0000      -2.240421       -60.9650
  24   1.0000      -2.239673       -60.9446
  25   1.0000      -2.236899       -60.8691
  26   1.0000      -2.236631       -60.8618
  27   1.0000      -2.235583       -60.8333
  28   1.0000      -2.234900       -60.8147
  29   1.0000      -2.234877       -60.8141
  30   1.0000      -2.234657       -60.8081
  31   1.0000      -2.233303       -60.7713
  32   1.0000      -2.233165       -60.7675
  33   1.0000      -2.232333       -60.7449
  34   1.0000      -2.232133       -60.7394
  35   1.0000      -2.230392       -60.6921
  36   1.0000      -2.229286       -60.6620
  37   1.0000      -2.227939       -60.6253
  38   1.0000      -2.227706       -60.6190
  39   1.0000      -2.227665       -60.6178
  40   1.0000      -2.226662       -60.5905
  41   1.0000      -2.226336       -60.5817
  42   1.0000      -2.225143       -60.5492
  43   1.0000      -2.223732       -60.5108
  44   1.0000      -2.223293       -60.4989
  45   1.0000      -2.221244       -60.4431
  46   1.0000      -2.218334       -60.3639
  47   1.0000      -2.189131       -59.5693
  48   1.0000      -2.184615       -59.4464
  49   1.0000      -0.409910       -11.1542
  50   1.0000      -0.386109       -10.5066
  51   1.0000      -0.379114       -10.3162
  52   1.0000      -0.371810       -10.1175
  53   1.0000      -0.366804        -9.9812
  54   1.0000      -0.365594        -9.9483
  55   1.0000      -0.359922        -9.7940
  56   1.0000      -0.347565        -9.4577
  57   1.0000      -0.344262        -9.3679
  58   1.0000      -0.338863        -9.2209
  59   1.0000      -0.336950        -9.1689
  60   1.0000      -0.334074        -9.0906
  61   1.0000      -0.327307        -8.9065
  62   1.0000      -0.326683        -8.8895
  63   1.0000      -0.322713        -8.7815
  64   1.0000      -0.320896        -8.7320
  65   1.0000      -0.319566        -8.6958
  66   1.0000      -0.318528        -8.6676
  67   1.0000      -0.315630        -8.5887
  68   1.0000      -0.311270        -8.4701
  69   1.0000      -0.310223        -8.4416
  70   1.0000      -0.302160        -8.2222
  71   1.0000      -0.301061        -8.1923
  72   1.0000      -0.300198        -8.1688
  73   1.0000      -0.295537        -8.0420
  74   1.0000      -0.293799        -7.9947
  75   1.0000      -0.291196        -7.9238
  76   1.0000      -0.290227        -7.8975
  77   1.0000      -0.286113        -7.7855
  78   1.0000      -0.282634        -7.6909
  79   1.0000      -0.278103        -7.5676
  80   1.0000      -0.277648        -7.5552
  81   1.0000      -0.276791        -7.5319
  82   1.0000      -0.275054        -7.4846
  83   1.0000      -0.273123        -7.4320
  84   1.0000      -0.270936        -7.3725
  85   1.0000      -0.268755        -7.3132
  86   1.0000      -0.268656        -7.3105
  87   1.0000      -0.267223        -7.2715
  88   1.0000      -0.265376        -7.2212
  89   1.0000      -0.265242        -7.2176
  90   1.0000      -0.262636        -7.1467
  91   1.0000      -0.260547        -7.0898
  92   1.0000      -0.260365        -7.0849
  93   1.0000      -0.257766        -7.0142
  94   1.0000      -0.257455        -7.0057
  95   1.0000      -0.255532        -6.9534
  96   1.0000      -0.254696        -6.9306
  97   1.0000      -0.253662        -6.9025
  98   1.0000      -0.252249        -6.8640
  99   1.0000      -0.248171        -6.7531
 100   1.0000      -0.247035        -6.7222
 101   1.0000      -0.246256        -6.7010
 102   1.0000      -0.244709        -6.6589
 103   1.0000      -0.242643        -6.6027
 104   1.0000      -0.241808        -6.5799
 105   1.0000      -0.236505        -6.4356
 106   1.0000      -0.227190        -6.1821
 107   1.0000      -0.214312        -5.8317
 108   1.0000      -0.213263        -5.8032
 109   1.0000      -0.209524        -5.7014
 110   0.0000      -0.156808        -4.2669
 111   0.0000      -0.145510        -3.9595
 112   0.0000      -0.129841        -3.5332
 113   0.0000      -0.126315        -3.4372
 114   0.0000      -0.093347        -2.5401

                 SPIN DOWN ORBITALS
  NO   OCC          E(Eh)            E(eV)
   0   1.0000    -254.759783     -6932.3661
   1   1.0000     -29.543974      -803.9324
   2   1.0000     -25.500095      -693.8929
   3   1.0000     -25.490996      -693.6453
   4   1.0000     -25.489984      -693.6177
   5   1.0000      -4.034680      -109.7892
   6   1.0000      -4.029629      -109.6518
   7   1.0000      -4.023975      -109.4979
   8   1.0000      -4.020438      -109.4017
   9   1.0000      -4.020400      -109.4007
  10   1.0000      -4.019090      -109.3650
  11   1.0000      -4.016133      -109.2845
  12   1.0000      -4.015728      -109.2735
  13   1.0000      -4.015696      -109.2726
  14   1.0000      -4.012790      -109.1936
  15   1.0000      -3.246152       -88.3323
  16   1.0000      -2.255423       -61.3732
  17   1.0000      -2.249491       -61.2118
  18   1.0000      -2.248172       -61.1759
  19   1.0000      -2.243949       -61.0610
  20   1.0000      -2.241334       -60.9898
  21   1.0000      -2.239265       -60.9335
  22   1.0000      -2.239199       -60.9317
  23   1.0000      -2.238942       -60.9247
  24   1.0000      -2.237709       -60.8912
  25   1.0000      -2.235501       -60.8311
  26   1.0000      -2.235329       -60.8264
  27   1.0000      -2.234165       -60.7947
  28   1.0000      -2.234114       -60.7933
  29   1.0000      -2.233265       -60.7702
  30   1.0000      -2.233034       -60.7639
  31   1.0000      -2.232194       -60.7411
  32   1.0000      -2.232114       -60.7389
  33   1.0000      -2.232042       -60.7370
  34   1.0000      -2.231040       -60.7097
  35   1.0000      -2.229173       -60.6589
  36   1.0000      -2.228685       -60.6456
  37   1.0000      -2.227526       -60.6141
  38   1.0000      -2.226560       -60.5878
  39   1.0000      -2.226525       -60.5868
  40   1.0000      -2.226517       -60.5866
  41   1.0000      -2.226285       -60.5803
  42   1.0000      -2.223784       -60.5122
  43   1.0000      -2.222608       -60.4802
  44   1.0000      -2.222158       -60.4680
  45   1.0000      -2.218171       -60.3595
  46   1.0000      -2.069686       -56.3190
  47   1.0000      -2.058808       -56.0230
  48   1.0000      -2.058707       -56.0203
  49   1.0000      -0.404739       -11.0135
  50   1.0000      -0.381915       -10.3924
  51   1.0000      -0.375777       -10.2254
  52   1.0000      -0.362014        -9.8509
  53   1.0000      -0.358215        -9.7475
  54   1.0000      -0.356176        -9.6920
  55   1.0000      -0.351633        -9.5684
  56   1.0000      -0.336772        -9.1640
  57   1.0000      -0.335513        -9.1298
  58   1.0000      -0.333119        -9.0646
  59   1.0000      -0.326635        -8.8882
  60   1.0000      -0.323828        -8.8118
  61   1.0000      -0.320483        -8.7208
  62   1.0000      -0.318516        -8.6673
  63   1.0000      -0.316436        -8.6107
  64   1.0000      -0.315479        -8.5846
  65   1.0000      -0.314027        -8.5451
  66   1.0000      -0.312993        -8.5170
  67   1.0000      -0.309713        -8.4277
  68   1.0000      -0.305626        -8.3165
  69   1.0000      -0.303764        -8.2658
  70   1.0000      -0.299283        -8.1439
  71   1.0000      -0.296837        -8.0773
  72   1.0000      -0.293632        -7.9901
  73   1.0000      -0.292494        -7.9592
  74   1.0000      -0.287631        -7.8268
  75   1.0000      -0.285895        -7.7796
  76   1.0000      -0.285663        -7.7733
  77   1.0000      -0.281113        -7.6495
  78   1.0000      -0.281048        -7.6477
  79   1.0000      -0.276578        -7.5261
  80   1.0000      -0.274664        -7.4740
  81   1.0000      -0.274056        -7.4574
  82   1.0000      -0.271734        -7.3943
  83   1.0000      -0.271063        -7.3760
  84   1.0000      -0.268003        -7.2927
  85   1.0000      -0.267329        -7.2744
  86   1.0000      -0.265917        -7.2360
  87   1.0000      -0.265004        -7.2111
  88   1.0000      -0.264500        -7.1974
  89   1.0000      -0.262529        -7.1438
  90   1.0000      -0.258621        -7.0374
  91   1.0000      -0.257708        -7.0126
  92   1.0000      -0.255530        -6.9533
  93   1.0000      -0.254793        -6.9333
  94   1.0000      -0.252590        -6.8733
  95   1.0000      -0.251998        -6.8572
  96   1.0000      -0.245966        -6.6931
  97   1.0000      -0.245705        -6.6860
  98   1.0000      -0.245074        -6.6688
  99   1.0000      -0.243052        -6.6138
 100   1.0000      -0.240742        -6.5509
 101   1.0000      -0.237577        -6.4648
 102   1.0000      -0.220869        -6.0102
 103   1.0000      -0.220667        -6.0047
 104   1.0000      -0.214717        -5.8427
 105   1.0000      -0.180899        -4.9225
 106   0.0000      -0.171473        -4.6660
 107   0.0000      -0.162811        -4.4303
 108   0.0000      -0.161813        -4.4032
 109   0.0000      -0.151997        -4.1360
 110   0.0000      -0.141544        -3.8516

MULLIKEN ATOMIC CHARGES AND SPIN POPULATIONS
--------------------------------------------
   0 Au:    0.366082    0.037669
   1 Au:   -0.289526    0.058089
   2 Au:    0.134170    0.065393
   3 Au:    0.332378    0.067847
   4 Au:    0.136143    0.064564
   5 Au:    0.109677    0.076499
   6 Au:    0.001564    0.094150
   7 Au:    0.109892    0.076112
   8 Au:    0.113582    0.115271
   9 Au:    0.291724    0.027581
  10 Fe:   -1.305685    3.316824
Sum of atomic charges         :   -0.0000000

LOEWDIN ATOMIC CHARGES AND SPIN POPULATIONS
-------------------------------------------
   0 Au:    0.086755    0.015236
   1 Au:   -0.080904    0.079887
   2 Au:    0.052406    0.066657
   3 Au:    0.097568    0.051604
   4 Au:    0.052507    0.065823
   5 Au:    0.019157    0.072610
   6 Au:    0.040151    0.105514
   7 Au:    0.018688    0.072224
   8 Au:    0.025879    0.101506
   9 Au:    0.052632    0.022038
  10 Fe:   -0.364839    3.346902

  Mayer bond orders larger than 0.100000
B(  0-Au,  1-Au) :   0.5949 B(  0-Au,  2-Au) :   0.2367 B(  0-Au,  4-Au) :   0.2329
B(  1-Au,  3-Au) :   0.6667 B(  1-Au,  4-Au) :   0.1002 B(  1-Au,  6-Au) :   0.2500
B(  1-Au, 10-Fe) :   0.3700 B(  2-Au,  7-Au) :   0.4827 B(  2-Au, 10-Fe) :   0.7019
B(  3-Au,  6-Au) :   0.3860 B(  4-Au,  5-Au) :   0.4812 B(  4-Au, 10-Fe) :   0.7012
B(  5-Au,  7-Au) :   0.1237 B(  5-Au,  9-Au) :   0.3336 B(  5-Au, 10-Fe) :   0.6284
B(  6-Au,  8-Au) :   0.5021 B(  6-Au, 10-Fe) :   0.6880 B(  7-Au,  9-Au) :   0.3336
B(  7-Au, 10-Fe) :   0.6274 B(  8-Au,  9-Au) :   0.3594 B(  8-Au, 10-Fe) :   0.6287

FINAL SINGLE POINT ENERGY     -2621.739556540822

DIPOLE MOMENT
-------------
                                X             Y             Z
Electronic contribution:      2.42877      -9.57769       0.57109
Nuclear contribution   :     -2.25609       9.23632      -0.52970
                        -----------------------------------------
Total Dipole Moment    :      0.17268      -0.34136       0.04139
                        -----------------------------------------
Magnitude (a.u.)       :      0.38479
Magnitude (Debye)      :      0.97805

Rotational constants in cm-1:     0.002095     0.001358     0.001016
Rotational constants in MHz :    62.807837    40.705007    30.469913

                             ****ORCA TERMINATED NORMALLY****
TOTAL RUN TIME: 0 days 1 hours 6 minutes 47 seconds 69 msec
