                         Program Version 5.0.3 -  RELEASE  -
|  1> %pal nprocs 6 end
|  2>
|  3> !PBE def2-TZVP OPT UNO
|  4> !VERYSLOWCONV NOTRAH
|  5>
|  6> *xyzfile 0 5 1.xyz
|  7>
|  8>                          ****END OF INPUT****
 Total Charge           Charge          ....    0
 Multiplicity           Mult            ....    5
 Number of Electrons    NEL             ....  330
FINAL SINGLE POINT ENERGY     -3436.760400492833   (Wavefunction not fully converged!)
FINAL SINGLE POINT ENERGY     -3436.763037876450
FINAL SINGLE POINT ENERGY     -3436.763265513527
FINAL SINGLE POINT ENERGY     -3436.763554250309
FINAL SINGLE POINT ENERGY     -3436.763777618018
FINAL SINGLE POINT ENERGY     -3436.763965990941
FINAL SINGLE POINT ENERGY     -3436.764183958007
FINAL SINGLE POINT ENERGY     -3436.764378537190
FINAL SINGLE POINT ENERGY     -3436.764535113261
FINAL SINGLE POINT ENERGY     -3436.764614027069
FINAL SINGLE POINT ENERGY     -3436.764648478583
FINAL SINGLE POINT ENERGY     -3436.764670636962
FINAL SINGLE POINT ENERGY     -3436.764680801118
FINAL SINGLE POINT ENERGY     -3436.764687429923
FINAL SINGLE POINT ENERGY     -3436.764693258478   (Wavefunction not fully converged!)
FINAL SINGLE POINT ENERGY     -3436.764697062636
                    ***********************HURRAY********************

CARTESIAN COORDINATES (ANGSTROEM)
---------------------------------
  Au     3.851396    7.657969    7.077196
  Au     5.249253    5.964551    5.283340
  Au     5.534221    8.749648    4.942409
  Au     9.397020    6.911772    7.012344
  Au     7.869057    7.155000    4.721499
  Au     7.540235    4.945256    6.486530
  Au     5.188288    5.285104    8.010524
  Au     7.798846    5.703392    9.129562
  Au    10.187105    9.486886    7.625386
  Au     7.916166    9.673163    6.111949
  Au     5.438840    9.992106    7.430898
  Au     5.437569    5.714565   10.701738
  Au     5.120934    8.173260    9.477358
  Au     7.343076    7.731646   11.099367
  Au     7.680934    9.500084    8.961917
  Au     9.730054    7.644676    9.686790
  Fe     6.630654    7.485217    7.192457

 Multiplicity           Mult            ....    5
 Number of Electrons    NEL             ....  330
 Basis Dimension        Dim             ....  685

ORBITAL ENERGIES
----------------
                 SPIN UP ORBITALS
  NO   OCC          E(Eh)            E(eV)
   0   1.0000    -254.758819     -6932.3399
   1   1.0000     -29.594767      -805.3146
   2   1.0000     -25.543070      -695.0623
   3   1.0000     -25.524348      -694.5528
   4   1.0000     -25.522652      -694.5067
   5   1.0000      -4.035940      -109.8235
   6   1.0000      -4.035882      -109.8219
   7   1.0000      -4.034889      -109.7949
   8   1.0000      -4.034855      -109.7940
   9   1.0000      -4.034545      -109.7855
  10   1.0000      -4.034491      -109.7841
  11   1.0000      -4.034063      -109.7724
  12   1.0000      -4.033871      -109.7672
  13   1.0000      -4.030705      -109.6811
  14   1.0000      -4.030591      -109.6780
  15   1.0000      -4.027089      -109.5827
  16   1.0000      -4.027079      -109.5824
  17   1.0000      -4.023907      -109.4961
  18   1.0000      -4.023752      -109.4918
  19   1.0000      -4.020267      -109.3970
  20   1.0000      -4.020166      -109.3943
  21   1.0000      -3.376202       -91.8711
  22   1.0000      -2.252447       -61.2922
  23   1.0000      -2.252343       -61.2894
  24   1.0000      -2.251507       -61.2666
  25   1.0000      -2.251463       -61.2654
  26   1.0000      -2.250820       -61.2479
  27   1.0000      -2.250712       -61.2450
  28   1.0000      -2.249238       -61.2049
  29   1.0000      -2.249209       -61.2041
  30   1.0000      -2.248894       -61.1955
  31   1.0000      -2.248837       -61.1940
  32   1.0000      -2.247807       -61.1659
  33   1.0000      -2.247759       -61.1646
  34   1.0000      -2.247235       -61.1504
  35   1.0000      -2.247150       -61.1481
  36   1.0000      -2.247068       -61.1458
  37   1.0000      -2.246999       -61.1440
  38   1.0000      -2.245671       -61.1078
  39   1.0000      -2.245451       -61.1018
  40   1.0000      -2.244919       -61.0874
  41   1.0000      -2.244837       -61.0851
  42   1.0000      -2.244678       -61.0808
  43   1.0000      -2.244392       -61.0730
  44   1.0000      -2.244242       -61.0689
  45   1.0000      -2.243998       -61.0623
  46   1.0000      -2.243966       -61.0614
  47   1.0000      -2.243584       -61.0510
  48   1.0000      -2.243376       -61.0454
  49   1.0000      -2.243139       -61.0389
  50   1.0000      -2.242629       -61.0250
  51   1.0000      -2.241659       -60.9986
  52   1.0000      -2.240697       -60.9725
  53   1.0000      -2.240633       -60.9707
  54   1.0000      -2.240499       -60.9671
  55   1.0000      -2.239477       -60.9393
  56   1.0000      -2.239318       -60.9349
  57   1.0000      -2.238629       -60.9162
  58   1.0000      -2.238611       -60.9157
  59   1.0000      -2.238327       -60.9080
  60   1.0000      -2.236190       -60.8498
  61   1.0000      -2.236039       -60.8457
  62   1.0000      -2.235474       -60.8303
  63   1.0000      -2.234613       -60.8069
  64   1.0000      -2.234252       -60.7971
  65   1.0000      -2.234130       -60.7938
  66   1.0000      -2.233429       -60.7747
  67   1.0000      -2.233344       -60.7724
  68   1.0000      -2.231215       -60.7144
  69   1.0000      -2.231125       -60.7120
  70   1.0000      -2.216434       -60.3122
  71   1.0000      -2.178497       -59.2799
  72   1.0000      -2.175007       -59.1849
  73   1.0000      -0.444138       -12.0856
  74   1.0000      -0.398945       -10.8558
  75   1.0000      -0.398325       -10.8390
  76   1.0000      -0.393835       -10.7168
  77   1.0000      -0.385021       -10.4770
  78   1.0000      -0.382044       -10.3959
  79   1.0000      -0.381905       -10.3922
  80   1.0000      -0.373583       -10.1657
  81   1.0000      -0.372616       -10.1394
  82   1.0000      -0.370009       -10.0685
  83   1.0000      -0.367011        -9.9869
  84   1.0000      -0.364775        -9.9260
  85   1.0000      -0.363923        -9.9028
  86   1.0000      -0.359110        -9.7719
  87   1.0000      -0.357946        -9.7402
  88   1.0000      -0.356665        -9.7054
  89   1.0000      -0.353599        -9.6219
  90   1.0000      -0.352895        -9.6028
  91   1.0000      -0.350926        -9.5492
  92   1.0000      -0.350558        -9.5392
  93   1.0000      -0.347425        -9.4539
  94   1.0000      -0.346087        -9.4175
  95   1.0000      -0.345363        -9.3978
  96   1.0000      -0.342784        -9.3276
  97   1.0000      -0.341514        -9.2931
  98   1.0000      -0.341161        -9.2835
  99   1.0000      -0.337360        -9.1800
 100   1.0000      -0.332515        -9.0482
 101   1.0000      -0.331471        -9.0198
 102   1.0000      -0.329677        -8.9710
 103   1.0000      -0.328888        -8.9495
 104   1.0000      -0.324192        -8.8217
 105   1.0000      -0.320671        -8.7259
 106   1.0000      -0.318375        -8.6634
 107   1.0000      -0.318097        -8.6559
 108   1.0000      -0.314091        -8.5468
 109   1.0000      -0.312442        -8.5020
 110   1.0000      -0.309691        -8.4271
 111   1.0000      -0.309033        -8.4092
 112   1.0000      -0.308360        -8.3909
 113   1.0000      -0.305272        -8.3069
 114   1.0000      -0.303913        -8.2699
 115   1.0000      -0.299833        -8.1589
 116   1.0000      -0.296300        -8.0627
 117   1.0000      -0.295017        -8.0278
 118   1.0000      -0.293386        -7.9834
 119   1.0000      -0.291362        -7.9284
 120   1.0000      -0.287256        -7.8166
 121   1.0000      -0.286352        -7.7920
 122   1.0000      -0.284782        -7.7493
 123   1.0000      -0.282953        -7.6995
 124   1.0000      -0.280945        -7.6449
 125   1.0000      -0.279261        -7.5991
 126   1.0000      -0.278974        -7.5913
 127   1.0000      -0.277598        -7.5538
 128   1.0000      -0.275888        -7.5073
 129   1.0000      -0.274853        -7.4791
 130   1.0000      -0.274448        -7.4681
 131   1.0000      -0.273501        -7.4423
 132   1.0000      -0.272052        -7.4029
 133   1.0000      -0.271456        -7.3867
 134   1.0000      -0.270726        -7.3668
 135   1.0000      -0.268408        -7.3037
 136   1.0000      -0.266927        -7.2635
 137   1.0000      -0.266805        -7.2601
 138   1.0000      -0.265850        -7.2341
 139   1.0000      -0.265213        -7.2168
 140   1.0000      -0.262878        -7.1533
 141   1.0000      -0.262803        -7.1512
 142   1.0000      -0.261241        -7.1087
 143   1.0000      -0.260854        -7.0982
 144   1.0000      -0.258580        -7.0363
 145   1.0000      -0.258172        -7.0252
 146   1.0000      -0.257221        -6.9993
 147   1.0000      -0.255263        -6.9461
 148   1.0000      -0.254710        -6.9310
 149   1.0000      -0.253693        -6.9033
 150   1.0000      -0.253552        -6.8995
 151   1.0000      -0.251281        -6.8377
 152   1.0000      -0.250977        -6.8294
 153   1.0000      -0.249550        -6.7906
 154   1.0000      -0.249410        -6.7868
 155   1.0000      -0.247826        -6.7437
 156   1.0000      -0.245587        -6.6828
 157   1.0000      -0.242313        -6.5937
 158   1.0000      -0.241158        -6.5622
 159   1.0000      -0.239358        -6.5133
 160   1.0000      -0.238761        -6.4970
 161   1.0000      -0.232673        -6.3314
 162   1.0000      -0.219577        -5.9750
 163   1.0000      -0.218060        -5.9337
 164   1.0000      -0.214016        -5.8237
 165   1.0000      -0.203411        -5.5351
 166   1.0000      -0.196966        -5.3597
 167   0.0000      -0.158375        -4.3096
 168   0.0000      -0.142890        -3.8882
 169   0.0000      -0.141231        -3.8431
 170   0.0000      -0.130529        -3.5519
 171   0.0000      -0.126508        -3.4425

                 SPIN DOWN ORBITALS
  NO   OCC          E(Eh)            E(eV)
   0   1.0000    -254.758143     -6932.3215
   1   1.0000     -29.535137      -803.6919
   2   1.0000     -25.492274      -693.6800
   3   1.0000     -25.481827      -693.3958
   4   1.0000     -25.480946      -693.3718
   5   1.0000      -4.035391      -109.8086
   6   1.0000      -4.035332      -109.8070
   7   1.0000      -4.034139      -109.7745
   8   1.0000      -4.034102      -109.7735
   9   1.0000      -4.033878      -109.7674
  10   1.0000      -4.033828      -109.7660
  11   1.0000      -4.033547      -109.7584
  12   1.0000      -4.033371      -109.7536
  13   1.0000      -4.030194      -109.6671
  14   1.0000      -4.030083      -109.6641
  15   1.0000      -4.026691      -109.5718
  16   1.0000      -4.026690      -109.5718
  17   1.0000      -4.023781      -109.4926
  18   1.0000      -4.023626      -109.4884
  19   1.0000      -4.020153      -109.3939
  20   1.0000      -4.020049      -109.3911
  21   1.0000      -3.240394       -88.1756
  22   1.0000      -2.251829       -61.2754
  23   1.0000      -2.251736       -61.2728
  24   1.0000      -2.250702       -61.2447
  25   1.0000      -2.250679       -61.2441
  26   1.0000      -2.250190       -61.2308
  27   1.0000      -2.250100       -61.2283
  28   1.0000      -2.248530       -61.1856
  29   1.0000      -2.248497       -61.1847
  30   1.0000      -2.248060       -61.1728
  31   1.0000      -2.248000       -61.1712
  32   1.0000      -2.247239       -61.1505
  33   1.0000      -2.247182       -61.1489
  34   1.0000      -2.246768       -61.1377
  35   1.0000      -2.246696       -61.1357
  36   1.0000      -2.246083       -61.1190
  37   1.0000      -2.246012       -61.1171
  38   1.0000      -2.245126       -61.0930
  39   1.0000      -2.244903       -61.0869
  40   1.0000      -2.244342       -61.0717
  41   1.0000      -2.244304       -61.0706
  42   1.0000      -2.244169       -61.0670
  43   1.0000      -2.243570       -61.0506
  44   1.0000      -2.243477       -61.0481
  45   1.0000      -2.243383       -61.0455
  46   1.0000      -2.243354       -61.0448
  47   1.0000      -2.243030       -61.0359
  48   1.0000      -2.242844       -61.0309
  49   1.0000      -2.242625       -61.0249
  50   1.0000      -2.242111       -61.0110
  51   1.0000      -2.241034       -60.9816
  52   1.0000      -2.240410       -60.9647
  53   1.0000      -2.240105       -60.9564
  54   1.0000      -2.240059       -60.9551
  55   1.0000      -2.239044       -60.9275
  56   1.0000      -2.238935       -60.9245
  57   1.0000      -2.238230       -60.9053
  58   1.0000      -2.238217       -60.9050
  59   1.0000      -2.238137       -60.9028
  60   1.0000      -2.236065       -60.8464
  61   1.0000      -2.235912       -60.8423
  62   1.0000      -2.235349       -60.8269
  63   1.0000      -2.234495       -60.8037
  64   1.0000      -2.234176       -60.7950
  65   1.0000      -2.234051       -60.7916
  66   1.0000      -2.233295       -60.7711
  67   1.0000      -2.233207       -60.7686
  68   1.0000      -2.231036       -60.7096
  69   1.0000      -2.230944       -60.7071
  70   1.0000      -2.065887       -56.2157
  71   1.0000      -2.053158       -55.8693
  72   1.0000      -2.052112       -55.8408
  73   1.0000      -0.439454       -11.9582
  74   1.0000      -0.397588       -10.8189
  75   1.0000      -0.396939       -10.8013
  76   1.0000      -0.393116       -10.6972
  77   1.0000      -0.378519       -10.3000
  78   1.0000      -0.376187       -10.2366
  79   1.0000      -0.374909       -10.2018
  80   1.0000      -0.369523       -10.0552
  81   1.0000      -0.369170       -10.0456
  82   1.0000      -0.366171        -9.9640
  83   1.0000      -0.365383        -9.9426
  84   1.0000      -0.363151        -9.8818
  85   1.0000      -0.362210        -9.8562
  86   1.0000      -0.356769        -9.7082
  87   1.0000      -0.356388        -9.6978
  88   1.0000      -0.353544        -9.6204
  89   1.0000      -0.351365        -9.5611
  90   1.0000      -0.350983        -9.5507
  91   1.0000      -0.349950        -9.5226
  92   1.0000      -0.349246        -9.5035
  93   1.0000      -0.346585        -9.4311
  94   1.0000      -0.345191        -9.3931
  95   1.0000      -0.343464        -9.3461
  96   1.0000      -0.341855        -9.3023
  97   1.0000      -0.341024        -9.2797
  98   1.0000      -0.339693        -9.2435
  99   1.0000      -0.335714        -9.1352
 100   1.0000      -0.331283        -9.0147
 101   1.0000      -0.329750        -8.9729
 102   1.0000      -0.328279        -8.9329
 103   1.0000      -0.327933        -8.9235
 104   1.0000      -0.320328        -8.7166
 105   1.0000      -0.318636        -8.6705
 106   1.0000      -0.317362        -8.6359
 107   1.0000      -0.315469        -8.5843
 108   1.0000      -0.311230        -8.4690
 109   1.0000      -0.308475        -8.3940
 110   1.0000      -0.307919        -8.3789
 111   1.0000      -0.306073        -8.3287
 112   1.0000      -0.304144        -8.2762
 113   1.0000      -0.296961        -8.0807
 114   1.0000      -0.296071        -8.0565
 115   1.0000      -0.292271        -7.9531
 116   1.0000      -0.288682        -7.8554
 117   1.0000      -0.288255        -7.8438
 118   1.0000      -0.286499        -7.7960
 119   1.0000      -0.286238        -7.7889
 120   1.0000      -0.285713        -7.7746
 121   1.0000      -0.284391        -7.7387
 122   1.0000      -0.281905        -7.6710
 123   1.0000      -0.281293        -7.6544
 124   1.0000      -0.278845        -7.5877
 125   1.0000      -0.277324        -7.5464
 126   1.0000      -0.277111        -7.5406
 127   1.0000      -0.276064        -7.5121
 128   1.0000      -0.274252        -7.4628
 129   1.0000      -0.273678        -7.4472
 130   1.0000      -0.272754        -7.4220
 131   1.0000      -0.271866        -7.3978
 132   1.0000      -0.270783        -7.3684
 133   1.0000      -0.270257        -7.3541
 134   1.0000      -0.267772        -7.2864
 135   1.0000      -0.266517        -7.2523
 136   1.0000      -0.265478        -7.2240
 137   1.0000      -0.264611        -7.2004
 138   1.0000      -0.264322        -7.1926
 139   1.0000      -0.262638        -7.1468
 140   1.0000      -0.261723        -7.1218
 141   1.0000      -0.260437        -7.0868
 142   1.0000      -0.258425        -7.0321
 143   1.0000      -0.257775        -7.0144
 144   1.0000      -0.255562        -6.9542
 145   1.0000      -0.253925        -6.9096
 146   1.0000      -0.253763        -6.9053
 147   1.0000      -0.252112        -6.8603
 148   1.0000      -0.250232        -6.8092
 149   1.0000      -0.249782        -6.7969
 150   1.0000      -0.248569        -6.7639
 151   1.0000      -0.247448        -6.7334
 152   1.0000      -0.245257        -6.6738
 153   1.0000      -0.242747        -6.6055
 154   1.0000      -0.239422        -6.5150
 155   1.0000      -0.238676        -6.4947
 156   1.0000      -0.233149        -6.3443
 157   1.0000      -0.227061        -6.1786
 158   1.0000      -0.220854        -6.0097
 159   1.0000      -0.219075        -5.9613
 160   1.0000      -0.210438        -5.7263
 161   1.0000      -0.206351        -5.6151
 162   1.0000      -0.177709        -4.8357
 163   0.0000      -0.170699        -4.6450
 164   0.0000      -0.161418        -4.3924
 165   0.0000      -0.159539        -4.3413
 166   0.0000      -0.154747        -4.2109
 167   0.0000      -0.147107        -4.0030

MULLIKEN ATOMIC CHARGES AND SPIN POPULATIONS
--------------------------------------------
   0 Au:    0.331785    0.051443
   1 Au:    0.324412    0.059123
   2 Au:    0.323597    0.059586
   3 Au:   -0.153143    0.085032
   4 Au:    0.330935    0.053037
   5 Au:    0.364695    0.040615
   6 Au:    0.032401    0.056114
   7 Au:   -0.311822    0.081926
   8 Au:    0.397725    0.031094
   9 Au:    0.030608    0.055578
  10 Au:    0.365682    0.040528
  11 Au:    0.399234    0.028862
  12 Au:   -0.157117    0.085997
  13 Au:    0.266889    0.024736
  14 Au:   -0.308350    0.081312
  15 Au:    0.264649    0.021522
  16 Fe:   -2.502179    3.143496
Sum of atomic charges         :    0.0000000

LOEWDIN ATOMIC CHARGES AND SPIN POPULATIONS
-------------------------------------------
   0 Au:    0.073756    0.037436
   1 Au:    0.061612    0.042464
   2 Au:    0.061576    0.043011
   3 Au:   -0.026474    0.055286
   4 Au:    0.073564    0.038383
   5 Au:    0.078273    0.044446
   6 Au:    0.011286    0.054310
   7 Au:   -0.036269    0.059611
   8 Au:    0.088159    0.033662
   9 Au:    0.011315    0.054436
  10 Au:    0.078499    0.044354
  11 Au:    0.089239    0.032877
  12 Au:   -0.026818    0.055742
  13 Au:    0.026388    0.031963
  14 Au:   -0.035749    0.059129
  15 Au:    0.026172    0.030859
  16 Fe:   -0.554527    3.282034

  Mayer bond orders larger than 0.100000
B(  0-Au,  1-Au) :   0.1783 B(  0-Au,  2-Au) :   0.1621 B(  0-Au,  6-Au) :   0.1507
B(  0-Au, 10-Au) :   0.1483 B(  0-Au, 12-Au) :   0.2618 B(  0-Au, 16-Fe) :   0.3896
B(  1-Au,  2-Au) :   0.1901 B(  1-Au,  4-Au) :   0.1614 B(  1-Au,  5-Au) :   0.2035
B(  1-Au,  6-Au) :   0.2464 B(  1-Au, 16-Fe) :   0.3878 B(  2-Au,  4-Au) :   0.1780
B(  2-Au,  9-Au) :   0.2466 B(  2-Au, 10-Au) :   0.2024 B(  2-Au, 16-Fe) :   0.3886
B(  3-Au,  4-Au) :   0.2590 B(  3-Au,  5-Au) :   0.2245 B(  3-Au,  7-Au) :   0.1627
B(  3-Au,  8-Au) :   0.2855 B(  3-Au,  9-Au) :   0.1685 B(  3-Au, 14-Au) :   0.1122
B(  3-Au, 15-Au) :   0.2975 B(  3-Au, 16-Fe) :   0.4092 B(  4-Au,  5-Au) :   0.1476
B(  4-Au,  9-Au) :   0.1502 B(  4-Au, 16-Fe) :   0.3939 B(  5-Au,  6-Au) :   0.1909
B(  5-Au,  7-Au) :   0.2735 B(  5-Au, 16-Fe) :   0.4157 B(  6-Au,  7-Au) :   0.2075
B(  6-Au, 11-Au) :   0.3457 B(  6-Au, 12-Au) :   0.1682 B(  6-Au, 16-Fe) :   0.4079
B(  7-Au, 11-Au) :   0.2574 B(  7-Au, 12-Au) :   0.1139 B(  7-Au, 13-Au) :   0.2308
B(  7-Au, 15-Au) :   0.3058 B(  7-Au, 16-Fe) :   0.4046 B(  8-Au,  9-Au) :   0.3474
B(  8-Au, 14-Au) :   0.2540 B(  8-Au, 15-Au) :   0.2312 B(  9-Au, 10-Au) :   0.1903
B(  9-Au, 14-Au) :   0.2098 B(  9-Au, 16-Fe) :   0.4069 B( 10-Au, 12-Au) :   0.2233
B( 10-Au, 14-Au) :   0.2762 B( 10-Au, 16-Fe) :   0.4160 B( 11-Au, 12-Au) :   0.2845
B( 11-Au, 13-Au) :   0.2292 B( 12-Au, 13-Au) :   0.3026 B( 12-Au, 14-Au) :   0.1569
B( 12-Au, 16-Fe) :   0.4131 B( 13-Au, 14-Au) :   0.3052 B( 13-Au, 15-Au) :   0.2476
B( 14-Au, 15-Au) :   0.2344 B( 14-Au, 16-Fe) :   0.4046

FINAL SINGLE POINT ENERGY     -3436.764699260697

DIPOLE MOMENT
-------------
                                X             Y             Z
Electronic contribution:     12.40711       1.25400      20.74587
Nuclear contribution   :    -12.42111      -1.25731     -20.76232
                        -----------------------------------------
Total Dipole Moment    :     -0.01401      -0.00331      -0.01645
                        -----------------------------------------
Magnitude (a.u.)       :      0.02186
Magnitude (Debye)      :      0.05555

Rotational constants in cm-1:     0.000924     0.000876     0.000732
Rotational constants in MHz :    27.687595    26.249338    21.949613

                             ****ORCA TERMINATED NORMALLY****
TOTAL RUN TIME: 0 days 1 hours 21 minutes 55 seconds 588 msec
