                         Program Version 5.0.3 -  RELEASE  -
|  1> !RI-B2PLYP def2-TZVP def2-TZVP/C
|  2> !RIJCOSX VERYSLOWCONV
|  3>
|  4> %scf
|  5>   AutoTRAHIter 200
|  6>   maxiter 400
|  7> end
|  8>
|  9>
| 10> %pal nprocs 6 end
| 11>
| 12> *xyzfile 0 5 pbe.xyz
| 13>
| 14> $new_job
| 15>
| 16> !RI-B2PLYP def2-TZVP def2-TZVP/C
| 17> !RIJCOSX VERYSLOWCONV
| 18>
| 19> %scf
| 20>   AutoTRAHIter 200
| 21>   maxiter 400
| 22> end
| 23>
| 24>
| 25> %pal nprocs 6 end
| 26>
| 27> *xyzfile 0 3 pbe.xyz
| 28>
| 29>
| 30>
| 31>
| 32>
| 33>                          ****END OF INPUT****
 Total Charge           Charge          ....    0
 Multiplicity           Mult            ....    5
 Number of Electrons    NEL             ....  216
MP2 TOTAL ENERGY:    -2619.360415092 Eh
FINAL SINGLE POINT ENERGY     -2619.360415091835

CARTESIAN COORDINATES (ANGSTROEM)
---------------------------------
  Au     6.432031   10.517271    6.931877
  Au     8.708197    9.376141    7.788683
  Au     7.441468    5.242738    9.325941
  Au     9.962846    5.613722    9.929147
  Au     6.528749    5.304903    6.667791
  Au     6.449837    7.892472    6.890640
  Au    12.605309    6.289627    9.585721
  Au    10.825611    8.158868    8.680538
  Au    11.215166    5.562009    7.338309
  Au     9.165300    5.149558    5.754618
  Fe     8.770339    6.756194    7.732205

 Multiplicity           Mult            ....    3
 Number of Electrons    NEL             ....  216
 Basis Dimension        Dim             ....  445

ORBITAL ENERGIES
----------------
                 SPIN UP ORBITALS
  NO   OCC          E(Eh)            E(eV)
   0   1.0000    -258.334304     -7029.6338
   1   1.0000     -30.897531      -840.7646
   2   1.0000     -26.614960      -724.2299
   3   1.0000     -26.589034      -723.5244
   4   1.0000     -26.582384      -723.3434
   5   1.0000      -4.401921      -119.7824
   6   1.0000      -4.400957      -119.7561
   7   1.0000      -4.400189      -119.7352
   8   1.0000      -4.398131      -119.6792
   9   1.0000      -4.397767      -119.6693
  10   1.0000      -4.396592      -119.6373
  11   1.0000      -4.393274      -119.5471
  12   1.0000      -4.391395      -119.4959
  13   1.0000      -4.386508      -119.3629
  14   1.0000      -4.371294      -118.9490
  15   1.0000      -3.909549      -106.3842
  16   1.0000      -2.658594       -72.3440
  17   1.0000      -2.604277       -70.8660
  18   1.0000      -2.590050       -70.4788
  19   1.0000      -2.526939       -68.7615
  20   1.0000      -2.522394       -68.6378
  21   1.0000      -2.521766       -68.6207
  22   1.0000      -2.521124       -68.6033
  23   1.0000      -2.520565       -68.5881
  24   1.0000      -2.520047       -68.5740
  25   1.0000      -2.519196       -68.5508
  26   1.0000      -2.518472       -68.5311
  27   1.0000      -2.516904       -68.4884
  28   1.0000      -2.516365       -68.4738
  29   1.0000      -2.515733       -68.4566
  30   1.0000      -2.514684       -68.4280
  31   1.0000      -2.514623       -68.4264
  32   1.0000      -2.513573       -68.3978
  33   1.0000      -2.512214       -68.3608
  34   1.0000      -2.512068       -68.3568
  35   1.0000      -2.511483       -68.3409
  36   1.0000      -2.511294       -68.3358
  37   1.0000      -2.510651       -68.3183
  38   1.0000      -2.509447       -68.2855
  39   1.0000      -2.508648       -68.2638
  40   1.0000      -2.508422       -68.2576
  41   1.0000      -2.506783       -68.2130
  42   1.0000      -2.504846       -68.1603
  43   1.0000      -2.503524       -68.1244
  44   1.0000      -2.501683       -68.0742
  45   1.0000      -2.498032       -67.9749
  46   1.0000      -2.491544       -67.7983
  47   1.0000      -2.488106       -67.7048
  48   1.0000      -2.484370       -67.6031
  49   1.0000      -0.555457       -15.1148
  50   1.0000      -0.551415       -15.0048
  51   1.0000      -0.545770       -14.8512
  52   1.0000      -0.528213       -14.3734
  53   1.0000      -0.493479       -13.4283
  54   1.0000      -0.482146       -13.1199
  55   1.0000      -0.479376       -13.0445
  56   1.0000      -0.467025       -12.7084
  57   1.0000      -0.459385       -12.5005
  58   1.0000      -0.456153       -12.4125
  59   1.0000      -0.453404       -12.3377
  60   1.0000      -0.441757       -12.0208
  61   1.0000      -0.439599       -11.9621
  62   1.0000      -0.436057       -11.8657
  63   1.0000      -0.434371       -11.8198
  64   1.0000      -0.433852       -11.8057
  65   1.0000      -0.428591       -11.6626
  66   1.0000      -0.427018       -11.6197
  67   1.0000      -0.416103       -11.3227
  68   1.0000      -0.411303       -11.1921
  69   1.0000      -0.411109       -11.1869
  70   1.0000      -0.407456       -11.0874
  71   1.0000      -0.406379       -11.0581
  72   1.0000      -0.405550       -11.0356
  73   1.0000      -0.402276       -10.9465
  74   1.0000      -0.395030       -10.7493
  75   1.0000      -0.389957       -10.6113
  76   1.0000      -0.389676       -10.6036
  77   1.0000      -0.388305       -10.5663
  78   1.0000      -0.385787       -10.4978
  79   1.0000      -0.383114       -10.4251
  80   1.0000      -0.379822       -10.3355
  81   1.0000      -0.376840       -10.2543
  82   1.0000      -0.375716       -10.2238
  83   1.0000      -0.374770       -10.1980
  84   1.0000      -0.372763       -10.1434
  85   1.0000      -0.371313       -10.1040
  86   1.0000      -0.370442       -10.0802
  87   1.0000      -0.369639       -10.0584
  88   1.0000      -0.368480       -10.0269
  89   1.0000      -0.366806        -9.9813
  90   1.0000      -0.364239        -9.9114
  91   1.0000      -0.362281        -9.8582
  92   1.0000      -0.361340        -9.8325
  93   1.0000      -0.356511        -9.7012
  94   1.0000      -0.355435        -9.6719
  95   1.0000      -0.350859        -9.5474
  96   1.0000      -0.348336        -9.4787
  97   1.0000      -0.345077        -9.3900
  98   1.0000      -0.344438        -9.3726
  99   1.0000      -0.340457        -9.2643
 100   1.0000      -0.336888        -9.1672
 101   1.0000      -0.335423        -9.1273
 102   1.0000      -0.330962        -9.0059
 103   1.0000      -0.326700        -8.8900
 104   1.0000      -0.318110        -8.6562
 105   1.0000      -0.307784        -8.3752
 106   1.0000      -0.294439        -8.0121
 107   1.0000      -0.256577        -6.9818
 108   1.0000      -0.234502        -6.3811
 109   0.0000      -0.144124        -3.9218
 110   0.0000      -0.084410        -2.2969
 111   0.0000      -0.078513        -2.1365
 112   0.0000      -0.060508        -1.6465
 113   0.0000      -0.043858        -1.1934

                 SPIN DOWN ORBITALS
  NO   OCC          E(Eh)            E(eV)
   0   1.0000    -258.332336     -7029.5802
   1   1.0000     -30.804229      -838.2257
   2   1.0000     -26.515271      -721.5172
   3   1.0000     -26.508472      -721.3322
   4   1.0000     -26.506956      -721.2910
   5   1.0000      -4.404226      -119.8451
   6   1.0000      -4.402129      -119.7880
   7   1.0000      -4.400390      -119.7407
   8   1.0000      -4.398714      -119.6951
   9   1.0000      -4.397974      -119.6749
  10   1.0000      -4.397622      -119.6654
  11   1.0000      -4.393482      -119.5527
  12   1.0000      -4.389897      -119.4552
  13   1.0000      -4.387272      -119.3837
  14   1.0000      -4.373014      -118.9958
  15   1.0000      -3.663763       -99.6961
  16   1.0000      -2.527038       -68.7642
  17   1.0000      -2.524599       -68.6978
  18   1.0000      -2.522718       -68.6466
  19   1.0000      -2.521786       -68.6213
  20   1.0000      -2.521027       -68.6006
  21   1.0000      -2.520547       -68.5876
  22   1.0000      -2.520087       -68.5751
  23   1.0000      -2.518964       -68.5445
  24   1.0000      -2.517208       -68.4967
  25   1.0000      -2.516539       -68.4785
  26   1.0000      -2.516062       -68.4655
  27   1.0000      -2.515306       -68.4449
  28   1.0000      -2.514471       -68.4222
  29   1.0000      -2.512709       -68.3743
  30   1.0000      -2.512385       -68.3655
  31   1.0000      -2.512009       -68.3552
  32   1.0000      -2.511609       -68.3443
  33   1.0000      -2.511438       -68.3397
  34   1.0000      -2.509564       -68.2887
  35   1.0000      -2.509241       -68.2799
  36   1.0000      -2.509153       -68.2775
  37   1.0000      -2.508765       -68.2670
  38   1.0000      -2.506549       -68.2067
  39   1.0000      -2.504190       -68.1425
  40   1.0000      -2.502875       -68.1067
  41   1.0000      -2.500054       -68.0299
  42   1.0000      -2.497846       -67.9699
  43   1.0000      -2.493236       -67.8444
  44   1.0000      -2.489591       -67.7452
  45   1.0000      -2.484922       -67.6182
  46   1.0000      -2.342972       -63.7555
  47   1.0000      -2.340001       -63.6747
  48   1.0000      -2.327567       -63.3363
  49   1.0000      -0.488759       -13.2998
  50   1.0000      -0.478852       -13.0302
  51   1.0000      -0.473868       -12.8946
  52   1.0000      -0.466401       -12.6914
  53   1.0000      -0.465200       -12.6587
  54   1.0000      -0.462255       -12.5786
  55   1.0000      -0.454805       -12.3759
  56   1.0000      -0.447230       -12.1697
  57   1.0000      -0.443397       -12.0654
  58   1.0000      -0.441235       -12.0066
  59   1.0000      -0.438031       -11.9194
  60   1.0000      -0.433082       -11.7848
  61   1.0000      -0.429716       -11.6932
  62   1.0000      -0.423922       -11.5355
  63   1.0000      -0.422650       -11.5009
  64   1.0000      -0.420637       -11.4461
  65   1.0000      -0.418055       -11.3758
  66   1.0000      -0.416332       -11.3290
  67   1.0000      -0.411622       -11.2008
  68   1.0000      -0.406135       -11.0515
  69   1.0000      -0.402661       -10.9570
  70   1.0000      -0.398769       -10.8510
  71   1.0000      -0.393988       -10.7209
  72   1.0000      -0.393164       -10.6985
  73   1.0000      -0.391315       -10.6482
  74   1.0000      -0.389194       -10.5905
  75   1.0000      -0.386198       -10.5090
  76   1.0000      -0.382344       -10.4041
  77   1.0000      -0.381026       -10.3682
  78   1.0000      -0.379702       -10.3322
  79   1.0000      -0.377938       -10.2842
  80   1.0000      -0.376206       -10.2371
  81   1.0000      -0.374230       -10.1833
  82   1.0000      -0.373594       -10.1660
  83   1.0000      -0.370301       -10.0764
  84   1.0000      -0.369889       -10.0652
  85   1.0000      -0.367442        -9.9986
  86   1.0000      -0.363300        -9.8859
  87   1.0000      -0.362383        -9.8609
  88   1.0000      -0.359506        -9.7826
  89   1.0000      -0.357112        -9.7175
  90   1.0000      -0.353243        -9.6122
  91   1.0000      -0.351564        -9.5665
  92   1.0000      -0.348431        -9.4813
  93   1.0000      -0.346233        -9.4215
  94   1.0000      -0.343986        -9.3603
  95   1.0000      -0.341222        -9.2851
  96   1.0000      -0.337202        -9.1757
  97   1.0000      -0.336577        -9.1587
  98   1.0000      -0.333795        -9.0830
  99   1.0000      -0.331971        -9.0334
 100   1.0000      -0.321856        -8.7581
 101   1.0000      -0.315627        -8.5887
 102   1.0000      -0.308353        -8.3907
 103   1.0000      -0.275974        -7.5096
 104   1.0000      -0.250391        -6.8135
 105   1.0000      -0.245011        -6.6671
 106   1.0000      -0.175067        -4.7638
 107   0.0000      -0.089171        -2.4265
 108   0.0000      -0.070850        -1.9279
 109   0.0000      -0.062035        -1.6881
 110   0.0000      -0.043866        -1.1937
 111   0.0000      -0.031725        -0.8633

MULLIKEN ATOMIC CHARGES AND SPIN POPULATIONS
--------------------------------------------
   0 Au:    0.321608   -0.330325
   1 Au:   -0.098604   -0.021505
   2 Au:    0.164587    0.009751
   3 Au:    0.052938   -0.117241
   4 Au:    0.333317   -0.454832
   5 Au:   -0.324318   -0.100483
   6 Au:    0.320555   -0.191238
   7 Au:    0.065165   -0.165336
   8 Au:   -0.005038   -0.104633
   9 Au:    0.130877   -0.155491
  10 Fe:   -0.961088    3.631334
Sum of atomic charges         :   -0.0000000

LOEWDIN ATOMIC CHARGES AND SPIN POPULATIONS
-------------------------------------------
   0 Au:    0.062833   -0.226162
   1 Au:   -0.065232   -0.074951
   2 Au:    0.097983   -0.106832
   3 Au:   -0.034882   -0.099070
   4 Au:    0.022737   -0.394788
   5 Au:   -0.092645   -0.131134
   6 Au:    0.118143   -0.137772
   7 Au:   -0.037846   -0.115104
   8 Au:   -0.039349   -0.091140
   9 Au:    0.044369   -0.212220
  10 Fe:   -0.076112    3.589173

  Mayer bond orders larger than 0.100000
B(  0-Au,  1-Au) :   0.4387 B(  0-Au,  5-Au) :   0.4717 B(  1-Au,  5-Au) :   0.2660
B(  1-Au,  7-Au) :   0.5234 B(  1-Au, 10-Fe) :   0.4896 B(  2-Au,  3-Au) :   0.5142
B(  2-Au,  4-Au) :   0.1469 B(  2-Au, 10-Fe) :   0.4991 B(  3-Au,  6-Au) :   0.3745
B(  3-Au,  7-Au) :   0.1327 B(  3-Au,  8-Au) :   0.1857 B(  3-Au, 10-Fe) :   0.3142
B(  4-Au,  5-Au) :   0.2789 B(  4-Au,  9-Au) :   0.2847 B(  4-Au, 10-Fe) :   0.2558
B(  5-Au, 10-Fe) :   0.4628 B(  6-Au,  7-Au) :   0.2930 B(  6-Au,  8-Au) :   0.3170
B(  7-Au,  8-Au) :   0.1130 B(  7-Au, 10-Fe) :   0.5051 B(  8-Au,  9-Au) :   0.3702
B(  8-Au, 10-Fe) :   0.4857 B(  9-Au, 10-Fe) :   0.5058

MP2 TOTAL ENERGY:    -2619.312377295 Eh
FINAL SINGLE POINT ENERGY     -2619.312377295204

DIPOLE MOMENT
-------------
                                X             Y             Z
Electronic contribution:      6.39068       5.29052       6.21755
Nuclear contribution   :     -6.17836      -5.85356      -5.95145
                        -----------------------------------------
Total Dipole Moment    :      0.21233      -0.56304       0.26609
                        -----------------------------------------
Magnitude (a.u.)       :      0.65796
Magnitude (Debye)      :      1.67239

Rotational constants in cm-1:     0.002114     0.001271     0.001021
Rotational constants in MHz :    63.362502    38.099468    30.596076

                             ****ORCA TERMINATED NORMALLY****
TOTAL RUN TIME: 0 days 0 hours 15 minutes 4 seconds 65 msec
