                         Program Version 5.0.3 -  RELEASE  -
|  1> !PBE def2-TZVP VERYSLOWCONV
|  2>
|  3> %scf
|  4>   AutoTRAHIter 200
|  5>   maxiter 400
|  6> end
|  7>
|  8>
|  9> %pal nprocs 6 end
| 10>
| 11> *xyzfile 0 5 pbe.xyz
| 12>
| 13> $new_job
| 14>
| 15> !PBE def2-TZVP VERYSLOWCONV
| 16>
| 17> %scf
| 18>   AutoTRAHIter 200
| 19>   maxiter 400
| 20> end
| 21>
| 22>
| 23> %pal nprocs 6 end
| 24>
| 25> *xyzfile 0 3 pbe.xyz
| 26>
| 27>
| 28>
| 29>
| 30>
| 31>                          ****END OF INPUT****
 Total Charge           Charge          ....    0
 Multiplicity           Mult            ....    5
 Number of Electrons    NEL             ....  216
FINAL SINGLE POINT ENERGY     -2621.739710000946

CARTESIAN COORDINATES (ANGSTROEM)
---------------------------------
  Au     6.432031   10.517271    6.931877
  Au     8.708197    9.376141    7.788683
  Au     7.441468    5.242738    9.325941
  Au     9.962846    5.613722    9.929147
  Au     6.528749    5.304903    6.667791
  Au     6.449837    7.892472    6.890640
  Au    12.605309    6.289627    9.585721
  Au    10.825611    8.158868    8.680538
  Au    11.215166    5.562009    7.338309
  Au     9.165300    5.149558    5.754618
  Fe     8.770339    6.756194    7.732205

 Multiplicity           Mult            ....    3
 Number of Electrons    NEL             ....  216
 Basis Dimension        Dim             ....  445

ORBITAL ENERGIES
----------------
                 SPIN UP ORBITALS
  NO   OCC          E(Eh)            E(eV)
   0   1.0000    -254.741495     -6931.8685
   1   1.0000     -29.578165      -804.8628
   2   1.0000     -25.518268      -694.3874
   3   1.0000     -25.515694      -694.3173
   4   1.0000     -25.507846      -694.1038
   5   1.0000      -4.028524      -109.6217
   6   1.0000      -4.028179      -109.6123
   7   1.0000      -4.023268      -109.4787
   8   1.0000      -4.019767      -109.3834
   9   1.0000      -4.019530      -109.3770
  10   1.0000      -4.019218      -109.3685
  11   1.0000      -4.018076      -109.3374
  12   1.0000      -4.017981      -109.3348
  13   1.0000      -4.017221      -109.3141
  14   1.0000      -4.007551      -109.0510
  15   1.0000      -3.354300       -91.2751
  16   1.0000      -2.248605       -61.1877
  17   1.0000      -2.245603       -61.1060
  18   1.0000      -2.242575       -61.0236
  19   1.0000      -2.241478       -60.9937
  20   1.0000      -2.241267       -60.9880
  21   1.0000      -2.240085       -60.9558
  22   1.0000      -2.239656       -60.9441
  23   1.0000      -2.238989       -60.9260
  24   1.0000      -2.238010       -60.8993
  25   1.0000      -2.236633       -60.8619
  26   1.0000      -2.236124       -60.8480
  27   1.0000      -2.234512       -60.8042
  28   1.0000      -2.233814       -60.7852
  29   1.0000      -2.233433       -60.7748
  30   1.0000      -2.233141       -60.7669
  31   1.0000      -2.231746       -60.7289
  32   1.0000      -2.231529       -60.7230
  33   1.0000      -2.231120       -60.7119
  34   1.0000      -2.230928       -60.7066
  35   1.0000      -2.230525       -60.6957
  36   1.0000      -2.229676       -60.6726
  37   1.0000      -2.227826       -60.6222
  38   1.0000      -2.227028       -60.6005
  39   1.0000      -2.226945       -60.5983
  40   1.0000      -2.226412       -60.5837
  41   1.0000      -2.224346       -60.5275
  42   1.0000      -2.223372       -60.5010
  43   1.0000      -2.223106       -60.4938
  44   1.0000      -2.221070       -60.4384
  45   1.0000      -2.213473       -60.2317
  46   1.0000      -2.177194       -59.2445
  47   1.0000      -2.172318       -59.1118
  48   1.0000      -2.154951       -58.6392
  49   1.0000      -0.404524       -11.0077
  50   1.0000      -0.381409       -10.3787
  51   1.0000      -0.376567       -10.2469
  52   1.0000      -0.368981       -10.0405
  53   1.0000      -0.360819        -9.8184
  54   1.0000      -0.357370        -9.7245
  55   1.0000      -0.349721        -9.5164
  56   1.0000      -0.339276        -9.2322
  57   1.0000      -0.337873        -9.1940
  58   1.0000      -0.335779        -9.1370
  59   1.0000      -0.334044        -9.0898
  60   1.0000      -0.330861        -9.0032
  61   1.0000      -0.326995        -8.8980
  62   1.0000      -0.323634        -8.8065
  63   1.0000      -0.322978        -8.7887
  64   1.0000      -0.320831        -8.7302
  65   1.0000      -0.317195        -8.6313
  66   1.0000      -0.315646        -8.5892
  67   1.0000      -0.311532        -8.4772
  68   1.0000      -0.303833        -8.2677
  69   1.0000      -0.299997        -8.1633
  70   1.0000      -0.299587        -8.1522
  71   1.0000      -0.296632        -8.0718
  72   1.0000      -0.296083        -8.0568
  73   1.0000      -0.292787        -7.9671
  74   1.0000      -0.291424        -7.9301
  75   1.0000      -0.288452        -7.8492
  76   1.0000      -0.282075        -7.6756
  77   1.0000      -0.281681        -7.6649
  78   1.0000      -0.278583        -7.5806
  79   1.0000      -0.276621        -7.5272
  80   1.0000      -0.275714        -7.5026
  81   1.0000      -0.273816        -7.4509
  82   1.0000      -0.271656        -7.3921
  83   1.0000      -0.270488        -7.3603
  84   1.0000      -0.269973        -7.3464
  85   1.0000      -0.268515        -7.3067
  86   1.0000      -0.267692        -7.2843
  87   1.0000      -0.262996        -7.1565
  88   1.0000      -0.261439        -7.1141
  89   1.0000      -0.260368        -7.0850
  90   1.0000      -0.258391        -7.0312
  91   1.0000      -0.257182        -6.9983
  92   1.0000      -0.256433        -6.9779
  93   1.0000      -0.254662        -6.9297
  94   1.0000      -0.253685        -6.9031
  95   1.0000      -0.251761        -6.8508
  96   1.0000      -0.249638        -6.7930
  97   1.0000      -0.246212        -6.6998
  98   1.0000      -0.245335        -6.6759
  99   1.0000      -0.243894        -6.6367
 100   1.0000      -0.243051        -6.6138
 101   1.0000      -0.242427        -6.5968
 102   1.0000      -0.238756        -6.4969
 103   1.0000      -0.236516        -6.4359
 104   1.0000      -0.234287        -6.3753
 105   1.0000      -0.229759        -6.2521
 106   1.0000      -0.227131        -6.1805
 107   1.0000      -0.217474        -5.9178
 108   1.0000      -0.206520        -5.6197
 109   0.0000      -0.200243        -5.4489
 110   0.0000      -0.151055        -4.1104
 111   0.0000      -0.145246        -3.9523
 112   0.0000      -0.126263        -3.4358
 113   0.0000      -0.115575        -3.1450

                 SPIN DOWN ORBITALS
  NO   OCC          E(Eh)            E(eV)
   0   1.0000    -254.740861     -6931.8512
   1   1.0000     -29.523726      -803.3814
   2   1.0000     -25.474605      -693.1992
   3   1.0000     -25.472912      -693.1532
   4   1.0000     -25.470988      -693.1008
   5   1.0000      -4.030430      -109.6736
   6   1.0000      -4.028741      -109.6276
   7   1.0000      -4.022141      -109.4480
   8   1.0000      -4.020176      -109.3945
   9   1.0000      -4.019788      -109.3840
  10   1.0000      -4.019427      -109.3742
  11   1.0000      -4.017984      -109.3349
  12   1.0000      -4.017759      -109.3288
  13   1.0000      -4.016973      -109.3074
  14   1.0000      -4.007905      -109.0606
  15   1.0000      -3.230288       -87.9006
  16   1.0000      -2.249359       -61.2082
  17   1.0000      -2.248007       -61.1714
  18   1.0000      -2.243334       -61.0442
  19   1.0000      -2.242883       -61.0319
  20   1.0000      -2.240740       -60.9736
  21   1.0000      -2.240635       -60.9708
  22   1.0000      -2.240119       -60.9567
  23   1.0000      -2.239394       -60.9370
  24   1.0000      -2.238029       -60.8999
  25   1.0000      -2.236396       -60.8554
  26   1.0000      -2.235940       -60.8430
  27   1.0000      -2.233957       -60.7891
  28   1.0000      -2.233766       -60.7839
  29   1.0000      -2.233431       -60.7748
  30   1.0000      -2.232790       -60.7573
  31   1.0000      -2.231881       -60.7326
  32   1.0000      -2.231765       -60.7294
  33   1.0000      -2.231207       -60.7142
  34   1.0000      -2.230865       -60.7049
  35   1.0000      -2.230653       -60.6992
  36   1.0000      -2.230173       -60.6861
  37   1.0000      -2.228138       -60.6307
  38   1.0000      -2.227278       -60.6073
  39   1.0000      -2.226850       -60.5957
  40   1.0000      -2.225833       -60.5680
  41   1.0000      -2.223990       -60.5178
  42   1.0000      -2.223054       -60.4924
  43   1.0000      -2.223011       -60.4912
  44   1.0000      -2.221474       -60.4494
  45   1.0000      -2.213737       -60.2389
  46   1.0000      -2.047656       -55.7195
  47   1.0000      -2.047283       -55.7094
  48   1.0000      -2.045084       -55.6496
  49   1.0000      -0.403565       -10.9816
  50   1.0000      -0.383354       -10.4316
  51   1.0000      -0.375187       -10.2093
  52   1.0000      -0.367406        -9.9976
  53   1.0000      -0.360597        -9.8123
  54   1.0000      -0.354641        -9.6503
  55   1.0000      -0.346231        -9.4214
  56   1.0000      -0.340591        -9.2679
  57   1.0000      -0.336986        -9.1699
  58   1.0000      -0.334457        -9.1010
  59   1.0000      -0.330998        -9.0069
  60   1.0000      -0.325483        -8.8568
  61   1.0000      -0.325161        -8.8481
  62   1.0000      -0.321202        -8.7403
  63   1.0000      -0.317564        -8.6414
  64   1.0000      -0.315801        -8.5934
  65   1.0000      -0.315563        -8.5869
  66   1.0000      -0.312042        -8.4911
  67   1.0000      -0.310871        -8.4592
  68   1.0000      -0.300947        -8.1892
  69   1.0000      -0.299064        -8.1379
  70   1.0000      -0.297555        -8.0969
  71   1.0000      -0.295169        -8.0320
  72   1.0000      -0.294288        -8.0080
  73   1.0000      -0.292487        -7.9590
  74   1.0000      -0.289067        -7.8659
  75   1.0000      -0.287703        -7.8288
  76   1.0000      -0.282528        -7.6880
  77   1.0000      -0.281372        -7.6565
  78   1.0000      -0.278151        -7.5689
  79   1.0000      -0.276219        -7.5163
  80   1.0000      -0.274997        -7.4830
  81   1.0000      -0.272805        -7.4234
  82   1.0000      -0.271316        -7.3829
  83   1.0000      -0.271055        -7.3758
  84   1.0000      -0.270540        -7.3618
  85   1.0000      -0.267925        -7.2906
  86   1.0000      -0.266576        -7.2539
  87   1.0000      -0.263327        -7.1655
  88   1.0000      -0.261142        -7.1060
  89   1.0000      -0.260268        -7.0823
  90   1.0000      -0.257644        -7.0109
  91   1.0000      -0.256946        -6.9919
  92   1.0000      -0.255534        -6.9534
  93   1.0000      -0.253130        -6.8880
  94   1.0000      -0.252349        -6.8668
  95   1.0000      -0.249792        -6.7972
  96   1.0000      -0.248584        -6.7643
  97   1.0000      -0.247420        -6.7326
  98   1.0000      -0.244359        -6.6494
  99   1.0000      -0.243590        -6.6284
 100   1.0000      -0.238882        -6.5003
 101   1.0000      -0.231364        -6.2957
 102   1.0000      -0.225796        -6.1442
 103   1.0000      -0.222171        -6.0456
 104   1.0000      -0.215186        -5.8555
 105   1.0000      -0.177304        -4.8247
 106   1.0000      -0.170508        -4.6398
 107   0.0000      -0.157601        -4.2885
 108   0.0000      -0.149588        -4.0705
 109   0.0000      -0.142147        -3.8680
 110   0.0000      -0.139053        -3.7838
 111   0.0000      -0.137067        -3.7298

MULLIKEN ATOMIC CHARGES AND SPIN POPULATIONS
--------------------------------------------
   0 Au:    0.337520   -0.133587
   1 Au:   -0.057225    0.066967
   2 Au:    0.183549   -0.036877
   3 Au:    0.033662   -0.104912
   4 Au:    0.344120   -0.303641
   5 Au:   -0.172047   -0.041862
   6 Au:    0.349342   -0.093409
   7 Au:    0.053767   -0.138291
   8 Au:    0.039209   -0.094486
   9 Au:    0.180654   -0.050306
  10 Fe:   -1.292552    2.930403
Sum of atomic charges         :   -0.0000000

LOEWDIN ATOMIC CHARGES AND SPIN POPULATIONS
-------------------------------------------
   0 Au:    0.082757   -0.099388
   1 Au:    0.008492    0.015538
   2 Au:    0.107196   -0.084204
   3 Au:   -0.018394   -0.084912
   4 Au:    0.058467   -0.271206
   5 Au:   -0.050659   -0.059634
   6 Au:    0.086962   -0.089878
   7 Au:    0.017465   -0.099001
   8 Au:   -0.022400   -0.078639
   9 Au:    0.101811   -0.094128
  10 Fe:   -0.371697    2.945451

  Mayer bond orders larger than 0.100000
B(  0-Au,  1-Au) :   0.4287 B(  0-Au,  5-Au) :   0.5605 B(  0-Au, 10-Fe) :   0.1017
B(  1-Au,  5-Au) :   0.2732 B(  1-Au,  7-Au) :   0.5359 B(  1-Au, 10-Fe) :   0.5323
B(  2-Au,  3-Au) :   0.4633 B(  2-Au,  4-Au) :   0.2066 B(  2-Au, 10-Fe) :   0.6199
B(  3-Au,  6-Au) :   0.3758 B(  3-Au,  7-Au) :   0.1608 B(  3-Au,  8-Au) :   0.1786
B(  3-Au, 10-Fe) :   0.5040 B(  4-Au,  5-Au) :   0.4518 B(  4-Au,  9-Au) :   0.2296
B(  4-Au, 10-Fe) :   0.3875 B(  5-Au, 10-Fe) :   0.4584 B(  6-Au,  7-Au) :   0.3264
B(  6-Au,  8-Au) :   0.3764 B(  7-Au,  8-Au) :   0.1583 B(  7-Au, 10-Fe) :   0.5740
B(  8-Au,  9-Au) :   0.4441 B(  8-Au, 10-Fe) :   0.5145 B(  9-Au, 10-Fe) :   0.6199

FINAL SINGLE POINT ENERGY     -2621.709729001039

DIPOLE MOMENT
-------------
                                X             Y             Z
Electronic contribution:      6.13853       5.77059       5.97082
Nuclear contribution   :     -6.17836      -5.85356      -5.95145
                        -----------------------------------------
Total Dipole Moment    :     -0.03983      -0.08297       0.01937
                        -----------------------------------------
Magnitude (a.u.)       :      0.09405
Magnitude (Debye)      :      0.23906

Rotational constants in cm-1:     0.002114     0.001271     0.001021
Rotational constants in MHz :    63.362502    38.099468    30.596076

                             ****ORCA TERMINATED NORMALLY****
TOTAL RUN TIME: 0 days 0 hours 6 minutes 31 seconds 429 msec
