                         Program Version 5.0.3 -  RELEASE  -
|  1> !R2SCAN def2-TZVP VERYSLOWCONV
|  2>
|  3> %scf
|  4>   AutoTRAHIter 400
|  5>   maxiter 800
|  6> end
|  7>
|  8> %pal nprocs 6 end
|  9>
| 10> *xyzfile 0 5 pbe.xyz
| 11>
| 12> $new_job
| 13>
| 14> !R2SCAN def2-TZVP VERYSLOWCONV
| 15> %scf
| 16>   AutoTRAHIter 400
| 17>   maxiter 800
| 18> end
| 19>
| 20>
| 21> %pal nprocs 6 end
| 22>
| 23> *xyzfile 0 3 pbe.xyz
| 24>
| 25>
| 26>
| 27>
| 28>
| 29>                          ****END OF INPUT****
 Total Charge           Charge          ....    0
 Multiplicity           Mult            ....    5
 Number of Electrons    NEL             ....  216
FINAL SINGLE POINT ENERGY     -2622.142475286575

CARTESIAN COORDINATES (ANGSTROEM)
---------------------------------
  Au     6.432031   10.517271    6.931877
  Au     8.708197    9.376141    7.788683
  Au     7.441468    5.242738    9.325941
  Au     9.962846    5.613722    9.929147
  Au     6.528749    5.304903    6.667791
  Au     6.449837    7.892472    6.890640
  Au    12.605309    6.289627    9.585721
  Au    10.825611    8.158868    8.680538
  Au    11.215166    5.562009    7.338309
  Au     9.165300    5.149558    5.754618
  Fe     8.770339    6.756194    7.732205

 Multiplicity           Mult            ....    3
 Number of Electrons    NEL             ....  216
 Basis Dimension        Dim             ....  445

ORBITAL ENERGIES
----------------
                 SPIN UP ORBITALS
  NO   OCC          E(Eh)            E(eV)
   0   1.0000    -255.619283     -6955.7543
   1   1.0000     -29.916641      -814.0732
   2   1.0000     -25.752397      -700.7583
   3   1.0000     -25.749039      -700.6670
   4   1.0000     -25.740427      -700.4326
   5   1.0000      -4.119537      -112.0983
   6   1.0000      -4.117226      -112.0354
   7   1.0000      -4.113196      -111.9258
   8   1.0000      -4.110833      -111.8615
   9   1.0000      -4.110612      -111.8554
  10   1.0000      -4.110362      -111.8486
  11   1.0000      -4.109820      -111.8339
  12   1.0000      -4.108435      -111.7962
  13   1.0000      -4.108402      -111.7953
  14   1.0000      -4.097768      -111.5059
  15   1.0000      -3.495138       -95.1076
  16   1.0000      -2.310643       -62.8758
  17   1.0000      -2.309226       -62.8372
  18   1.0000      -2.305356       -62.7319
  19   1.0000      -2.304746       -62.7153
  20   1.0000      -2.303911       -62.6926
  21   1.0000      -2.303720       -62.6874
  22   1.0000      -2.303164       -62.6723
  23   1.0000      -2.302979       -62.6672
  24   1.0000      -2.300707       -62.6054
  25   1.0000      -2.299972       -62.5854
  26   1.0000      -2.299162       -62.5634
  27   1.0000      -2.298561       -62.5470
  28   1.0000      -2.297504       -62.5183
  29   1.0000      -2.297125       -62.5079
  30   1.0000      -2.296277       -62.4849
  31   1.0000      -2.295677       -62.4686
  32   1.0000      -2.295359       -62.4599
  33   1.0000      -2.294648       -62.4405
  34   1.0000      -2.294275       -62.4304
  35   1.0000      -2.294169       -62.4275
  36   1.0000      -2.293404       -62.4067
  37   1.0000      -2.291983       -62.3680
  38   1.0000      -2.291172       -62.3460
  39   1.0000      -2.290029       -62.3149
  40   1.0000      -2.289088       -62.2893
  41   1.0000      -2.288974       -62.2862
  42   1.0000      -2.287526       -62.2468
  43   1.0000      -2.286823       -62.2276
  44   1.0000      -2.283856       -62.1469
  45   1.0000      -2.276902       -61.9577
  46   1.0000      -2.270883       -61.7939
  47   1.0000      -2.264362       -61.6164
  48   1.0000      -2.245283       -61.0973
  49   1.0000      -0.409755       -11.1500
  50   1.0000      -0.387502       -10.5445
  51   1.0000      -0.384235       -10.4556
  52   1.0000      -0.377497       -10.2722
  53   1.0000      -0.370279       -10.0758
  54   1.0000      -0.367952       -10.0125
  55   1.0000      -0.359742        -9.7891
  56   1.0000      -0.349829        -9.5193
  57   1.0000      -0.348013        -9.4699
  58   1.0000      -0.346653        -9.4329
  59   1.0000      -0.343487        -9.3468
  60   1.0000      -0.342116        -9.3094
  61   1.0000      -0.336660        -9.1610
  62   1.0000      -0.333496        -9.0749
  63   1.0000      -0.332427        -9.0458
  64   1.0000      -0.330225        -8.9859
  65   1.0000      -0.327196        -8.9035
  66   1.0000      -0.324325        -8.8253
  67   1.0000      -0.320142        -8.7115
  68   1.0000      -0.313365        -8.5271
  69   1.0000      -0.309806        -8.4303
  70   1.0000      -0.308343        -8.3904
  71   1.0000      -0.305958        -8.3255
  72   1.0000      -0.305134        -8.3031
  73   1.0000      -0.300911        -8.1882
  74   1.0000      -0.298863        -8.1325
  75   1.0000      -0.296820        -8.0769
  76   1.0000      -0.291415        -7.9298
  77   1.0000      -0.290666        -7.9094
  78   1.0000      -0.287589        -7.8257
  79   1.0000      -0.285590        -7.7713
  80   1.0000      -0.284825        -7.7505
  81   1.0000      -0.281940        -7.6720
  82   1.0000      -0.280310        -7.6276
  83   1.0000      -0.278890        -7.5890
  84   1.0000      -0.278604        -7.5812
  85   1.0000      -0.277521        -7.5517
  86   1.0000      -0.276775        -7.5314
  87   1.0000      -0.270342        -7.3564
  88   1.0000      -0.269943        -7.3455
  89   1.0000      -0.268903        -7.3172
  90   1.0000      -0.267944        -7.2911
  91   1.0000      -0.266842        -7.2611
  92   1.0000      -0.265076        -7.2131
  93   1.0000      -0.264147        -7.1878
  94   1.0000      -0.262226        -7.1355
  95   1.0000      -0.261286        -7.1099
  96   1.0000      -0.258576        -7.0362
  97   1.0000      -0.255340        -6.9481
  98   1.0000      -0.254710        -6.9310
  99   1.0000      -0.253428        -6.8961
 100   1.0000      -0.250721        -6.8225
 101   1.0000      -0.249762        -6.7964
 102   1.0000      -0.247655        -6.7390
 103   1.0000      -0.244802        -6.6614
 104   1.0000      -0.243018        -6.6129
 105   1.0000      -0.237931        -6.4744
 106   1.0000      -0.234886        -6.3916
 107   1.0000      -0.221262        -6.0208
 108   1.0000      -0.210279        -5.7220
 109   0.0000      -0.199553        -5.4301
 110   0.0000      -0.145788        -3.9671
 111   0.0000      -0.141254        -3.8437
 112   0.0000      -0.119848        -3.2612
 113   0.0000      -0.108927        -2.9641

                 SPIN DOWN ORBITALS
  NO   OCC          E(Eh)            E(eV)
   0   1.0000    -255.618340     -6955.7287
   1   1.0000     -29.841808      -812.0369
   2   1.0000     -25.692082      -699.1171
   3   1.0000     -25.690326      -699.0693
   4   1.0000     -25.688234      -699.0124
   5   1.0000      -4.122206      -112.1709
   6   1.0000      -4.118031      -112.0573
   7   1.0000      -4.111914      -111.8909
   8   1.0000      -4.111461      -111.8785
   9   1.0000      -4.111101      -111.8687
  10   1.0000      -4.110753      -111.8593
  11   1.0000      -4.109828      -111.8341
  12   1.0000      -4.108723      -111.8040
  13   1.0000      -4.108526      -111.7987
  14   1.0000      -4.098387      -111.5228
  15   1.0000      -3.327950       -90.5581
  16   1.0000      -2.312322       -62.9215
  17   1.0000      -2.311113       -62.8886
  18   1.0000      -2.308034       -62.8048
  19   1.0000      -2.305332       -62.7313
  20   1.0000      -2.305249       -62.7290
  21   1.0000      -2.304207       -62.7007
  22   1.0000      -2.303648       -62.6854
  23   1.0000      -2.302361       -62.6504
  24   1.0000      -2.301171       -62.6180
  25   1.0000      -2.300212       -62.5920
  26   1.0000      -2.298275       -62.5393
  27   1.0000      -2.298089       -62.5342
  28   1.0000      -2.297616       -62.5213
  29   1.0000      -2.296838       -62.5001
  30   1.0000      -2.296476       -62.4903
  31   1.0000      -2.296217       -62.4832
  32   1.0000      -2.295662       -62.4681
  33   1.0000      -2.295313       -62.4586
  34   1.0000      -2.294723       -62.4426
  35   1.0000      -2.294129       -62.4264
  36   1.0000      -2.293728       -62.4155
  37   1.0000      -2.292388       -62.3791
  38   1.0000      -2.291494       -62.3547
  39   1.0000      -2.289670       -62.3051
  40   1.0000      -2.288823       -62.2820
  41   1.0000      -2.288774       -62.2807
  42   1.0000      -2.287346       -62.2418
  43   1.0000      -2.286821       -62.2276
  44   1.0000      -2.284426       -62.1624
  45   1.0000      -2.277231       -61.9666
  46   1.0000      -2.097076       -57.0643
  47   1.0000      -2.096919       -57.0601
  48   1.0000      -2.093926       -56.9786
  49   1.0000      -0.409800       -11.1512
  50   1.0000      -0.390511       -10.6263
  51   1.0000      -0.383242       -10.4285
  52   1.0000      -0.376484       -10.2447
  53   1.0000      -0.369766       -10.0619
  54   1.0000      -0.363693        -9.8966
  55   1.0000      -0.355127        -9.6635
  56   1.0000      -0.349856        -9.5201
  57   1.0000      -0.347462        -9.4549
  58   1.0000      -0.343761        -9.3542
  59   1.0000      -0.340245        -9.2585
  60   1.0000      -0.335571        -9.1314
  61   1.0000      -0.334059        -9.0902
  62   1.0000      -0.330392        -8.9904
  63   1.0000      -0.326257        -8.8779
  64   1.0000      -0.324774        -8.8375
  65   1.0000      -0.324266        -8.8237
  66   1.0000      -0.320953        -8.7336
  67   1.0000      -0.320167        -8.7122
  68   1.0000      -0.309470        -8.4211
  69   1.0000      -0.308107        -8.3840
  70   1.0000      -0.305948        -8.3253
  71   1.0000      -0.303782        -8.2663
  72   1.0000      -0.302869        -8.2415
  73   1.0000      -0.300406        -8.1745
  74   1.0000      -0.297435        -8.0936
  75   1.0000      -0.296281        -8.0622
  76   1.0000      -0.291693        -7.9374
  77   1.0000      -0.290315        -7.8999
  78   1.0000      -0.287058        -7.8112
  79   1.0000      -0.285000        -7.7552
  80   1.0000      -0.283734        -7.7208
  81   1.0000      -0.281499        -7.6600
  82   1.0000      -0.280239        -7.6257
  83   1.0000      -0.279701        -7.6111
  84   1.0000      -0.279464        -7.6046
  85   1.0000      -0.276156        -7.5146
  86   1.0000      -0.275404        -7.4941
  87   1.0000      -0.270588        -7.3631
  88   1.0000      -0.269604        -7.3363
  89   1.0000      -0.268020        -7.2932
  90   1.0000      -0.265947        -7.2368
  91   1.0000      -0.264963        -7.2100
  92   1.0000      -0.262709        -7.1487
  93   1.0000      -0.261130        -7.1057
  94   1.0000      -0.260523        -7.0892
  95   1.0000      -0.257654        -7.0111
  96   1.0000      -0.256234        -6.9725
  97   1.0000      -0.255413        -6.9502
  98   1.0000      -0.250870        -6.8265
  99   1.0000      -0.250578        -6.8186
 100   1.0000      -0.246701        -6.7131
 101   1.0000      -0.237043        -6.4503
 102   1.0000      -0.231137        -6.2896
 103   1.0000      -0.225029        -6.1233
 104   1.0000      -0.218157        -5.9363
 105   1.0000      -0.177797        -4.8381
 106   1.0000      -0.169692        -4.6176
 107   0.0000      -0.149182        -4.0594
 108   0.0000      -0.141653        -3.8546
 109   0.0000      -0.129167        -3.5148
 110   0.0000      -0.127106        -3.4587
 111   0.0000      -0.124416        -3.3855

MULLIKEN ATOMIC CHARGES AND SPIN POPULATIONS
--------------------------------------------
   0 Au:    0.316413   -0.170606
   1 Au:   -0.056676    0.074435
   2 Au:    0.164600   -0.052299
   3 Au:    0.037607   -0.105938
   4 Au:    0.326631   -0.361508
   5 Au:   -0.178053   -0.027936
   6 Au:    0.305299   -0.133486
   7 Au:    0.055926   -0.147003
   8 Au:    0.038153   -0.091138
   9 Au:    0.160620   -0.077900
  10 Fe:   -1.170521    3.093378
Sum of atomic charges         :    0.0000000

LOEWDIN ATOMIC CHARGES AND SPIN POPULATIONS
-------------------------------------------
   0 Au:    0.079375   -0.115407
   1 Au:   -0.001658    0.011316
   2 Au:    0.101106   -0.105681
   3 Au:   -0.019773   -0.092727
   4 Au:    0.055155   -0.306866
   5 Au:   -0.055343   -0.069684
   6 Au:    0.083667   -0.109021
   7 Au:    0.007783   -0.106000
   8 Au:   -0.023523   -0.084802
   9 Au:    0.092930   -0.122203
  10 Fe:   -0.319720    3.101076

  Mayer bond orders larger than 0.100000
B(  0-Au,  1-Au) :   0.4138 B(  0-Au,  5-Au) :   0.5516 B(  1-Au,  5-Au) :   0.2478
B(  1-Au,  7-Au) :   0.5480 B(  1-Au, 10-Fe) :   0.5302 B(  2-Au,  3-Au) :   0.4705
B(  2-Au,  4-Au) :   0.1905 B(  2-Au, 10-Fe) :   0.5940 B(  3-Au,  6-Au) :   0.3719
B(  3-Au,  7-Au) :   0.1356 B(  3-Au,  8-Au) :   0.1533 B(  3-Au, 10-Fe) :   0.4704
B(  4-Au,  5-Au) :   0.4325 B(  4-Au,  9-Au) :   0.2191 B(  4-Au, 10-Fe) :   0.3457
B(  5-Au, 10-Fe) :   0.4491 B(  6-Au,  7-Au) :   0.3097 B(  6-Au,  8-Au) :   0.3688
B(  7-Au,  8-Au) :   0.1311 B(  7-Au, 10-Fe) :   0.5455 B(  8-Au,  9-Au) :   0.4442
B(  8-Au, 10-Fe) :   0.4986 B(  9-Au, 10-Fe) :   0.5970

FINAL SINGLE POINT ENERGY     -2622.106670349556

DIPOLE MOMENT
-------------
                                X             Y             Z
Electronic contribution:      6.12630       5.71289       5.97454
Nuclear contribution   :     -6.17836      -5.85356      -5.95145
                        -----------------------------------------
Total Dipole Moment    :     -0.05206      -0.14067       0.02309
                        -----------------------------------------
Magnitude (a.u.)       :      0.15176
Magnitude (Debye)      :      0.38575

Rotational constants in cm-1:     0.002114     0.001271     0.001021
Rotational constants in MHz :    63.362502    38.099468    30.596076

                             ****ORCA TERMINATED NORMALLY****
TOTAL RUN TIME: 0 days 0 hours 6 minutes 6 seconds 811 msec
