                         Program Version 5.0.3 -  RELEASE  -
|  1> !SC-NEVPT2 def2-TZVP def2-TZVP/C
|  2> !MOREAD RIJCOSX def2/J
|  3> %maxcore 4000
|  4> %moinp "casscf.gbw"
|  5> %pal nprocs 6 end
|  6>
|  7> %casscf
|  8>  mult 6,4
|  9>  bweight 1,1
| 10>  nroots 1,24
| 11>  nel 5
| 12>  norb 5
| 13>  ptsettings
| 14>   d4tpre 1e-14 # default = 1e-10
| 15>   d3tpre 1e-14
| 16>  end
| 17>  rel
| 18>    dosoc true
| 19>    gtensor true
| 20>  end
| 21> end
| 22>
| 23>
| 24> *xyzfile 0 6 pbe.xyz
| 25>
| 26>
| 27>                          ****END OF INPUT****

CARTESIAN COORDINATES (ANGSTROEM)
---------------------------------
  Au     8.363377   12.459108    9.178007
  Au     6.120781   11.454071    7.904882
  Au    10.118677   10.383272    9.996894
  Au     8.879110   10.455719    7.348401
  Au     4.372470    9.733273    6.773519
  Au     7.337697   10.006254   10.019089
  Au     6.150958    7.608004    9.823914
  Au     4.778887    7.071315    7.286099
  Au     9.235765    7.886203    6.909479
  Au     9.030549    7.850191    9.763662
  Au     7.180608    5.985305    7.772348
  Au     9.764492    5.578540    8.395821
  Mn     6.767799    8.825712    7.500948

 Total Charge           Charge          ....    0
 Multiplicity           Mult            ....    6
 Number of Electrons    NEL             ....  253
 Basis Dimension        Dim             ....  525

ORBITAL ENERGIES
----------------

  NO   OCC          E(Eh)            E(eV)
   0   2.0000    -240.549146     -6545.6750
   1   2.0000     -29.127376      -792.5962
   2   2.0000     -24.832255      -675.7200
   3   2.0000     -24.831972      -675.7123
   4   2.0000     -24.831504      -675.6996
   5   2.0000      -4.723569      -128.5348
   6   2.0000      -4.718238      -128.3898
   7   2.0000      -4.718010      -128.3836
   8   2.0000      -4.717124      -128.3595
   9   2.0000      -4.715389      -128.3123
  10   2.0000      -4.713452      -128.2596
  11   2.0000      -4.713387      -128.2578
  12   2.0000      -4.709181      -128.1433
  13   2.0000      -4.708955      -128.1372
  14   2.0000      -4.706950      -128.0826
  15   2.0000      -4.698581      -127.8549
  16   2.0000      -4.689974      -127.6207
  17   2.0000      -3.832317      -104.2826
  18   2.0000      -2.763852       -75.2082
  19   2.0000      -2.759791       -75.0977
  20   2.0000      -2.759581       -75.0920
  21   2.0000      -2.759068       -75.0781
  22   2.0000      -2.758776       -75.0701
  23   2.0000      -2.756457       -75.0070
  24   2.0000      -2.754888       -74.9643
  25   2.0000      -2.753584       -74.9288
  26   2.0000      -2.752791       -74.9073
  27   2.0000      -2.752354       -74.8954
  28   2.0000      -2.752285       -74.8935
  29   2.0000      -2.752010       -74.8860
  30   2.0000      -2.751430       -74.8702
  31   2.0000      -2.750900       -74.8558
  32   2.0000      -2.750316       -74.8399
  33   2.0000      -2.749896       -74.8285
  34   2.0000      -2.749315       -74.8127
  35   2.0000      -2.748274       -74.7843
  36   2.0000      -2.747846       -74.7727
  37   2.0000      -2.747323       -74.7585
  38   2.0000      -2.745744       -74.7155
  39   2.0000      -2.745372       -74.7054
  40   2.0000      -2.745080       -74.6974
  41   2.0000      -2.744658       -74.6859
  42   2.0000      -2.743650       -74.6585
  43   2.0000      -2.743300       -74.6490
  44   2.0000      -2.743115       -74.6440
  45   2.0000      -2.742488       -74.6269
  46   2.0000      -2.740405       -74.5702
  47   2.0000      -2.739869       -74.5556
  48   2.0000      -2.735649       -74.4408
  49   2.0000      -2.732539       -74.3562
  50   2.0000      -2.728952       -74.2586
  51   2.0000      -2.726966       -74.2045
  52   2.0000      -2.725916       -74.1760
  53   2.0000      -2.724012       -74.1241
  54   2.0000      -2.500134       -68.0321
  55   2.0000      -2.499329       -68.0102
  56   2.0000      -2.498711       -67.9934
  57   2.0000      -0.565905       -15.3991
  58   2.0000      -0.560375       -15.2486
  59   2.0000      -0.556975       -15.1561
  60   2.0000      -0.554047       -15.0764
  61   2.0000      -0.550733       -14.9862
  62   2.0000      -0.549618       -14.9559
  63   2.0000      -0.546701       -14.8765
  64   2.0000      -0.544771       -14.8240
  65   2.0000      -0.539832       -14.6896
  66   2.0000      -0.535696       -14.5770
  67   2.0000      -0.531453       -14.4616
  68   2.0000      -0.530438       -14.4340
  69   2.0000      -0.526655       -14.3310
  70   2.0000      -0.524927       -14.2840
  71   2.0000      -0.521883       -14.2012
  72   2.0000      -0.516844       -14.0640
  73   2.0000      -0.515279       -14.0215
  74   2.0000      -0.511782       -13.9263
  75   2.0000      -0.509067       -13.8524
  76   2.0000      -0.504840       -13.7374
  77   2.0000      -0.502127       -13.6636
  78   2.0000      -0.500617       -13.6225
  79   2.0000      -0.496411       -13.5080
  80   2.0000      -0.493353       -13.4248
  81   2.0000      -0.491411       -13.3720
  82   2.0000      -0.488016       -13.2796
  83   2.0000      -0.485013       -13.1979
  84   2.0000      -0.481568       -13.1041
  85   2.0000      -0.477274       -12.9873
  86   2.0000      -0.475219       -12.9314
  87   2.0000      -0.471315       -12.8251
  88   2.0000      -0.470681       -12.8079
  89   2.0000      -0.466599       -12.6968
  90   2.0000      -0.465126       -12.6567
  91   2.0000      -0.464601       -12.6424
  92   2.0000      -0.460803       -12.5391
  93   2.0000      -0.457477       -12.4486
  94   2.0000      -0.454887       -12.3781
  95   2.0000      -0.453699       -12.3458
  96   2.0000      -0.451974       -12.2988
  97   2.0000      -0.449814       -12.2401
  98   2.0000      -0.448702       -12.2098
  99   2.0000      -0.445982       -12.1358
 100   2.0000      -0.445633       -12.1263
 101   2.0000      -0.442573       -12.0430
 102   2.0000      -0.441224       -12.0063
 103   2.0000      -0.439904       -11.9704
 104   2.0000      -0.435376       -11.8472
 105   2.0000      -0.434456       -11.8221
 106   2.0000      -0.432651       -11.7730
 107   2.0000      -0.431626       -11.7451
 108   2.0000      -0.429880       -11.6976
 109   2.0000      -0.427680       -11.6378
 110   2.0000      -0.423197       -11.5158
 111   2.0000      -0.421267       -11.4633
 112   2.0000      -0.418296       -11.3824
 113   2.0000      -0.415113       -11.2958
 114   2.0000      -0.408001       -11.1023
 115   2.0000      -0.402842       -10.9619
 116   2.0000      -0.395082       -10.7507
 117   2.0000      -0.393763       -10.7148
 118   2.0000      -0.372637       -10.1400
 119   2.0000      -0.352635        -9.5957
 120   2.0000      -0.295137        -8.0311
 121   2.0000      -0.254087        -6.9141
 122   2.0000      -0.247818        -6.7435
 123   2.0000      -0.226976        -6.1763
 124   1.0000      -0.148131        -4.0308
 125   1.0000      -0.151415        -4.1202
 126   1.0000      -0.155068        -4.2196
 127   1.0000      -0.149097        -4.0571
 128   1.0000      -0.149219        -4.0604
 129   0.0000      -0.021688        -0.5902
 130   0.0000      -0.017621        -0.4795
 131   0.0000      -0.003450        -0.0939
 132   0.0000       0.003110         0.0846
 133   0.0000       0.005220         0.1420

MULLIKEN ATOMIC CHARGES AND SPIN DENSITIES
------------------------------------------
   0 Au:    0.445663    0.003114
   1 Au:   -0.047656    0.008087
   2 Au:    0.179392    0.003030
   3 Au:   -0.086414    0.009906
   4 Au:    0.084926    0.012019
   5 Au:   -0.305686    0.006360
   6 Au:    0.328629    0.008452
   7 Au:    0.251096    0.009464
   8 Au:    0.167067    0.009248
   9 Au:   -0.417389    0.003686
  10 Au:   -0.175870    0.006780
  11 Au:    0.424599    0.002765
  12 Mn:   -0.848357    3.917089
Sum of atomic charges       :    0.0000000

LOEWDIN ATOMIC CHARGES AND SPIN DENSITIES
-----------------------------------------
   0 Au:    0.099122    0.003801
   1 Au:   -0.019835    0.012792
   2 Au:    0.050630    0.003426
   3 Au:   -0.080633    0.014156
   4 Au:    0.024615    0.016123
   5 Au:   -0.128229    0.010180
   6 Au:    0.079362    0.012562
   7 Au:    0.029308    0.014184
   8 Au:   -0.007735    0.013765
   9 Au:   -0.156284    0.005409
  10 Au:   -0.083225    0.009987
  11 Au:    0.160102    0.003543
  12 Mn:    0.032802    3.880072

  Mayer bond orders larger than 0.100000
B(  0-Au,  1-Au) :   0.2973 B(  0-Au,  2-Au) :   0.1706 B(  0-Au,  3-Au) :   0.2288
B(  0-Au,  5-Au) :   0.2799 B(  1-Au,  3-Au) :   0.1369 B(  1-Au,  4-Au) :   0.3282
B(  1-Au,  5-Au) :   0.2155 B(  1-Au, 12-Mn) :   0.3977 B(  2-Au,  3-Au) :   0.1598
B(  2-Au,  5-Au) :   0.2801 B(  2-Au,  9-Au) :   0.4213 B(  3-Au,  5-Au) :   0.2004
B(  3-Au,  8-Au) :   0.4534 B(  3-Au, 12-Mn) :   0.5257 B(  4-Au,  7-Au) :   0.1994
B(  4-Au, 12-Mn) :   0.5040 B(  5-Au,  6-Au) :   0.4617 B(  5-Au,  9-Au) :   0.3885
B(  5-Au, 12-Mn) :   0.3221 B(  6-Au,  7-Au) :   0.1059 B(  6-Au,  9-Au) :   0.1651
B(  6-Au, 10-Au) :   0.1275 B(  6-Au, 12-Mn) :   0.3391 B(  7-Au, 10-Au) :   0.4576
B(  7-Au, 12-Mn) :   0.4335 B(  8-Au,  9-Au) :   0.2150 B(  8-Au, 10-Au) :   0.1764
B(  8-Au, 11-Au) :   0.2283 B(  8-Au, 12-Mn) :   0.4768 B(  9-Au, 10-Au) :   0.2275
B(  9-Au, 11-Au) :   0.3198 B(  9-Au, 12-Mn) :   0.1911 B( 10-Au, 11-Au) :   0.4056
B( 10-Au, 12-Mn) :   0.3239

FINAL SINGLE POINT ENERGY     -2773.513589327857

DIPOLE MOMENT
-------------
                                X             Y             Z
Electronic contribution:     30.60798       1.46175      33.90148
Nuclear contribution   :    -30.68193      -1.70608     -33.83800
                        -----------------------------------------
Total Dipole Moment    :     -0.07395      -0.24433       0.06347
                        -----------------------------------------
Magnitude (a.u.)       :      0.26305
Magnitude (Debye)      :      0.66861

Rotational constants in cm-1:     0.001474     0.001283     0.000877
Rotational constants in MHz :    44.192498    38.467843    26.276889

                             ****ORCA TERMINATED NORMALLY****
TOTAL RUN TIME: 0 days 1 hours 15 minutes 54 seconds 99 msec
