                         Program Version 5.0.3 -  RELEASE  -
|  1> !CASSCF def2-TZVP def2-TZVP/C
|  2> !MOREAD RIJCOSX
|  3> %maxcore 6000
|  4> %moinp "pbe.qro"
|  5> %pal nprocs 6 end
|  6>
|  7> %casscf
|  8>  mult 6,4
|  9>  bweight 1,1
| 10>  nroots 1,24
| 11>  nel 5
| 12>  norb 5
| 13> end
| 14>
| 15>
| 16> *xyzfile 0 6 pbe.xyz
| 17>
| 18>
| 19>                          ****END OF INPUT****

CARTESIAN COORDINATES (ANGSTROEM)
---------------------------------
  Au     7.083788    5.157059    6.450680
  Au     5.692239    5.972469    8.700247
  Au     7.376599    7.939765   10.143253
  Au     9.724622    8.247929    8.712807
  Au     9.172443   10.053047    6.684847
  Au     8.134687   10.533115    9.264112
  Au     8.866438    7.327652    6.185253
  Au     4.673203    7.635696   10.664003
  Au     5.460162    9.992867    9.446571
  Au     3.820993   10.804016    7.330966
  Au     3.841824    8.106071    8.065801
  Au     4.921930    8.973209    5.594891
  Au     4.487359    6.264933    6.148380
  Au     7.426942    9.704173    4.614167
  Au     6.552371   10.879947    6.986479
  Au     6.638301    7.093039    4.521439
  Mn     8.326718    6.069170    8.537417

 Total Charge           Charge          ....    0
 Multiplicity           Mult            ....    6
 Number of Electrons    NEL             ....  329
 Basis Dimension        Dim             ....  685

ORBITAL ENERGIES
----------------

  NO   OCC          E(Eh)            E(eV)
   0   2.0000    -240.564304     -6546.0875
   1   2.0000     -29.144021      -793.0491
   2   2.0000     -24.848401      -676.1594
   3   2.0000     -24.847979      -676.1479
   4   2.0000     -24.847888      -676.1454
   5   2.0000      -4.721570      -128.4805
   6   2.0000      -4.721546      -128.4798
   7   2.0000      -4.718072      -128.3853
   8   2.0000      -4.717991      -128.3831
   9   2.0000      -4.712906      -128.2447
  10   2.0000      -4.711719      -128.2124
  11   2.0000      -4.711171      -128.1975
  12   2.0000      -4.711075      -128.1949
  13   2.0000      -4.711030      -128.1936
  14   2.0000      -4.710260      -128.1727
  15   2.0000      -4.710130      -128.1691
  16   2.0000      -4.705165      -128.0341
  17   2.0000      -4.705146      -128.0335
  18   2.0000      -4.703021      -127.9757
  19   2.0000      -4.702110      -127.9509
  20   2.0000      -4.702097      -127.9506
  21   2.0000      -3.847818      -104.7045
  22   2.0000      -2.760875       -75.1272
  23   2.0000      -2.760801       -75.1252
  24   2.0000      -2.758176       -75.0538
  25   2.0000      -2.757887       -75.0459
  26   2.0000      -2.756235       -75.0010
  27   2.0000      -2.755785       -74.9887
  28   2.0000      -2.755610       -74.9840
  29   2.0000      -2.754833       -74.9628
  30   2.0000      -2.754394       -74.9509
  31   2.0000      -2.753739       -74.9331
  32   2.0000      -2.752530       -74.9002
  33   2.0000      -2.752474       -74.8986
  34   2.0000      -2.751916       -74.8834
  35   2.0000      -2.751699       -74.8775
  36   2.0000      -2.750233       -74.8376
  37   2.0000      -2.750085       -74.8336
  38   2.0000      -2.749617       -74.8209
  39   2.0000      -2.749169       -74.8087
  40   2.0000      -2.748526       -74.7912
  41   2.0000      -2.748006       -74.7770
  42   2.0000      -2.747330       -74.7586
  43   2.0000      -2.747166       -74.7542
  44   2.0000      -2.746716       -74.7419
  45   2.0000      -2.746555       -74.7376
  46   2.0000      -2.746221       -74.7285
  47   2.0000      -2.746109       -74.7254
  48   2.0000      -2.745882       -74.7192
  49   2.0000      -2.744806       -74.6900
  50   2.0000      -2.744462       -74.6806
  51   2.0000      -2.744025       -74.6687
  52   2.0000      -2.743702       -74.6599
  53   2.0000      -2.743290       -74.6487
  54   2.0000      -2.743267       -74.6481
  55   2.0000      -2.742730       -74.6335
  56   2.0000      -2.742176       -74.6184
  57   2.0000      -2.740036       -74.5602
  58   2.0000      -2.740033       -74.5601
  59   2.0000      -2.738967       -74.5311
  60   2.0000      -2.738857       -74.5281
  61   2.0000      -2.738368       -74.5148
  62   2.0000      -2.737710       -74.4969
  63   2.0000      -2.737543       -74.4923
  64   2.0000      -2.737289       -74.4854
  65   2.0000      -2.736905       -74.4750
  66   2.0000      -2.736790       -74.4718
  67   2.0000      -2.736634       -74.4676
  68   2.0000      -2.735985       -74.4499
  69   2.0000      -2.735743       -74.4433
  70   2.0000      -2.514517       -68.4235
  71   2.0000      -2.513076       -68.3843
  72   2.0000      -2.512750       -68.3754
  73   2.0000      -0.558748       -15.2043
  74   2.0000      -0.557153       -15.1609
  75   2.0000      -0.555742       -15.1225
  76   2.0000      -0.552847       -15.0437
  77   2.0000      -0.549513       -14.9530
  78   2.0000      -0.548216       -14.9177
  79   2.0000      -0.544406       -14.8140
  80   2.0000      -0.543467       -14.7885
  81   2.0000      -0.542893       -14.7729
  82   2.0000      -0.541749       -14.7417
  83   2.0000      -0.539424       -14.6785
  84   2.0000      -0.538182       -14.6447
  85   2.0000      -0.534919       -14.5559
  86   2.0000      -0.534432       -14.5426
  87   2.0000      -0.533628       -14.5207
  88   2.0000      -0.533536       -14.5183
  89   2.0000      -0.531063       -14.4510
  90   2.0000      -0.530548       -14.4369
  91   2.0000      -0.527994       -14.3674
  92   2.0000      -0.527662       -14.3584
  93   2.0000      -0.526697       -14.3322
  94   2.0000      -0.526308       -14.3216
  95   2.0000      -0.521399       -14.1880
  96   2.0000      -0.520478       -14.1629
  97   2.0000      -0.520074       -14.1519
  98   2.0000      -0.518242       -14.1021
  99   2.0000      -0.515418       -14.0252
 100   2.0000      -0.514178       -13.9915
 101   2.0000      -0.511277       -13.9126
 102   2.0000      -0.510928       -13.9031
 103   2.0000      -0.501428       -13.6446
 104   2.0000      -0.496316       -13.5054
 105   2.0000      -0.495481       -13.4827
 106   2.0000      -0.494916       -13.4673
 107   2.0000      -0.494412       -13.4536
 108   2.0000      -0.491322       -13.3696
 109   2.0000      -0.489017       -13.3068
 110   2.0000      -0.485320       -13.2062
 111   2.0000      -0.481994       -13.1157
 112   2.0000      -0.480293       -13.0694
 113   2.0000      -0.478432       -13.0188
 114   2.0000      -0.476715       -12.9721
 115   2.0000      -0.474382       -12.9086
 116   2.0000      -0.468843       -12.7579
 117   2.0000      -0.465161       -12.6577
 118   2.0000      -0.463263       -12.6060
 119   2.0000      -0.461412       -12.5557
 120   2.0000      -0.460639       -12.5346
 121   2.0000      -0.460554       -12.5323
 122   2.0000      -0.455794       -12.4028
 123   2.0000      -0.454256       -12.3609
 124   2.0000      -0.452024       -12.3002
 125   2.0000      -0.450722       -12.2648
 126   2.0000      -0.447973       -12.1900
 127   2.0000      -0.444039       -12.0829
 128   2.0000      -0.441562       -12.0155
 129   2.0000      -0.441044       -12.0014
 130   2.0000      -0.439472       -11.9586
 131   2.0000      -0.438638       -11.9359
 132   2.0000      -0.436494       -11.8776
 133   2.0000      -0.436166       -11.8687
 134   2.0000      -0.434310       -11.8182
 135   2.0000      -0.434005       -11.8099
 136   2.0000      -0.432832       -11.7780
 137   2.0000      -0.428029       -11.6473
 138   2.0000      -0.426475       -11.6050
 139   2.0000      -0.425386       -11.5753
 140   2.0000      -0.424741       -11.5578
 141   2.0000      -0.422109       -11.4862
 142   2.0000      -0.420768       -11.4497
 143   2.0000      -0.420450       -11.4410
 144   2.0000      -0.418047       -11.3756
 145   2.0000      -0.415349       -11.3022
 146   2.0000      -0.414304       -11.2738
 147   2.0000      -0.412868       -11.2347
 148   2.0000      -0.410978       -11.1833
 149   2.0000      -0.406377       -11.0581
 150   2.0000      -0.397983       -10.8297
 151   2.0000      -0.393469       -10.7068
 152   2.0000      -0.387748       -10.5512
 153   2.0000      -0.386102       -10.5064
 154   2.0000      -0.372192       -10.1279
 155   2.0000      -0.369621       -10.0579
 156   2.0000      -0.363092        -9.8802
 157   2.0000      -0.268222        -7.2987
 158   2.0000      -0.245766        -6.6876
 159   2.0000      -0.245721        -6.6864
 160   2.0000      -0.231190        -6.2910
 161   2.0000      -0.230875        -6.2824
 162   1.0000      -0.169774        -4.6198
 163   1.0000      -0.164467        -4.4754
 164   1.0000      -0.168732        -4.5914
 165   1.0000      -0.167174        -4.5490
 166   1.0000      -0.165068        -4.4917
 167   0.0000      -0.025789        -0.7018
 168   0.0000      -0.013924        -0.3789
 169   0.0000      -0.010508        -0.2859
 170   0.0000      -0.008524        -0.2320
 171   0.0000      -0.004605        -0.1253

MULLIKEN ATOMIC CHARGES AND SPIN DENSITIES
------------------------------------------
   0 Au:    0.247076    0.010485
   1 Au:   -0.312736    0.009393
   2 Au:   -0.305399    0.009372
   3 Au:    0.245606    0.010481
   4 Au:   -0.018913    0.001351
   5 Au:    0.121034    0.000845
   6 Au:   -0.241117    0.007094
   7 Au:    0.463455    0.001334
   8 Au:   -0.224524    0.001255
   9 Au:    0.550935    0.000082
  10 Au:   -0.216407    0.001250
  11 Au:   -0.430979    0.000348
  12 Au:    0.121682    0.000847
  13 Au:    0.220890    0.000904
  14 Au:   -0.426274    0.000348
  15 Au:   -0.019794    0.001349
  16 Mn:    0.225463    3.943260
Sum of atomic charges       :    0.0000000

LOEWDIN ATOMIC CHARGES AND SPIN DENSITIES
-----------------------------------------
   0 Au:   -0.034368    0.015352
   1 Au:   -0.131608    0.014197
   2 Au:   -0.130692    0.014167
   3 Au:   -0.034474    0.015350
   4 Au:   -0.026597    0.001549
   5 Au:    0.015453    0.001315
   6 Au:   -0.109072    0.011868
   7 Au:    0.140932    0.001719
   8 Au:   -0.093612    0.001268
   9 Au:    0.193083    0.000237
  10 Au:   -0.092682    0.001269
  11 Au:   -0.101719    0.000539
  12 Au:    0.015836    0.001317
  13 Au:    0.051210    0.001086
  14 Au:   -0.101380    0.000539
  15 Au:   -0.026829    0.001548
  16 Mn:    0.466519    3.916681

  Mayer bond orders larger than 0.100000
B(  0-Au,  1-Au) :   0.2647 B(  0-Au,  6-Au) :   0.2470 B(  0-Au, 12-Au) :   0.1625
B(  0-Au, 15-Au) :   0.2417 B(  0-Au, 16-Mn) :   0.3945 B(  1-Au,  2-Au) :   0.1996
B(  1-Au,  7-Au) :   0.2540 B(  1-Au, 10-Au) :   0.3088 B(  1-Au, 12-Au) :   0.2534
B(  1-Au, 16-Mn) :   0.4734 B(  2-Au,  3-Au) :   0.2658 B(  2-Au,  5-Au) :   0.2511
B(  2-Au,  7-Au) :   0.2525 B(  2-Au,  8-Au) :   0.3092 B(  2-Au, 16-Mn) :   0.4725
B(  3-Au,  4-Au) :   0.2416 B(  3-Au,  5-Au) :   0.1635 B(  3-Au,  6-Au) :   0.2454
B(  3-Au, 16-Mn) :   0.3951 B(  4-Au,  5-Au) :   0.1995 B(  4-Au,  6-Au) :   0.3311
B(  4-Au, 13-Au) :   0.2766 B(  4-Au, 14-Au) :   0.3843 B(  5-Au,  8-Au) :   0.3321
B(  5-Au, 14-Au) :   0.2714 B(  6-Au, 13-Au) :   0.1092 B(  6-Au, 15-Au) :   0.3294
B(  6-Au, 16-Mn) :   0.3356 B(  7-Au,  8-Au) :   0.2053 B(  7-Au, 10-Au) :   0.2036
B(  8-Au,  9-Au) :   0.1384 B(  8-Au, 10-Au) :   0.3679 B(  8-Au, 14-Au) :   0.2715
B(  9-Au, 10-Au) :   0.1384 B(  9-Au, 11-Au) :   0.2666 B(  9-Au, 14-Au) :   0.2651
B( 10-Au, 11-Au) :   0.2723 B( 10-Au, 12-Au) :   0.3308 B( 11-Au, 12-Au) :   0.2707
B( 11-Au, 13-Au) :   0.2702 B( 11-Au, 14-Au) :   0.3927 B( 11-Au, 15-Au) :   0.3858
B( 12-Au, 15-Au) :   0.2001 B( 13-Au, 14-Au) :   0.2694 B( 13-Au, 15-Au) :   0.2773

FINAL SINGLE POINT ENERGY     -3306.825199349909

DIPOLE MOMENT
-------------
                                X             Y             Z
Electronic contribution:    -67.19320      85.59724     -38.53196
Nuclear contribution   :     67.12857     -85.93754      39.07111
                        -----------------------------------------
Total Dipole Moment    :     -0.06463      -0.34030       0.53914
                        -----------------------------------------
Magnitude (a.u.)       :      0.64083
Magnitude (Debye)      :      1.62885

Rotational constants in cm-1:     0.000850     0.000819     0.000766
Rotational constants in MHz :    25.477592    24.542247    22.974616

                             ****ORCA TERMINATED NORMALLY****
TOTAL RUN TIME: 0 days 0 hours 21 minutes 25 seconds 898 msec
