                         Program Version 5.0.3 -  RELEASE  -
|  1> !CASSCF def2-TZVP def2-TZVP/C
|  2> !MOREAD RIJCOSX
|  3> %maxcore 6000
|  4> %moinp "pbe.qro"
|  5> %pal nprocs 2 end
|  6>
|  7> %casscf
|  8>  mult 5,3
|  9>  bweight 1,1
| 10>  nroots 5,45
| 11>  nel 6
| 12>  norb 5
| 13> end
| 14>
| 15>
| 16> *xyzfile 0 5 pbe.xyz
| 17>
| 18>
| 19>                          ****END OF INPUT****

CARTESIAN COORDINATES (ANGSTROEM)
---------------------------------
  Au     5.579424    7.471784   11.125606
  Au     9.502226    8.071671    5.793329
  Au     7.731477    4.698717    7.294677
  Au     4.883658    7.032808    8.502997
  Au     9.511052    9.497135    8.255395
  Au     9.368312    6.732360    8.225067
  Au     7.295367    5.866263    9.728241
  Au     7.084494    8.686610    9.187964
  Au     5.782392    8.962818    4.692164
  Au     7.172694    9.936223    6.732737
  Au     4.451290    6.769169    5.936810
  Au     7.801553    7.129650    3.976831
  Au     5.097980    6.671246    3.231487
  Au     6.441347    4.908036    4.987801
  Cr     7.038181    7.230568    6.645528

 Total Charge           Charge          ....    0
 Multiplicity           Mult            ....    5
 Number of Electrons    NEL             ....  290
 Basis Dimension        Dim             ....  605

ORBITAL ENERGIES
----------------

  NO   OCC          E(Eh)            E(eV)
   0   2.0000    -220.491785     -5999.8865
   1   2.0000     -26.328988      -716.4482
   2   2.0000     -22.263937      -605.8325
   3   2.0000     -22.260799      -605.7471
   4   2.0000     -22.249205      -605.4316
   5   2.0000      -4.720059      -128.4393
   6   2.0000      -4.714797      -128.2962
   7   2.0000      -4.712519      -128.2342
   8   2.0000      -4.711657      -128.2107
   9   2.0000      -4.711376      -128.2030
  10   2.0000      -4.708454      -128.1235
  11   2.0000      -4.707021      -128.0846
  12   2.0000      -4.706190      -128.0619
  13   2.0000      -4.705860      -128.0530
  14   2.0000      -4.704344      -128.0117
  15   2.0000      -4.703737      -127.9952
  16   2.0000      -4.703336      -127.9843
  17   2.0000      -4.701066      -127.9225
  18   2.0000      -4.699351      -127.8758
  19   2.0000      -3.383708       -92.0754
  20   2.0000      -2.762339       -75.1671
  21   2.0000      -2.756349       -75.0041
  22   2.0000      -2.755520       -74.9815
  23   2.0000      -2.754637       -74.9575
  24   2.0000      -2.752486       -74.8989
  25   2.0000      -2.752000       -74.8857
  26   2.0000      -2.750645       -74.8488
  27   2.0000      -2.750053       -74.8327
  28   2.0000      -2.749157       -74.8084
  29   2.0000      -2.748998       -74.8040
  30   2.0000      -2.748553       -74.7919
  31   2.0000      -2.748252       -74.7837
  32   2.0000      -2.747415       -74.7610
  33   2.0000      -2.746931       -74.7478
  34   2.0000      -2.746228       -74.7287
  35   2.0000      -2.745742       -74.7154
  36   2.0000      -2.745118       -74.6985
  37   2.0000      -2.744745       -74.6883
  38   2.0000      -2.744131       -74.6716
  39   2.0000      -2.743836       -74.6636
  40   2.0000      -2.743440       -74.6528
  41   2.0000      -2.742707       -74.6329
  42   2.0000      -2.742512       -74.6276
  43   2.0000      -2.741919       -74.6114
  44   2.0000      -2.741472       -74.5993
  45   2.0000      -2.741407       -74.5975
  46   2.0000      -2.740069       -74.5611
  47   2.0000      -2.739751       -74.5524
  48   2.0000      -2.739174       -74.5367
  49   2.0000      -2.738504       -74.5185
  50   2.0000      -2.738322       -74.5135
  51   2.0000      -2.738016       -74.5052
  52   2.0000      -2.737799       -74.4993
  53   2.0000      -2.737731       -74.4974
  54   2.0000      -2.735768       -74.4440
  55   2.0000      -2.735515       -74.4372
  56   2.0000      -2.735162       -74.4275
  57   2.0000      -2.734639       -74.4133
  58   2.0000      -2.734495       -74.4094
  59   2.0000      -2.733898       -74.3932
  60   2.0000      -2.733665       -74.3868
  61   2.0000      -2.732314       -74.3500
  62   2.0000      -2.149448       -58.4895
  63   2.0000      -2.147275       -58.4303
  64   2.0000      -2.137428       -58.1624
  65   2.0000      -0.570757       -15.5311
  66   2.0000      -0.557140       -15.1605
  67   2.0000      -0.553445       -15.0600
  68   2.0000      -0.547441       -14.8966
  69   2.0000      -0.545711       -14.8496
  70   2.0000      -0.542092       -14.7511
  71   2.0000      -0.538709       -14.6590
  72   2.0000      -0.538196       -14.6451
  73   2.0000      -0.535266       -14.5653
  74   2.0000      -0.531268       -14.4565
  75   2.0000      -0.529172       -14.3995
  76   2.0000      -0.528154       -14.3718
  77   2.0000      -0.527454       -14.3527
  78   2.0000      -0.525843       -14.3089
  79   2.0000      -0.524779       -14.2800
  80   2.0000      -0.521391       -14.1878
  81   2.0000      -0.520634       -14.1672
  82   2.0000      -0.516759       -14.0617
  83   2.0000      -0.516066       -14.0429
  84   2.0000      -0.512845       -13.9552
  85   2.0000      -0.507274       -13.8036
  86   2.0000      -0.505150       -13.7458
  87   2.0000      -0.502670       -13.6784
  88   2.0000      -0.498905       -13.5759
  89   2.0000      -0.497594       -13.5402
  90   2.0000      -0.494623       -13.4594
  91   2.0000      -0.493470       -13.4280
  92   2.0000      -0.488757       -13.2998
  93   2.0000      -0.487429       -13.2636
  94   2.0000      -0.484951       -13.1962
  95   2.0000      -0.480879       -13.0854
  96   2.0000      -0.478682       -13.0256
  97   2.0000      -0.478122       -13.0104
  98   2.0000      -0.476355       -12.9623
  99   2.0000      -0.474685       -12.9168
 100   2.0000      -0.473503       -12.8847
 101   2.0000      -0.468223       -12.7410
 102   2.0000      -0.467470       -12.7205
 103   2.0000      -0.465743       -12.6735
 104   2.0000      -0.464079       -12.6282
 105   2.0000      -0.462000       -12.5717
 106   2.0000      -0.459478       -12.5030
 107   2.0000      -0.457396       -12.4464
 108   2.0000      -0.456034       -12.4093
 109   2.0000      -0.455170       -12.3858
 110   2.0000      -0.451868       -12.2960
 111   2.0000      -0.449051       -12.2193
 112   2.0000      -0.446657       -12.1542
 113   2.0000      -0.445906       -12.1337
 114   2.0000      -0.444022       -12.0825
 115   2.0000      -0.442795       -12.0491
 116   2.0000      -0.439859       -11.9692
 117   2.0000      -0.437194       -11.8966
 118   2.0000      -0.436227       -11.8703
 119   2.0000      -0.434333       -11.8188
 120   2.0000      -0.433137       -11.7863
 121   2.0000      -0.432304       -11.7636
 122   2.0000      -0.429811       -11.6958
 123   2.0000      -0.428055       -11.6480
 124   2.0000      -0.425750       -11.5853
 125   2.0000      -0.423316       -11.5190
 126   2.0000      -0.421763       -11.4767
 127   2.0000      -0.420346       -11.4382
 128   2.0000      -0.415128       -11.2962
 129   2.0000      -0.412477       -11.2241
 130   2.0000      -0.409212       -11.1352
 131   2.0000      -0.407200       -11.0805
 132   2.0000      -0.398715       -10.8496
 133   2.0000      -0.394569       -10.7368
 134   2.0000      -0.387988       -10.5577
 135   2.0000      -0.382733       -10.4147
 136   2.0000      -0.378168       -10.2905
 137   2.0000      -0.349824        -9.5192
 138   2.0000      -0.315659        -8.5895
 139   2.0000      -0.258081        -7.0227
 140   2.0000      -0.246718        -6.7135
 141   2.0000      -0.231223        -6.2919
 142   1.2000      -0.079647        -2.1673
 143   1.2000      -0.071308        -1.9404
 144   1.2000      -0.146202        -3.9784
 145   1.2000      -0.118690        -3.2297
 146   1.2000      -0.080109        -2.1799
 147   0.0000      -0.019194        -0.5223
 148   0.0000      -0.010698        -0.2911
 149   0.0000      -0.003942        -0.1073
 150   0.0000       0.000440         0.0120
 151   0.0000       0.009002         0.2450

MULLIKEN ATOMIC CHARGES AND SPIN DENSITIES
------------------------------------------
   0 Au:    0.513039    0.010669
   1 Au:    0.277943    0.055313
   2 Au:    0.339115    0.045636
   3 Au:    0.017117    0.033276
   4 Au:    0.479293    0.022917
   5 Au:    0.307498    0.035594
   6 Au:    0.274441    0.005792
   7 Au:   -0.217715    0.030145
   8 Au:    0.379550    0.014732
   9 Au:    0.398746    0.064876
  10 Au:    0.185645    0.046666
  11 Au:    0.307132    0.013463
  12 Au:    0.362479    0.012671
  13 Au:    0.292310    0.060484
  14 Cr:   -3.916592    2.547767
Sum of atomic charges       :    0.0000000

LOEWDIN ATOMIC CHARGES AND SPIN DENSITIES
-----------------------------------------
   0 Au:    0.224166    0.014586
   1 Au:    0.090724    0.054277
   2 Au:    0.125977    0.059436
   3 Au:    0.029188    0.048132
   4 Au:    0.179549    0.049315
   5 Au:    0.045419    0.045089
   6 Au:    0.015443    0.013258
   7 Au:   -0.060304    0.042715
   8 Au:    0.061733    0.034254
   9 Au:    0.104342    0.060506
  10 Au:    0.031706    0.061953
  11 Au:    0.057820    0.031183
  12 Au:    0.141963    0.017990
  13 Au:    0.068199    0.070257
  14 Cr:   -1.115925    2.397049

  Mayer bond orders larger than 0.100000
B(  0-Au,  3-Au) :   0.2942 B(  0-Au,  6-Au) :   0.2318 B(  0-Au,  7-Au) :   0.3698
B(  1-Au,  4-Au) :   0.1067 B(  1-Au,  5-Au) :   0.1175 B(  1-Au, 11-Au) :   0.3110
B(  1-Au, 14-Cr) :   0.5137 B(  2-Au,  5-Au) :   0.2720 B(  2-Au,  6-Au) :   0.2060
B(  2-Au, 13-Au) :   0.2152 B(  2-Au, 14-Cr) :   0.3785 B(  3-Au,  6-Au) :   0.1341
B(  3-Au,  7-Au) :   0.2730 B(  3-Au, 10-Au) :   0.4222 B(  3-Au, 14-Cr) :   0.4676
B(  4-Au,  5-Au) :   0.1416 B(  4-Au,  7-Au) :   0.3174 B(  4-Au, 14-Cr) :   0.3269
B(  5-Au,  6-Au) :   0.2619 B(  5-Au, 14-Cr) :   0.3139 B(  6-Au,  7-Au) :   0.1931
B(  6-Au, 14-Cr) :   0.3065 B(  7-Au,  9-Au) :   0.2422 B(  7-Au, 14-Cr) :   0.2864
B(  8-Au,  9-Au) :   0.2248 B(  8-Au, 10-Au) :   0.1175 B(  8-Au, 11-Au) :   0.1849
B(  8-Au, 12-Au) :   0.2095 B(  8-Au, 14-Cr) :   0.3108 B(  9-Au, 14-Cr) :   0.4217
B( 10-Au, 12-Au) :   0.2017 B( 10-Au, 14-Cr) :   0.4336 B( 11-Au, 12-Au) :   0.1775
B( 11-Au, 13-Au) :   0.1832 B( 11-Au, 14-Cr) :   0.2809 B( 12-Au, 13-Au) :   0.1617
B( 12-Au, 14-Cr) :   0.3147 B( 13-Au, 14-Cr) :   0.3936

FINAL SINGLE POINT ENERGY     -2930.505716449830

DIPOLE MOMENT
-------------
                                X             Y             Z
Electronic contribution:     -1.94053       3.34216      12.18310
Nuclear contribution   :      2.09065      -3.03450     -11.65393
                        -----------------------------------------
Total Dipole Moment    :      0.15012       0.30766       0.52917
                        -----------------------------------------
Magnitude (a.u.)       :      0.63025
Magnitude (Debye)      :      1.60197

Rotational constants in cm-1:     0.001245     0.000853     0.000762
Rotational constants in MHz :    37.315197    25.579018    22.851191

                             ****ORCA TERMINATED NORMALLY****
TOTAL RUN TIME: 0 days 1 hours 55 minutes 50 seconds 937 msec
