                         Program Version 5.0.3 -  RELEASE  -
|  1> !RI-B2PLYP def2-TZVP def2-TZVP/C
|  2> !RIJCOSX VERYSLOWCONV
|  3>
|  4> %scf
|  5>   AutoTRAHIter 200
|  6>   maxiter 400
|  7> end
|  8>
|  9>
| 10> %pal nprocs 6 end
| 11>
| 12> *xyzfile 0 5 pbe.xyz
| 13>
| 14> $new_job
| 15>
| 16> !RI-B2PLYP def2-TZVP def2-TZVP/C
| 17> !RIJCOSX VERYSLOWCONV
| 18>
| 19> %scf
| 20>   AutoTRAHIter 200
| 21>   maxiter 400
| 22> end
| 23>
| 24>
| 25> %pal nprocs 6 end
| 26>
| 27> *xyzfile 0 3 pbe.xyz
| 28>
| 29>
| 30>
| 31>
| 32>
| 33>                          ****END OF INPUT****
 Total Charge           Charge          ....    0
 Multiplicity           Mult            ....    5
 Number of Electrons    NEL             ....  216
MP2 TOTAL ENERGY:    -2619.325029953 Eh
FINAL SINGLE POINT ENERGY     -2619.325029952995

CARTESIAN COORDINATES (ANGSTROEM)
---------------------------------
  Au     6.904115    6.841830    5.574656
  Au     8.015508    9.204837    6.333648
  Au     6.339254    5.066966    7.528272
  Au     4.333735    7.037986    6.831920
  Au     6.578505   10.416511    8.274293
  Au     6.059363    4.016923   10.029707
  Au     7.753335    6.229923    9.890045
  Au     8.703854    8.579643    9.108486
  Au     4.375844    8.971553    8.949604
  Au     4.778155    6.389001    9.623852
  Fe     6.540150    7.728410    8.048255

 Multiplicity           Mult            ....    3
 Number of Electrons    NEL             ....  216
 Basis Dimension        Dim             ....  445

ORBITAL ENERGIES
----------------
                 SPIN UP ORBITALS
  NO   OCC          E(Eh)            E(eV)
   0   1.0000    -258.325691     -7029.3994
   1   1.0000     -30.887256      -840.4850
   2   1.0000     -26.600063      -723.8245
   3   1.0000     -26.588351      -723.5058
   4   1.0000     -26.567728      -722.9446
   5   1.0000      -4.403766      -119.8326
   6   1.0000      -4.403646      -119.8293
   7   1.0000      -4.400208      -119.7358
   8   1.0000      -4.394242      -119.5734
   9   1.0000      -4.394089      -119.5692
  10   1.0000      -4.391417      -119.4965
  11   1.0000      -4.390598      -119.4742
  12   1.0000      -4.384931      -119.3200
  13   1.0000      -4.382279      -119.2479
  14   1.0000      -4.381984      -119.2398
  15   1.0000      -3.898581      -106.0858
  16   1.0000      -2.638156       -71.7879
  17   1.0000      -2.612432       -71.0879
  18   1.0000      -2.570550       -69.9482
  19   1.0000      -2.526223       -68.7420
  20   1.0000      -2.525587       -68.7247
  21   1.0000      -2.523671       -68.6726
  22   1.0000      -2.522429       -68.6388
  23   1.0000      -2.521279       -68.6075
  24   1.0000      -2.517911       -68.5158
  25   1.0000      -2.517733       -68.5110
  26   1.0000      -2.516493       -68.4773
  27   1.0000      -2.514976       -68.4360
  28   1.0000      -2.514208       -68.4151
  29   1.0000      -2.513954       -68.4082
  30   1.0000      -2.513050       -68.3836
  31   1.0000      -2.511481       -68.3409
  32   1.0000      -2.511170       -68.3324
  33   1.0000      -2.510082       -68.3028
  34   1.0000      -2.508554       -68.2612
  35   1.0000      -2.507877       -68.2428
  36   1.0000      -2.507673       -68.2373
  37   1.0000      -2.506760       -68.2124
  38   1.0000      -2.506643       -68.2092
  39   1.0000      -2.505404       -68.1755
  40   1.0000      -2.504476       -68.1503
  41   1.0000      -2.503455       -68.1225
  42   1.0000      -2.501403       -68.0666
  43   1.0000      -2.500242       -68.0350
  44   1.0000      -2.500000       -68.0284
  45   1.0000      -2.498147       -67.9780
  46   1.0000      -2.496939       -67.9452
  47   1.0000      -2.496085       -67.9219
  48   1.0000      -2.494995       -67.8923
  49   1.0000      -0.551127       -14.9969
  50   1.0000      -0.549895       -14.9634
  51   1.0000      -0.537965       -14.6388
  52   1.0000      -0.521008       -14.1773
  53   1.0000      -0.499366       -13.5885
  54   1.0000      -0.488401       -13.2901
  55   1.0000      -0.473474       -12.8839
  56   1.0000      -0.460137       -12.5210
  57   1.0000      -0.452233       -12.3059
  58   1.0000      -0.451637       -12.2897
  59   1.0000      -0.447292       -12.1714
  60   1.0000      -0.439538       -11.9604
  61   1.0000      -0.438078       -11.9207
  62   1.0000      -0.433708       -11.8018
  63   1.0000      -0.432614       -11.7720
  64   1.0000      -0.430452       -11.7132
  65   1.0000      -0.426887       -11.6162
  66   1.0000      -0.425558       -11.5800
  67   1.0000      -0.420641       -11.4462
  68   1.0000      -0.420112       -11.4318
  69   1.0000      -0.414737       -11.2856
  70   1.0000      -0.413813       -11.2604
  71   1.0000      -0.409833       -11.1521
  72   1.0000      -0.400447       -10.8967
  73   1.0000      -0.397498       -10.8165
  74   1.0000      -0.397229       -10.8091
  75   1.0000      -0.393407       -10.7051
  76   1.0000      -0.391766       -10.6605
  77   1.0000      -0.389349       -10.5947
  78   1.0000      -0.386545       -10.5184
  79   1.0000      -0.383176       -10.4268
  80   1.0000      -0.381732       -10.3875
  81   1.0000      -0.381429       -10.3792
  82   1.0000      -0.378961       -10.3121
  83   1.0000      -0.376224       -10.2376
  84   1.0000      -0.373547       -10.1647
  85   1.0000      -0.368345       -10.0232
  86   1.0000      -0.367530       -10.0010
  87   1.0000      -0.366202        -9.9649
  88   1.0000      -0.363885        -9.9018
  89   1.0000      -0.363763        -9.8985
  90   1.0000      -0.361999        -9.8505
  91   1.0000      -0.359979        -9.7955
  92   1.0000      -0.358271        -9.7490
  93   1.0000      -0.355298        -9.6682
  94   1.0000      -0.353433        -9.6174
  95   1.0000      -0.351750        -9.5716
  96   1.0000      -0.348420        -9.4810
  97   1.0000      -0.347511        -9.4563
  98   1.0000      -0.344426        -9.3723
  99   1.0000      -0.344334        -9.3698
 100   1.0000      -0.341050        -9.2804
 101   1.0000      -0.328691        -8.9441
 102   1.0000      -0.325659        -8.8616
 103   1.0000      -0.322984        -8.7888
 104   1.0000      -0.322162        -8.7665
 105   1.0000      -0.311340        -8.4720
 106   1.0000      -0.282875        -7.6974
 107   1.0000      -0.266312        -7.2467
 108   1.0000      -0.219237        -5.9657
 109   0.0000      -0.101995        -2.7754
 110   0.0000      -0.093648        -2.5483
 111   0.0000      -0.082407        -2.2424
 112   0.0000      -0.064197        -1.7469
 113   0.0000      -0.054541        -1.4841

                 SPIN DOWN ORBITALS
  NO   OCC          E(Eh)            E(eV)
   0   1.0000    -258.323633     -7029.3434
   1   1.0000     -30.795153      -837.9787
   2   1.0000     -26.505308      -721.2461
   3   1.0000     -26.502263      -721.1633
   4   1.0000     -26.496217      -720.9987
   5   1.0000      -4.403743      -119.8319
   6   1.0000      -4.403631      -119.8289
   7   1.0000      -4.401038      -119.7583
   8   1.0000      -4.394637      -119.5841
   9   1.0000      -4.394480      -119.5799
  10   1.0000      -4.392129      -119.5159
  11   1.0000      -4.390729      -119.4778
  12   1.0000      -4.384559      -119.3099
  13   1.0000      -4.383031      -119.2683
  14   1.0000      -4.382749      -119.2607
  15   1.0000      -3.656237       -99.4913
  16   1.0000      -2.525312       -68.7172
  17   1.0000      -2.524543       -68.6963
  18   1.0000      -2.522851       -68.6503
  19   1.0000      -2.521104       -68.6027
  20   1.0000      -2.520065       -68.5745
  21   1.0000      -2.518246       -68.5250
  22   1.0000      -2.517882       -68.5150
  23   1.0000      -2.516859       -68.4872
  24   1.0000      -2.515550       -68.4516
  25   1.0000      -2.513666       -68.4003
  26   1.0000      -2.513257       -68.3892
  27   1.0000      -2.512949       -68.3808
  28   1.0000      -2.511741       -68.3479
  29   1.0000      -2.511478       -68.3408
  30   1.0000      -2.510601       -68.3169
  31   1.0000      -2.508714       -68.2656
  32   1.0000      -2.507953       -68.2449
  33   1.0000      -2.507787       -68.2404
  34   1.0000      -2.507327       -68.2278
  35   1.0000      -2.506504       -68.2054
  36   1.0000      -2.505289       -68.1724
  37   1.0000      -2.503850       -68.1332
  38   1.0000      -2.503815       -68.1323
  39   1.0000      -2.500739       -68.0486
  40   1.0000      -2.500144       -68.0324
  41   1.0000      -2.500007       -68.0286
  42   1.0000      -2.498308       -67.9824
  43   1.0000      -2.497035       -67.9478
  44   1.0000      -2.496109       -67.9226
  45   1.0000      -2.495197       -67.8978
  46   1.0000      -2.336793       -63.5874
  47   1.0000      -2.329363       -63.3852
  48   1.0000      -2.324870       -63.2629
  49   1.0000      -0.498758       -13.5719
  50   1.0000      -0.478350       -13.0166
  51   1.0000      -0.471735       -12.8366
  52   1.0000      -0.464284       -12.6338
  53   1.0000      -0.454396       -12.3647
  54   1.0000      -0.452550       -12.3145
  55   1.0000      -0.449974       -12.2444
  56   1.0000      -0.444834       -12.1046
  57   1.0000      -0.442922       -12.0525
  58   1.0000      -0.437653       -11.9091
  59   1.0000      -0.437281       -11.8990
  60   1.0000      -0.434518       -11.8238
  61   1.0000      -0.429250       -11.6805
  62   1.0000      -0.428789       -11.6679
  63   1.0000      -0.423167       -11.5150
  64   1.0000      -0.422449       -11.4954
  65   1.0000      -0.420154       -11.4330
  66   1.0000      -0.415910       -11.3175
  67   1.0000      -0.412779       -11.2323
  68   1.0000      -0.407892       -11.0993
  69   1.0000      -0.406846       -11.0708
  70   1.0000      -0.405273       -11.0281
  71   1.0000      -0.401798       -10.9335
  72   1.0000      -0.397235       -10.8093
  73   1.0000      -0.396766       -10.7966
  74   1.0000      -0.387953       -10.5567
  75   1.0000      -0.386169       -10.5082
  76   1.0000      -0.385259       -10.4834
  77   1.0000      -0.383153       -10.4261
  78   1.0000      -0.380170       -10.3450
  79   1.0000      -0.377898       -10.2831
  80   1.0000      -0.374051       -10.1784
  81   1.0000      -0.373803       -10.1717
  82   1.0000      -0.369668       -10.0592
  83   1.0000      -0.368087       -10.0161
  84   1.0000      -0.365875        -9.9560
  85   1.0000      -0.365232        -9.9385
  86   1.0000      -0.361344        -9.8327
  87   1.0000      -0.360638        -9.8135
  88   1.0000      -0.357953        -9.7404
  89   1.0000      -0.357006        -9.7146
  90   1.0000      -0.354283        -9.6405
  91   1.0000      -0.350436        -9.5358
  92   1.0000      -0.348994        -9.4966
  93   1.0000      -0.348796        -9.4912
  94   1.0000      -0.346637        -9.4325
  95   1.0000      -0.344692        -9.3795
  96   1.0000      -0.332080        -9.0364
  97   1.0000      -0.331604        -9.0234
  98   1.0000      -0.328915        -8.9502
  99   1.0000      -0.325562        -8.8590
 100   1.0000      -0.322222        -8.7681
 101   1.0000      -0.317116        -8.6292
 102   1.0000      -0.291965        -7.9448
 103   1.0000      -0.287868        -7.8333
 104   1.0000      -0.230572        -6.2742
 105   1.0000      -0.207472        -5.6456
 106   1.0000      -0.195187        -5.3113
 107   0.0000      -0.090821        -2.4714
 108   0.0000      -0.071443        -1.9441
 109   0.0000      -0.070036        -1.9058
 110   0.0000      -0.041908        -1.1404
 111   0.0000      -0.008717        -0.2372

MULLIKEN ATOMIC CHARGES AND SPIN POPULATIONS
--------------------------------------------
   0 Au:    0.213039   -0.206106
   1 Au:    0.148449   -0.261586
   2 Au:   -0.021368   -0.168638
   3 Au:    0.244847   -0.196403
   4 Au:    0.149675   -0.262983
   5 Au:    0.342537    0.056217
   6 Au:   -0.015847   -0.025166
   7 Au:    0.210060   -0.096499
   8 Au:    0.214300   -0.204647
   9 Au:   -0.021932   -0.168077
  10 Fe:   -1.463761    3.533887
Sum of atomic charges         :   -0.0000000

LOEWDIN ATOMIC CHARGES AND SPIN POPULATIONS
-------------------------------------------
   0 Au:    0.068696   -0.214037
   1 Au:    0.001131   -0.241789
   2 Au:   -0.052103   -0.129679
   3 Au:    0.091226   -0.154045
   4 Au:    0.001672   -0.241703
   5 Au:    0.123294   -0.018392
   6 Au:   -0.002347   -0.023740
   7 Au:    0.041087   -0.089418
   8 Au:    0.069205   -0.213415
   9 Au:   -0.051642   -0.129127
  10 Fe:   -0.290218    3.455345

  Mayer bond orders larger than 0.100000
B(  0-Au,  1-Au) :   0.2479 B(  0-Au,  2-Au) :   0.3216 B(  0-Au, 10-Fe) :   0.4768
B(  1-Au,  4-Au) :   0.2975 B(  1-Au, 10-Fe) :   0.4603 B(  2-Au,  3-Au) :   0.1860
B(  2-Au,  5-Au) :   0.3885 B(  2-Au,  6-Au) :   0.1419 B(  2-Au,  9-Au) :   0.1940
B(  2-Au, 10-Fe) :   0.4284 B(  3-Au,  9-Au) :   0.1834 B(  3-Au, 10-Fe) :   0.5235
B(  4-Au,  8-Au) :   0.2469 B(  4-Au, 10-Fe) :   0.4625 B(  5-Au,  6-Au) :   0.2310
B(  5-Au,  9-Au) :   0.3901 B(  6-Au,  7-Au) :   0.4115 B(  6-Au,  9-Au) :   0.1411
B(  6-Au, 10-Fe) :   0.5100 B(  7-Au, 10-Fe) :   0.5787 B(  8-Au,  9-Au) :   0.3230
B(  8-Au, 10-Fe) :   0.4767 B(  9-Au, 10-Fe) :   0.4296

MP2 TOTAL ENERGY:    -2619.333508855 Eh
FINAL SINGLE POINT ENERGY     -2619.333508854503

DIPOLE MOMENT
-------------
                                X             Y             Z
Electronic contribution:     -6.28959     -17.59716       6.29288
Nuclear contribution   :      5.90833      17.15469      -6.29507
                        -----------------------------------------
Total Dipole Moment    :     -0.38127      -0.44247      -0.00218
                        -----------------------------------------
Magnitude (a.u.)       :      0.58408
Magnitude (Debye)      :      1.48461

Rotational constants in cm-1:     0.002183     0.001445     0.001421
Rotational constants in MHz :    65.458421    43.323577    42.600082

                             ****ORCA TERMINATED NORMALLY****
TOTAL RUN TIME: 0 days 0 hours 19 minutes 54 seconds 418 msec
