                         Program Version 5.0.3 -  RELEASE  -
|  1> !PBE def2-TZVP VERYSLOWCONV
|  2>
|  3> %scf
|  4>   AutoTRAHIter 200
|  5>   maxiter 400
|  6> end
|  7>
|  8>
|  9> %pal nprocs 6 end
| 10>
| 11> *xyzfile 0 5 pbe.xyz
| 12>
| 13> $new_job
| 14>
| 15> !PBE def2-TZVP VERYSLOWCONV
| 16>
| 17> %scf
| 18>   AutoTRAHIter 200
| 19>   maxiter 400
| 20> end
| 21>
| 22>
| 23> %pal nprocs 6 end
| 24>
| 25> *xyzfile 0 3 pbe.xyz
| 26>
| 27>
| 28>
| 29>
| 30>
| 31>                          ****END OF INPUT****
 Total Charge           Charge          ....    0
 Multiplicity           Mult            ....    5
 Number of Electrons    NEL             ....  216
FINAL SINGLE POINT ENERGY     -2621.721997625984

CARTESIAN COORDINATES (ANGSTROEM)
---------------------------------
  Au     6.904115    6.841830    5.574656
  Au     8.015508    9.204837    6.333648
  Au     6.339254    5.066966    7.528272
  Au     4.333735    7.037986    6.831920
  Au     6.578505   10.416511    8.274293
  Au     6.059363    4.016923   10.029707
  Au     7.753335    6.229923    9.890045
  Au     8.703854    8.579643    9.108486
  Au     4.375844    8.971553    8.949604
  Au     4.778155    6.389001    9.623852
  Fe     6.540150    7.728410    8.048255

 Multiplicity           Mult            ....    3
 Number of Electrons    NEL             ....  216
 Basis Dimension        Dim             ....  445

ORBITAL ENERGIES
----------------
                 SPIN UP ORBITALS
  NO   OCC          E(Eh)            E(eV)
   0   1.0000    -254.744728     -6931.9565
   1   1.0000     -29.582948      -804.9929
   2   1.0000     -25.520942      -694.4601
   3   1.0000     -25.520280      -694.4421
   4   1.0000     -25.514470      -694.2840
   5   1.0000      -4.027939      -109.6058
   6   1.0000      -4.027876      -109.6041
   7   1.0000      -4.020156      -109.3940
   8   1.0000      -4.019826      -109.3850
   9   1.0000      -4.019759      -109.3832
  10   1.0000      -4.018842      -109.3583
  11   1.0000      -4.018711      -109.3547
  12   1.0000      -4.012763      -109.1928
  13   1.0000      -4.011835      -109.1676
  14   1.0000      -4.011617      -109.1617
  15   1.0000      -3.358758       -91.3965
  16   1.0000      -2.246418       -61.1282
  17   1.0000      -2.245842       -61.1125
  18   1.0000      -2.242438       -61.0198
  19   1.0000      -2.240799       -60.9752
  20   1.0000      -2.237581       -60.8877
  21   1.0000      -2.236911       -60.8695
  22   1.0000      -2.236421       -60.8561
  23   1.0000      -2.236142       -60.8485
  24   1.0000      -2.235752       -60.8379
  25   1.0000      -2.235735       -60.8374
  26   1.0000      -2.235066       -60.8192
  27   1.0000      -2.234278       -60.7978
  28   1.0000      -2.234241       -60.7968
  29   1.0000      -2.232857       -60.7591
  30   1.0000      -2.231687       -60.7273
  31   1.0000      -2.231466       -60.7213
  32   1.0000      -2.230750       -60.7018
  33   1.0000      -2.230025       -60.6821
  34   1.0000      -2.229569       -60.6697
  35   1.0000      -2.228721       -60.6466
  36   1.0000      -2.228113       -60.6300
  37   1.0000      -2.228006       -60.6271
  38   1.0000      -2.226717       -60.5920
  39   1.0000      -2.226073       -60.5745
  40   1.0000      -2.225628       -60.5624
  41   1.0000      -2.225593       -60.5615
  42   1.0000      -2.224839       -60.5410
  43   1.0000      -2.220298       -60.4174
  44   1.0000      -2.220270       -60.4166
  45   1.0000      -2.219250       -60.3889
  46   1.0000      -2.177529       -59.2536
  47   1.0000      -2.175320       -59.1935
  48   1.0000      -2.164682       -58.9040
  49   1.0000      -0.414756       -11.2861
  50   1.0000      -0.380078       -10.3424
  51   1.0000      -0.375017       -10.2047
  52   1.0000      -0.366335        -9.9685
  53   1.0000      -0.358093        -9.7442
  54   1.0000      -0.355413        -9.6713
  55   1.0000      -0.350037        -9.5250
  56   1.0000      -0.343681        -9.3520
  57   1.0000      -0.341946        -9.3048
  58   1.0000      -0.339358        -9.2344
  59   1.0000      -0.333225        -9.0675
  60   1.0000      -0.329717        -8.9721
  61   1.0000      -0.328180        -8.9302
  62   1.0000      -0.327453        -8.9105
  63   1.0000      -0.320783        -8.7289
  64   1.0000      -0.320624        -8.7246
  65   1.0000      -0.318142        -8.6571
  66   1.0000      -0.314314        -8.5529
  67   1.0000      -0.311775        -8.4838
  68   1.0000      -0.310664        -8.4536
  69   1.0000      -0.309559        -8.4235
  70   1.0000      -0.305600        -8.3158
  71   1.0000      -0.302943        -8.2435
  72   1.0000      -0.300866        -8.1870
  73   1.0000      -0.292772        -7.9667
  74   1.0000      -0.292650        -7.9634
  75   1.0000      -0.286327        -7.7914
  76   1.0000      -0.285659        -7.7732
  77   1.0000      -0.281833        -7.6691
  78   1.0000      -0.280790        -7.6407
  79   1.0000      -0.279376        -7.6022
  80   1.0000      -0.276716        -7.5298
  81   1.0000      -0.276451        -7.5226
  82   1.0000      -0.273335        -7.4378
  83   1.0000      -0.271162        -7.3787
  84   1.0000      -0.269163        -7.3243
  85   1.0000      -0.268443        -7.3047
  86   1.0000      -0.264704        -7.2030
  87   1.0000      -0.263415        -7.1679
  88   1.0000      -0.260457        -7.0874
  89   1.0000      -0.259584        -7.0636
  90   1.0000      -0.257571        -7.0089
  91   1.0000      -0.256264        -6.9733
  92   1.0000      -0.254573        -6.9273
  93   1.0000      -0.253723        -6.9042
  94   1.0000      -0.252600        -6.8736
  95   1.0000      -0.251093        -6.8326
  96   1.0000      -0.248048        -6.7497
  97   1.0000      -0.245165        -6.6713
  98   1.0000      -0.241197        -6.5633
  99   1.0000      -0.240030        -6.5315
 100   1.0000      -0.239456        -6.5159
 101   1.0000      -0.237735        -6.4691
 102   1.0000      -0.236680        -6.4404
 103   1.0000      -0.233940        -6.3658
 104   1.0000      -0.232202        -6.3185
 105   1.0000      -0.230409        -6.2698
 106   1.0000      -0.226797        -6.1714
 107   1.0000      -0.226270        -6.1571
 108   1.0000      -0.196742        -5.3536
 109   0.0000      -0.169649        -4.6164
 110   0.0000      -0.160967        -4.3801
 111   0.0000      -0.147474        -4.0130
 112   0.0000      -0.129446        -3.5224
 113   0.0000      -0.123277        -3.3545

                 SPIN DOWN ORBITALS
  NO   OCC          E(Eh)            E(eV)
   0   1.0000    -254.744054     -6931.9381
   1   1.0000     -29.527476      -803.4835
   2   1.0000     -25.478349      -693.3011
   3   1.0000     -25.477959      -693.2905
   4   1.0000     -25.473686      -693.1742
   5   1.0000      -4.027858      -109.6036
   6   1.0000      -4.027797      -109.6019
   7   1.0000      -4.020865      -109.4133
   8   1.0000      -4.019960      -109.3887
   9   1.0000      -4.019882      -109.3865
  10   1.0000      -4.019314      -109.3711
  11   1.0000      -4.018275      -109.3428
  12   1.0000      -4.012149      -109.1761
  13   1.0000      -4.011929      -109.1701
  14   1.0000      -4.011723      -109.1645
  15   1.0000      -3.233336       -87.9835
  16   1.0000      -2.246308       -61.1252
  17   1.0000      -2.245642       -61.1070
  18   1.0000      -2.241971       -61.0071
  19   1.0000      -2.240261       -60.9606
  20   1.0000      -2.237722       -60.8915
  21   1.0000      -2.237011       -60.8722
  22   1.0000      -2.236352       -60.8542
  23   1.0000      -2.236338       -60.8539
  24   1.0000      -2.235868       -60.8411
  25   1.0000      -2.235825       -60.8399
  26   1.0000      -2.235077       -60.8195
  27   1.0000      -2.234186       -60.7953
  28   1.0000      -2.234131       -60.7938
  29   1.0000      -2.232339       -60.7450
  30   1.0000      -2.232178       -60.7407
  31   1.0000      -2.231958       -60.7347
  32   1.0000      -2.230819       -60.7037
  33   1.0000      -2.230081       -60.6836
  34   1.0000      -2.229426       -60.6658
  35   1.0000      -2.228666       -60.6451
  36   1.0000      -2.228556       -60.6421
  37   1.0000      -2.228465       -60.6396
  38   1.0000      -2.226351       -60.5821
  39   1.0000      -2.226136       -60.5762
  40   1.0000      -2.225541       -60.5600
  41   1.0000      -2.225449       -60.5576
  42   1.0000      -2.225253       -60.5522
  43   1.0000      -2.220428       -60.4209
  44   1.0000      -2.220048       -60.4106
  45   1.0000      -2.219232       -60.3884
  46   1.0000      -2.053128       -55.8685
  47   1.0000      -2.051094       -55.8131
  48   1.0000      -2.044958       -55.6461
  49   1.0000      -0.411766       -11.2047
  50   1.0000      -0.378927       -10.3111
  51   1.0000      -0.372337       -10.1318
  52   1.0000      -0.364687        -9.9236
  53   1.0000      -0.356352        -9.6968
  54   1.0000      -0.351719        -9.5708
  55   1.0000      -0.345562        -9.4032
  56   1.0000      -0.339243        -9.2313
  57   1.0000      -0.339203        -9.2302
  58   1.0000      -0.334818        -9.1109
  59   1.0000      -0.334022        -9.0892
  60   1.0000      -0.328446        -8.9375
  61   1.0000      -0.325871        -8.8674
  62   1.0000      -0.324341        -8.8258
  63   1.0000      -0.319589        -8.6965
  64   1.0000      -0.318601        -8.6696
  65   1.0000      -0.314151        -8.5485
  66   1.0000      -0.313121        -8.5205
  67   1.0000      -0.309411        -8.4195
  68   1.0000      -0.306345        -8.3361
  69   1.0000      -0.305083        -8.3017
  70   1.0000      -0.303699        -8.2641
  71   1.0000      -0.302477        -8.2308
  72   1.0000      -0.297706        -8.1010
  73   1.0000      -0.293621        -7.9898
  74   1.0000      -0.292133        -7.9493
  75   1.0000      -0.286427        -7.7941
  76   1.0000      -0.285582        -7.7711
  77   1.0000      -0.281987        -7.6732
  78   1.0000      -0.280559        -7.6344
  79   1.0000      -0.278727        -7.5845
  80   1.0000      -0.276388        -7.5209
  81   1.0000      -0.274642        -7.4734
  82   1.0000      -0.272814        -7.4237
  83   1.0000      -0.269017        -7.3203
  84   1.0000      -0.266582        -7.2541
  85   1.0000      -0.266509        -7.2521
  86   1.0000      -0.265392        -7.2217
  87   1.0000      -0.263200        -7.1620
  88   1.0000      -0.260364        -7.0849
  89   1.0000      -0.259493        -7.0612
  90   1.0000      -0.258034        -7.0215
  91   1.0000      -0.257471        -7.0062
  92   1.0000      -0.253542        -6.8992
  93   1.0000      -0.252395        -6.8680
  94   1.0000      -0.251919        -6.8551
  95   1.0000      -0.250853        -6.8261
  96   1.0000      -0.245699        -6.6858
  97   1.0000      -0.242401        -6.5961
  98   1.0000      -0.238653        -6.4941
  99   1.0000      -0.238592        -6.4924
 100   1.0000      -0.236301        -6.4301
 101   1.0000      -0.234311        -6.3759
 102   1.0000      -0.231562        -6.3011
 103   1.0000      -0.207616        -5.6495
 104   1.0000      -0.191453        -5.2097
 105   1.0000      -0.184908        -5.0316
 106   1.0000      -0.174225        -4.7409
 107   0.0000      -0.153101        -4.1661
 108   0.0000      -0.150512        -4.0956
 109   0.0000      -0.144832        -3.9411
 110   0.0000      -0.144141        -3.9223
 111   0.0000      -0.138826        -3.7776

MULLIKEN ATOMIC CHARGES AND SPIN POPULATIONS
--------------------------------------------
   0 Au:    0.279042   -0.102108
   1 Au:    0.195515   -0.132064
   2 Au:    0.004281   -0.118412
   3 Au:    0.236355   -0.174625
   4 Au:    0.196488   -0.132215
   5 Au:    0.370939    0.021072
   6 Au:    0.037730   -0.008890
   7 Au:    0.218463   -0.028250
   8 Au:    0.280690   -0.102044
   9 Au:    0.003725   -0.118016
  10 Fe:   -1.823227    2.895553
Sum of atomic charges         :   -0.0000000

LOEWDIN ATOMIC CHARGES AND SPIN POPULATIONS
-------------------------------------------
   0 Au:    0.099308   -0.135282
   1 Au:    0.040053   -0.136543
   2 Au:   -0.016371   -0.080692
   3 Au:    0.094623   -0.147160
   4 Au:    0.040809   -0.136030
   5 Au:    0.102200   -0.023849
   6 Au:    0.029475   -0.004603
   7 Au:    0.077005   -0.031155
   8 Au:    0.099568   -0.135663
   9 Au:   -0.015907   -0.080231
  10 Fe:   -0.550765    2.911209

  Mayer bond orders larger than 0.100000
B(  0-Au,  1-Au) :   0.2713 B(  0-Au,  2-Au) :   0.3578 B(  0-Au,  3-Au) :   0.1551
B(  0-Au, 10-Fe) :   0.5399 B(  1-Au,  4-Au) :   0.3391 B(  1-Au,  7-Au) :   0.1106
B(  1-Au, 10-Fe) :   0.5352 B(  2-Au,  3-Au) :   0.1631 B(  2-Au,  5-Au) :   0.3993
B(  2-Au,  6-Au) :   0.1504 B(  2-Au,  9-Au) :   0.1900 B(  2-Au, 10-Fe) :   0.5451
B(  3-Au,  8-Au) :   0.1551 B(  3-Au,  9-Au) :   0.1610 B(  3-Au, 10-Fe) :   0.6677
B(  4-Au,  7-Au) :   0.1089 B(  4-Au,  8-Au) :   0.2712 B(  4-Au, 10-Fe) :   0.5374
B(  5-Au,  6-Au) :   0.2815 B(  5-Au,  9-Au) :   0.4005 B(  5-Au, 10-Fe) :   0.1073
B(  6-Au,  7-Au) :   0.4100 B(  6-Au,  9-Au) :   0.1494 B(  6-Au, 10-Fe) :   0.5997
B(  7-Au, 10-Fe) :   0.6532 B(  8-Au,  9-Au) :   0.3588 B(  8-Au, 10-Fe) :   0.5388
B(  9-Au, 10-Fe) :   0.5473

FINAL SINGLE POINT ENERGY     -2621.726220399034

DIPOLE MOMENT
-------------
                                X             Y             Z
Electronic contribution:     -6.13541     -17.46031       6.32076
Nuclear contribution   :      5.90833      17.15469      -6.29507
                        -----------------------------------------
Total Dipole Moment    :     -0.22709      -0.30562       0.02569
                        -----------------------------------------
Magnitude (a.u.)       :      0.38161
Magnitude (Debye)      :      0.96999

Rotational constants in cm-1:     0.002183     0.001445     0.001421
Rotational constants in MHz :    65.458421    43.323577    42.600082

                             ****ORCA TERMINATED NORMALLY****
TOTAL RUN TIME: 0 days 0 hours 7 minutes 45 seconds 785 msec
