                         Program Version 5.0.3 -  RELEASE  -
|  1> !R2SCAN def2-TZVP VERYSLOWCONV
|  2> !KDIIS
|  3> %scf
|  4>   AutoTRAHIter 200
|  5>   maxiter 400
|  6> end
|  7>
|  8> %pal nprocs 6 end
|  9>
| 10> *xyzfile 0 5 pbe.xyz
| 11>
| 12> $new_job
| 13>
| 14> !R2SCAN def2-TZVP VERYSLOWCONV
| 15> !KDIIS
| 16> %scf
| 17>   AutoTRAHIter 200
| 18>   maxiter 400
| 19> end
| 20>
| 21>
| 22> %pal nprocs 6 end
| 23>
| 24> *xyzfile 0 3 pbe.xyz
| 25>
| 26>
| 27>
| 28>
| 29>
| 30>                          ****END OF INPUT****
 Total Charge           Charge          ....    0
 Multiplicity           Mult            ....    5
 Number of Electrons    NEL             ....  216
FINAL SINGLE POINT ENERGY     -2622.123677725149

CARTESIAN COORDINATES (ANGSTROEM)
---------------------------------
  Au     6.904115    6.841830    5.574656
  Au     8.015508    9.204837    6.333648
  Au     6.339254    5.066966    7.528272
  Au     4.333735    7.037986    6.831920
  Au     6.578505   10.416511    8.274293
  Au     6.059363    4.016923   10.029707
  Au     7.753335    6.229923    9.890045
  Au     8.703854    8.579643    9.108486
  Au     4.375844    8.971553    8.949604
  Au     4.778155    6.389001    9.623852
  Fe     6.540150    7.728410    8.048255

 Multiplicity           Mult            ....    3
 Number of Electrons    NEL             ....  216
 Basis Dimension        Dim             ....  445

ORBITAL ENERGIES
----------------
                 SPIN UP ORBITALS
  NO   OCC          E(Eh)            E(eV)
   0   1.0000    -255.627603     -6955.9807
   1   1.0000     -29.927339      -814.3643
   2   1.0000     -25.761340      -701.0017
   3   1.0000     -25.759973      -700.9645
   4   1.0000     -25.751962      -700.7465
   5   1.0000      -4.119200      -112.0891
   6   1.0000      -4.119129      -112.0872
   7   1.0000      -4.111382      -111.8764
   8   1.0000      -4.111181      -111.8709
   9   1.0000      -4.111136      -111.8697
  10   1.0000      -4.110523      -111.8530
  11   1.0000      -4.109587      -111.8276
  12   1.0000      -4.103157      -111.6526
  13   1.0000      -4.102209      -111.6268
  14   1.0000      -4.101971      -111.6203
  15   1.0000      -3.505430       -95.3876
  16   1.0000      -2.310508       -62.8721
  17   1.0000      -2.309925       -62.8563
  18   1.0000      -2.306789       -62.7709
  19   1.0000      -2.304980       -62.7217
  20   1.0000      -2.301658       -62.6313
  21   1.0000      -2.301247       -62.6201
  22   1.0000      -2.300630       -62.6033
  23   1.0000      -2.300415       -62.5975
  24   1.0000      -2.300023       -62.5868
  25   1.0000      -2.299678       -62.5774
  26   1.0000      -2.299225       -62.5651
  27   1.0000      -2.298284       -62.5395
  28   1.0000      -2.298205       -62.5373
  29   1.0000      -2.296500       -62.4910
  30   1.0000      -2.296016       -62.4778
  31   1.0000      -2.295250       -62.4569
  32   1.0000      -2.294380       -62.4332
  33   1.0000      -2.293753       -62.4162
  34   1.0000      -2.293334       -62.4048
  35   1.0000      -2.292853       -62.3917
  36   1.0000      -2.292379       -62.3788
  37   1.0000      -2.292299       -62.3766
  38   1.0000      -2.289925       -62.3120
  39   1.0000      -2.289507       -62.3007
  40   1.0000      -2.289260       -62.2939
  41   1.0000      -2.288501       -62.2733
  42   1.0000      -2.287722       -62.2521
  43   1.0000      -2.283648       -62.1412
  44   1.0000      -2.283604       -62.1400
  45   1.0000      -2.282538       -62.1110
  46   1.0000      -2.277573       -61.9759
  47   1.0000      -2.274138       -61.8824
  48   1.0000      -2.258661       -61.4613
  49   1.0000      -0.421242       -11.4626
  50   1.0000      -0.388090       -10.5605
  51   1.0000      -0.386053       -10.5050
  52   1.0000      -0.376239       -10.2380
  53   1.0000      -0.368951       -10.0397
  54   1.0000      -0.363458        -9.8902
  55   1.0000      -0.362358        -9.8603
  56   1.0000      -0.357371        -9.7246
  57   1.0000      -0.354318        -9.6415
  58   1.0000      -0.349049        -9.4981
  59   1.0000      -0.342507        -9.3201
  60   1.0000      -0.340929        -9.2772
  61   1.0000      -0.337934        -9.1957
  62   1.0000      -0.337685        -9.1889
  63   1.0000      -0.330911        -9.0046
  64   1.0000      -0.330776        -9.0009
  65   1.0000      -0.327507        -8.9119
  66   1.0000      -0.324204        -8.8221
  67   1.0000      -0.323602        -8.8057
  68   1.0000      -0.321645        -8.7524
  69   1.0000      -0.318076        -8.6553
  70   1.0000      -0.315199        -8.5770
  71   1.0000      -0.312745        -8.5102
  72   1.0000      -0.309020        -8.4089
  73   1.0000      -0.302080        -8.2200
  74   1.0000      -0.301994        -8.2177
  75   1.0000      -0.295524        -8.0416
  76   1.0000      -0.294699        -8.0192
  77   1.0000      -0.290945        -7.9170
  78   1.0000      -0.289933        -7.8895
  79   1.0000      -0.288263        -7.8440
  80   1.0000      -0.286782        -7.8037
  81   1.0000      -0.285043        -7.7564
  82   1.0000      -0.282352        -7.6832
  83   1.0000      -0.280839        -7.6420
  84   1.0000      -0.280621        -7.6361
  85   1.0000      -0.278604        -7.5812
  86   1.0000      -0.272622        -7.4184
  87   1.0000      -0.272558        -7.4167
  88   1.0000      -0.269635        -7.3372
  89   1.0000      -0.268635        -7.3099
  90   1.0000      -0.266967        -7.2645
  91   1.0000      -0.265561        -7.2263
  92   1.0000      -0.264252        -7.1907
  93   1.0000      -0.263884        -7.1806
  94   1.0000      -0.260516        -7.0890
  95   1.0000      -0.259037        -7.0488
  96   1.0000      -0.256877        -6.9900
  97   1.0000      -0.256522        -6.9803
  98   1.0000      -0.253769        -6.9054
  99   1.0000      -0.251891        -6.8543
 100   1.0000      -0.248232        -6.7547
 101   1.0000      -0.245440        -6.6788
 102   1.0000      -0.245009        -6.6670
 103   1.0000      -0.243441        -6.6244
 104   1.0000      -0.240493        -6.5441
 105   1.0000      -0.239079        -6.5057
 106   1.0000      -0.236119        -6.4251
 107   1.0000      -0.229703        -6.2505
 108   1.0000      -0.198995        -5.4149
 109   0.0000      -0.166574        -4.5327
 110   0.0000      -0.157421        -4.2836
 111   0.0000      -0.143819        -3.9135
 112   0.0000      -0.123995        -3.3741
 113   0.0000      -0.117914        -3.2086

                 SPIN DOWN ORBITALS
  NO   OCC          E(Eh)            E(eV)
   0   1.0000    -255.626594     -6955.9533
   1   1.0000     -29.850447      -812.2719
   2   1.0000     -25.700841      -699.3554
   3   1.0000     -25.700378      -699.3428
   4   1.0000     -25.696080      -699.2259
   5   1.0000      -4.119283      -112.0914
   6   1.0000      -4.119213      -112.0895
   7   1.0000      -4.112222      -111.8993
   8   1.0000      -4.111528      -111.8804
   9   1.0000      -4.111466      -111.8787
  10   1.0000      -4.111287      -111.8738
  11   1.0000      -4.109305      -111.8199
  12   1.0000      -4.102681      -111.6396
  13   1.0000      -4.102571      -111.6366
  14   1.0000      -4.102361      -111.6309
  15   1.0000      -3.336932       -90.8025
  16   1.0000      -2.310396       -62.8691
  17   1.0000      -2.309683       -62.8497
  18   1.0000      -2.306229       -62.7557
  19   1.0000      -2.304379       -62.7053
  20   1.0000      -2.301679       -62.6319
  21   1.0000      -2.301498       -62.6269
  22   1.0000      -2.300665       -62.6043
  23   1.0000      -2.300659       -62.6041
  24   1.0000      -2.300165       -62.5907
  25   1.0000      -2.299683       -62.5776
  26   1.0000      -2.299201       -62.5644
  27   1.0000      -2.298206       -62.5374
  28   1.0000      -2.298156       -62.5360
  29   1.0000      -2.297025       -62.5052
  30   1.0000      -2.295984       -62.4769
  31   1.0000      -2.295965       -62.4764
  32   1.0000      -2.294795       -62.4445
  33   1.0000      -2.294182       -62.4279
  34   1.0000      -2.293575       -62.4113
  35   1.0000      -2.292976       -62.3951
  36   1.0000      -2.292895       -62.3928
  37   1.0000      -2.291756       -62.3618
  38   1.0000      -2.289548       -62.3018
  39   1.0000      -2.289506       -62.3006
  40   1.0000      -2.289209       -62.2925
  41   1.0000      -2.288451       -62.2719
  42   1.0000      -2.288262       -62.2668
  43   1.0000      -2.283859       -62.1470
  44   1.0000      -2.283518       -62.1377
  45   1.0000      -2.282628       -62.1135
  46   1.0000      -2.108742       -57.3818
  47   1.0000      -2.105609       -57.2965
  48   1.0000      -2.098605       -57.1060
  49   1.0000      -0.419154       -11.4058
  50   1.0000      -0.387281       -10.5384
  51   1.0000      -0.381206       -10.3732
  52   1.0000      -0.372820       -10.1449
  53   1.0000      -0.365460        -9.9447
  54   1.0000      -0.360492        -9.8095
  55   1.0000      -0.355302        -9.6682
  56   1.0000      -0.348937        -9.4951
  57   1.0000      -0.348474        -9.4825
  58   1.0000      -0.344527        -9.3751
  59   1.0000      -0.342713        -9.3257
  60   1.0000      -0.338459        -9.2099
  61   1.0000      -0.335603        -9.1322
  62   1.0000      -0.334360        -9.0984
  63   1.0000      -0.329286        -8.9603
  64   1.0000      -0.328039        -8.9264
  65   1.0000      -0.323395        -8.8000
  66   1.0000      -0.322862        -8.7855
  67   1.0000      -0.318661        -8.6712
  68   1.0000      -0.315793        -8.5932
  69   1.0000      -0.314387        -8.5549
  70   1.0000      -0.312609        -8.5065
  71   1.0000      -0.311335        -8.4719
  72   1.0000      -0.306292        -8.3346
  73   1.0000      -0.303172        -8.2497
  74   1.0000      -0.300431        -8.1751
  75   1.0000      -0.295492        -8.0408
  76   1.0000      -0.294575        -8.0158
  77   1.0000      -0.291561        -7.9338
  78   1.0000      -0.289419        -7.8755
  79   1.0000      -0.287167        -7.8142
  80   1.0000      -0.285184        -7.7602
  81   1.0000      -0.283352        -7.7104
  82   1.0000      -0.281863        -7.6699
  83   1.0000      -0.277574        -7.5532
  84   1.0000      -0.275079        -7.4853
  85   1.0000      -0.274883        -7.4800
  86   1.0000      -0.273658        -7.4466
  87   1.0000      -0.271601        -7.3906
  88   1.0000      -0.268938        -7.3182
  89   1.0000      -0.267886        -7.2895
  90   1.0000      -0.266272        -7.2456
  91   1.0000      -0.265670        -7.2292
  92   1.0000      -0.261975        -7.1287
  93   1.0000      -0.260504        -7.0887
  94   1.0000      -0.259389        -7.0583
  95   1.0000      -0.259045        -7.0490
  96   1.0000      -0.253804        -6.9064
  97   1.0000      -0.250124        -6.8062
  98   1.0000      -0.246174        -6.6987
  99   1.0000      -0.244830        -6.6622
 100   1.0000      -0.242762        -6.6059
 101   1.0000      -0.241804        -6.5798
 102   1.0000      -0.237598        -6.4654
 103   1.0000      -0.209997        -5.7143
 104   1.0000      -0.192117        -5.2278
 105   1.0000      -0.185046        -5.0354
 106   1.0000      -0.176968        -4.8155
 107   0.0000      -0.147342        -4.0094
 108   0.0000      -0.140039        -3.8106
 109   0.0000      -0.139381        -3.7928
 110   0.0000      -0.132868        -3.6155
 111   0.0000      -0.132408        -3.6030

MULLIKEN ATOMIC CHARGES AND SPIN POPULATIONS
--------------------------------------------
   0 Au:    0.257258   -0.120234
   1 Au:    0.167491   -0.173249
   2 Au:    0.006372   -0.137686
   3 Au:    0.224443   -0.197283
   4 Au:    0.168724   -0.173642
   5 Au:    0.328065    0.023503
   6 Au:    0.031892   -0.005051
   7 Au:    0.203121   -0.043926
   8 Au:    0.259032   -0.120228
   9 Au:    0.005855   -0.137261
  10 Fe:   -1.652252    3.085057
Sum of atomic charges         :   -0.0000000

LOEWDIN ATOMIC CHARGES AND SPIN POPULATIONS
-------------------------------------------
   0 Au:    0.091606   -0.155884
   1 Au:    0.030222   -0.167341
   2 Au:   -0.020838   -0.095493
   3 Au:    0.092673   -0.158657
   4 Au:    0.030968   -0.166964
   5 Au:    0.098615   -0.026566
   6 Au:    0.024171   -0.007801
   7 Au:    0.067981   -0.044099
   8 Au:    0.091812   -0.156423
   9 Au:   -0.020425   -0.095128
  10 Fe:   -0.486786    3.074355

  Mayer bond orders larger than 0.100000
B(  0-Au,  1-Au) :   0.2618 B(  0-Au,  2-Au) :   0.3555 B(  0-Au,  3-Au) :   0.1364
B(  0-Au, 10-Fe) :   0.5308 B(  1-Au,  4-Au) :   0.3302 B(  1-Au, 10-Fe) :   0.5120
B(  2-Au,  3-Au) :   0.1534 B(  2-Au,  5-Au) :   0.3976 B(  2-Au,  6-Au) :   0.1275
B(  2-Au,  9-Au) :   0.1626 B(  2-Au, 10-Fe) :   0.5169 B(  3-Au,  8-Au) :   0.1364
B(  3-Au,  9-Au) :   0.1510 B(  3-Au, 10-Fe) :   0.6490 B(  4-Au,  8-Au) :   0.2616
B(  4-Au, 10-Fe) :   0.5140 B(  5-Au,  6-Au) :   0.2615 B(  5-Au,  9-Au) :   0.3988
B(  6-Au,  7-Au) :   0.4242 B(  6-Au,  9-Au) :   0.1265 B(  6-Au, 10-Fe) :   0.5919
B(  7-Au, 10-Fe) :   0.6450 B(  8-Au,  9-Au) :   0.3566 B(  8-Au, 10-Fe) :   0.5297
B(  9-Au, 10-Fe) :   0.5194

FINAL SINGLE POINT ENERGY     -2622.125596670644

DIPOLE MOMENT
-------------
                                X             Y             Z
Electronic contribution:     -6.16850     -17.49436       6.31670
Nuclear contribution   :      5.90833      17.15469      -6.29507
                        -----------------------------------------
Total Dipole Moment    :     -0.26018      -0.33967       0.02163
                        -----------------------------------------
Magnitude (a.u.)       :      0.42841
Magnitude (Debye)      :      1.08893

Rotational constants in cm-1:     0.002183     0.001445     0.001421
Rotational constants in MHz :    65.458421    43.323577    42.600082

                             ****ORCA TERMINATED NORMALLY****
TOTAL RUN TIME: 0 days 0 hours 3 minutes 39 seconds 932 msec
