                         Program Version 5.0.3 -  RELEASE  -
|  1> !RI-B2PLYP def2-TZVP def2-TZVP/C
|  2> !RIJCOSX VERYSLOWCONV
|  3>
|  4> %scf
|  5>   AutoTRAHIter 200
|  6>   maxiter 400
|  7> end
|  8>
|  9>
| 10> %pal nprocs 6 end
| 11>
| 12> *xyzfile 0 6 pbe.xyz
| 13>
| 14> $new_job
| 15>
| 16> !RI-B2PLYP def2-TZVP def2-TZVP/C
| 17> !RIJCOSX VERYSLOWCONV
| 18>
| 19> %scf
| 20>   AutoTRAHIter 200
| 21>   maxiter 400
| 22> end
| 23>
| 24>
| 25> %pal nprocs 6 end
| 26>
| 27> *xyzfile 0 4 pbe.xyz
| 28>
| 29>
| 30>
| 31>
| 32>
| 33>                          ****END OF INPUT****
 Total Charge           Charge          ....    0
 Multiplicity           Mult            ....    6
 Number of Electrons    NEL             ....  215
MP2 TOTAL ENERGY:    -2506.612490391 Eh
FINAL SINGLE POINT ENERGY     -2506.612490390879

CARTESIAN COORDINATES (ANGSTROEM)
---------------------------------
  Au     8.223142    8.974742   10.708606
  Au     9.919438    7.524330    8.956072
  Au     6.517022    7.546549    8.946978
  Au     9.937985   10.408418    8.960451
  Au     6.536043   10.430427    8.951372
  Au     6.543204   10.434449    6.252537
  Au     9.945682   10.412232    6.261583
  Au     6.524406    7.550424    6.248161
  Au     9.926890    7.528421    6.257178
  Au     8.239523    8.983912    4.500083
  Mn     8.231338    8.979337    7.604210

 Multiplicity           Mult            ....    4
 Number of Electrons    NEL             ....  215
 Basis Dimension        Dim             ....  445

ORBITAL ENERGIES
----------------
                 SPIN UP ORBITALS
  NO   OCC          E(Eh)            E(eV)
   0   1.0000    -237.615931     -6465.8582
   1   1.0000     -28.122155      -765.2427
   2   1.0000     -24.040198      -654.1671
   3   1.0000     -24.039903      -654.1590
   4   1.0000     -24.039079      -654.1366
   5   1.0000      -4.396275      -119.6287
   6   1.0000      -4.396272      -119.6287
   7   1.0000      -4.396181      -119.6262
   8   1.0000      -4.396179      -119.6261
   9   1.0000      -4.396014      -119.6216
  10   1.0000      -4.396010      -119.6215
  11   1.0000      -4.395918      -119.6190
  12   1.0000      -4.395914      -119.6189
  13   1.0000      -4.381478      -119.2261
  14   1.0000      -4.381478      -119.2261
  15   1.0000      -3.597301       -97.8875
  16   1.0000      -2.520508       -68.5865
  17   1.0000      -2.520304       -68.5810
  18   1.0000      -2.519888       -68.5696
  19   1.0000      -2.519596       -68.5617
  20   1.0000      -2.518414       -68.5295
  21   1.0000      -2.518015       -68.5187
  22   1.0000      -2.516933       -68.4892
  23   1.0000      -2.516657       -68.4817
  24   1.0000      -2.515955       -68.4626
  25   1.0000      -2.515880       -68.4606
  26   1.0000      -2.514711       -68.4288
  27   1.0000      -2.514244       -68.4161
  28   1.0000      -2.511750       -68.3482
  29   1.0000      -2.511720       -68.3474
  30   1.0000      -2.511261       -68.3349
  31   1.0000      -2.510901       -68.3251
  32   1.0000      -2.510693       -68.3194
  33   1.0000      -2.510424       -68.3121
  34   1.0000      -2.510257       -68.3076
  35   1.0000      -2.509979       -68.3000
  36   1.0000      -2.509503       -68.2871
  37   1.0000      -2.509298       -68.2815
  38   1.0000      -2.509085       -68.2757
  39   1.0000      -2.508863       -68.2696
  40   1.0000      -2.498348       -67.9835
  41   1.0000      -2.498277       -67.9816
  42   1.0000      -2.497469       -67.9596
  43   1.0000      -2.497416       -67.9581
  44   1.0000      -2.496448       -67.9318
  45   1.0000      -2.496385       -67.9301
  46   1.0000      -2.398470       -65.2657
  47   1.0000      -2.398415       -65.2642
  48   1.0000      -2.396836       -65.2212
  49   1.0000      -0.516448       -14.0533
  50   1.0000      -0.513215       -13.9653
  51   1.0000      -0.512153       -13.9364
  52   1.0000      -0.511235       -13.9114
  53   1.0000      -0.504859       -13.7379
  54   1.0000      -0.490475       -13.3465
  55   1.0000      -0.456006       -12.4086
  56   1.0000      -0.453686       -12.3454
  57   1.0000      -0.445741       -12.1292
  58   1.0000      -0.442666       -12.0456
  59   1.0000      -0.439388       -11.9563
  60   1.0000      -0.438698       -11.9376
  61   1.0000      -0.437260       -11.8984
  62   1.0000      -0.432856       -11.7786
  63   1.0000      -0.431032       -11.7290
  64   1.0000      -0.430238       -11.7074
  65   1.0000      -0.425851       -11.5880
  66   1.0000      -0.424760       -11.5583
  67   1.0000      -0.416653       -11.3377
  68   1.0000      -0.415377       -11.3030
  69   1.0000      -0.412221       -11.2171
  70   1.0000      -0.408012       -11.1026
  71   1.0000      -0.407106       -11.0779
  72   1.0000      -0.404672       -11.0117
  73   1.0000      -0.403859       -10.9896
  74   1.0000      -0.402654       -10.9568
  75   1.0000      -0.402355       -10.9486
  76   1.0000      -0.396925       -10.8009
  77   1.0000      -0.394468       -10.7340
  78   1.0000      -0.392519       -10.6810
  79   1.0000      -0.392371       -10.6770
  80   1.0000      -0.386210       -10.5093
  81   1.0000      -0.383197       -10.4273
  82   1.0000      -0.378114       -10.2890
  83   1.0000      -0.373462       -10.1624
  84   1.0000      -0.368419       -10.0252
  85   1.0000      -0.363785        -9.8991
  86   1.0000      -0.362511        -9.8644
  87   1.0000      -0.360959        -9.8222
  88   1.0000      -0.360859        -9.8195
  89   1.0000      -0.359728        -9.7887
  90   1.0000      -0.359717        -9.7884
  91   1.0000      -0.356647        -9.7049
  92   1.0000      -0.354793        -9.6544
  93   1.0000      -0.351849        -9.5743
  94   1.0000      -0.350978        -9.5506
  95   1.0000      -0.350210        -9.5297
  96   1.0000      -0.348613        -9.4863
  97   1.0000      -0.348179        -9.4744
  98   1.0000      -0.347180        -9.4472
  99   1.0000      -0.345623        -9.4049
 100   1.0000      -0.345586        -9.4039
 101   1.0000      -0.340531        -9.2663
 102   1.0000      -0.331759        -9.0276
 103   1.0000      -0.329311        -8.9610
 104   1.0000      -0.316282        -8.6065
 105   1.0000      -0.302918        -8.2428
 106   1.0000      -0.283565        -7.7162
 107   1.0000      -0.250543        -6.8176
 108   1.0000      -0.201001        -5.4695
 109   0.0000      -0.112983        -3.0744
 110   0.0000      -0.112467        -3.0604
 111   0.0000      -0.090874        -2.4728
 112   0.0000      -0.053407        -1.4533
 113   0.0000      -0.036126        -0.9830

                 SPIN DOWN ORBITALS
  NO   OCC          E(Eh)            E(eV)
   0   1.0000    -237.613744     -6465.7987
   1   1.0000     -28.023218      -762.5505
   2   1.0000     -23.949184      -651.6904
   3   1.0000     -23.949079      -651.6876
   4   1.0000     -23.948333      -651.6673
   5   1.0000      -4.396260      -119.6283
   6   1.0000      -4.396259      -119.6283
   7   1.0000      -4.396166      -119.6258
   8   1.0000      -4.396165      -119.6257
   9   1.0000      -4.395997      -119.6212
  10   1.0000      -4.395994      -119.6211
  11   1.0000      -4.395901      -119.6185
  12   1.0000      -4.395898      -119.6185
  13   1.0000      -4.381518      -119.2272
  14   1.0000      -4.381518      -119.2272
  15   1.0000      -3.319310       -90.3230
  16   1.0000      -2.518646       -68.5359
  17   1.0000      -2.518550       -68.5332
  18   1.0000      -2.518177       -68.5231
  19   1.0000      -2.518099       -68.5210
  20   1.0000      -2.516162       -68.4682
  21   1.0000      -2.515986       -68.4635
  22   1.0000      -2.515466       -68.4493
  23   1.0000      -2.515448       -68.4488
  24   1.0000      -2.514499       -68.4230
  25   1.0000      -2.514288       -68.4172
  26   1.0000      -2.513722       -68.4019
  27   1.0000      -2.513345       -68.3916
  28   1.0000      -2.511351       -68.3373
  29   1.0000      -2.511292       -68.3357
  30   1.0000      -2.510716       -68.3200
  31   1.0000      -2.510523       -68.3148
  32   1.0000      -2.510456       -68.3130
  33   1.0000      -2.510283       -68.3083
  34   1.0000      -2.510076       -68.3026
  35   1.0000      -2.509805       -68.2953
  36   1.0000      -2.509377       -68.2836
  37   1.0000      -2.509208       -68.2790
  38   1.0000      -2.508868       -68.2698
  39   1.0000      -2.508687       -68.2648
  40   1.0000      -2.498366       -67.9840
  41   1.0000      -2.498299       -67.9822
  42   1.0000      -2.497831       -67.9694
  43   1.0000      -2.497763       -67.9676
  44   1.0000      -2.496439       -67.9315
  45   1.0000      -2.496390       -67.9302
  46   1.0000      -2.081282       -56.6346
  47   1.0000      -2.079522       -56.5867
  48   1.0000      -2.079353       -56.5821
  49   1.0000      -0.493776       -13.4363
  50   1.0000      -0.462520       -12.5858
  51   1.0000      -0.456875       -12.4322
  52   1.0000      -0.454269       -12.3613
  53   1.0000      -0.449139       -12.2217
  54   1.0000      -0.446785       -12.1576
  55   1.0000      -0.445009       -12.1093
  56   1.0000      -0.443015       -12.0551
  57   1.0000      -0.441412       -12.0114
  58   1.0000      -0.440892       -11.9973
  59   1.0000      -0.439765       -11.9666
  60   1.0000      -0.433983       -11.8093
  61   1.0000      -0.431992       -11.7551
  62   1.0000      -0.428455       -11.6588
  63   1.0000      -0.426738       -11.6121
  64   1.0000      -0.426079       -11.5942
  65   1.0000      -0.423958       -11.5365
  66   1.0000      -0.413543       -11.2531
  67   1.0000      -0.409038       -11.1305
  68   1.0000      -0.409011       -11.1298
  69   1.0000      -0.405074       -11.0226
  70   1.0000      -0.404911       -11.0182
  71   1.0000      -0.404036       -10.9944
  72   1.0000      -0.401010       -10.9120
  73   1.0000      -0.397331       -10.8119
  74   1.0000      -0.395058       -10.7501
  75   1.0000      -0.394032       -10.7222
  76   1.0000      -0.388609       -10.5746
  77   1.0000      -0.386889       -10.5278
  78   1.0000      -0.384546       -10.4640
  79   1.0000      -0.384014       -10.4496
  80   1.0000      -0.377865       -10.2822
  81   1.0000      -0.368823       -10.0362
  82   1.0000      -0.367969       -10.0129
  83   1.0000      -0.363531        -9.8922
  84   1.0000      -0.363235        -9.8841
  85   1.0000      -0.360814        -9.8182
  86   1.0000      -0.359748        -9.7892
  87   1.0000      -0.359423        -9.7804
  88   1.0000      -0.357701        -9.7335
  89   1.0000      -0.357416        -9.7258
  90   1.0000      -0.356148        -9.6913
  91   1.0000      -0.352085        -9.5807
  92   1.0000      -0.348826        -9.4920
  93   1.0000      -0.348704        -9.4887
  94   1.0000      -0.347015        -9.4427
  95   1.0000      -0.345149        -9.3920
  96   1.0000      -0.342786        -9.3277
  97   1.0000      -0.339078        -9.2268
  98   1.0000      -0.331646        -9.0245
  99   1.0000      -0.319794        -8.7020
 100   1.0000      -0.310152        -8.4397
 101   1.0000      -0.307171        -8.3586
 102   1.0000      -0.267799        -7.2872
 103   1.0000      -0.225049        -6.1239
 104   1.0000      -0.213323        -5.8048
 105   1.0000      -0.212246        -5.7755
 106   0.0000      -0.108600        -2.9552
 107   0.0000      -0.057194        -1.5563
 108   0.0000      -0.042516        -1.1569
 109   0.0000      -0.035181        -0.9573
 110   0.0000      -0.034649        -0.9429

MULLIKEN ATOMIC CHARGES AND SPIN POPULATIONS
--------------------------------------------
   0 Au:    0.118002    0.063714
   1 Au:    0.222626   -0.207633
   2 Au:    0.222514   -0.207419
   3 Au:    0.222517   -0.207596
   4 Au:    0.222532   -0.207741
   5 Au:    0.222642   -0.207616
   6 Au:    0.222554   -0.207400
   7 Au:    0.222541   -0.207569
   8 Au:    0.222533   -0.207739
   9 Au:    0.117994    0.063706
  10 Mn:   -2.016453    4.533294
Sum of atomic charges         :   -0.0000000

LOEWDIN ATOMIC CHARGES AND SPIN POPULATIONS
-------------------------------------------
   0 Au:   -0.014072   -0.041111
   1 Au:    0.055322   -0.154907
   2 Au:    0.055257   -0.154787
   3 Au:    0.055198   -0.154628
   4 Au:    0.055312   -0.154898
   5 Au:    0.055329   -0.154902
   6 Au:    0.055270   -0.154790
   7 Au:    0.055217   -0.154622
   8 Au:    0.055331   -0.154897
   9 Au:   -0.014085   -0.041113
  10 Mn:   -0.414080    4.320656

  Mayer bond orders larger than 0.100000
B(  0-Au,  1-Au) :   0.1721 B(  0-Au,  2-Au) :   0.1718 B(  0-Au,  3-Au) :   0.1720
B(  0-Au,  4-Au) :   0.1719 B(  0-Au,  9-Au) :   0.1418 B(  0-Au, 10-Mn) :   0.3806
B(  1-Au,  3-Au) :   0.1429 B(  1-Au,  8-Au) :   0.3187 B(  1-Au, 10-Mn) :   0.5305
B(  2-Au,  4-Au) :   0.1430 B(  2-Au,  7-Au) :   0.3188 B(  2-Au, 10-Mn) :   0.5308
B(  3-Au,  6-Au) :   0.3188 B(  3-Au, 10-Mn) :   0.5307 B(  4-Au,  5-Au) :   0.3187
B(  4-Au, 10-Mn) :   0.5305 B(  5-Au,  7-Au) :   0.1429 B(  5-Au,  9-Au) :   0.1721
B(  5-Au, 10-Mn) :   0.5305 B(  6-Au,  8-Au) :   0.1431 B(  6-Au,  9-Au) :   0.1717
B(  6-Au, 10-Mn) :   0.5307 B(  7-Au,  9-Au) :   0.1720 B(  7-Au, 10-Mn) :   0.5307
B(  8-Au,  9-Au) :   0.1719 B(  8-Au, 10-Mn) :   0.5305 B(  9-Au, 10-Mn) :   0.3806

MP2 TOTAL ENERGY:    -2506.635942512 Eh
FINAL SINGLE POINT ENERGY     -2506.635942511747

DIPOLE MOMENT
-------------
                                X             Y             Z
Electronic contribution:     -0.00018       0.00198       0.00332
Nuclear contribution   :      0.00018      -0.00193      -0.00334
                        -----------------------------------------
Total Dipole Moment    :      0.00000       0.00005      -0.00001
                        -----------------------------------------
Magnitude (a.u.)       :      0.00005
Magnitude (Debye)      :      0.00013

Rotational constants in cm-1:     0.002151     0.001696     0.001502
Rotational constants in MHz :    64.487260    50.832463    45.019299

                             ****ORCA TERMINATED NORMALLY****
TOTAL RUN TIME: 0 days 0 hours 21 minutes 55 seconds 946 msec
