                         Program Version 5.0.3 -  RELEASE  -
|  1> !PBE def2-TZVP VERYSLOWCONV
|  2> !KDIIS
|  3>
|  4> %scf
|  5>   AutoTRAHIter 200
|  6>   maxiter 400
|  7> end
|  8>
|  9>
| 10> %pal nprocs 6 end
| 11>
| 12> *xyzfile 0 6 pbe.xyz
| 13>
| 14> $new_job
| 15>
| 16> !PBE def2-TZVP VERYSLOWCONV
| 17> !KDIIS
| 18>
| 19> %scf
| 20>   AutoTRAHIter 200
| 21>   maxiter 400
| 22> end
| 23>
| 24>
| 25> %pal nprocs 6 end
| 26>
| 27> *xyzfile 0 4 pbe.xyz
| 28>
| 29>
| 30>
| 31>
| 32>
| 33>                          ****END OF INPUT****
 Total Charge           Charge          ....    0
 Multiplicity           Mult            ....    6
 Number of Electrons    NEL             ....  215
FINAL SINGLE POINT ENERGY     -2508.935951126374

CARTESIAN COORDINATES (ANGSTROEM)
---------------------------------
  Au     8.223142    8.974742   10.708606
  Au     9.919438    7.524330    8.956072
  Au     6.517022    7.546549    8.946978
  Au     9.937985   10.408418    8.960451
  Au     6.536043   10.430427    8.951372
  Au     6.543204   10.434449    6.252537
  Au     9.945682   10.412232    6.261583
  Au     6.524406    7.550424    6.248161
  Au     9.926890    7.528421    6.257178
  Au     8.239523    8.983912    4.500083
  Mn     8.231338    8.979337    7.604210

 Multiplicity           Mult            ....    4
 Number of Electrons    NEL             ....  215
 Basis Dimension        Dim             ....  445

ORBITAL ENERGIES
----------------
                 SPIN UP ORBITALS
  NO   OCC          E(Eh)            E(eV)
   0   1.0000    -234.183559     -6372.4586
   1   1.0000     -26.870802      -731.1917
   2   1.0000     -23.034539      -626.8017
   3   1.0000     -23.016063      -626.2989
   4   1.0000     -23.015561      -626.2853
   5   1.0000      -4.021223      -109.4230
   6   1.0000      -4.021196      -109.4223
   7   1.0000      -4.021126      -109.4204
   8   1.0000      -4.021121      -109.4203
   9   1.0000      -4.021037      -109.4180
  10   1.0000      -4.020990      -109.4167
  11   1.0000      -4.020920      -109.4148
  12   1.0000      -4.020916      -109.4147
  13   1.0000      -4.020800      -109.4115
  14   1.0000      -4.020770      -109.4107
  15   1.0000      -3.058379       -83.2227
  16   1.0000      -2.239817       -60.9485
  17   1.0000      -2.239787       -60.9477
  18   1.0000      -2.239461       -60.9388
  19   1.0000      -2.239370       -60.9363
  20   1.0000      -2.238339       -60.9083
  21   1.0000      -2.238180       -60.9040
  22   1.0000      -2.238068       -60.9009
  23   1.0000      -2.238052       -60.9005
  24   1.0000      -2.236944       -60.8704
  25   1.0000      -2.236750       -60.8651
  26   1.0000      -2.236726       -60.8644
  27   1.0000      -2.236326       -60.8535
  28   1.0000      -2.235522       -60.8316
  29   1.0000      -2.235318       -60.8261
  30   1.0000      -2.234405       -60.8012
  31   1.0000      -2.233976       -60.7896
  32   1.0000      -2.233697       -60.7820
  33   1.0000      -2.233646       -60.7806
  34   1.0000      -2.233016       -60.7635
  35   1.0000      -2.232930       -60.7611
  36   1.0000      -2.230753       -60.7019
  37   1.0000      -2.230585       -60.6973
  38   1.0000      -2.229190       -60.6594
  39   1.0000      -2.229042       -60.6553
  40   1.0000      -2.228756       -60.6475
  41   1.0000      -2.228615       -60.6437
  42   1.0000      -2.228056       -60.6285
  43   1.0000      -2.227946       -60.6255
  44   1.0000      -2.227650       -60.6174
  45   1.0000      -2.227543       -60.6145
  46   1.0000      -1.988968       -54.1226
  47   1.0000      -1.948319       -53.0164
  48   1.0000      -1.946466       -52.9660
  49   1.0000      -0.410667       -11.1748
  50   1.0000      -0.369734       -10.0610
  51   1.0000      -0.365329        -9.9411
  52   1.0000      -0.359647        -9.7865
  53   1.0000      -0.355583        -9.6759
  54   1.0000      -0.350454        -9.5363
  55   1.0000      -0.348685        -9.4882
  56   1.0000      -0.345229        -9.3941
  57   1.0000      -0.343336        -9.3427
  58   1.0000      -0.336242        -9.1496
  59   1.0000      -0.336051        -9.1444
  60   1.0000      -0.334602        -9.1050
  61   1.0000      -0.332452        -9.0465
  62   1.0000      -0.330772        -9.0008
  63   1.0000      -0.324288        -8.8243
  64   1.0000      -0.321346        -8.7443
  65   1.0000      -0.319056        -8.6819
  66   1.0000      -0.317291        -8.6339
  67   1.0000      -0.313232        -8.5235
  68   1.0000      -0.310389        -8.4461
  69   1.0000      -0.305504        -8.3132
  70   1.0000      -0.304947        -8.2980
  71   1.0000      -0.303964        -8.2713
  72   1.0000      -0.302990        -8.2448
  73   1.0000      -0.299273        -8.1436
  74   1.0000      -0.293251        -7.9798
  75   1.0000      -0.291909        -7.9432
  76   1.0000      -0.290686        -7.9100
  77   1.0000      -0.287295        -7.8177
  78   1.0000      -0.283751        -7.7212
  79   1.0000      -0.279323        -7.6008
  80   1.0000      -0.274395        -7.4667
  81   1.0000      -0.272891        -7.4257
  82   1.0000      -0.271649        -7.3920
  83   1.0000      -0.269099        -7.3226
  84   1.0000      -0.268209        -7.2983
  85   1.0000      -0.267619        -7.2823
  86   1.0000      -0.266015        -7.2386
  87   1.0000      -0.261177        -7.1070
  88   1.0000      -0.259617        -7.0645
  89   1.0000      -0.257169        -6.9979
  90   1.0000      -0.257100        -6.9961
  91   1.0000      -0.256280        -6.9737
  92   1.0000      -0.254928        -6.9370
  93   1.0000      -0.254890        -6.9359
  94   1.0000      -0.254714        -6.9311
  95   1.0000      -0.250314        -6.8114
  96   1.0000      -0.249513        -6.7896
  97   1.0000      -0.248242        -6.7550
  98   1.0000      -0.242613        -6.6018
  99   1.0000      -0.242096        -6.5878
 100   1.0000      -0.241916        -6.5829
 101   1.0000      -0.234411        -6.3787
 102   1.0000      -0.231127        -6.2893
 103   1.0000      -0.220432        -5.9983
 104   1.0000      -0.217297        -5.9130
 105   1.0000      -0.213448        -5.8082
 106   1.0000      -0.211651        -5.7593
 107   1.0000      -0.195286        -5.3140
 108   1.0000      -0.189845        -5.1659
 109   0.0000      -0.171933        -4.6785
 110   0.0000      -0.161620        -4.3979
 111   0.0000      -0.155741        -4.2379
 112   0.0000      -0.112245        -3.0543
 113   0.0000      -0.109665        -2.9841

                 SPIN DOWN ORBITALS
  NO   OCC          E(Eh)            E(eV)
   0   1.0000    -234.183071     -6372.4453
   1   1.0000     -26.827624      -730.0168
   2   1.0000     -22.993696      -625.6903
   3   1.0000     -22.988521      -625.5495
   4   1.0000     -22.985591      -625.4697
   5   1.0000      -4.020109      -109.3927
   6   1.0000      -4.020096      -109.3924
   7   1.0000      -4.020026      -109.3905
   8   1.0000      -4.020021      -109.3903
   9   1.0000      -4.019906      -109.3872
  10   1.0000      -4.019890      -109.3868
  11   1.0000      -4.019820      -109.3849
  12   1.0000      -4.019816      -109.3848
  13   1.0000      -4.019066      -109.3644
  14   1.0000      -4.019042      -109.3637
  15   1.0000      -2.952156       -80.3322
  16   1.0000      -2.238561       -60.9143
  17   1.0000      -2.238522       -60.9133
  18   1.0000      -2.238262       -60.9062
  19   1.0000      -2.238177       -60.9039
  20   1.0000      -2.236548       -60.8596
  21   1.0000      -2.236510       -60.8585
  22   1.0000      -2.236432       -60.8564
  23   1.0000      -2.236340       -60.8539
  24   1.0000      -2.235254       -60.8243
  25   1.0000      -2.235106       -60.8203
  26   1.0000      -2.235076       -60.8195
  27   1.0000      -2.234695       -60.8092
  28   1.0000      -2.234125       -60.7936
  29   1.0000      -2.233822       -60.7854
  30   1.0000      -2.233272       -60.7704
  31   1.0000      -2.232816       -60.7580
  32   1.0000      -2.231827       -60.7311
  33   1.0000      -2.231315       -60.7172
  34   1.0000      -2.231186       -60.7137
  35   1.0000      -2.230888       -60.7056
  36   1.0000      -2.229549       -60.6691
  37   1.0000      -2.229387       -60.6647
  38   1.0000      -2.228347       -60.6364
  39   1.0000      -2.228205       -60.6325
  40   1.0000      -2.227909       -60.6245
  41   1.0000      -2.227774       -60.6208
  42   1.0000      -2.227243       -60.6064
  43   1.0000      -2.227136       -60.6035
  44   1.0000      -2.226835       -60.5953
  45   1.0000      -2.226731       -60.5924
  46   1.0000      -1.860884       -50.6372
  47   1.0000      -1.859462       -50.5985
  48   1.0000      -1.851274       -50.3757
  49   1.0000      -0.404174       -10.9981
  50   1.0000      -0.367037        -9.9876
  51   1.0000      -0.358293        -9.7496
  52   1.0000      -0.357500        -9.7281
  53   1.0000      -0.347755        -9.4629
  54   1.0000      -0.347378        -9.4526
  55   1.0000      -0.344139        -9.3645
  56   1.0000      -0.343484        -9.3467
  57   1.0000      -0.341645        -9.2966
  58   1.0000      -0.333226        -9.0675
  59   1.0000      -0.333173        -9.0661
  60   1.0000      -0.329891        -8.9768
  61   1.0000      -0.327853        -8.9213
  62   1.0000      -0.324912        -8.8413
  63   1.0000      -0.322690        -8.7809
  64   1.0000      -0.319915        -8.7053
  65   1.0000      -0.317733        -8.6460
  66   1.0000      -0.311303        -8.4710
  67   1.0000      -0.308473        -8.3940
  68   1.0000      -0.307568        -8.3693
  69   1.0000      -0.304771        -8.2932
  70   1.0000      -0.304603        -8.2887
  71   1.0000      -0.302300        -8.2260
  72   1.0000      -0.297442        -8.0938
  73   1.0000      -0.292884        -7.9698
  74   1.0000      -0.292398        -7.9566
  75   1.0000      -0.291480        -7.9316
  76   1.0000      -0.287646        -7.8273
  77   1.0000      -0.285724        -7.7750
  78   1.0000      -0.283499        -7.7144
  79   1.0000      -0.279195        -7.5973
  80   1.0000      -0.272616        -7.4183
  81   1.0000      -0.272347        -7.4109
  82   1.0000      -0.270616        -7.3638
  83   1.0000      -0.268490        -7.3060
  84   1.0000      -0.267769        -7.2864
  85   1.0000      -0.266346        -7.2476
  86   1.0000      -0.264925        -7.2090
  87   1.0000      -0.261135        -7.1059
  88   1.0000      -0.258328        -7.0295
  89   1.0000      -0.257268        -7.0006
  90   1.0000      -0.256267        -6.9734
  91   1.0000      -0.255454        -6.9513
  92   1.0000      -0.254443        -6.9238
  93   1.0000      -0.253533        -6.8990
  94   1.0000      -0.253259        -6.8915
  95   1.0000      -0.248983        -6.7752
  96   1.0000      -0.247217        -6.7271
  97   1.0000      -0.247056        -6.7227
  98   1.0000      -0.241201        -6.5634
  99   1.0000      -0.240702        -6.5498
 100   1.0000      -0.240285        -6.5385
 101   1.0000      -0.230009        -6.2589
 102   1.0000      -0.221632        -6.0309
 103   1.0000      -0.196074        -5.3354
 104   1.0000      -0.195717        -5.3257
 105   1.0000      -0.146430        -3.9846
 106   0.0000      -0.193868        -5.2754
 107   0.0000      -0.173455        -4.7200
 108   0.0000      -0.128757        -3.5037
 109   0.0000      -0.124326        -3.3831
 110   0.0000      -0.116671        -3.1748

MULLIKEN ATOMIC CHARGES AND SPIN POPULATIONS
--------------------------------------------
   0 Au:    0.186189    0.162619
   1 Au:    0.264593   -0.001907
   2 Au:    0.264428   -0.002038
   3 Au:    0.264662   -0.001882
   4 Au:    0.264499   -0.001965
   5 Au:    0.264634   -0.001926
   6 Au:    0.264475   -0.002035
   7 Au:    0.264692   -0.001864
   8 Au:    0.264513   -0.001978
   9 Au:    0.186188    0.162620
  10 Mn:   -2.488873    2.690355
Sum of atomic charges         :    0.0000000

LOEWDIN ATOMIC CHARGES AND SPIN POPULATIONS
-------------------------------------------
   0 Au:    0.024145    0.143166
   1 Au:    0.093093    0.001300
   2 Au:    0.093097    0.001353
   3 Au:    0.093080    0.001321
   4 Au:    0.093084    0.001365
   5 Au:    0.093114    0.001295
   6 Au:    0.093117    0.001340
   7 Au:    0.093110    0.001326
   8 Au:    0.093108    0.001362
   9 Au:    0.024164    0.143167
  10 Mn:   -0.793111    2.703006

  Mayer bond orders larger than 0.100000
B(  0-Au,  1-Au) :   0.1968 B(  0-Au,  2-Au) :   0.1965 B(  0-Au,  3-Au) :   0.1969
B(  0-Au,  4-Au) :   0.1966 B(  0-Au,  9-Au) :   0.1675 B(  0-Au, 10-Mn) :   0.3926
B(  1-Au,  3-Au) :   0.1333 B(  1-Au,  8-Au) :   0.4133 B(  1-Au, 10-Mn) :   0.6194
B(  2-Au,  4-Au) :   0.1334 B(  2-Au,  7-Au) :   0.4134 B(  2-Au, 10-Mn) :   0.6194
B(  3-Au,  6-Au) :   0.4134 B(  3-Au, 10-Mn) :   0.6192 B(  4-Au,  5-Au) :   0.4134
B(  4-Au, 10-Mn) :   0.6194 B(  5-Au,  7-Au) :   0.1333 B(  5-Au,  9-Au) :   0.1967
B(  5-Au, 10-Mn) :   0.6194 B(  6-Au,  8-Au) :   0.1334 B(  6-Au,  9-Au) :   0.1965
B(  6-Au, 10-Mn) :   0.6194 B(  7-Au,  9-Au) :   0.1968 B(  7-Au, 10-Mn) :   0.6192
B(  8-Au,  9-Au) :   0.1966 B(  8-Au, 10-Mn) :   0.6194 B(  9-Au, 10-Mn) :   0.3928

FINAL SINGLE POINT ENERGY     -2508.959198656818

DIPOLE MOMENT
-------------
                                X             Y             Z
Electronic contribution:     -0.00022       0.00204       0.00302
Nuclear contribution   :      0.00018      -0.00193      -0.00334
                        -----------------------------------------
Total Dipole Moment    :     -0.00003       0.00010      -0.00032
                        -----------------------------------------
Magnitude (a.u.)       :      0.00034
Magnitude (Debye)      :      0.00085

Rotational constants in cm-1:     0.002151     0.001696     0.001502
Rotational constants in MHz :    64.487260    50.832463    45.019299

                             ****ORCA TERMINATED NORMALLY****
TOTAL RUN TIME: 0 days 0 hours 4 minutes 19 seconds 782 msec
