                         Program Version 5.0.3 -  RELEASE  -
|  1> !R2SCAN def2-TZVP VERYSLOWCONV
|  2> !KDIIS
|  3> %scf
|  4>   AutoTRAHIter 200
|  5>   maxiter 400
|  6> end
|  7>
|  8> %pal nprocs 6 end
|  9>
| 10> *xyzfile 0 6 pbe.xyz
| 11>
| 12> $new_job
| 13>
| 14> !R2SCAN def2-TZVP VERYSLOWCONV
| 15> !KDIIS
| 16> %scf
| 17>   AutoTRAHIter 200
| 18>   maxiter 400
| 19> end
| 20>
| 21>
| 22> %pal nprocs 6 end
| 23>
| 24> *xyzfile 0 4 pbe.xyz
| 25>
| 26>
| 27>
| 28>
| 29>
| 30>                          ****END OF INPUT****
 Total Charge           Charge          ....    0
 Multiplicity           Mult            ....    6
 Number of Electrons    NEL             ....  215
FINAL SINGLE POINT ENERGY     -2509.325022751123

CARTESIAN COORDINATES (ANGSTROEM)
---------------------------------
  Au     8.223142    8.974742   10.708606
  Au     9.919438    7.524330    8.956072
  Au     6.517022    7.546549    8.946978
  Au     9.937985   10.408418    8.960451
  Au     6.536043   10.430427    8.951372
  Au     6.543204   10.434449    6.252537
  Au     9.945682   10.412232    6.261583
  Au     6.524406    7.550424    6.248161
  Au     9.926890    7.528421    6.257178
  Au     8.239523    8.983912    4.500083
  Mn     8.231338    8.979337    7.604210

 Multiplicity           Mult            ....    4
 Number of Electrons    NEL             ....  215
 Basis Dimension        Dim             ....  445

ORBITAL ENERGIES
----------------
                 SPIN UP ORBITALS
  NO   OCC          E(Eh)            E(eV)
   0   1.0000    -235.018112     -6395.1679
   1   1.0000     -27.185245      -739.7481
   2   1.0000     -23.248472      -632.6231
   3   1.0000     -23.229728      -632.1130
   4   1.0000     -23.228439      -632.0780
   5   1.0000      -4.112071      -111.8952
   6   1.0000      -4.112052      -111.8946
   7   1.0000      -4.111973      -111.8925
   8   1.0000      -4.111968      -111.8923
   9   1.0000      -4.111845      -111.8890
  10   1.0000      -4.111820      -111.8883
  11   1.0000      -4.111741      -111.8862
  12   1.0000      -4.111735      -111.8860
  13   1.0000      -4.111252      -111.8729
  14   1.0000      -4.111214      -111.8718
  15   1.0000      -3.183012       -86.6142
  16   1.0000      -2.303705       -62.6870
  17   1.0000      -2.303651       -62.6855
  18   1.0000      -2.303368       -62.6778
  19   1.0000      -2.303266       -62.6750
  20   1.0000      -2.301773       -62.6344
  21   1.0000      -2.301753       -62.6339
  22   1.0000      -2.301609       -62.6300
  23   1.0000      -2.301477       -62.6264
  24   1.0000      -2.300295       -62.5942
  25   1.0000      -2.300200       -62.5916
  26   1.0000      -2.300096       -62.5888
  27   1.0000      -2.299769       -62.5799
  28   1.0000      -2.299023       -62.5596
  29   1.0000      -2.298836       -62.5545
  30   1.0000      -2.298063       -62.5335
  31   1.0000      -2.297611       -62.5212
  32   1.0000      -2.296729       -62.4972
  33   1.0000      -2.296683       -62.4959
  34   1.0000      -2.296196       -62.4827
  35   1.0000      -2.296118       -62.4805
  36   1.0000      -2.293917       -62.4207
  37   1.0000      -2.293748       -62.4161
  38   1.0000      -2.293285       -62.4035
  39   1.0000      -2.293132       -62.3993
  40   1.0000      -2.292822       -62.3908
  41   1.0000      -2.292673       -62.3868
  42   1.0000      -2.292082       -62.3707
  43   1.0000      -2.291976       -62.3678
  44   1.0000      -2.291648       -62.3589
  45   1.0000      -2.291544       -62.3561
  46   1.0000      -2.069434       -56.3122
  47   1.0000      -2.027024       -55.1581
  48   1.0000      -2.023347       -55.0581
  49   1.0000      -0.415991       -11.3197
  50   1.0000      -0.375607       -10.2208
  51   1.0000      -0.375343       -10.2136
  52   1.0000      -0.365898        -9.9566
  53   1.0000      -0.364238        -9.9114
  54   1.0000      -0.359545        -9.7837
  55   1.0000      -0.357868        -9.7381
  56   1.0000      -0.354744        -9.6531
  57   1.0000      -0.350912        -9.5488
  58   1.0000      -0.345836        -9.4107
  59   1.0000      -0.345132        -9.3915
  60   1.0000      -0.344095        -9.3633
  61   1.0000      -0.342266        -9.3135
  62   1.0000      -0.340318        -9.2605
  63   1.0000      -0.334115        -9.0917
  64   1.0000      -0.330209        -8.9854
  65   1.0000      -0.327408        -8.9092
  66   1.0000      -0.326445        -8.8830
  67   1.0000      -0.321262        -8.7420
  68   1.0000      -0.318937        -8.6787
  69   1.0000      -0.314961        -8.5705
  70   1.0000      -0.313653        -8.5349
  71   1.0000      -0.313385        -8.5276
  72   1.0000      -0.312070        -8.4918
  73   1.0000      -0.308375        -8.3913
  74   1.0000      -0.302047        -8.2191
  75   1.0000      -0.301090        -8.1931
  76   1.0000      -0.299236        -8.1426
  77   1.0000      -0.296687        -8.0733
  78   1.0000      -0.292674        -7.9641
  79   1.0000      -0.288034        -7.8378
  80   1.0000      -0.282520        -7.6878
  81   1.0000      -0.281637        -7.6637
  82   1.0000      -0.278344        -7.5741
  83   1.0000      -0.277576        -7.5532
  84   1.0000      -0.276334        -7.5194
  85   1.0000      -0.275417        -7.4945
  86   1.0000      -0.273977        -7.4553
  87   1.0000      -0.269587        -7.3358
  88   1.0000      -0.268075        -7.2947
  89   1.0000      -0.265343        -7.2204
  90   1.0000      -0.264709        -7.2031
  91   1.0000      -0.264637        -7.2011
  92   1.0000      -0.263354        -7.1662
  93   1.0000      -0.262706        -7.1486
  94   1.0000      -0.262464        -7.1420
  95   1.0000      -0.258709        -7.0398
  96   1.0000      -0.256912        -6.9909
  97   1.0000      -0.255667        -6.9570
  98   1.0000      -0.249371        -6.7857
  99   1.0000      -0.248490        -6.7618
 100   1.0000      -0.248403        -6.7594
 101   1.0000      -0.246340        -6.7033
 102   1.0000      -0.238189        -6.4815
 103   1.0000      -0.224180        -6.1002
 104   1.0000      -0.222482        -6.0540
 105   1.0000      -0.222296        -6.0490
 106   1.0000      -0.218198        -5.9375
 107   1.0000      -0.207742        -5.6529
 108   1.0000      -0.191613        -5.2141
 109   0.0000      -0.170832        -4.6486
 110   0.0000      -0.160835        -4.3766
 111   0.0000      -0.152593        -4.1523
 112   0.0000      -0.106281        -2.8921
 113   0.0000      -0.103684        -2.8214

                 SPIN DOWN ORBITALS
  NO   OCC          E(Eh)            E(eV)
   0   1.0000    -235.017313     -6395.1462
   1   1.0000     -27.124869      -738.1052
   2   1.0000     -23.192223      -631.0925
   3   1.0000     -23.189181      -631.0097
   4   1.0000     -23.186058      -630.9247
   5   1.0000      -4.111031      -111.8668
   6   1.0000      -4.111019      -111.8665
   7   1.0000      -4.110939      -111.8643
   8   1.0000      -4.110934      -111.8642
   9   1.0000      -4.110800      -111.8606
  10   1.0000      -4.110787      -111.8602
  11   1.0000      -4.110707      -111.8580
  12   1.0000      -4.110701      -111.8579
  13   1.0000      -4.109421      -111.8230
  14   1.0000      -4.109383      -111.8220
  15   1.0000      -3.034745       -82.5796
  16   1.0000      -2.302329       -62.6496
  17   1.0000      -2.302299       -62.6487
  18   1.0000      -2.301989       -62.6403
  19   1.0000      -2.301898       -62.6378
  20   1.0000      -2.300173       -62.5909
  21   1.0000      -2.299991       -62.5859
  22   1.0000      -2.299961       -62.5851
  23   1.0000      -2.299925       -62.5841
  24   1.0000      -2.298822       -62.5541
  25   1.0000      -2.298640       -62.5492
  26   1.0000      -2.298546       -62.5466
  27   1.0000      -2.298104       -62.5346
  28   1.0000      -2.297371       -62.5147
  29   1.0000      -2.297052       -62.5060
  30   1.0000      -2.296506       -62.4911
  31   1.0000      -2.296000       -62.4773
  32   1.0000      -2.294761       -62.4436
  33   1.0000      -2.294262       -62.4300
  34   1.0000      -2.293993       -62.4227
  35   1.0000      -2.293715       -62.4152
  36   1.0000      -2.292631       -62.3857
  37   1.0000      -2.292442       -62.3805
  38   1.0000      -2.292390       -62.3791
  39   1.0000      -2.292265       -62.3757
  40   1.0000      -2.291912       -62.3661
  41   1.0000      -2.291792       -62.3628
  42   1.0000      -2.291242       -62.3479
  43   1.0000      -2.291147       -62.3453
  44   1.0000      -2.290803       -62.3359
  45   1.0000      -2.290710       -62.3334
  46   1.0000      -1.898511       -51.6611
  47   1.0000      -1.894204       -51.5439
  48   1.0000      -1.888659       -51.3930
  49   1.0000      -0.409359       -11.1392
  50   1.0000      -0.373147       -10.1538
  51   1.0000      -0.365896        -9.9565
  52   1.0000      -0.365008        -9.9324
  53   1.0000      -0.355844        -9.6830
  54   1.0000      -0.355039        -9.6611
  55   1.0000      -0.353767        -9.6265
  56   1.0000      -0.351215        -9.5571
  57   1.0000      -0.348955        -9.4955
  58   1.0000      -0.342796        -9.3279
  59   1.0000      -0.342524        -9.3206
  60   1.0000      -0.339478        -9.2377
  61   1.0000      -0.335469        -9.1286
  62   1.0000      -0.332961        -9.0603
  63   1.0000      -0.332242        -9.0408
  64   1.0000      -0.329076        -8.9546
  65   1.0000      -0.326847        -8.8940
  66   1.0000      -0.319093        -8.6829
  67   1.0000      -0.316732        -8.6187
  68   1.0000      -0.315098        -8.5743
  69   1.0000      -0.314399        -8.5552
  70   1.0000      -0.313915        -8.5421
  71   1.0000      -0.311773        -8.4838
  72   1.0000      -0.306468        -8.3394
  73   1.0000      -0.302095        -8.2204
  74   1.0000      -0.300796        -8.1851
  75   1.0000      -0.299346        -8.1456
  76   1.0000      -0.296700        -8.0736
  77   1.0000      -0.294042        -8.0013
  78   1.0000      -0.292838        -7.9685
  79   1.0000      -0.288501        -7.8505
  80   1.0000      -0.281807        -7.6683
  81   1.0000      -0.280522        -7.6334
  82   1.0000      -0.278102        -7.5675
  83   1.0000      -0.277025        -7.5382
  84   1.0000      -0.276354        -7.5200
  85   1.0000      -0.274845        -7.4789
  86   1.0000      -0.273184        -7.4337
  87   1.0000      -0.270325        -7.3559
  88   1.0000      -0.266594        -7.2544
  89   1.0000      -0.266358        -7.2480
  90   1.0000      -0.264266        -7.1911
  91   1.0000      -0.263727        -7.1764
  92   1.0000      -0.262113        -7.1325
  93   1.0000      -0.261695        -7.1211
  94   1.0000      -0.261117        -7.1053
  95   1.0000      -0.257035        -6.9943
  96   1.0000      -0.254264        -6.9189
  97   1.0000      -0.254115        -6.9148
  98   1.0000      -0.247504        -6.7349
  99   1.0000      -0.246779        -6.7152
 100   1.0000      -0.245893        -6.6911
 101   1.0000      -0.237099        -6.4518
 102   1.0000      -0.226285        -6.1575
 103   1.0000      -0.197364        -5.3705
 104   1.0000      -0.196674        -5.3518
 105   1.0000      -0.142251        -3.8708
 106   0.0000      -0.191381        -5.2077
 107   0.0000      -0.169430        -4.6104
 108   0.0000      -0.109394        -2.9768
 109   0.0000      -0.103695        -2.8217
 110   0.0000      -0.101891        -2.7726

MULLIKEN ATOMIC CHARGES AND SPIN POPULATIONS
--------------------------------------------
   0 Au:    0.120713    0.154366
   1 Au:    0.246365   -0.039532
   2 Au:    0.246238   -0.039721
   3 Au:    0.246387   -0.039402
   4 Au:    0.246303   -0.039714
   5 Au:    0.246339   -0.039545
   6 Au:    0.246239   -0.039752
   7 Au:    0.246379   -0.039398
   8 Au:    0.246279   -0.039711
   9 Au:    0.120661    0.154346
  10 Mn:   -2.211902    3.008064
Sum of atomic charges         :    0.0000000

LOEWDIN ATOMIC CHARGES AND SPIN POPULATIONS
-------------------------------------------
   0 Au:    0.013457    0.126761
   1 Au:    0.088450   -0.028216
   2 Au:    0.088369   -0.028251
   3 Au:    0.088432   -0.028068
   4 Au:    0.088416   -0.028225
   5 Au:    0.088438   -0.028224
   6 Au:    0.088357   -0.028271
   7 Au:    0.088437   -0.028068
   8 Au:    0.088417   -0.028232
   9 Au:    0.013419    0.126745
  10 Mn:   -0.734192    2.972051

  Mayer bond orders larger than 0.100000
B(  0-Au,  1-Au) :   0.1754 B(  0-Au,  2-Au) :   0.1751 B(  0-Au,  3-Au) :   0.1755
B(  0-Au,  4-Au) :   0.1752 B(  0-Au,  9-Au) :   0.1675 B(  0-Au, 10-Mn) :   0.3595
B(  1-Au,  3-Au) :   0.1141 B(  1-Au,  8-Au) :   0.4427 B(  1-Au, 10-Mn) :   0.5909
B(  2-Au,  4-Au) :   0.1143 B(  2-Au,  7-Au) :   0.4428 B(  2-Au, 10-Mn) :   0.5908
B(  3-Au,  6-Au) :   0.4428 B(  3-Au, 10-Mn) :   0.5908 B(  4-Au,  5-Au) :   0.4427
B(  4-Au, 10-Mn) :   0.5908 B(  5-Au,  7-Au) :   0.1142 B(  5-Au,  9-Au) :   0.1753
B(  5-Au, 10-Mn) :   0.5909 B(  6-Au,  8-Au) :   0.1144 B(  6-Au,  9-Au) :   0.1750
B(  6-Au, 10-Mn) :   0.5908 B(  7-Au,  9-Au) :   0.1754 B(  7-Au, 10-Mn) :   0.5908
B(  8-Au,  9-Au) :   0.1751 B(  8-Au, 10-Mn) :   0.5908 B(  9-Au, 10-Mn) :   0.3596

FINAL SINGLE POINT ENERGY     -2509.347096094821

DIPOLE MOMENT
-------------
                                X             Y             Z
Electronic contribution:     -0.00021       0.00194       0.00380
Nuclear contribution   :      0.00018      -0.00193      -0.00334
                        -----------------------------------------
Total Dipole Moment    :     -0.00002       0.00001       0.00046
                        -----------------------------------------
Magnitude (a.u.)       :      0.00046
Magnitude (Debye)      :      0.00118

Rotational constants in cm-1:     0.002151     0.001696     0.001502
Rotational constants in MHz :    64.487260    50.832463    45.019299

                             ****ORCA TERMINATED NORMALLY****
TOTAL RUN TIME: 0 days 0 hours 7 minutes 27 seconds 253 msec
