                         Program Version 5.0.3 -  RELEASE  -
|  1> %pal nprocs 1 end
|  2>
|  3> !PBE def2-TZVP OPT UNO
|  4> !SLOWCONV
|  5>
|  6> *xyzfile 0 5 1.xyz                           ****END OF INPUT****
 Total Charge           Charge          ....    0
 Multiplicity           Mult            ....    5
 Number of Electrons    NEL             ....  292
FINAL SINGLE POINT ENERGY     -3165.077364611665
FINAL SINGLE POINT ENERGY     -3165.077889881296
FINAL SINGLE POINT ENERGY     -3165.079030818042
FINAL SINGLE POINT ENERGY     -3165.079071075475
FINAL SINGLE POINT ENERGY     -3165.079200677079
FINAL SINGLE POINT ENERGY     -3165.079224120144
FINAL SINGLE POINT ENERGY     -3165.079253611123
FINAL SINGLE POINT ENERGY     -3165.079259905278
FINAL SINGLE POINT ENERGY     -3165.079266314844
FINAL SINGLE POINT ENERGY     -3165.079273138739
FINAL SINGLE POINT ENERGY     -3165.079276249519
FINAL SINGLE POINT ENERGY     -3165.079278222184
                    ***********************HURRAY********************

CARTESIAN COORDINATES (ANGSTROEM)
---------------------------------
  Au     5.351958    7.517900    6.880027
  Au     8.837850   10.372008    5.739613
  Au     6.073943   10.276160    6.559835
  Au     7.158828    8.205903    4.903312
  Au     9.789491    7.674940    5.551541
  Au     7.698052    5.943720    6.458251
  Au     6.002180    9.341175    9.275365
  Au     9.690030    6.511274    8.461579
  Au     8.666124    8.714644   10.054581
  Au     8.115421   10.927882    8.434487
  Au     7.119025    6.409889    9.235051
  Au     4.501695    7.047858    9.447988
  Au    10.438875    9.498533    7.964135
  Au    11.945648    7.330675    7.214945
  Fe     7.919797    8.417364    7.482168

 Multiplicity           Mult            ....    5
 Number of Electrons    NEL             ....  292
 Basis Dimension        Dim             ....  605

ORBITAL ENERGIES
----------------
                 SPIN UP ORBITALS
  NO   OCC          E(Eh)            E(eV)
   0   1.0000    -254.773044     -6932.7270
   1   1.0000     -29.614214      -805.8437
   2   1.0000     -25.553266      -695.3397
   3   1.0000     -25.548472      -695.2093
   4   1.0000     -25.545548      -695.1297
   5   1.0000      -4.033938      -109.7690
   6   1.0000      -4.033438      -109.7554
   7   1.0000      -4.032588      -109.7323
   8   1.0000      -4.032364      -109.7262
   9   1.0000      -4.027398      -109.5911
  10   1.0000      -4.027381      -109.5906
  11   1.0000      -4.027343      -109.5896
  12   1.0000      -4.027302      -109.5884
  13   1.0000      -4.027210      -109.5860
  14   1.0000      -4.026404      -109.5640
  15   1.0000      -4.020213      -109.3956
  16   1.0000      -4.020211      -109.3955
  17   1.0000      -4.020134      -109.3934
  18   1.0000      -4.019987      -109.3894
  19   1.0000      -3.392981       -92.3277
  20   1.0000      -2.252936       -61.3055
  21   1.0000      -2.249338       -61.2076
  22   1.0000      -2.248971       -61.1976
  23   1.0000      -2.248215       -61.1770
  24   1.0000      -2.248022       -61.1718
  25   1.0000      -2.247786       -61.1654
  26   1.0000      -2.245392       -61.1002
  27   1.0000      -2.244962       -61.0885
  28   1.0000      -2.244566       -61.0778
  29   1.0000      -2.243942       -61.0608
  30   1.0000      -2.243802       -61.0570
  31   1.0000      -2.243732       -61.0550
  32   1.0000      -2.243305       -61.0434
  33   1.0000      -2.243168       -61.0397
  34   1.0000      -2.242860       -61.0313
  35   1.0000      -2.242804       -61.0298
  36   1.0000      -2.241488       -60.9940
  37   1.0000      -2.241094       -60.9833
  38   1.0000      -2.240331       -60.9625
  39   1.0000      -2.240231       -60.9598
  40   1.0000      -2.239308       -60.9347
  41   1.0000      -2.239242       -60.9329
  42   1.0000      -2.238847       -60.9221
  43   1.0000      -2.238684       -60.9177
  44   1.0000      -2.238243       -60.9057
  45   1.0000      -2.237714       -60.8913
  46   1.0000      -2.237083       -60.8741
  47   1.0000      -2.236527       -60.8590
  48   1.0000      -2.236407       -60.8557
  49   1.0000      -2.235946       -60.8432
  50   1.0000      -2.235709       -60.8367
  51   1.0000      -2.235475       -60.8304
  52   1.0000      -2.235420       -60.8289
  53   1.0000      -2.234775       -60.8113
  54   1.0000      -2.232292       -60.7438
  55   1.0000      -2.232222       -60.7418
  56   1.0000      -2.231929       -60.7339
  57   1.0000      -2.231820       -60.7309
  58   1.0000      -2.231697       -60.7276
  59   1.0000      -2.230774       -60.7024
  60   1.0000      -2.230488       -60.6947
  61   1.0000      -2.230363       -60.6913
  62   1.0000      -2.214766       -60.2668
  63   1.0000      -2.204748       -59.9942
  64   1.0000      -2.199231       -59.8441
  65   1.0000      -0.444292       -12.0898
  66   1.0000      -0.394099       -10.7240
  67   1.0000      -0.390529       -10.6268
  68   1.0000      -0.389062       -10.5869
  69   1.0000      -0.381204       -10.3731
  70   1.0000      -0.380792       -10.3619
  71   1.0000      -0.380683       -10.3589
  72   1.0000      -0.375491       -10.2176
  73   1.0000      -0.374520       -10.1912
  74   1.0000      -0.369117       -10.0442
  75   1.0000      -0.354356        -9.6425
  76   1.0000      -0.353828        -9.6281
  77   1.0000      -0.351966        -9.5775
  78   1.0000      -0.350606        -9.5405
  79   1.0000      -0.350030        -9.5248
  80   1.0000      -0.346075        -9.4172
  81   1.0000      -0.345077        -9.3900
  82   1.0000      -0.344997        -9.3879
  83   1.0000      -0.341360        -9.2889
  84   1.0000      -0.341084        -9.2814
  85   1.0000      -0.338692        -9.2163
  86   1.0000      -0.334266        -9.0958
  87   1.0000      -0.333993        -9.0884
  88   1.0000      -0.333222        -9.0674
  89   1.0000      -0.327420        -8.9095
  90   1.0000      -0.324151        -8.8206
  91   1.0000      -0.323139        -8.7931
  92   1.0000      -0.321483        -8.7480
  93   1.0000      -0.318858        -8.6766
  94   1.0000      -0.317291        -8.6339
  95   1.0000      -0.310751        -8.4560
  96   1.0000      -0.310360        -8.4453
  97   1.0000      -0.308048        -8.3824
  98   1.0000      -0.303345        -8.2544
  99   1.0000      -0.303196        -8.2504
 100   1.0000      -0.302859        -8.2412
 101   1.0000      -0.301991        -8.2176
 102   1.0000      -0.300120        -8.1667
 103   1.0000      -0.299048        -8.1375
 104   1.0000      -0.294951        -8.0260
 105   1.0000      -0.288897        -7.8613
 106   1.0000      -0.285651        -7.7729
 107   1.0000      -0.283830        -7.7234
 108   1.0000      -0.282148        -7.6776
 109   1.0000      -0.278244        -7.5714
 110   1.0000      -0.277532        -7.5520
 111   1.0000      -0.275477        -7.4961
 112   1.0000      -0.275154        -7.4873
 113   1.0000      -0.272399        -7.4124
 114   1.0000      -0.271148        -7.3783
 115   1.0000      -0.270698        -7.3661
 116   1.0000      -0.270509        -7.3609
 117   1.0000      -0.269047        -7.3211
 118   1.0000      -0.267904        -7.2900
 119   1.0000      -0.266807        -7.2602
 120   1.0000      -0.266396        -7.2490
 121   1.0000      -0.264115        -7.1869
 122   1.0000      -0.264007        -7.1840
 123   1.0000      -0.263882        -7.1806
 124   1.0000      -0.261144        -7.1061
 125   1.0000      -0.259379        -7.0581
 126   1.0000      -0.259192        -7.0530
 127   1.0000      -0.258334        -7.0296
 128   1.0000      -0.258051        -7.0219
 129   1.0000      -0.256878        -6.9900
 130   1.0000      -0.255772        -6.9599
 131   1.0000      -0.254779        -6.9329
 132   1.0000      -0.253170        -6.8891
 133   1.0000      -0.252068        -6.8591
 134   1.0000      -0.251081        -6.8323
 135   1.0000      -0.249839        -6.7985
 136   1.0000      -0.248809        -6.7704
 137   1.0000      -0.248249        -6.7552
 138   1.0000      -0.246941        -6.7196
 139   1.0000      -0.246074        -6.6960
 140   1.0000      -0.244967        -6.6659
 141   1.0000      -0.241559        -6.5732
 142   1.0000      -0.233375        -6.3504
 143   1.0000      -0.233170        -6.3449
 144   1.0000      -0.224217        -6.1013
 145   1.0000      -0.203737        -5.5440
 146   1.0000      -0.190273        -5.1776
 147   1.0000      -0.188827        -5.1382
 148   0.0000      -0.181327        -4.9342
 149   0.0000      -0.146395        -3.9836
 150   0.0000      -0.138917        -3.7801
 151   0.0000      -0.121073        -3.2946
 152   0.0000      -0.119904        -3.2628

                 SPIN DOWN ORBITALS
  NO   OCC          E(Eh)            E(eV)
   0   1.0000    -254.772319     -6932.7072
   1   1.0000     -29.552765      -804.1716
   2   1.0000     -25.504470      -694.0119
   3   1.0000     -25.502584      -693.9606
   4   1.0000     -25.500994      -693.9173
   5   1.0000      -4.033672      -109.7618
   6   1.0000      -4.033148      -109.7475
   7   1.0000      -4.031887      -109.7132
   8   1.0000      -4.031665      -109.7072
   9   1.0000      -4.027054      -109.5817
  10   1.0000      -4.026637      -109.5704
  11   1.0000      -4.026582      -109.5689
  12   1.0000      -4.026579      -109.5688
  13   1.0000      -4.026475      -109.5659
  14   1.0000      -4.026069      -109.5549
  15   1.0000      -4.020205      -109.3954
  16   1.0000      -4.019966      -109.3888
  17   1.0000      -4.019663      -109.3806
  18   1.0000      -4.019582      -109.3784
  19   1.0000      -3.255188       -88.5782
  20   1.0000      -2.252038       -61.2811
  21   1.0000      -2.248740       -61.1913
  22   1.0000      -2.248400       -61.1821
  23   1.0000      -2.247676       -61.1624
  24   1.0000      -2.247392       -61.1546
  25   1.0000      -2.247222       -61.1500
  26   1.0000      -2.245236       -61.0960
  27   1.0000      -2.244589       -61.0784
  28   1.0000      -2.243566       -61.0505
  29   1.0000      -2.243153       -61.0393
  30   1.0000      -2.242979       -61.0346
  31   1.0000      -2.242697       -61.0269
  32   1.0000      -2.242507       -61.0217
  33   1.0000      -2.242326       -61.0168
  34   1.0000      -2.242103       -61.0107
  35   1.0000      -2.242092       -61.0104
  36   1.0000      -2.241345       -60.9901
  37   1.0000      -2.241035       -60.9817
  38   1.0000      -2.239119       -60.9295
  39   1.0000      -2.239004       -60.9264
  40   1.0000      -2.238604       -60.9155
  41   1.0000      -2.238581       -60.9149
  42   1.0000      -2.238258       -60.9061
  43   1.0000      -2.238064       -60.9008
  44   1.0000      -2.237614       -60.8886
  45   1.0000      -2.237548       -60.8868
  46   1.0000      -2.236723       -60.8643
  47   1.0000      -2.236166       -60.8492
  48   1.0000      -2.236055       -60.8461
  49   1.0000      -2.235746       -60.8377
  50   1.0000      -2.235613       -60.8341
  51   1.0000      -2.235493       -60.8309
  52   1.0000      -2.234594       -60.8064
  53   1.0000      -2.233875       -60.7868
  54   1.0000      -2.231989       -60.7355
  55   1.0000      -2.231913       -60.7334
  56   1.0000      -2.231593       -60.7247
  57   1.0000      -2.231463       -60.7212
  58   1.0000      -2.231294       -60.7166
  59   1.0000      -2.230781       -60.7026
  60   1.0000      -2.230477       -60.6944
  61   1.0000      -2.229804       -60.6761
  62   1.0000      -2.072761       -56.4027
  63   1.0000      -2.071625       -56.3718
  64   1.0000      -2.070049       -56.3289
  65   1.0000      -0.439536       -11.9604
  66   1.0000      -0.392014       -10.6672
  67   1.0000      -0.389462       -10.5978
  68   1.0000      -0.387676       -10.5492
  69   1.0000      -0.376087       -10.2338
  70   1.0000      -0.372402       -10.1336
  71   1.0000      -0.371464       -10.1081
  72   1.0000      -0.365262        -9.9393
  73   1.0000      -0.364380        -9.9153
  74   1.0000      -0.360233        -9.8024
  75   1.0000      -0.353914        -9.6305
  76   1.0000      -0.350531        -9.5384
  77   1.0000      -0.350061        -9.5256
  78   1.0000      -0.349031        -9.4976
  79   1.0000      -0.346511        -9.4290
  80   1.0000      -0.345547        -9.4028
  81   1.0000      -0.343818        -9.3558
  82   1.0000      -0.340533        -9.2664
  83   1.0000      -0.340176        -9.2567
  84   1.0000      -0.338188        -9.2026
  85   1.0000      -0.337338        -9.1794
  86   1.0000      -0.333873        -9.0851
  87   1.0000      -0.333078        -9.0635
  88   1.0000      -0.331595        -9.0232
  89   1.0000      -0.326211        -8.8767
  90   1.0000      -0.320403        -8.7186
  91   1.0000      -0.320266        -8.7149
  92   1.0000      -0.318238        -8.6597
  93   1.0000      -0.317274        -8.6335
  94   1.0000      -0.313704        -8.5363
  95   1.0000      -0.309571        -8.4239
  96   1.0000      -0.303998        -8.2722
  97   1.0000      -0.303144        -8.2490
  98   1.0000      -0.300338        -8.1726
  99   1.0000      -0.299737        -8.1563
 100   1.0000      -0.297830        -8.1044
 101   1.0000      -0.290889        -7.9155
 102   1.0000      -0.290009        -7.8915
 103   1.0000      -0.289298        -7.8722
 104   1.0000      -0.287525        -7.8239
 105   1.0000      -0.283894        -7.7251
 106   1.0000      -0.282026        -7.6743
 107   1.0000      -0.278603        -7.5812
 108   1.0000      -0.277210        -7.5433
 109   1.0000      -0.276581        -7.5261
 110   1.0000      -0.274239        -7.4624
 111   1.0000      -0.273149        -7.4328
 112   1.0000      -0.271391        -7.3849
 113   1.0000      -0.271276        -7.3818
 114   1.0000      -0.269483        -7.3330
 115   1.0000      -0.269220        -7.3258
 116   1.0000      -0.268330        -7.3016
 117   1.0000      -0.267018        -7.2659
 118   1.0000      -0.265682        -7.2296
 119   1.0000      -0.265558        -7.2262
 120   1.0000      -0.265410        -7.2222
 121   1.0000      -0.263037        -7.1576
 122   1.0000      -0.261956        -7.1282
 123   1.0000      -0.260208        -7.0806
 124   1.0000      -0.259701        -7.0668
 125   1.0000      -0.258229        -7.0268
 126   1.0000      -0.257496        -7.0068
 127   1.0000      -0.254899        -6.9362
 128   1.0000      -0.252414        -6.8685
 129   1.0000      -0.251461        -6.8426
 130   1.0000      -0.251139        -6.8338
 131   1.0000      -0.248594        -6.7646
 132   1.0000      -0.247860        -6.7446
 133   1.0000      -0.246539        -6.7087
 134   1.0000      -0.244803        -6.6614
 135   1.0000      -0.243746        -6.6327
 136   1.0000      -0.240981        -6.5574
 137   1.0000      -0.233779        -6.3615
 138   1.0000      -0.233383        -6.3507
 139   1.0000      -0.227474        -6.1899
 140   1.0000      -0.209247        -5.6939
 141   1.0000      -0.204129        -5.5546
 142   1.0000      -0.203393        -5.5346
 143   1.0000      -0.199671        -5.4333
 144   0.0000      -0.171412        -4.6644
 145   0.0000      -0.169073        -4.6007
 146   0.0000      -0.163604        -4.4519
 147   0.0000      -0.158651        -4.3171
 148   0.0000      -0.157996        -4.2993

MULLIKEN ATOMIC CHARGES AND SPIN POPULATIONS
--------------------------------------------
   0 Au:    0.005286    0.161083
   1 Au:    0.219500    0.103908
   2 Au:    0.218016    0.103305
   3 Au:    0.406201   -0.047346
   4 Au:    0.004885    0.161936
   5 Au:    0.361372   -0.076880
   6 Au:    0.007810    0.161260
   7 Au:    0.032414    0.097936
   8 Au:    0.347410   -0.057038
   9 Au:    0.415270   -0.058578
  10 Au:    0.031265    0.098789
  11 Au:    0.446062    0.057682
  12 Au:    0.007905    0.162616
  13 Au:    0.447592    0.056318
  14 Fe:   -2.950987    3.075009
Sum of atomic charges         :   -0.0000000

LOEWDIN ATOMIC CHARGES AND SPIN POPULATIONS
-------------------------------------------
   0 Au:   -0.011392    0.088616
   1 Au:    0.069806    0.056502
   2 Au:    0.070171    0.055009
   3 Au:    0.071359    0.015002
   4 Au:   -0.011978    0.089353
   5 Au:    0.106072   -0.007220
   6 Au:   -0.011441    0.089513
   7 Au:    0.000277    0.051386
   8 Au:    0.105315   -0.001209
   9 Au:    0.070146    0.014408
  10 Au:   -0.000392    0.051847
  11 Au:    0.125099    0.065190
  12 Au:   -0.011824    0.090256
  13 Au:    0.126371    0.063861
  14 Fe:   -0.697588    3.277487

  Mayer bond orders larger than 0.100000
B(  0-Au,  2-Au) :   0.1644 B(  0-Au,  3-Au) :   0.2731 B(  0-Au,  5-Au) :   0.1567
B(  0-Au,  6-Au) :   0.1329 B(  0-Au, 10-Au) :   0.1674 B(  0-Au, 11-Au) :   0.3160
B(  0-Au, 14-Fe) :   0.4853 B(  1-Au,  2-Au) :   0.1859 B(  1-Au,  3-Au) :   0.1412
B(  1-Au,  4-Au) :   0.1646 B(  1-Au,  9-Au) :   0.1566 B(  1-Au, 12-Au) :   0.1589
B(  1-Au, 14-Fe) :   0.5439 B(  2-Au,  3-Au) :   0.1411 B(  2-Au,  6-Au) :   0.1623
B(  2-Au,  9-Au) :   0.1551 B(  2-Au, 14-Fe) :   0.5437 B(  3-Au,  4-Au) :   0.2776
B(  3-Au,  5-Au) :   0.2001 B(  3-Au, 14-Fe) :   0.4523 B(  4-Au,  5-Au) :   0.1525
B(  4-Au,  7-Au) :   0.1668 B(  4-Au, 12-Au) :   0.1330 B(  4-Au, 13-Au) :   0.3159
B(  4-Au, 14-Fe) :   0.4854 B(  5-Au,  7-Au) :   0.1074 B(  5-Au, 10-Au) :   0.1094
B(  5-Au, 14-Fe) :   0.5758 B(  6-Au,  8-Au) :   0.1689 B(  6-Au,  9-Au) :   0.2621
B(  6-Au, 10-Au) :   0.1658 B(  6-Au, 11-Au) :   0.3139 B(  6-Au, 14-Fe) :   0.4865
B(  7-Au, 10-Au) :   0.4688 B(  7-Au, 12-Au) :   0.1658 B(  7-Au, 13-Au) :   0.4015
B(  7-Au, 14-Fe) :   0.4652 B(  8-Au,  9-Au) :   0.1976 B(  8-Au, 12-Au) :   0.1650
B(  8-Au, 14-Fe) :   0.5772 B(  9-Au, 12-Au) :   0.2677 B(  9-Au, 14-Fe) :   0.4491
B( 10-Au, 11-Au) :   0.4020 B( 10-Au, 14-Fe) :   0.4634 B( 12-Au, 13-Au) :   0.3152
B( 12-Au, 14-Fe) :   0.4873

FINAL SINGLE POINT ENERGY     -3165.079279668741

DIPOLE MOMENT
-------------
                                X             Y             Z
Electronic contribution:      1.44333      -5.83098       4.02091
Nuclear contribution   :     -1.39614       5.64648      -3.90065
                        -----------------------------------------
Total Dipole Moment    :      0.04719      -0.18450       0.12025
                        -----------------------------------------
Magnitude (a.u.)       :      0.22523
Magnitude (Debye)      :      0.57248

Rotational constants in cm-1:     0.001299     0.000949     0.000904
Rotational constants in MHz :    38.950089    28.457992    27.110945

                             ****ORCA TERMINATED NORMALLY****
TOTAL RUN TIME: 0 days 4 hours 16 minutes 20 seconds 398 msec
