                         Program Version 5.0.3 -  RELEASE  -
|  1> %pal nprocs 1 end
|  2>
|  3> !PBE def2-TZVP OPT UNO
|  4> !SLOWCONV KDIIS
|  5>
|  6> %geom maxiter 300 end
|  7>
|  8> *xyzfile 0 6 9.xyz                           ****END OF INPUT****
 Total Charge           Charge          ....    0
 Multiplicity           Mult            ....    6
 Number of Electrons    NEL             ....  215
FINAL SINGLE POINT ENERGY     -2509.012578509261
FINAL SINGLE POINT ENERGY     -2509.015116605029
FINAL SINGLE POINT ENERGY     -2509.016648148795
FINAL SINGLE POINT ENERGY     -2509.017362360798
FINAL SINGLE POINT ENERGY     -2509.017905920501
FINAL SINGLE POINT ENERGY     -2509.018552114734
FINAL SINGLE POINT ENERGY     -2509.019268594148
FINAL SINGLE POINT ENERGY     -2509.019935072749
FINAL SINGLE POINT ENERGY     -2509.020518972271
FINAL SINGLE POINT ENERGY     -2509.021197359161
FINAL SINGLE POINT ENERGY     -2509.031832922318
FINAL SINGLE POINT ENERGY     -2509.031978313198
FINAL SINGLE POINT ENERGY     -2509.032053687072
FINAL SINGLE POINT ENERGY     -2509.032090089093
FINAL SINGLE POINT ENERGY     -2509.032141466741
FINAL SINGLE POINT ENERGY     -2509.032166575089
FINAL SINGLE POINT ENERGY     -2509.032185099597
FINAL SINGLE POINT ENERGY     -2509.032197001669
FINAL SINGLE POINT ENERGY     -2509.032201389255
                    ***********************HURRAY********************

CARTESIAN COORDINATES (ANGSTROEM)
---------------------------------
  Au     4.631770    4.526717    5.322018
  Au     8.223586    6.943650    9.914931
  Au     8.235161    6.364060    7.250870
  Au     6.777008    4.817157    9.029599
  Au     7.040797    5.975578    4.884306
  Au     6.346717    6.428192   11.921172
  Au     5.366406    7.386793    9.615230
  Au     4.540159    4.767281   10.576802
  Au     4.335894    4.074910    7.946813
  Au     4.310789    8.548416    7.538066
  Mn     5.548439    6.304048    7.025938

 Multiplicity           Mult            ....    6
 Number of Electrons    NEL             ....  215
 Basis Dimension        Dim             ....  445

ORBITAL ENERGIES
----------------
                 SPIN UP ORBITALS
  NO   OCC          E(Eh)            E(eV)
   0   1.0000    -234.202672     -6372.9787
   1   1.0000     -26.900767      -732.0071
   2   1.0000     -23.050085      -627.2247
   3   1.0000     -23.048808      -627.1899
   4   1.0000     -23.047555      -627.1558
   5   1.0000      -4.035989      -109.8248
   6   1.0000      -4.031893      -109.7134
   7   1.0000      -4.027993      -109.6073
   8   1.0000      -4.027844      -109.6032
   9   1.0000      -4.021968      -109.4433
  10   1.0000      -4.017589      -109.3242
  11   1.0000      -4.017358      -109.3179
  12   1.0000      -4.013818      -109.2215
  13   1.0000      -4.010365      -109.1276
  14   1.0000      -4.010225      -109.1238
  15   1.0000      -3.112937       -84.7073
  16   1.0000      -2.252987       -61.3069
  17   1.0000      -2.252737       -61.3001
  18   1.0000      -2.250768       -61.2465
  19   1.0000      -2.245329       -61.0985
  20   1.0000      -2.244288       -61.0702
  21   1.0000      -2.244145       -61.0663
  22   1.0000      -2.243146       -61.0391
  23   1.0000      -2.243005       -61.0353
  24   1.0000      -2.242787       -61.0293
  25   1.0000      -2.241557       -60.9959
  26   1.0000      -2.239635       -60.9436
  27   1.0000      -2.235370       -60.8275
  28   1.0000      -2.235119       -60.8207
  29   1.0000      -2.234971       -60.8167
  30   1.0000      -2.233205       -60.7686
  31   1.0000      -2.232994       -60.7628
  32   1.0000      -2.231982       -60.7353
  33   1.0000      -2.231545       -60.7234
  34   1.0000      -2.230259       -60.6884
  35   1.0000      -2.228691       -60.6458
  36   1.0000      -2.228252       -60.6338
  37   1.0000      -2.226896       -60.5969
  38   1.0000      -2.226314       -60.5811
  39   1.0000      -2.226247       -60.5792
  40   1.0000      -2.226077       -60.5746
  41   1.0000      -2.224627       -60.5352
  42   1.0000      -2.222701       -60.4828
  43   1.0000      -2.222188       -60.4688
  44   1.0000      -2.216827       -60.3229
  45   1.0000      -2.216192       -60.3057
  46   1.0000      -2.017888       -54.9095
  47   1.0000      -2.015170       -54.8356
  48   1.0000      -2.012993       -54.7763
  49   1.0000      -0.411311       -11.1924
  50   1.0000      -0.384874       -10.4730
  51   1.0000      -0.373460       -10.1624
  52   1.0000      -0.370874       -10.0920
  53   1.0000      -0.362013        -9.8509
  54   1.0000      -0.356834        -9.7099
  55   1.0000      -0.356129        -9.6908
  56   1.0000      -0.353793        -9.6272
  57   1.0000      -0.346757        -9.4357
  58   1.0000      -0.344749        -9.3811
  59   1.0000      -0.337973        -9.1967
  60   1.0000      -0.335641        -9.1333
  61   1.0000      -0.335202        -9.1213
  62   1.0000      -0.326428        -8.8826
  63   1.0000      -0.321160        -8.7392
  64   1.0000      -0.318510        -8.6671
  65   1.0000      -0.315372        -8.5817
  66   1.0000      -0.310975        -8.4621
  67   1.0000      -0.309616        -8.4251
  68   1.0000      -0.308074        -8.3831
  69   1.0000      -0.306921        -8.3518
  70   1.0000      -0.304231        -8.2786
  71   1.0000      -0.303547        -8.2599
  72   1.0000      -0.298067        -8.1108
  73   1.0000      -0.294479        -8.0132
  74   1.0000      -0.294245        -8.0068
  75   1.0000      -0.291188        -7.9236
  76   1.0000      -0.289228        -7.8703
  77   1.0000      -0.283939        -7.7264
  78   1.0000      -0.280944        -7.6449
  79   1.0000      -0.280346        -7.6286
  80   1.0000      -0.280094        -7.6217
  81   1.0000      -0.276725        -7.5301
  82   1.0000      -0.274755        -7.4765
  83   1.0000      -0.273505        -7.4424
  84   1.0000      -0.271180        -7.3792
  85   1.0000      -0.267681        -7.2840
  86   1.0000      -0.266300        -7.2464
  87   1.0000      -0.263610        -7.1732
  88   1.0000      -0.263493        -7.1700
  89   1.0000      -0.263355        -7.1663
  90   1.0000      -0.262441        -7.1414
  91   1.0000      -0.260809        -7.0970
  92   1.0000      -0.260170        -7.0796
  93   1.0000      -0.258275        -7.0280
  94   1.0000      -0.255254        -6.9458
  95   1.0000      -0.253595        -6.9007
  96   1.0000      -0.252529        -6.8717
  97   1.0000      -0.251620        -6.8469
  98   1.0000      -0.248017        -6.7489
  99   1.0000      -0.247776        -6.7423
 100   1.0000      -0.245720        -6.6864
 101   1.0000      -0.245125        -6.6702
 102   1.0000      -0.240731        -6.5506
 103   1.0000      -0.236842        -6.4448
 104   1.0000      -0.236413        -6.4331
 105   1.0000      -0.235016        -6.3951
 106   1.0000      -0.233884        -6.3643
 107   1.0000      -0.228733        -6.2241
 108   1.0000      -0.209708        -5.7064
 109   1.0000      -0.193723        -5.2715
 110   0.0000      -0.149814        -4.0766
 111   0.0000      -0.148875        -4.0511
 112   0.0000      -0.129379        -3.5206
 113   0.0000      -0.125775        -3.4225
 114   0.0000      -0.115686        -3.1480

                 SPIN DOWN ORBITALS
  NO   OCC          E(Eh)            E(eV)
   0   1.0000    -234.201868     -6372.9568
   1   1.0000     -26.832001      -730.1359
   2   1.0000     -22.997442      -625.7922
   3   1.0000     -22.996459      -625.7655
   4   1.0000     -22.995806      -625.7477
   5   1.0000      -4.034827      -109.7932
   6   1.0000      -4.030805      -109.6838
   7   1.0000      -4.026567      -109.5684
   8   1.0000      -4.026423      -109.5645
   9   1.0000      -4.019987      -109.3894
  10   1.0000      -4.017406      -109.3192
  11   1.0000      -4.017175      -109.3129
  12   1.0000      -4.013635      -109.2166
  13   1.0000      -4.008691      -109.0820
  14   1.0000      -4.008539      -109.0779
  15   1.0000      -2.943612       -80.0997
  16   1.0000      -2.251928       -61.2781
  17   1.0000      -2.251326       -61.2617
  18   1.0000      -2.248944       -61.1969
  19   1.0000      -2.244388       -61.0729
  20   1.0000      -2.242911       -61.0327
  21   1.0000      -2.242727       -61.0277
  22   1.0000      -2.241776       -61.0018
  23   1.0000      -2.241089       -60.9831
  24   1.0000      -2.240920       -60.9785
  25   1.0000      -2.239035       -60.9272
  26   1.0000      -2.238830       -60.9217
  27   1.0000      -2.233928       -60.7883
  28   1.0000      -2.233757       -60.7836
  29   1.0000      -2.233042       -60.7642
  30   1.0000      -2.232786       -60.7572
  31   1.0000      -2.232593       -60.7519
  32   1.0000      -2.231748       -60.7289
  33   1.0000      -2.231341       -60.7179
  34   1.0000      -2.230047       -60.6827
  35   1.0000      -2.226257       -60.5795
  36   1.0000      -2.226151       -60.5766
  37   1.0000      -2.226063       -60.5743
  38   1.0000      -2.225929       -60.5706
  39   1.0000      -2.225870       -60.5690
  40   1.0000      -2.225399       -60.5562
  41   1.0000      -2.223026       -60.4916
  42   1.0000      -2.221998       -60.4636
  43   1.0000      -2.220980       -60.4359
  44   1.0000      -2.215382       -60.2836
  45   1.0000      -2.214769       -60.2669
  46   1.0000      -1.850484       -50.3542
  47   1.0000      -1.848764       -50.3074
  48   1.0000      -1.847918       -50.2844
  49   1.0000      -0.407847       -11.0981
  50   1.0000      -0.382689       -10.4135
  51   1.0000      -0.368392       -10.0245
  52   1.0000      -0.364507        -9.9187
  53   1.0000      -0.357432        -9.7262
  54   1.0000      -0.352344        -9.5878
  55   1.0000      -0.351748        -9.5716
  56   1.0000      -0.350045        -9.5252
  57   1.0000      -0.342294        -9.3143
  58   1.0000      -0.341880        -9.3030
  59   1.0000      -0.326415        -8.8822
  60   1.0000      -0.325622        -8.8606
  61   1.0000      -0.323284        -8.7970
  62   1.0000      -0.320250        -8.7145
  63   1.0000      -0.317758        -8.6466
  64   1.0000      -0.315695        -8.5905
  65   1.0000      -0.308679        -8.3996
  66   1.0000      -0.307604        -8.3703
  67   1.0000      -0.306330        -8.3357
  68   1.0000      -0.303729        -8.2649
  69   1.0000      -0.301607        -8.2071
  70   1.0000      -0.294199        -8.0056
  71   1.0000      -0.293326        -7.9818
  72   1.0000      -0.292240        -7.9523
  73   1.0000      -0.291497        -7.9320
  74   1.0000      -0.288616        -7.8536
  75   1.0000      -0.285593        -7.7714
  76   1.0000      -0.281389        -7.6570
  77   1.0000      -0.279021        -7.5925
  78   1.0000      -0.278549        -7.5797
  79   1.0000      -0.277287        -7.5454
  80   1.0000      -0.277112        -7.5406
  81   1.0000      -0.274592        -7.4720
  82   1.0000      -0.273924        -7.4539
  83   1.0000      -0.269485        -7.3331
  84   1.0000      -0.269166        -7.3244
  85   1.0000      -0.264384        -7.1943
  86   1.0000      -0.262792        -7.1509
  87   1.0000      -0.261692        -7.1210
  88   1.0000      -0.260872        -7.0987
  89   1.0000      -0.260307        -7.0833
  90   1.0000      -0.258783        -7.0419
  91   1.0000      -0.258228        -7.0267
  92   1.0000      -0.256137        -6.9698
  93   1.0000      -0.255270        -6.9462
  94   1.0000      -0.252656        -6.8751
  95   1.0000      -0.252081        -6.8595
  96   1.0000      -0.249211        -6.7814
  97   1.0000      -0.247913        -6.7461
  98   1.0000      -0.245554        -6.6819
  99   1.0000      -0.243933        -6.6377
 100   1.0000      -0.235585        -6.4106
 101   1.0000      -0.235369        -6.4047
 102   1.0000      -0.227822        -6.1994
 103   1.0000      -0.211663        -5.7596
 104   1.0000      -0.199342        -5.4244
 105   0.0000      -0.159387        -4.3371
 106   0.0000      -0.154789        -4.2120
 107   0.0000      -0.139591        -3.7985
 108   0.0000      -0.138596        -3.7714
 109   0.0000      -0.130822        -3.5598

MULLIKEN ATOMIC CHARGES AND SPIN POPULATIONS
--------------------------------------------
   0 Au:    0.151896    0.092210
   1 Au:    0.138499    0.037585
   2 Au:    0.061280    0.049116
   3 Au:   -0.006134    0.023589
   4 Au:    0.154834    0.091268
   5 Au:    0.338957    0.044379
   6 Au:   -0.446196   -0.001930
   7 Au:    0.139159    0.038396
   8 Au:    0.059329    0.047979
   9 Au:    0.257192    0.099649
  10 Mn:   -0.848818    4.477759
Sum of atomic charges         :   -0.0000000

LOEWDIN ATOMIC CHARGES AND SPIN POPULATIONS
-------------------------------------------
   0 Au:    0.024790    0.084846
   1 Au:    0.028619    0.027781
   2 Au:    0.027420    0.066510
   3 Au:   -0.057886    0.046715
   4 Au:    0.025238    0.084407
   5 Au:    0.050590    0.038885
   6 Au:   -0.155649    0.044728
   7 Au:    0.028520    0.028117
   8 Au:    0.026960    0.066208
   9 Au:    0.170693    0.086878
  10 Mn:   -0.169294    4.424925

  Mayer bond orders larger than 0.100000
B(  0-Au,  4-Au) :   0.1699 B(  0-Au,  8-Au) :   0.4027 B(  0-Au, 10-Mn) :   0.6220
B(  1-Au,  2-Au) :   0.3671 B(  1-Au,  3-Au) :   0.3571 B(  1-Au,  5-Au) :   0.2843
B(  1-Au,  6-Au) :   0.2683 B(  1-Au,  7-Au) :   0.1212 B(  2-Au,  3-Au) :   0.3634
B(  2-Au,  4-Au) :   0.4022 B(  2-Au, 10-Mn) :   0.5116 B(  3-Au,  6-Au) :   0.1593
B(  3-Au,  7-Au) :   0.3571 B(  3-Au,  8-Au) :   0.3647 B(  3-Au, 10-Mn) :   0.3820
B(  4-Au, 10-Mn) :   0.6180 B(  5-Au,  6-Au) :   0.5383 B(  5-Au,  7-Au) :   0.2818
B(  6-Au,  7-Au) :   0.2670 B(  6-Au,  9-Au) :   0.7075 B(  6-Au, 10-Mn) :   0.4558
B(  7-Au,  8-Au) :   0.3694 B(  8-Au, 10-Mn) :   0.5096 B(  9-Au, 10-Mn) :   0.5971

FINAL SINGLE POINT ENERGY     -2509.032202313095

DIPOLE MOMENT
-------------
                                X             Y             Z
Electronic contribution:     15.51092     -11.35619      49.76728
Nuclear contribution   :    -15.66029      11.61773     -49.76503
                        -----------------------------------------
Total Dipole Moment    :     -0.14938       0.26154       0.00225
                        -----------------------------------------
Magnitude (a.u.)       :      0.30120
Magnitude (Debye)      :      0.76560

Rotational constants in cm-1:     0.002164     0.001374     0.001214
Rotational constants in MHz :    64.887865    41.181398    36.380479

                             ****ORCA TERMINATED NORMALLY****
TOTAL RUN TIME: 0 days 4 hours 13 minutes 11 seconds 988 msec
