                         Program Version 5.0.3 -  RELEASE  -
|  1> !RI-B2PLYP def2-TZVP def2-TZVP/C
|  2> !RIJCOSX VERYSLOWCONV
|  3>
|  4> %scf
|  5>   AutoTRAHIter 200
|  6>   maxiter 400
|  7> end
|  8>
|  9>
| 10> %pal nprocs 6 end
| 11>
| 12> *xyzfile 0 6 pbe.xyz
| 13>
| 14> $new_job
| 15>
| 16> !RI-B2PLYP def2-TZVP def2-TZVP/C
| 17> !RIJCOSX VERYSLOWCONV
| 18>
| 19> %scf
| 20>   AutoTRAHIter 200
| 21>   maxiter 400
| 22> end
| 23>
| 24>
| 25> %pal nprocs 6 end
| 26>
| 27> *xyzfile 0 4 pbe.xyz
| 28>
| 29>
| 30>
| 31>
| 32>
| 33>                          ****END OF INPUT****
 Total Charge           Charge          ....    0
 Multiplicity           Mult            ....    6
 Number of Electrons    NEL             ....  253
MP2 TOTAL ENERGY:    -2777.842282068 Eh
FINAL SINGLE POINT ENERGY     -2777.842282067812

CARTESIAN COORDINATES (ANGSTROEM)
---------------------------------
  Au     7.451772    9.713351   10.404105
  Au    11.808446    8.630598    7.741597
  Au     9.907223    8.740193    9.734464
  Au     9.960194    6.457161    8.174285
  Au    11.134092    9.801363    5.275767
  Au     7.272410   10.695812    7.870803
  Au     8.592503   10.996278    5.472336
  Au     8.895353    8.465621    4.148222
  Au    10.903038    6.986792    5.556480
  Au     8.133667    6.490635    6.079385
  Au     6.688003    8.857328    5.883818
  Au     7.358678    7.750670    8.501876
  Mn     9.249779    8.880684    6.979337

 Multiplicity           Mult            ....    4
 Number of Electrons    NEL             ....  253
 Basis Dimension        Dim             ....  525

ORBITAL ENERGIES
----------------
                 SPIN UP ORBITALS
  NO   OCC          E(Eh)            E(eV)
   0   1.0000    -237.625855     -6466.1282
   1   1.0000     -28.127147      -765.3786
   2   1.0000     -24.045775      -654.3188
   3   1.0000     -24.044792      -654.2921
   4   1.0000     -24.044346      -654.2799
   5   1.0000      -4.411031      -120.0303
   6   1.0000      -4.407952      -119.9465
   7   1.0000      -4.403055      -119.8132
   8   1.0000      -4.403000      -119.8117
   9   1.0000      -4.397517      -119.6625
  10   1.0000      -4.397415      -119.6597
  11   1.0000      -4.396901      -119.6457
  12   1.0000      -4.392348      -119.5219
  13   1.0000      -4.392240      -119.5189
  14   1.0000      -4.391649      -119.5028
  15   1.0000      -4.391503      -119.4989
  16   1.0000      -4.382720      -119.2599
  17   1.0000      -3.604626       -98.0869
  18   1.0000      -2.531717       -68.8915
  19   1.0000      -2.529326       -68.8265
  20   1.0000      -2.529266       -68.8248
  21   1.0000      -2.527493       -68.7766
  22   1.0000      -2.525363       -68.7186
  23   1.0000      -2.523933       -68.6797
  24   1.0000      -2.523491       -68.6677
  25   1.0000      -2.522415       -68.6384
  26   1.0000      -2.520894       -68.5970
  27   1.0000      -2.520344       -68.5820
  28   1.0000      -2.519331       -68.5545
  29   1.0000      -2.518947       -68.5440
  30   1.0000      -2.518796       -68.5399
  31   1.0000      -2.518133       -68.5219
  32   1.0000      -2.517442       -68.5031
  33   1.0000      -2.516125       -68.4672
  34   1.0000      -2.514679       -68.4279
  35   1.0000      -2.513552       -68.3972
  36   1.0000      -2.512862       -68.3784
  37   1.0000      -2.511905       -68.3524
  38   1.0000      -2.511698       -68.3468
  39   1.0000      -2.511319       -68.3365
  40   1.0000      -2.510570       -68.3161
  41   1.0000      -2.510151       -68.3047
  42   1.0000      -2.509955       -68.2994
  43   1.0000      -2.508612       -68.2628
  44   1.0000      -2.508345       -68.2555
  45   1.0000      -2.508150       -68.2502
  46   1.0000      -2.508078       -68.2483
  47   1.0000      -2.507798       -68.2407
  48   1.0000      -2.506386       -68.2022
  49   1.0000      -2.505259       -68.1716
  50   1.0000      -2.505085       -68.1668
  51   1.0000      -2.500882       -68.0525
  52   1.0000      -2.498088       -67.9764
  53   1.0000      -2.497629       -67.9639
  54   1.0000      -2.407109       -65.5008
  55   1.0000      -2.405859       -65.4667
  56   1.0000      -2.405680       -65.4619
  57   1.0000      -0.520568       -14.1654
  58   1.0000      -0.519641       -14.1402
  59   1.0000      -0.516828       -14.0636
  60   1.0000      -0.515028       -14.0146
  61   1.0000      -0.513501       -13.9731
  62   1.0000      -0.506921       -13.7940
  63   1.0000      -0.464236       -12.6325
  64   1.0000      -0.462879       -12.5956
  65   1.0000      -0.457852       -12.4588
  66   1.0000      -0.457227       -12.4418
  67   1.0000      -0.455018       -12.3817
  68   1.0000      -0.453474       -12.3397
  69   1.0000      -0.451604       -12.2888
  70   1.0000      -0.451249       -12.2791
  71   1.0000      -0.449498       -12.2315
  72   1.0000      -0.446794       -12.1579
  73   1.0000      -0.442688       -12.0462
  74   1.0000      -0.440081       -11.9752
  75   1.0000      -0.438393       -11.9293
  76   1.0000      -0.436850       -11.8873
  77   1.0000      -0.436322       -11.8729
  78   1.0000      -0.431725       -11.7478
  79   1.0000      -0.427732       -11.6392
  80   1.0000      -0.426395       -11.6028
  81   1.0000      -0.426165       -11.5965
  82   1.0000      -0.424116       -11.5408
  83   1.0000      -0.418375       -11.3846
  84   1.0000      -0.416561       -11.3352
  85   1.0000      -0.411667       -11.2020
  86   1.0000      -0.410929       -11.1819
  87   1.0000      -0.407181       -11.0800
  88   1.0000      -0.404101       -10.9961
  89   1.0000      -0.401207       -10.9174
  90   1.0000      -0.400441       -10.8966
  91   1.0000      -0.396150       -10.7798
  92   1.0000      -0.388817       -10.5802
  93   1.0000      -0.384494       -10.4626
  94   1.0000      -0.382200       -10.4002
  95   1.0000      -0.376569       -10.2470
  96   1.0000      -0.374174       -10.1818
  97   1.0000      -0.373966       -10.1761
  98   1.0000      -0.371766       -10.1163
  99   1.0000      -0.371374       -10.1056
 100   1.0000      -0.371354       -10.1051
 101   1.0000      -0.365910        -9.9569
 102   1.0000      -0.365697        -9.9511
 103   1.0000      -0.365240        -9.9387
 104   1.0000      -0.364246        -9.9116
 105   1.0000      -0.362025        -9.8512
 106   1.0000      -0.359556        -9.7840
 107   1.0000      -0.359324        -9.7777
 108   1.0000      -0.357982        -9.7412
 109   1.0000      -0.356350        -9.6968
 110   1.0000      -0.354492        -9.6462
 111   1.0000      -0.351588        -9.5672
 112   1.0000      -0.348758        -9.4902
 113   1.0000      -0.348170        -9.4742
 114   1.0000      -0.346311        -9.4236
 115   1.0000      -0.345400        -9.3988
 116   1.0000      -0.342668        -9.3245
 117   1.0000      -0.341805        -9.3010
 118   1.0000      -0.341221        -9.2851
 119   1.0000      -0.336791        -9.1645
 120   1.0000      -0.327198        -8.9035
 121   1.0000      -0.325727        -8.8635
 122   1.0000      -0.325305        -8.8520
 123   1.0000      -0.317193        -8.6313
 124   1.0000      -0.308002        -8.3812
 125   1.0000      -0.271485        -7.3875
 126   1.0000      -0.227228        -6.1832
 127   1.0000      -0.202171        -5.5014
 128   0.0000      -0.114575        -3.1178
 129   0.0000      -0.114261        -3.1092
 130   0.0000      -0.083073        -2.2605
 131   0.0000      -0.072475        -1.9721
 132   0.0000      -0.049096        -1.3360

                 SPIN DOWN ORBITALS
  NO   OCC          E(Eh)            E(eV)
   0   1.0000    -237.623803     -6466.0724
   1   1.0000     -28.026692      -762.6451
   2   1.0000     -23.953679      -651.8127
   3   1.0000     -23.952246      -651.7737
   4   1.0000     -23.952235      -651.7735
   5   1.0000      -4.410351      -120.0118
   6   1.0000      -4.407998      -119.9477
   7   1.0000      -4.403922      -119.8368
   8   1.0000      -4.403884      -119.8358
   9   1.0000      -4.397900      -119.6729
  10   1.0000      -4.397797      -119.6701
  11   1.0000      -4.397456      -119.6609
  12   1.0000      -4.393168      -119.5442
  13   1.0000      -4.393060      -119.5412
  14   1.0000      -4.391763      -119.5059
  15   1.0000      -4.391587      -119.5011
  16   1.0000      -4.382952      -119.2662
  17   1.0000      -3.322301       -90.4044
  18   1.0000      -2.530751       -68.8652
  19   1.0000      -2.528701       -68.8095
  20   1.0000      -2.527724       -68.7829
  21   1.0000      -2.526016       -68.7364
  22   1.0000      -2.524516       -68.6956
  23   1.0000      -2.523732       -68.6743
  24   1.0000      -2.522926       -68.6523
  25   1.0000      -2.522275       -68.6346
  26   1.0000      -2.521368       -68.6099
  27   1.0000      -2.520658       -68.5906
  28   1.0000      -2.519828       -68.5680
  29   1.0000      -2.519396       -68.5562
  30   1.0000      -2.517929       -68.5163
  31   1.0000      -2.517489       -68.5044
  32   1.0000      -2.516440       -68.4758
  33   1.0000      -2.516028       -68.4646
  34   1.0000      -2.514591       -68.4255
  35   1.0000      -2.513673       -68.4005
  36   1.0000      -2.513023       -68.3828
  37   1.0000      -2.512152       -68.3591
  38   1.0000      -2.511924       -68.3529
  39   1.0000      -2.510878       -68.3245
  40   1.0000      -2.510274       -68.3080
  41   1.0000      -2.510166       -68.3051
  42   1.0000      -2.509655       -68.2912
  43   1.0000      -2.509507       -68.2872
  44   1.0000      -2.509433       -68.2851
  45   1.0000      -2.509139       -68.2771
  46   1.0000      -2.508096       -68.2488
  47   1.0000      -2.507846       -68.2420
  48   1.0000      -2.507425       -68.2305
  49   1.0000      -2.505573       -68.1801
  50   1.0000      -2.505389       -68.1751
  51   1.0000      -2.501566       -68.0711
  52   1.0000      -2.498444       -67.9861
  53   1.0000      -2.497868       -67.9705
  54   1.0000      -2.084825       -56.7310
  55   1.0000      -2.082509       -56.6679
  56   1.0000      -2.082142       -56.6580
  57   1.0000      -0.511065       -13.9068
  58   1.0000      -0.473740       -12.8911
  59   1.0000      -0.471689       -12.8353
  60   1.0000      -0.466696       -12.6995
  61   1.0000      -0.466459       -12.6930
  62   1.0000      -0.463799       -12.6206
  63   1.0000      -0.463536       -12.6134
  64   1.0000      -0.461098       -12.5471
  65   1.0000      -0.456408       -12.4195
  66   1.0000      -0.455793       -12.4028
  67   1.0000      -0.453694       -12.3456
  68   1.0000      -0.453139       -12.3305
  69   1.0000      -0.451438       -12.2842
  70   1.0000      -0.447504       -12.1772
  71   1.0000      -0.447386       -12.1740
  72   1.0000      -0.441695       -12.0191
  73   1.0000      -0.438045       -11.9198
  74   1.0000      -0.433690       -11.8013
  75   1.0000      -0.433333       -11.7916
  76   1.0000      -0.429972       -11.7001
  77   1.0000      -0.428035       -11.6474
  78   1.0000      -0.424395       -11.5484
  79   1.0000      -0.420798       -11.4505
  80   1.0000      -0.417741       -11.3673
  81   1.0000      -0.414776       -11.2866
  82   1.0000      -0.411096       -11.1865
  83   1.0000      -0.410379       -11.1670
  84   1.0000      -0.405019       -11.0211
  85   1.0000      -0.404121       -10.9967
  86   1.0000      -0.400705       -10.9037
  87   1.0000      -0.395518       -10.7626
  88   1.0000      -0.390772       -10.6334
  89   1.0000      -0.389684       -10.6038
  90   1.0000      -0.387962       -10.5570
  91   1.0000      -0.380822       -10.3627
  92   1.0000      -0.377616       -10.2755
  93   1.0000      -0.377446       -10.2708
  94   1.0000      -0.374852       -10.2002
  95   1.0000      -0.372935       -10.1481
  96   1.0000      -0.372396       -10.1334
  97   1.0000      -0.370158       -10.0725
  98   1.0000      -0.367434        -9.9984
  99   1.0000      -0.366262        -9.9665
 100   1.0000      -0.365032        -9.9330
 101   1.0000      -0.363831        -9.9003
 102   1.0000      -0.361758        -9.8439
 103   1.0000      -0.361685        -9.8419
 104   1.0000      -0.357283        -9.7222
 105   1.0000      -0.356492        -9.7006
 106   1.0000      -0.355134        -9.6637
 107   1.0000      -0.351662        -9.5692
 108   1.0000      -0.351547        -9.5661
 109   1.0000      -0.349271        -9.5041
 110   1.0000      -0.348048        -9.4709
 111   1.0000      -0.344839        -9.3835
 112   1.0000      -0.343231        -9.3398
 113   1.0000      -0.343201        -9.3390
 114   1.0000      -0.339467        -9.2374
 115   1.0000      -0.330294        -8.9878
 116   1.0000      -0.329461        -8.9651
 117   1.0000      -0.328220        -8.9313
 118   1.0000      -0.321153        -8.7390
 119   1.0000      -0.317583        -8.6419
 120   1.0000      -0.296661        -8.0726
 121   1.0000      -0.239212        -6.5093
 122   1.0000      -0.217989        -5.9318
 123   1.0000      -0.214969        -5.8496
 124   1.0000      -0.212794        -5.7904
 125   0.0000      -0.092559        -2.5187
 126   0.0000      -0.076741        -2.0882
 127   0.0000      -0.051412        -1.3990
 128   0.0000      -0.049479        -1.3464
 129   0.0000      -0.042414        -1.1541

MULLIKEN ATOMIC CHARGES AND SPIN POPULATIONS
--------------------------------------------
   0 Au:    0.280524    0.056798
   1 Au:    0.268709   -0.197647
   2 Au:    0.008055   -0.033389
   3 Au:    0.252987   -0.212514
   4 Au:    0.270000   -0.255327
   5 Au:    0.005935   -0.029022
   6 Au:    0.270726   -0.195965
   7 Au:    0.125697   -0.055084
   8 Au:    0.123270   -0.049615
   9 Au:    0.261091   -0.045282
  10 Au:    0.254247   -0.214733
  11 Au:    0.032132   -0.246400
  12 Mn:   -2.153373    4.478181
Sum of atomic charges         :   -0.0000000

LOEWDIN ATOMIC CHARGES AND SPIN POPULATIONS
-------------------------------------------
   0 Au:    0.080256    0.018667
   1 Au:    0.064642   -0.164227
   2 Au:   -0.006644   -0.057529
   3 Au:    0.040229   -0.161217
   4 Au:    0.053861   -0.193454
   5 Au:   -0.006583   -0.055282
   6 Au:    0.063993   -0.162765
   7 Au:    0.001881   -0.090635
   8 Au:    0.001907   -0.088358
   9 Au:    0.071668   -0.156457
  10 Au:    0.041925   -0.162522
  11 Au:   -0.031899   -0.136121
  12 Mn:   -0.375238    4.409899

  Mayer bond orders larger than 0.100000
B(  0-Au,  2-Au) :   0.3078 B(  0-Au,  5-Au) :   0.3092 B(  0-Au, 11-Au) :   0.3664
B(  0-Au, 12-Mn) :   0.1228 B(  1-Au,  2-Au) :   0.1894 B(  1-Au,  3-Au) :   0.1038
B(  1-Au,  4-Au) :   0.1603 B(  1-Au,  8-Au) :   0.1435 B(  1-Au, 12-Mn) :   0.5169
B(  2-Au,  3-Au) :   0.2022 B(  2-Au, 11-Au) :   0.1459 B(  2-Au, 12-Mn) :   0.4318
B(  3-Au,  8-Au) :   0.1634 B(  3-Au,  9-Au) :   0.2207 B(  3-Au, 11-Au) :   0.1184
B(  3-Au, 12-Mn) :   0.4676 B(  4-Au,  6-Au) :   0.1596 B(  4-Au,  7-Au) :   0.1704
B(  4-Au,  8-Au) :   0.1705 B(  4-Au, 12-Mn) :   0.4537 B(  5-Au,  6-Au) :   0.1900
B(  5-Au, 10-Au) :   0.1988 B(  5-Au, 11-Au) :   0.1418 B(  5-Au, 12-Mn) :   0.4350
B(  6-Au,  7-Au) :   0.1465 B(  6-Au, 10-Au) :   0.1007 B(  6-Au, 12-Mn) :   0.5177
B(  7-Au,  8-Au) :   0.1510 B(  7-Au,  9-Au) :   0.1993 B(  7-Au, 10-Au) :   0.1617
B(  7-Au, 12-Mn) :   0.4133 B(  8-Au,  9-Au) :   0.2026 B(  8-Au, 12-Mn) :   0.4122
B(  9-Au, 10-Au) :   0.2211 B(  9-Au, 11-Au) :   0.2584 B(  9-Au, 12-Mn) :   0.2443
B( 10-Au, 11-Au) :   0.1175 B( 10-Au, 12-Mn) :   0.4692 B( 11-Au, 12-Mn) :   0.4618

MP2 TOTAL ENERGY:    -2777.854730903 Eh
FINAL SINGLE POINT ENERGY     -2777.854730903447

DIPOLE MOMENT
-------------
                                X             Y             Z
Electronic contribution:     -8.85500      -9.19417       3.27623
Nuclear contribution   :      8.76809       9.04227      -3.30805
                        -----------------------------------------
Total Dipole Moment    :     -0.08690      -0.15190      -0.03182
                        -----------------------------------------
Magnitude (a.u.)       :      0.17788
Magnitude (Debye)      :      0.45212

Rotational constants in cm-1:     0.001580     0.001289     0.001105
Rotational constants in MHz :    47.367865    38.636460    33.113797

                             ****ORCA TERMINATED NORMALLY****
TOTAL RUN TIME: 0 days 0 hours 57 minutes 37 seconds 543 msec
