                         Program Version 5.0.3 -  RELEASE  -
|  1> !PBE def2-TZVP VERYSLOWCONV
|  2> !KDIIS
|  3>
|  4> %scf
|  5>   AutoTRAHIter 200
|  6>   maxiter 400
|  7> end
|  8>
|  9>
| 10> %pal nprocs 6 end
| 11>
| 12> *xyzfile 0 6 pbe.xyz
| 13>
| 14> $new_job
| 15>
| 16> !PBE def2-TZVP VERYSLOWCONV
| 17> !KDIIS
| 18>
| 19> %scf
| 20>   AutoTRAHIter 200
| 21>   maxiter 400
| 22> end
| 23>
| 24>
| 25> %pal nprocs 6 end
| 26>
| 27> *xyzfile 0 4 pbe.xyz
| 28>
| 29>
| 30>
| 31>
| 32>
| 33>                          ****END OF INPUT****
 Total Charge           Charge          ....    0
 Multiplicity           Mult            ....    6
 Number of Electrons    NEL             ....  253
FINAL SINGLE POINT ENERGY     -2780.678211357884

CARTESIAN COORDINATES (ANGSTROEM)
---------------------------------
  Au     7.451772    9.713351   10.404105
  Au    11.808446    8.630598    7.741597
  Au     9.907223    8.740193    9.734464
  Au     9.960194    6.457161    8.174285
  Au    11.134092    9.801363    5.275767
  Au     7.272410   10.695812    7.870803
  Au     8.592503   10.996278    5.472336
  Au     8.895353    8.465621    4.148222
  Au    10.903038    6.986792    5.556480
  Au     8.133667    6.490635    6.079385
  Au     6.688003    8.857328    5.883818
  Au     7.358678    7.750670    8.501876
  Mn     9.249779    8.880684    6.979337

 Multiplicity           Mult            ....    4
 Number of Electrons    NEL             ....  253
 Basis Dimension        Dim             ....  525

ORBITAL ENERGIES
----------------
                 SPIN UP ORBITALS
  NO   OCC          E(Eh)            E(eV)
   0   1.0000    -234.203216     -6372.9935
   1   1.0000     -26.896554      -731.8925
   2   1.0000     -23.046774      -627.1346
   3   1.0000     -23.044793      -627.0807
   4   1.0000     -23.044369      -627.0692
   5   1.0000      -4.035946      -109.8237
   6   1.0000      -4.035142      -109.8018
   7   1.0000      -4.029946      -109.6604
   8   1.0000      -4.029925      -109.6598
   9   1.0000      -4.025480      -109.5389
  10   1.0000      -4.025470      -109.5386
  11   1.0000      -4.024852      -109.5218
  12   1.0000      -4.021901      -109.4415
  13   1.0000      -4.021813      -109.4391
  14   1.0000      -4.021537      -109.4316
  15   1.0000      -4.021496      -109.4305
  16   1.0000      -4.014426      -109.2381
  17   1.0000      -3.103910       -84.4617
  18   1.0000      -2.252341       -61.2893
  19   1.0000      -2.249992       -61.2254
  20   1.0000      -2.249921       -61.2235
  21   1.0000      -2.248700       -61.1902
  22   1.0000      -2.247722       -61.1636
  23   1.0000      -2.245301       -61.0977
  24   1.0000      -2.244826       -61.0848
  25   1.0000      -2.244256       -61.0693
  26   1.0000      -2.243790       -61.0566
  27   1.0000      -2.243406       -61.0462
  28   1.0000      -2.241939       -61.0063
  29   1.0000      -2.241707       -61.0000
  30   1.0000      -2.241213       -60.9865
  31   1.0000      -2.240846       -60.9765
  32   1.0000      -2.240659       -60.9714
  33   1.0000      -2.240057       -60.9550
  34   1.0000      -2.239022       -60.9269
  35   1.0000      -2.237559       -60.8871
  36   1.0000      -2.236908       -60.8694
  37   1.0000      -2.236526       -60.8590
  38   1.0000      -2.236110       -60.8476
  39   1.0000      -2.235635       -60.8347
  40   1.0000      -2.235589       -60.8335
  41   1.0000      -2.235247       -60.8242
  42   1.0000      -2.234896       -60.8146
  43   1.0000      -2.234146       -60.7942
  44   1.0000      -2.234000       -60.7902
  45   1.0000      -2.233953       -60.7890
  46   1.0000      -2.233823       -60.7854
  47   1.0000      -2.233605       -60.7795
  48   1.0000      -2.232663       -60.7538
  49   1.0000      -2.230601       -60.6977
  50   1.0000      -2.230517       -60.6954
  51   1.0000      -2.229608       -60.6707
  52   1.0000      -2.226019       -60.5731
  53   1.0000      -2.224991       -60.5451
  54   1.0000      -2.008930       -54.6658
  55   1.0000      -2.005525       -54.5731
  56   1.0000      -2.005304       -54.5671
  57   1.0000      -0.433374       -11.7927
  58   1.0000      -0.385230       -10.4826
  59   1.0000      -0.384614       -10.4659
  60   1.0000      -0.381004       -10.3676
  61   1.0000      -0.372627       -10.1397
  62   1.0000      -0.371992       -10.1224
  63   1.0000      -0.367132        -9.9902
  64   1.0000      -0.366872        -9.9831
  65   1.0000      -0.357090        -9.7169
  66   1.0000      -0.351490        -9.5645
  67   1.0000      -0.349282        -9.5045
  68   1.0000      -0.347039        -9.4434
  69   1.0000      -0.345124        -9.3913
  70   1.0000      -0.344893        -9.3850
  71   1.0000      -0.342731        -9.3262
  72   1.0000      -0.337562        -9.1855
  73   1.0000      -0.334899        -9.1131
  74   1.0000      -0.332908        -9.0589
  75   1.0000      -0.330152        -8.9839
  76   1.0000      -0.328545        -8.9402
  77   1.0000      -0.325729        -8.8635
  78   1.0000      -0.324877        -8.8403
  79   1.0000      -0.322896        -8.7865
  80   1.0000      -0.320772        -8.7287
  81   1.0000      -0.318034        -8.6541
  82   1.0000      -0.311509        -8.4766
  83   1.0000      -0.311324        -8.4716
  84   1.0000      -0.306748        -8.3470
  85   1.0000      -0.305334        -8.3086
  86   1.0000      -0.304738        -8.2923
  87   1.0000      -0.300064        -8.1652
  88   1.0000      -0.299913        -8.1611
  89   1.0000      -0.294825        -8.0226
  90   1.0000      -0.292141        -7.9496
  91   1.0000      -0.289461        -7.8766
  92   1.0000      -0.283944        -7.7265
  93   1.0000      -0.281729        -7.6662
  94   1.0000      -0.280553        -7.6342
  95   1.0000      -0.278787        -7.5862
  96   1.0000      -0.275612        -7.4998
  97   1.0000      -0.274147        -7.4599
  98   1.0000      -0.271287        -7.3821
  99   1.0000      -0.271231        -7.3806
 100   1.0000      -0.268950        -7.3185
 101   1.0000      -0.268103        -7.2954
 102   1.0000      -0.267899        -7.2899
 103   1.0000      -0.266202        -7.2437
 104   1.0000      -0.265099        -7.2137
 105   1.0000      -0.261201        -7.1076
 106   1.0000      -0.260211        -7.0807
 107   1.0000      -0.257861        -7.0167
 108   1.0000      -0.256422        -6.9776
 109   1.0000      -0.255323        -6.9477
 110   1.0000      -0.254053        -6.9131
 111   1.0000      -0.254008        -6.9119
 112   1.0000      -0.252796        -6.8789
 113   1.0000      -0.250530        -6.8173
 114   1.0000      -0.250437        -6.8147
 115   1.0000      -0.248177        -6.7532
 116   1.0000      -0.246633        -6.7112
 117   1.0000      -0.244812        -6.6617
 118   1.0000      -0.244522        -6.6538
 119   1.0000      -0.243842        -6.6353
 120   1.0000      -0.241192        -6.5632
 121   1.0000      -0.239351        -6.5131
 122   1.0000      -0.238469        -6.4891
 123   1.0000      -0.237649        -6.4667
 124   1.0000      -0.233575        -6.3559
 125   1.0000      -0.233451        -6.3525
 126   1.0000      -0.206090        -5.6080
 127   1.0000      -0.188227        -5.1219
 128   0.0000      -0.177755        -4.8370
 129   0.0000      -0.176823        -4.8116
 130   0.0000      -0.148535        -4.0418
 131   0.0000      -0.136682        -3.7193
 132   0.0000      -0.118293        -3.2189

                 SPIN DOWN ORBITALS
  NO   OCC          E(Eh)            E(eV)
   0   1.0000    -234.202522     -6372.9746
   1   1.0000     -26.832478      -730.1489
   2   1.0000     -22.998753      -625.8279
   3   1.0000     -22.995938      -625.7513
   4   1.0000     -22.995260      -625.7328
   5   1.0000      -4.035663      -109.8160
   6   1.0000      -4.034846      -109.7937
   7   1.0000      -4.030313      -109.6704
   8   1.0000      -4.030279      -109.6695
   9   1.0000      -4.025344      -109.5352
  10   1.0000      -4.025331      -109.5348
  11   1.0000      -4.024844      -109.5216
  12   1.0000      -4.022332      -109.4532
  13   1.0000      -4.022246      -109.4509
  14   1.0000      -4.021422      -109.4285
  15   1.0000      -4.021357      -109.4267
  16   1.0000      -4.014701      -109.2456
  17   1.0000      -2.946927       -80.1900
  18   1.0000      -2.251903       -61.2774
  19   1.0000      -2.249921       -61.2235
  20   1.0000      -2.249292       -61.2063
  21   1.0000      -2.248002       -61.1712
  22   1.0000      -2.247391       -61.1546
  23   1.0000      -2.245408       -61.1007
  24   1.0000      -2.244730       -61.0822
  25   1.0000      -2.244307       -61.0707
  26   1.0000      -2.244247       -61.0691
  27   1.0000      -2.243817       -61.0574
  28   1.0000      -2.241933       -61.0061
  29   1.0000      -2.241710       -61.0000
  30   1.0000      -2.241149       -60.9848
  31   1.0000      -2.240820       -60.9758
  32   1.0000      -2.240382       -60.9639
  33   1.0000      -2.240235       -60.9599
  34   1.0000      -2.238919       -60.9241
  35   1.0000      -2.237650       -60.8895
  36   1.0000      -2.237057       -60.8734
  37   1.0000      -2.236640       -60.8621
  38   1.0000      -2.236268       -60.8519
  39   1.0000      -2.235896       -60.8418
  40   1.0000      -2.235812       -60.8395
  41   1.0000      -2.235397       -60.8282
  42   1.0000      -2.235119       -60.8207
  43   1.0000      -2.234493       -60.8037
  44   1.0000      -2.234404       -60.8012
  45   1.0000      -2.234282       -60.7979
  46   1.0000      -2.233546       -60.7779
  47   1.0000      -2.233314       -60.7716
  48   1.0000      -2.233272       -60.7704
  49   1.0000      -2.230585       -60.6973
  50   1.0000      -2.230466       -60.6941
  51   1.0000      -2.230003       -60.6815
  52   1.0000      -2.226373       -60.5827
  53   1.0000      -2.225085       -60.5477
  54   1.0000      -1.856706       -50.5235
  55   1.0000      -1.851640       -50.3857
  56   1.0000      -1.849155       -50.3181
  57   1.0000      -0.427424       -11.6308
  58   1.0000      -0.384080       -10.4513
  59   1.0000      -0.383280       -10.4296
  60   1.0000      -0.376414       -10.2428
  61   1.0000      -0.367014        -9.9870
  62   1.0000      -0.365535        -9.9467
  63   1.0000      -0.363441        -9.8897
  64   1.0000      -0.362948        -9.8763
  65   1.0000      -0.355721        -9.6797
  66   1.0000      -0.350473        -9.5369
  67   1.0000      -0.350201        -9.5295
  68   1.0000      -0.346865        -9.4387
  69   1.0000      -0.346212        -9.4209
  70   1.0000      -0.345673        -9.4062
  71   1.0000      -0.343504        -9.3472
  72   1.0000      -0.338353        -9.2070
  73   1.0000      -0.333970        -9.0878
  74   1.0000      -0.331389        -9.0176
  75   1.0000      -0.330198        -8.9851
  76   1.0000      -0.327098        -8.9008
  77   1.0000      -0.325920        -8.8687
  78   1.0000      -0.323295        -8.7973
  79   1.0000      -0.322260        -8.7691
  80   1.0000      -0.318114        -8.6563
  81   1.0000      -0.315830        -8.5942
  82   1.0000      -0.311598        -8.4790
  83   1.0000      -0.309828        -8.4308
  84   1.0000      -0.305649        -8.3171
  85   1.0000      -0.303976        -8.2716
  86   1.0000      -0.299650        -8.1539
  87   1.0000      -0.298897        -8.1334
  88   1.0000      -0.292825        -7.9682
  89   1.0000      -0.292275        -7.9532
  90   1.0000      -0.291272        -7.9259
  91   1.0000      -0.283083        -7.7031
  92   1.0000      -0.282084        -7.6759
  93   1.0000      -0.279695        -7.6109
  94   1.0000      -0.278591        -7.5808
  95   1.0000      -0.278312        -7.5732
  96   1.0000      -0.275413        -7.4944
  97   1.0000      -0.274592        -7.4720
  98   1.0000      -0.271203        -7.3798
  99   1.0000      -0.271111        -7.3773
 100   1.0000      -0.269159        -7.3242
 101   1.0000      -0.268546        -7.3075
 102   1.0000      -0.267378        -7.2757
 103   1.0000      -0.266584        -7.2541
 104   1.0000      -0.265738        -7.2311
 105   1.0000      -0.261265        -7.1094
 106   1.0000      -0.261042        -7.1033
 107   1.0000      -0.258563        -7.0359
 108   1.0000      -0.256899        -6.9906
 109   1.0000      -0.256145        -6.9701
 110   1.0000      -0.254857        -6.9350
 111   1.0000      -0.253475        -6.8974
 112   1.0000      -0.251665        -6.8482
 113   1.0000      -0.251524        -6.8443
 114   1.0000      -0.249005        -6.7758
 115   1.0000      -0.245541        -6.6815
 116   1.0000      -0.244767        -6.6604
 117   1.0000      -0.241762        -6.5787
 118   1.0000      -0.241576        -6.5736
 119   1.0000      -0.239558        -6.5187
 120   1.0000      -0.238144        -6.4802
 121   1.0000      -0.216374        -5.8878
 122   1.0000      -0.199290        -5.4230
 123   1.0000      -0.196328        -5.3424
 124   1.0000      -0.194696        -5.2979
 125   0.0000      -0.158885        -4.3235
 126   0.0000      -0.140791        -3.8311
 127   0.0000      -0.128157        -3.4873
 128   0.0000      -0.127158        -3.4601
 129   0.0000      -0.124175        -3.3790

MULLIKEN ATOMIC CHARGES AND SPIN POPULATIONS
--------------------------------------------
   0 Au:    0.315448    0.033275
   1 Au:    0.307882   -0.124953
   2 Au:    0.053248    0.017665
   3 Au:    0.257918   -0.157962
   4 Au:    0.306825   -0.168815
   5 Au:    0.052710    0.019437
   6 Au:    0.309819   -0.125114
   7 Au:    0.162231   -0.028140
   8 Au:    0.161607   -0.028059
   9 Au:    0.279607   -0.036199
  10 Au:    0.260234   -0.158522
  11 Au:    0.059882   -0.167979
  12 Mn:   -2.527412    3.925368
Sum of atomic charges         :   -0.0000000

LOEWDIN ATOMIC CHARGES AND SPIN POPULATIONS
-------------------------------------------
   0 Au:    0.072834    0.012573
   1 Au:    0.086268   -0.102951
   2 Au:    0.018989   -0.018370
   3 Au:    0.056902   -0.119611
   4 Au:    0.078892   -0.134486
   5 Au:    0.019706   -0.017224
   6 Au:    0.086105   -0.102779
   7 Au:    0.020648   -0.060563
   8 Au:    0.020816   -0.060666
   9 Au:    0.081139   -0.099257
  10 Au:    0.058575   -0.120010
  11 Au:   -0.001528   -0.091894
  12 Mn:   -0.599345    3.915238

  Mayer bond orders larger than 0.100000
B(  0-Au,  2-Au) :   0.3478 B(  0-Au,  5-Au) :   0.3489 B(  0-Au, 11-Au) :   0.3886
B(  0-Au, 12-Mn) :   0.1182 B(  1-Au,  2-Au) :   0.2140 B(  1-Au,  3-Au) :   0.1391
B(  1-Au,  4-Au) :   0.1849 B(  1-Au,  8-Au) :   0.1646 B(  1-Au, 12-Mn) :   0.5531
B(  2-Au,  3-Au) :   0.2306 B(  2-Au, 11-Au) :   0.1505 B(  2-Au, 12-Mn) :   0.4482
B(  3-Au,  8-Au) :   0.1946 B(  3-Au,  9-Au) :   0.2456 B(  3-Au, 11-Au) :   0.1431
B(  3-Au, 12-Mn) :   0.5168 B(  4-Au,  6-Au) :   0.1836 B(  4-Au,  7-Au) :   0.2013
B(  4-Au,  8-Au) :   0.2034 B(  4-Au, 12-Mn) :   0.5114 B(  5-Au,  6-Au) :   0.2154
B(  5-Au, 10-Au) :   0.2269 B(  5-Au, 11-Au) :   0.1467 B(  5-Au, 12-Mn) :   0.4513
B(  6-Au,  7-Au) :   0.1679 B(  6-Au, 10-Au) :   0.1354 B(  6-Au, 12-Mn) :   0.5533
B(  7-Au,  8-Au) :   0.1816 B(  7-Au,  9-Au) :   0.2257 B(  7-Au, 10-Au) :   0.1928
B(  7-Au, 12-Mn) :   0.4471 B(  8-Au,  9-Au) :   0.2287 B(  8-Au, 12-Mn) :   0.4449
B(  9-Au, 10-Au) :   0.2454 B(  9-Au, 11-Au) :   0.2780 B(  9-Au, 12-Mn) :   0.2596
B( 10-Au, 11-Au) :   0.1426 B( 10-Au, 12-Mn) :   0.5206 B( 11-Au, 12-Mn) :   0.5428

FINAL SINGLE POINT ENERGY     -2780.691387069431

DIPOLE MOMENT
-------------
                                X             Y             Z
Electronic contribution:     -8.84527      -9.16275       3.29109
Nuclear contribution   :      8.76809       9.04227      -3.30805
                        -----------------------------------------
Total Dipole Moment    :     -0.07717      -0.12048      -0.01696
                        -----------------------------------------
Magnitude (a.u.)       :      0.14408
Magnitude (Debye)      :      0.36623

Rotational constants in cm-1:     0.001580     0.001289     0.001105
Rotational constants in MHz :    47.367865    38.636460    33.113797

                             ****ORCA TERMINATED NORMALLY****
TOTAL RUN TIME: 0 days 0 hours 6 minutes 8 seconds 830 msec
