                         Program Version 5.0.3 -  RELEASE  -
|  1> !R2SCAN def2-TZVP VERYSLOWCONV
|  2> !KDIIS
|  3> %scf
|  4>   AutoTRAHIter 200
|  5>   maxiter 400
|  6> end
|  7>
|  8> %pal nprocs 6 end
|  9>
| 10> *xyzfile 0 6 pbe.xyz
| 11>
| 12> $new_job
| 13>
| 14> !R2SCAN def2-TZVP VERYSLOWCONV
| 15> !KDIIS
| 16> %scf
| 17>   AutoTRAHIter 200
| 18>   maxiter 400
| 19> end
| 20>
| 21>
| 22> %pal nprocs 6 end
| 23>
| 24> *xyzfile 0 4 pbe.xyz
| 25>
| 26>
| 27>
| 28>
| 29>
| 30>                          ****END OF INPUT****
 Total Charge           Charge          ....    0
 Multiplicity           Mult            ....    6
 Number of Electrons    NEL             ....  253
FINAL SINGLE POINT ENERGY     -2781.131308584498

CARTESIAN COORDINATES (ANGSTROEM)
---------------------------------
  Au     7.451772    9.713351   10.404105
  Au    11.808446    8.630598    7.741597
  Au     9.907223    8.740193    9.734464
  Au     9.960194    6.457161    8.174285
  Au    11.134092    9.801363    5.275767
  Au     7.272410   10.695812    7.870803
  Au     8.592503   10.996278    5.472336
  Au     8.895353    8.465621    4.148222
  Au    10.903038    6.986792    5.556480
  Au     8.133667    6.490635    6.079385
  Au     6.688003    8.857328    5.883818
  Au     7.358678    7.750670    8.501876
  Mn     9.249779    8.880684    6.979337

 Multiplicity           Mult            ....    4
 Number of Electrons    NEL             ....  253
 Basis Dimension        Dim             ....  525

ORBITAL ENERGIES
----------------
                 SPIN UP ORBITALS
  NO   OCC          E(Eh)            E(eV)
   0   1.0000    -235.045004     -6395.8997
   1   1.0000     -27.222152      -740.7524
   2   1.0000     -23.270383      -633.2193
   3   1.0000     -23.268730      -633.1743
   4   1.0000     -23.268263      -633.1616
   5   1.0000      -4.127833      -112.3241
   6   1.0000      -4.126329      -112.2831
   7   1.0000      -4.121071      -112.1400
   8   1.0000      -4.121049      -112.1394
   9   1.0000      -4.116674      -112.0204
  10   1.0000      -4.116588      -112.0181
  11   1.0000      -4.115974      -112.0014
  12   1.0000      -4.112505      -111.9070
  13   1.0000      -4.112422      -111.9047
  14   1.0000      -4.112403      -111.9042
  15   1.0000      -4.112393      -111.9039
  16   1.0000      -4.105026      -111.7034
  17   1.0000      -3.242701       -88.2384
  18   1.0000      -2.316810       -63.0436
  19   1.0000      -2.314688       -62.9859
  20   1.0000      -2.314610       -62.9837
  21   1.0000      -2.313080       -62.9421
  22   1.0000      -2.312181       -62.9176
  23   1.0000      -2.309534       -62.8456
  24   1.0000      -2.309026       -62.8318
  25   1.0000      -2.308433       -62.8157
  26   1.0000      -2.307769       -62.7976
  27   1.0000      -2.307389       -62.7872
  28   1.0000      -2.306074       -62.7515
  29   1.0000      -2.305797       -62.7439
  30   1.0000      -2.305291       -62.7302
  31   1.0000      -2.304892       -62.7193
  32   1.0000      -2.304675       -62.7134
  33   1.0000      -2.303954       -62.6938
  34   1.0000      -2.302824       -62.6630
  35   1.0000      -2.301204       -62.6190
  36   1.0000      -2.300747       -62.6065
  37   1.0000      -2.300108       -62.5891
  38   1.0000      -2.299730       -62.5788
  39   1.0000      -2.299525       -62.5733
  40   1.0000      -2.299370       -62.5690
  41   1.0000      -2.299042       -62.5601
  42   1.0000      -2.298403       -62.5427
  43   1.0000      -2.297554       -62.5196
  44   1.0000      -2.297533       -62.5191
  45   1.0000      -2.297395       -62.5153
  46   1.0000      -2.297284       -62.5123
  47   1.0000      -2.297214       -62.5104
  48   1.0000      -2.295830       -62.4727
  49   1.0000      -2.294268       -62.4302
  50   1.0000      -2.294187       -62.4280
  51   1.0000      -2.292724       -62.3882
  52   1.0000      -2.289211       -62.2926
  53   1.0000      -2.288293       -62.2676
  54   1.0000      -2.101553       -57.1862
  55   1.0000      -2.098285       -57.0972
  56   1.0000      -2.098212       -57.0953
  57   1.0000      -0.439676       -11.9642
  58   1.0000      -0.393215       -10.6999
  59   1.0000      -0.392555       -10.6820
  60   1.0000      -0.389473       -10.5981
  61   1.0000      -0.384557       -10.4643
  62   1.0000      -0.382586       -10.4107
  63   1.0000      -0.377775       -10.2798
  64   1.0000      -0.376851       -10.2546
  65   1.0000      -0.366190        -9.9645
  66   1.0000      -0.361471        -9.8361
  67   1.0000      -0.358910        -9.7664
  68   1.0000      -0.356415        -9.6985
  69   1.0000      -0.354649        -9.6505
  70   1.0000      -0.354498        -9.6464
  71   1.0000      -0.352359        -9.5882
  72   1.0000      -0.347069        -9.4442
  73   1.0000      -0.345581        -9.4037
  74   1.0000      -0.342933        -9.3317
  75   1.0000      -0.339753        -9.2451
  76   1.0000      -0.338596        -9.2137
  77   1.0000      -0.335894        -9.1401
  78   1.0000      -0.334035        -9.0896
  79   1.0000      -0.331852        -9.0302
  80   1.0000      -0.331529        -9.0214
  81   1.0000      -0.327481        -8.9112
  82   1.0000      -0.321589        -8.7509
  83   1.0000      -0.321017        -8.7353
  84   1.0000      -0.316970        -8.6252
  85   1.0000      -0.315587        -8.5876
  86   1.0000      -0.314406        -8.5554
  87   1.0000      -0.310555        -8.4506
  88   1.0000      -0.309925        -8.4335
  89   1.0000      -0.304053        -8.2737
  90   1.0000      -0.302133        -8.2215
  91   1.0000      -0.300936        -8.1889
  92   1.0000      -0.293889        -7.9971
  93   1.0000      -0.290599        -7.9076
  94   1.0000      -0.289829        -7.8866
  95   1.0000      -0.287591        -7.8258
  96   1.0000      -0.283982        -7.7276
  97   1.0000      -0.283014        -7.7012
  98   1.0000      -0.280088        -7.6216
  99   1.0000      -0.280025        -7.6199
 100   1.0000      -0.277386        -7.5481
 101   1.0000      -0.276587        -7.5263
 102   1.0000      -0.276374        -7.5205
 103   1.0000      -0.274342        -7.4652
 104   1.0000      -0.273812        -7.4508
 105   1.0000      -0.272932        -7.4268
 106   1.0000      -0.270077        -7.3492
 107   1.0000      -0.266692        -7.2571
 108   1.0000      -0.265370        -7.2211
 109   1.0000      -0.264729        -7.2037
 110   1.0000      -0.263085        -7.1589
 111   1.0000      -0.261857        -7.1255
 112   1.0000      -0.260827        -7.0975
 113   1.0000      -0.258893        -7.0448
 114   1.0000      -0.258622        -7.0375
 115   1.0000      -0.258111        -7.0236
 116   1.0000      -0.256924        -6.9913
 117   1.0000      -0.255888        -6.9631
 118   1.0000      -0.255343        -6.9482
 119   1.0000      -0.253149        -6.8885
 120   1.0000      -0.251190        -6.8352
 121   1.0000      -0.250732        -6.8228
 122   1.0000      -0.246125        -6.6974
 123   1.0000      -0.245282        -6.6745
 124   1.0000      -0.243010        -6.6126
 125   1.0000      -0.237365        -6.4590
 126   1.0000      -0.208605        -5.6764
 127   1.0000      -0.189385        -5.1534
 128   0.0000      -0.175946        -4.7877
 129   0.0000      -0.175212        -4.7678
 130   0.0000      -0.145240        -3.9522
 131   0.0000      -0.131442        -3.5767
 132   0.0000      -0.113746        -3.0952

                 SPIN DOWN ORBITALS
  NO   OCC          E(Eh)            E(eV)
   0   1.0000    -235.043999     -6395.8724
   1   1.0000     -27.135671      -738.3991
   2   1.0000     -23.204373      -631.4231
   3   1.0000     -23.202158      -631.3628
   4   1.0000     -23.201805      -631.3532
   5   1.0000      -4.127586      -112.3173
   6   1.0000      -4.126221      -112.2802
   7   1.0000      -4.121688      -112.1568
   8   1.0000      -4.121681      -112.1566
   9   1.0000      -4.116772      -112.0231
  10   1.0000      -4.116683      -112.0206
  11   1.0000      -4.116256      -112.0090
  12   1.0000      -4.113138      -111.9242
  13   1.0000      -4.113040      -111.9215
  14   1.0000      -4.112420      -111.9046
  15   1.0000      -4.112363      -111.9031
  16   1.0000      -4.105333      -111.7118
  17   1.0000      -3.036500       -82.6274
  18   1.0000      -2.316363       -63.0314
  19   1.0000      -2.314538       -62.9818
  20   1.0000      -2.313890       -62.9641
  21   1.0000      -2.312384       -62.9232
  22   1.0000      -2.311726       -62.9053
  23   1.0000      -2.309711       -62.8504
  24   1.0000      -2.309024       -62.8317
  25   1.0000      -2.308560       -62.8191
  26   1.0000      -2.308323       -62.8127
  27   1.0000      -2.307852       -62.7998
  28   1.0000      -2.306138       -62.7532
  29   1.0000      -2.305891       -62.7465
  30   1.0000      -2.305325       -62.7311
  31   1.0000      -2.304935       -62.7205
  32   1.0000      -2.304351       -62.7046
  33   1.0000      -2.304111       -62.6980
  34   1.0000      -2.302775       -62.6617
  35   1.0000      -2.301332       -62.6224
  36   1.0000      -2.301108       -62.6163
  37   1.0000      -2.300142       -62.5901
  38   1.0000      -2.299958       -62.5850
  39   1.0000      -2.299796       -62.5806
  40   1.0000      -2.299684       -62.5776
  41   1.0000      -2.299086       -62.5613
  42   1.0000      -2.298703       -62.5509
  43   1.0000      -2.298211       -62.5375
  44   1.0000      -2.298193       -62.5370
  45   1.0000      -2.298099       -62.5345
  46   1.0000      -2.297256       -62.5115
  47   1.0000      -2.296990       -62.5043
  48   1.0000      -2.296614       -62.4940
  49   1.0000      -2.294415       -62.4342
  50   1.0000      -2.294300       -62.4311
  51   1.0000      -2.293294       -62.4037
  52   1.0000      -2.289617       -62.3036
  53   1.0000      -2.288442       -62.2717
  54   1.0000      -1.897547       -51.6349
  55   1.0000      -1.893788       -51.5326
  56   1.0000      -1.892113       -51.4870
  57   1.0000      -0.434430       -11.8214
  58   1.0000      -0.391429       -10.6513
  59   1.0000      -0.390613       -10.6291
  60   1.0000      -0.384087       -10.4515
  61   1.0000      -0.375492       -10.2177
  62   1.0000      -0.374505       -10.1908
  63   1.0000      -0.372694       -10.1415
  64   1.0000      -0.371986       -10.1223
  65   1.0000      -0.364893        -9.9292
  66   1.0000      -0.360366        -9.8061
  67   1.0000      -0.359804        -9.7908
  68   1.0000      -0.356378        -9.6975
  69   1.0000      -0.356184        -9.6923
  70   1.0000      -0.355222        -9.6661
  71   1.0000      -0.353350        -9.6151
  72   1.0000      -0.347957        -9.4684
  73   1.0000      -0.343524        -9.3478
  74   1.0000      -0.341270        -9.2864
  75   1.0000      -0.340062        -9.2535
  76   1.0000      -0.337003        -9.1703
  77   1.0000      -0.335731        -9.1357
  78   1.0000      -0.332939        -9.0597
  79   1.0000      -0.331727        -9.0268
  80   1.0000      -0.327620        -8.9150
  81   1.0000      -0.325109        -8.8467
  82   1.0000      -0.320875        -8.7315
  83   1.0000      -0.319124        -8.6838
  84   1.0000      -0.314755        -8.5649
  85   1.0000      -0.313062        -8.5188
  86   1.0000      -0.308919        -8.4061
  87   1.0000      -0.307739        -8.3740
  88   1.0000      -0.301618        -8.2075
  89   1.0000      -0.300839        -8.1862
  90   1.0000      -0.300742        -8.1836
  91   1.0000      -0.291898        -7.9430
  92   1.0000      -0.290581        -7.9071
  93   1.0000      -0.288723        -7.8566
  94   1.0000      -0.287279        -7.8173
  95   1.0000      -0.286381        -7.7928
  96   1.0000      -0.283953        -7.7268
  97   1.0000      -0.283653        -7.7186
  98   1.0000      -0.279763        -7.6127
  99   1.0000      -0.279623        -7.6089
 100   1.0000      -0.277803        -7.5594
 101   1.0000      -0.277452        -7.5498
 102   1.0000      -0.275569        -7.4986
 103   1.0000      -0.275022        -7.4837
 104   1.0000      -0.274529        -7.4703
 105   1.0000      -0.269634        -7.3371
 106   1.0000      -0.269535        -7.3344
 107   1.0000      -0.266930        -7.2635
 108   1.0000      -0.265094        -7.2136
 109   1.0000      -0.264515        -7.1978
 110   1.0000      -0.262737        -7.1494
 111   1.0000      -0.261570        -7.1177
 112   1.0000      -0.259704        -7.0669
 113   1.0000      -0.259529        -7.0621
 114   1.0000      -0.256909        -6.9908
 115   1.0000      -0.252802        -6.8791
 116   1.0000      -0.251727        -6.8498
 117   1.0000      -0.248870        -6.7721
 118   1.0000      -0.248788        -6.7699
 119   1.0000      -0.247073        -6.7232
 120   1.0000      -0.244287        -6.6474
 121   1.0000      -0.218336        -5.9412
 122   1.0000      -0.200212        -5.4481
 123   1.0000      -0.197571        -5.3762
 124   1.0000      -0.195737        -5.3263
 125   0.0000      -0.155061        -4.2194
 126   0.0000      -0.134630        -3.6635
 127   0.0000      -0.116500        -3.1701
 128   0.0000      -0.111352        -3.0300
 129   0.0000      -0.109792        -2.9876

MULLIKEN ATOMIC CHARGES AND SPIN POPULATIONS
--------------------------------------------
   0 Au:    0.282360    0.036283
   1 Au:    0.284526   -0.157423
   2 Au:    0.031753    0.003987
   3 Au:    0.247439   -0.183269
   4 Au:    0.283325   -0.211090
   5 Au:    0.030384    0.008009
   6 Au:    0.286375   -0.156088
   7 Au:    0.132736   -0.037730
   8 Au:    0.131381   -0.035243
   9 Au:    0.267553   -0.034968
  10 Au:    0.249526   -0.184869
  11 Au:    0.059629   -0.197709
  12 Mn:   -2.286987    4.150112
Sum of atomic charges         :   -0.0000000

LOEWDIN ATOMIC CHARGES AND SPIN POPULATIONS
-------------------------------------------
   0 Au:    0.067930    0.010428
   1 Au:    0.079352   -0.126885
   2 Au:    0.010955   -0.032185
   3 Au:    0.052656   -0.135878
   4 Au:    0.071898   -0.161762
   5 Au:    0.011347   -0.029933
   6 Au:    0.078930   -0.125614
   7 Au:    0.012845   -0.072703
   8 Au:    0.012887   -0.071695
   9 Au:    0.078697   -0.111606
  10 Au:    0.054426   -0.136738
  11 Au:   -0.005951   -0.108628
  12 Mn:   -0.525973    4.103200

  Mayer bond orders larger than 0.100000
B(  0-Au,  2-Au) :   0.3351 B(  0-Au,  5-Au) :   0.3364 B(  0-Au, 11-Au) :   0.3812
B(  0-Au, 12-Mn) :   0.1088 B(  1-Au,  2-Au) :   0.2056 B(  1-Au,  3-Au) :   0.1251
B(  1-Au,  4-Au) :   0.1727 B(  1-Au,  8-Au) :   0.1494 B(  1-Au, 12-Mn) :   0.5495
B(  2-Au,  3-Au) :   0.2173 B(  2-Au, 11-Au) :   0.1294 B(  2-Au, 12-Mn) :   0.4409
B(  3-Au,  8-Au) :   0.1789 B(  3-Au,  9-Au) :   0.2399 B(  3-Au, 11-Au) :   0.1300
B(  3-Au, 12-Mn) :   0.4962 B(  4-Au,  6-Au) :   0.1717 B(  4-Au,  7-Au) :   0.1873
B(  4-Au,  8-Au) :   0.1882 B(  4-Au, 12-Mn) :   0.4953 B(  5-Au,  6-Au) :   0.2071
B(  5-Au, 10-Au) :   0.2139 B(  5-Au, 11-Au) :   0.1244 B(  5-Au, 12-Mn) :   0.4446
B(  6-Au,  7-Au) :   0.1527 B(  6-Au, 10-Au) :   0.1215 B(  6-Au, 12-Mn) :   0.5500
B(  7-Au,  8-Au) :   0.1607 B(  7-Au,  9-Au) :   0.2141 B(  7-Au, 10-Au) :   0.1771
B(  7-Au, 12-Mn) :   0.4265 B(  8-Au,  9-Au) :   0.2175 B(  8-Au, 12-Mn) :   0.4248
B(  9-Au, 10-Au) :   0.2401 B(  9-Au, 11-Au) :   0.2792 B(  9-Au, 12-Mn) :   0.2544
B( 10-Au, 11-Au) :   0.1295 B( 10-Au, 12-Mn) :   0.4994 B( 11-Au, 12-Mn) :   0.5113

FINAL SINGLE POINT ENERGY     -2781.142791833402

DIPOLE MOMENT
-------------
                                X             Y             Z
Electronic contribution:     -8.85258      -9.18084       3.28471
Nuclear contribution   :      8.76809       9.04227      -3.30805
                        -----------------------------------------
Total Dipole Moment    :     -0.08449      -0.13857      -0.02335
                        -----------------------------------------
Magnitude (a.u.)       :      0.16397
Magnitude (Debye)      :      0.41677

Rotational constants in cm-1:     0.001580     0.001289     0.001105
Rotational constants in MHz :    47.367865    38.636460    33.113797

                             ****ORCA TERMINATED NORMALLY****
TOTAL RUN TIME: 0 days 0 hours 10 minutes 51 seconds 413 msec
