                         Program Version 5.0.3 -  RELEASE  -
|  1> !CASSCF def2-TZVP def2-TZVP/C
|  2> !MOREAD RIJCOSX
|  3> %maxcore 6000
|  4> %moinp "pbe.qro"
|  5> %pal nprocs 2 end
|  6>
|  7> %casscf
|  8>  mult 5,3
|  9>  bweight 1,1
| 10>  nroots 5,45
| 11>  nel 6
| 12>  norb 5
| 13> end
| 14>
| 15>
| 16> *xyzfile 0 5 pbe.xyz
| 17>
| 18>
| 19>                          ****END OF INPUT****

CARTESIAN COORDINATES (ANGSTROEM)
---------------------------------
  Au     6.150954    8.555086    3.699781
  Au     8.308475    6.823990    4.181247
  Au     7.679844    5.064980    6.214995
  Au     4.959129    5.614793    6.643313
  Au     4.658505   10.598754    4.690319
  Au     4.186232    8.086282    5.720622
  Au     8.360832    9.459042    5.146245
  Au     6.908534   11.518748    6.161064
  Au     5.160505    7.812519    8.384781
  Au     7.766653    6.748886    8.461985
  Au     7.455332    9.412028    7.856110
  Au     4.703644   10.369304    7.501397
  Fe     6.738845    7.522184    6.140912

 Total Charge           Charge          ....    0
 Multiplicity           Mult            ....    5
 Number of Electrons    NEL             ....  254
 Basis Dimension        Dim             ....  525

ORBITAL ENERGIES
----------------

  NO   OCC          E(Eh)            E(eV)
   0   2.0000    -261.395389     -7112.9302
   1   2.0000     -31.959085      -869.6509
   2   2.0000     -27.439067      -746.6550
   3   2.0000     -27.438989      -746.6529
   4   2.0000     -27.438712      -746.6453
   5   2.0000      -4.728106      -128.6583
   6   2.0000      -4.728002      -128.6555
   7   2.0000      -4.721950      -128.4908
   8   2.0000      -4.721554      -128.4800
   9   2.0000      -4.721277      -128.4725
  10   2.0000      -4.714258      -128.2815
  11   2.0000      -4.710535      -128.1802
  12   2.0000      -4.710489      -128.1789
  13   2.0000      -4.704088      -128.0047
  14   2.0000      -4.699680      -127.8848
  15   2.0000      -4.699525      -127.8806
  16   2.0000      -4.691396      -127.6594
  17   2.0000      -4.193080      -114.0995
  18   2.0000      -2.773385       -75.4677
  19   2.0000      -2.773347       -75.4666
  20   2.0000      -2.772543       -75.4447
  21   2.0000      -2.766278       -75.2743
  22   2.0000      -2.765800       -75.2612
  23   2.0000      -2.764823       -75.2347
  24   2.0000      -2.764616       -75.2290
  25   2.0000      -2.762928       -75.1831
  26   2.0000      -2.762630       -75.1750
  27   2.0000      -2.760669       -75.1216
  28   2.0000      -2.759446       -75.0883
  29   2.0000      -2.758343       -75.0583
  30   2.0000      -2.758256       -75.0560
  31   2.0000      -2.757836       -75.0445
  32   2.0000      -2.757429       -75.0335
  33   2.0000      -2.756536       -75.0092
  34   2.0000      -2.756314       -75.0031
  35   2.0000      -2.753269       -74.9203
  36   2.0000      -2.751468       -74.8713
  37   2.0000      -2.748506       -74.7906
  38   2.0000      -2.748419       -74.7883
  39   2.0000      -2.748328       -74.7858
  40   2.0000      -2.745997       -74.7224
  41   2.0000      -2.745559       -74.7105
  42   2.0000      -2.744906       -74.6927
  43   2.0000      -2.743149       -74.6449
  44   2.0000      -2.743075       -74.6429
  45   2.0000      -2.740782       -74.5805
  46   2.0000      -2.737163       -74.4820
  47   2.0000      -2.737071       -74.4795
  48   2.0000      -2.736637       -74.4677
  49   2.0000      -2.736403       -74.4613
  50   2.0000      -2.736217       -74.4562
  51   2.0000      -2.734976       -74.4225
  52   2.0000      -2.734762       -74.4166
  53   2.0000      -2.732028       -74.3423
  54   2.0000      -2.727459       -74.2179
  55   2.0000      -2.726116       -74.1814
  56   2.0000      -2.725896       -74.1754
  57   2.0000      -0.582267       -15.8443
  58   2.0000      -0.558415       -15.1952
  59   2.0000      -0.557611       -15.1734
  60   2.0000      -0.555120       -15.1056
  61   2.0000      -0.549929       -14.9643
  62   2.0000      -0.545249       -14.8370
  63   2.0000      -0.543328       -14.7847
  64   2.0000      -0.542628       -14.7657
  65   2.0000      -0.538576       -14.6554
  66   2.0000      -0.535458       -14.5705
  67   2.0000      -0.534211       -14.5366
  68   2.0000      -0.531695       -14.4682
  69   2.0000      -0.529548       -14.4097
  70   2.0000      -0.525450       -14.2982
  71   2.0000      -0.522523       -14.2186
  72   2.0000      -0.520642       -14.1674
  73   2.0000      -0.518682       -14.1141
  74   2.0000      -0.517192       -14.0735
  75   2.0000      -0.513986       -13.9863
  76   2.0000      -0.513910       -13.9842
  77   2.0000      -0.508505       -13.8371
  78   2.0000      -0.504913       -13.7394
  79   2.0000      -0.502604       -13.6766
  80   2.0000      -0.502039       -13.6612
  81   2.0000      -0.496592       -13.5130
  82   2.0000      -0.496417       -13.5082
  83   2.0000      -0.490091       -13.3361
  84   2.0000      -0.489512       -13.3203
  85   2.0000      -0.484743       -13.1905
  86   2.0000      -0.483355       -13.1528
  87   2.0000      -0.481408       -13.0998
  88   2.0000      -0.477027       -12.9806
  89   2.0000      -0.470280       -12.7970
  90   2.0000      -0.465547       -12.6682
  91   2.0000      -0.464758       -12.6467
  92   2.0000      -0.462977       -12.5982
  93   2.0000      -0.459476       -12.5030
  94   2.0000      -0.458988       -12.4897
  95   2.0000      -0.456325       -12.4172
  96   2.0000      -0.455522       -12.3954
  97   2.0000      -0.454347       -12.3634
  98   2.0000      -0.452320       -12.3083
  99   2.0000      -0.449915       -12.2428
 100   2.0000      -0.446604       -12.1527
 101   2.0000      -0.445295       -12.1171
 102   2.0000      -0.440821       -11.9954
 103   2.0000      -0.439842       -11.9687
 104   2.0000      -0.436686       -11.8828
 105   2.0000      -0.436035       -11.8651
 106   2.0000      -0.434906       -11.8344
 107   2.0000      -0.433493       -11.7960
 108   2.0000      -0.426768       -11.6130
 109   2.0000      -0.425686       -11.5835
 110   2.0000      -0.419265       -11.4088
 111   2.0000      -0.418210       -11.3801
 112   2.0000      -0.417059       -11.3487
 113   2.0000      -0.411040       -11.1850
 114   2.0000      -0.409675       -11.1478
 115   2.0000      -0.409577       -11.1451
 116   2.0000      -0.403860       -10.9896
 117   2.0000      -0.393696       -10.7130
 118   2.0000      -0.365257        -9.9391
 119   2.0000      -0.345649        -9.4056
 120   2.0000      -0.317721        -8.6456
 121   2.0000      -0.242248        -6.5919
 122   2.0000      -0.238261        -6.4834
 123   2.0000      -0.223862        -6.0916
 124   1.2000      -0.273070        -7.4306
 125   1.2000      -0.265167        -7.2156
 126   1.2000      -0.267280        -7.2730
 127   1.2000      -0.271875        -7.3981
 128   1.2000      -0.273450        -7.4410
 129   0.0000      -0.035767        -0.9733
 130   0.0000      -0.025508        -0.6941
 131   0.0000      -0.007255        -0.1974
 132   0.0000      -0.001385        -0.0377
 133   0.0000       0.009049         0.2462

MULLIKEN ATOMIC CHARGES AND SPIN DENSITIES
------------------------------------------
   0 Au:    0.100311    0.007028
   1 Au:    0.212764    0.009810
   2 Au:    0.181983    0.008735
   3 Au:    0.289513    0.008564
   4 Au:    0.158940    0.004298
   5 Au:    0.005872    0.008332
   6 Au:    0.090044    0.007064
   7 Au:    0.166875    0.004257
   8 Au:    0.142533    0.006161
   9 Au:    0.290856    0.008637
  10 Au:    0.002099    0.008263
  11 Au:   -0.100051    0.004881
  12 Fe:   -1.541739    2.913970
Sum of atomic charges       :    0.0000000

LOEWDIN ATOMIC CHARGES AND SPIN DENSITIES
-----------------------------------------
   0 Au:    0.022473    0.009955
   1 Au:    0.070984    0.012224
   2 Au:    0.001077    0.011898
   3 Au:    0.075799    0.011043
   4 Au:    0.010216    0.004654
   5 Au:   -0.032975    0.011462
   6 Au:    0.019676    0.009978
   7 Au:    0.013150    0.004628
   8 Au:   -0.013406    0.008352
   9 Au:    0.075884    0.011122
  10 Au:   -0.033846    0.011386
  11 Au:   -0.047592    0.004870
  12 Fe:   -0.161439    2.888427

  Mayer bond orders larger than 0.100000
B(  0-Au,  1-Au) :   0.1742 B(  0-Au,  4-Au) :   0.4050 B(  0-Au,  5-Au) :   0.2674
B(  0-Au,  6-Au) :   0.1193 B(  0-Au, 12-Fe) :   0.3964 B(  1-Au,  2-Au) :   0.1778
B(  1-Au,  6-Au) :   0.1766 B(  1-Au, 12-Fe) :   0.4887 B(  2-Au,  3-Au) :   0.1620
B(  2-Au,  9-Au) :   0.1630 B(  2-Au, 12-Fe) :   0.4801 B(  3-Au,  5-Au) :   0.3536
B(  3-Au,  8-Au) :   0.1298 B(  3-Au, 12-Fe) :   0.4304 B(  4-Au,  5-Au) :   0.3620
B(  4-Au,  7-Au) :   0.1407 B(  4-Au, 11-Au) :   0.1988 B(  5-Au,  8-Au) :   0.1945
B(  5-Au, 11-Au) :   0.1815 B(  5-Au, 12-Fe) :   0.3926 B(  6-Au,  7-Au) :   0.4084
B(  6-Au, 10-Au) :   0.2680 B(  6-Au, 12-Fe) :   0.3976 B(  7-Au, 10-Au) :   0.3596
B(  7-Au, 11-Au) :   0.1966 B(  8-Au,  9-Au) :   0.1269 B(  8-Au, 10-Au) :   0.1959
B(  8-Au, 11-Au) :   0.3773 B(  8-Au, 12-Fe) :   0.4320 B(  9-Au, 10-Au) :   0.3544
B(  9-Au, 12-Fe) :   0.4317 B( 10-Au, 11-Au) :   0.1845 B( 10-Au, 12-Fe) :   0.3914
B( 11-Au, 12-Fe) :   0.1590

FINAL SINGLE POINT ENERGY     -2880.104621232268

DIPOLE MOMENT
-------------
                                X             Y             Z
Electronic contribution:    -14.22588      30.68116       2.92232
Nuclear contribution   :     14.48390     -31.07082      -3.07883
                        -----------------------------------------
Total Dipole Moment    :      0.25801      -0.38965      -0.15651
                        -----------------------------------------
Magnitude (a.u.)       :      0.49284
Magnitude (Debye)      :      1.25270

Rotational constants in cm-1:     0.001622     0.001213     0.001098
Rotational constants in MHz :    48.629548    36.379718    32.918020

                             ****ORCA TERMINATED NORMALLY****
TOTAL RUN TIME: 0 days 2 hours 3 minutes 46 seconds 82 msec
