                         Program Version 5.0.3 -  RELEASE  -
|  1> !CASSCF def2-TZVP def2-TZVP/C
|  2> !MOREAD RIJCOSX
|  3> %maxcore 6000
|  4> %moinp "pbe.qro"
|  5> %pal nprocs 2 end
|  6>
|  7> %casscf
|  8>  mult 5,3
|  9>  bweight 1,1
| 10>  nroots 5,45
| 11>  nel 6
| 12>  norb 5
| 13> end
| 14>
| 15>
| 16> *xyzfile 0 5 pbe.xyz
| 17>
| 18>
| 19>                          ****END OF INPUT****

CARTESIAN COORDINATES (ANGSTROEM)
---------------------------------
  Au     7.500467    7.738083   10.616082
  Au     9.539873    7.102918    6.561666
  Au     7.879933   10.671775    6.691311
  Au     9.628631    6.459501    9.321893
  Au     6.100330    9.363832    8.368847
  Au     8.942662    9.123329    8.591312
  Au     5.668291    4.910237    7.696518
  Au     5.096539    6.900765    9.654969
  Au     8.375666    4.693892    7.538556
  Au     8.458255    8.658393    4.679480
  Au     7.251707   11.036771    4.051161
  Au     4.602432    7.393280    6.933792
  Au     5.712916    9.240961    5.398013
  Au     6.933525    6.503177    5.534375
  Fe     7.268350    7.037612    8.076266

 Total Charge           Charge          ....    0
 Multiplicity           Mult            ....    5
 Number of Electrons    NEL             ....  292
 Basis Dimension        Dim             ....  605

ORBITAL ENERGIES
----------------

  NO   OCC          E(Eh)            E(eV)
   0   2.0000    -261.281239     -7109.8240
   1   2.0000     -31.829176      -866.1159
   2   2.0000     -27.317853      -743.3566
   3   2.0000     -27.306822      -743.0564
   4   2.0000     -27.306351      -743.0436
   5   2.0000      -4.720095      -128.4403
   6   2.0000      -4.718842      -128.4062
   7   2.0000      -4.718347      -128.3928
   8   2.0000      -4.716616      -128.3456
   9   2.0000      -4.715204      -128.3072
  10   2.0000      -4.713615      -128.2640
  11   2.0000      -4.713243      -128.2539
  12   2.0000      -4.713007      -128.2475
  13   2.0000      -4.712402      -128.2310
  14   2.0000      -4.712206      -128.2256
  15   2.0000      -4.701522      -127.9349
  16   2.0000      -4.699216      -127.8722
  17   2.0000      -4.697270      -127.8192
  18   2.0000      -4.696774      -127.8057
  19   2.0000      -4.060933      -110.5036
  20   2.0000      -2.759472       -75.0890
  21   2.0000      -2.758404       -75.0600
  22   2.0000      -2.758026       -75.0497
  23   2.0000      -2.757224       -75.0279
  24   2.0000      -2.757043       -75.0230
  25   2.0000      -2.756186       -74.9996
  26   2.0000      -2.756143       -74.9985
  27   2.0000      -2.755558       -74.9826
  28   2.0000      -2.754957       -74.9662
  29   2.0000      -2.754451       -74.9524
  30   2.0000      -2.753748       -74.9333
  31   2.0000      -2.753469       -74.9257
  32   2.0000      -2.752988       -74.9126
  33   2.0000      -2.752606       -74.9022
  34   2.0000      -2.751864       -74.8820
  35   2.0000      -2.751246       -74.8652
  36   2.0000      -2.750678       -74.8498
  37   2.0000      -2.749976       -74.8306
  38   2.0000      -2.749601       -74.8204
  39   2.0000      -2.748943       -74.8025
  40   2.0000      -2.748326       -74.7858
  41   2.0000      -2.748163       -74.7813
  42   2.0000      -2.747657       -74.7675
  43   2.0000      -2.747282       -74.7573
  44   2.0000      -2.746903       -74.7470
  45   2.0000      -2.745955       -74.7212
  46   2.0000      -2.745623       -74.7122
  47   2.0000      -2.745059       -74.6969
  48   2.0000      -2.744737       -74.6881
  49   2.0000      -2.744363       -74.6779
  50   2.0000      -2.742867       -74.6372
  51   2.0000      -2.738101       -74.5075
  52   2.0000      -2.737578       -74.4933
  53   2.0000      -2.734552       -74.4109
  54   2.0000      -2.733699       -74.3877
  55   2.0000      -2.733282       -74.3764
  56   2.0000      -2.732534       -74.3560
  57   2.0000      -2.732159       -74.3458
  58   2.0000      -2.732005       -74.3416
  59   2.0000      -2.731117       -74.3175
  60   2.0000      -2.730595       -74.3033
  61   2.0000      -2.729123       -74.2632
  62   2.0000      -2.649793       -72.1045
  63   2.0000      -2.643707       -71.9389
  64   2.0000      -2.642636       -71.9098
  65   2.0000      -0.568077       -15.4582
  66   2.0000      -0.560600       -15.2547
  67   2.0000      -0.557095       -15.1593
  68   2.0000      -0.550919       -14.9913
  69   2.0000      -0.548017       -14.9123
  70   2.0000      -0.545985       -14.8570
  71   2.0000      -0.543627       -14.7928
  72   2.0000      -0.542147       -14.7526
  73   2.0000      -0.541856       -14.7447
  74   2.0000      -0.540388       -14.7047
  75   2.0000      -0.538279       -14.6473
  76   2.0000      -0.536871       -14.6090
  77   2.0000      -0.534517       -14.5450
  78   2.0000      -0.533625       -14.5207
  79   2.0000      -0.530500       -14.4356
  80   2.0000      -0.529775       -14.4159
  81   2.0000      -0.528824       -14.3900
  82   2.0000      -0.525253       -14.2929
  83   2.0000      -0.519328       -14.1316
  84   2.0000      -0.517719       -14.0878
  85   2.0000      -0.516874       -14.0649
  86   2.0000      -0.513621       -13.9763
  87   2.0000      -0.512622       -13.9492
  88   2.0000      -0.506984       -13.7957
  89   2.0000      -0.504724       -13.7342
  90   2.0000      -0.504312       -13.7230
  91   2.0000      -0.502189       -13.6653
  92   2.0000      -0.498818       -13.5735
  93   2.0000      -0.497063       -13.5258
  94   2.0000      -0.493839       -13.4380
  95   2.0000      -0.487092       -13.2545
  96   2.0000      -0.486861       -13.2482
  97   2.0000      -0.486505       -13.2385
  98   2.0000      -0.482631       -13.1330
  99   2.0000      -0.480570       -13.0770
 100   2.0000      -0.479613       -13.0509
 101   2.0000      -0.476894       -12.9770
 102   2.0000      -0.473953       -12.8969
 103   2.0000      -0.465237       -12.6598
 104   2.0000      -0.462917       -12.5966
 105   2.0000      -0.462107       -12.5746
 106   2.0000      -0.459385       -12.5005
 107   2.0000      -0.458125       -12.4662
 108   2.0000      -0.457000       -12.4356
 109   2.0000      -0.454427       -12.3656
 110   2.0000      -0.451058       -12.2739
 111   2.0000      -0.449253       -12.2248
 112   2.0000      -0.448413       -12.2019
 113   2.0000      -0.448159       -12.1950
 114   2.0000      -0.446536       -12.1509
 115   2.0000      -0.444692       -12.1007
 116   2.0000      -0.444152       -12.0860
 117   2.0000      -0.442655       -12.0452
 118   2.0000      -0.442355       -12.0371
 119   2.0000      -0.436713       -11.8836
 120   2.0000      -0.434295       -11.8178
 121   2.0000      -0.433657       -11.8004
 122   2.0000      -0.433053       -11.7840
 123   2.0000      -0.431025       -11.7288
 124   2.0000      -0.428726       -11.6662
 125   2.0000      -0.421745       -11.4763
 126   2.0000      -0.421507       -11.4698
 127   2.0000      -0.418937       -11.3999
 128   2.0000      -0.417860       -11.3705
 129   2.0000      -0.413565       -11.2537
 130   2.0000      -0.412440       -11.2231
 131   2.0000      -0.409247       -11.1362
 132   2.0000      -0.405509       -11.0345
 133   2.0000      -0.403566       -10.9816
 134   2.0000      -0.391653       -10.6574
 135   2.0000      -0.384265       -10.4564
 136   2.0000      -0.378020       -10.2864
 137   2.0000      -0.374742       -10.1973
 138   2.0000      -0.343127        -9.3370
 139   2.0000      -0.332841        -9.0571
 140   2.0000      -0.260054        -7.0764
 141   2.0000      -0.239708        -6.5228
 142   2.0000      -0.234509        -6.3813
 143   1.2000      -0.182178        -4.9573
 144   1.2000      -0.107343        -2.9210
 145   1.2000      -0.167555        -4.5594
 146   1.2000      -0.154085        -4.1929
 147   1.2000      -0.157729        -4.2920
 148   0.0000      -0.055684        -1.5152
 149   0.0000      -0.007998        -0.2176
 150   0.0000      -0.005333        -0.1451
 151   0.0000       0.010634         0.2894
 152   0.0000       0.013537         0.3684

MULLIKEN ATOMIC CHARGES AND SPIN DENSITIES
------------------------------------------
   0 Au:    0.285246    0.080385
   1 Au:    0.074756    0.051167
   2 Au:   -0.069189    0.011941
   3 Au:    0.235242    0.041671
   4 Au:    0.145158    0.035167
   5 Au:    0.117808    0.037452
   6 Au:    0.325362    0.053513
   7 Au:    0.305998    0.063144
   8 Au:    0.312218    0.061650
   9 Au:   -0.049130    0.011043
  10 Au:    0.536902    0.004034
  11 Au:    0.143249    0.074044
  12 Au:   -0.495378    0.014828
  13 Au:    0.113782    0.049263
  14 Fe:   -1.982023    2.410698
Sum of atomic charges       :    0.0000000

LOEWDIN ATOMIC CHARGES AND SPIN DENSITIES
-----------------------------------------
   0 Au:    0.106061    0.052623
   1 Au:    0.010424    0.060949
   2 Au:   -0.081393    0.020402
   3 Au:    0.099817    0.052056
   4 Au:    0.038438    0.033808
   5 Au:    0.018873    0.056787
   6 Au:    0.080733    0.078853
   7 Au:    0.074543    0.084780
   8 Au:    0.111781    0.045101
   9 Au:   -0.081769    0.022504
  10 Au:    0.183926    0.007458
  11 Au:    0.021779    0.071644
  12 Au:   -0.121415    0.009928
  13 Au:    0.030769    0.038630
  14 Fe:   -0.492566    2.364475

  Mayer bond orders larger than 0.100000
B(  0-Au,  4-Au) :   0.1127 B(  0-Au,  7-Au) :   0.2608 B(  0-Au, 14-Fe) :   0.3807
B(  1-Au,  3-Au) :   0.2109 B(  1-Au,  5-Au) :   0.1745 B(  1-Au,  9-Au) :   0.4322
B(  1-Au, 13-Au) :   0.2376 B(  1-Au, 14-Fe) :   0.3100 B(  2-Au,  4-Au) :   0.3064
B(  2-Au,  5-Au) :   0.4320 B(  2-Au,  9-Au) :   0.2225 B(  2-Au, 10-Au) :   0.2518
B(  2-Au, 12-Au) :   0.3054 B(  3-Au,  5-Au) :   0.1900 B(  3-Au,  8-Au) :   0.1012
B(  3-Au, 14-Fe) :   0.3292 B(  4-Au,  5-Au) :   0.2548 B(  4-Au, 11-Au) :   0.1018
B(  4-Au, 12-Au) :   0.1693 B(  4-Au, 14-Fe) :   0.3056 B(  5-Au, 14-Fe) :   0.3034
B(  6-Au,  7-Au) :   0.1671 B(  6-Au,  8-Au) :   0.2829 B(  6-Au, 11-Au) :   0.1493
B(  6-Au, 14-Fe) :   0.3434 B(  7-Au, 11-Au) :   0.1676 B(  7-Au, 14-Fe) :   0.3458
B(  8-Au, 13-Au) :   0.1266 B(  8-Au, 14-Fe) :   0.3684 B(  9-Au, 10-Au) :   0.2472
B(  9-Au, 12-Au) :   0.3018 B(  9-Au, 13-Au) :   0.3036 B( 10-Au, 12-Au) :   0.3670
B( 11-Au, 12-Au) :   0.5341 B( 11-Au, 14-Fe) :   0.2693 B( 12-Au, 13-Au) :   0.1780
B( 12-Au, 14-Fe) :   0.1416 B( 13-Au, 14-Fe) :   0.3169

FINAL SINGLE POINT ENERGY     -3149.603787708581

DIPOLE MOMENT
-------------
                                X             Y             Z
Electronic contribution:     -0.07855      30.43155     -30.82252
Nuclear contribution   :      0.17908     -30.73485      31.16957
                        -----------------------------------------
Total Dipole Moment    :      0.10053      -0.30331       0.34704
                        -----------------------------------------
Magnitude (a.u.)       :      0.47174
Magnitude (Debye)      :      1.19907

Rotational constants in cm-1:     0.001301     0.000876     0.000839
Rotational constants in MHz :    38.988883    26.263511    25.162308

                             ****ORCA TERMINATED NORMALLY****
TOTAL RUN TIME: 0 days 2 hours 34 minutes 25 seconds 484 msec
