                         Program Version 5.0.3 -  RELEASE  -
|  1> !RI-B2PLYP def2-TZVP def2-TZVP/C
|  2> !RIJCOSX VERYSLOWCONV
|  3>
|  4> %scf
|  5>   AutoTRAHIter 200
|  6>   maxiter 400
|  7> end
|  8>
|  9>
| 10> %pal nprocs 6 end
| 11>
| 12> *xyzfile 0 5 pbe.xyz
| 13>
| 14> $new_job
| 15>
| 16> !RI-B2PLYP def2-TZVP def2-TZVP/C
| 17> !RIJCOSX VERYSLOWCONV
| 18>
| 19> %scf
| 20>   AutoTRAHIter 200
| 21>   maxiter 400
| 22> end
| 23>
| 24>
| 25> %pal nprocs 6 end
| 26>
| 27> *xyzfile 0 3 pbe.xyz
| 28>
| 29>
| 30>
| 31>
| 32>
| 33>                          ****END OF INPUT****
 Total Charge           Charge          ....    0
 Multiplicity           Mult            ....    5
 Number of Electrons    NEL             ....  328
MP2 TOTAL ENERGY:    -3213.732122356 Eh
FINAL SINGLE POINT ENERGY     -3213.732122355560

CARTESIAN COORDINATES (ANGSTROEM)
---------------------------------
  Au    11.524664    8.550357    8.129408
  Au     9.709825    7.340841    6.417815
  Au     9.905197   10.206893    6.606987
  Au     7.879516    9.166561    5.115028
  Au     7.094331    6.493481    5.754796
  Au     5.748141    7.970629    3.856802
  Au     7.203304   10.694558    7.477272
  Au     9.373423   11.427380    9.039072
  Au     7.330752    7.102025   10.345328
  Au     7.756401    9.859103   10.753732
  Au     8.235617    5.629679    8.083020
  Au    10.506433    9.393181   10.603968
  Au    10.070924    6.762779    9.775041
  Au     5.588229    6.505262    8.113424
  Au     5.392402    8.766993    6.471790
  Au     5.654142    9.082670    9.174227
  Cr     8.627925    8.652401    8.511178

 Multiplicity           Mult            ....    3
 Number of Electrons    NEL             ....  328
 Basis Dimension        Dim             ....  685

ORBITAL ENERGIES
----------------
                 SPIN UP ORBITALS
  NO   OCC          E(Eh)            E(eV)
   0   1.0000    -217.767000     -5925.7413
   1   1.0000     -25.451991      -692.5839
   2   1.0000     -21.591525      -587.5353
   3   1.0000     -21.591517      -587.5351
   4   1.0000     -21.585579      -587.3735
   5   1.0000      -4.406835      -119.9161
   6   1.0000      -4.406795      -119.9150
   7   1.0000      -4.406673      -119.9117
   8   1.0000      -4.401636      -119.7746
   9   1.0000      -4.401400      -119.7682
  10   1.0000      -4.401357      -119.7670
  11   1.0000      -4.399295      -119.7109
  12   1.0000      -4.399269      -119.7102
  13   1.0000      -4.396110      -119.6242
  14   1.0000      -4.396025      -119.6219
  15   1.0000      -4.394298      -119.5749
  16   1.0000      -4.393096      -119.5422
  17   1.0000      -4.393060      -119.5412
  18   1.0000      -4.390607      -119.4745
  19   1.0000      -4.388064      -119.4053
  20   1.0000      -4.383008      -119.2677
  21   1.0000      -3.241500       -88.2057
  22   1.0000      -2.527350       -68.7727
  23   1.0000      -2.526763       -68.7567
  24   1.0000      -2.525459       -68.7212
  25   1.0000      -2.524946       -68.7073
  26   1.0000      -2.524852       -68.7047
  27   1.0000      -2.524438       -68.6935
  28   1.0000      -2.523104       -68.6572
  29   1.0000      -2.522966       -68.6534
  30   1.0000      -2.522679       -68.6456
  31   1.0000      -2.521499       -68.6135
  32   1.0000      -2.521177       -68.6047
  33   1.0000      -2.520866       -68.5963
  34   1.0000      -2.520593       -68.5888
  35   1.0000      -2.520500       -68.5863
  36   1.0000      -2.519179       -68.5503
  37   1.0000      -2.518769       -68.5392
  38   1.0000      -2.517847       -68.5141
  39   1.0000      -2.517756       -68.5116
  40   1.0000      -2.515750       -68.4570
  41   1.0000      -2.515673       -68.4549
  42   1.0000      -2.515054       -68.4381
  43   1.0000      -2.514970       -68.4358
  44   1.0000      -2.514631       -68.4266
  45   1.0000      -2.514356       -68.4191
  46   1.0000      -2.514173       -68.4141
  47   1.0000      -2.514013       -68.4098
  48   1.0000      -2.513358       -68.3919
  49   1.0000      -2.512949       -68.3808
  50   1.0000      -2.512523       -68.3692
  51   1.0000      -2.512072       -68.3570
  52   1.0000      -2.511555       -68.3429
  53   1.0000      -2.511511       -68.3417
  54   1.0000      -2.510952       -68.3265
  55   1.0000      -2.510897       -68.3250
  56   1.0000      -2.510859       -68.3240
  57   1.0000      -2.509503       -68.2870
  58   1.0000      -2.509351       -68.2829
  59   1.0000      -2.508624       -68.2631
  60   1.0000      -2.508431       -68.2579
  61   1.0000      -2.507912       -68.2438
  62   1.0000      -2.506899       -68.2162
  63   1.0000      -2.505742       -68.1847
  64   1.0000      -2.505252       -68.1714
  65   1.0000      -2.505102       -68.1673
  66   1.0000      -2.504145       -68.1413
  67   1.0000      -2.502467       -68.0956
  68   1.0000      -2.498563       -67.9894
  69   1.0000      -2.498210       -67.9798
  70   1.0000      -2.133912       -58.0667
  71   1.0000      -2.123072       -57.7717
  72   1.0000      -2.123052       -57.7712
  73   1.0000      -0.499769       -13.5994
  74   1.0000      -0.484618       -13.1871
  75   1.0000      -0.480244       -13.0681
  76   1.0000      -0.480224       -13.0676
  77   1.0000      -0.472850       -12.8669
  78   1.0000      -0.469569       -12.7776
  79   1.0000      -0.465814       -12.6754
  80   1.0000      -0.465095       -12.6559
  81   1.0000      -0.463009       -12.5991
  82   1.0000      -0.461791       -12.5660
  83   1.0000      -0.461158       -12.5487
  84   1.0000      -0.459690       -12.5088
  85   1.0000      -0.458518       -12.4769
  86   1.0000      -0.455698       -12.4002
  87   1.0000      -0.454401       -12.3649
  88   1.0000      -0.454197       -12.3593
  89   1.0000      -0.451902       -12.2969
  90   1.0000      -0.450091       -12.2476
  91   1.0000      -0.448476       -12.2037
  92   1.0000      -0.448465       -12.2034
  93   1.0000      -0.445911       -12.1339
  94   1.0000      -0.444949       -12.1077
  95   1.0000      -0.443143       -12.0585
  96   1.0000      -0.438829       -11.9412
  97   1.0000      -0.436705       -11.8833
  98   1.0000      -0.433110       -11.7855
  99   1.0000      -0.432800       -11.7771
 100   1.0000      -0.430623       -11.7178
 101   1.0000      -0.426501       -11.6057
 102   1.0000      -0.425390       -11.5755
 103   1.0000      -0.422150       -11.4873
 104   1.0000      -0.420950       -11.4546
 105   1.0000      -0.418724       -11.3941
 106   1.0000      -0.416830       -11.3425
 107   1.0000      -0.415591       -11.3088
 108   1.0000      -0.410215       -11.1625
 109   1.0000      -0.409455       -11.1418
 110   1.0000      -0.409131       -11.1330
 111   1.0000      -0.407721       -11.0947
 112   1.0000      -0.405481       -11.0337
 113   1.0000      -0.396523       -10.7899
 114   1.0000      -0.395910       -10.7733
 115   1.0000      -0.391844       -10.6626
 116   1.0000      -0.389621       -10.6021
 117   1.0000      -0.388285       -10.5658
 118   1.0000      -0.385462       -10.4889
 119   1.0000      -0.384061       -10.4508
 120   1.0000      -0.382373       -10.4049
 121   1.0000      -0.379188       -10.3182
 122   1.0000      -0.377282       -10.2664
 123   1.0000      -0.375940       -10.2299
 124   1.0000      -0.373468       -10.1626
 125   1.0000      -0.372365       -10.1326
 126   1.0000      -0.370245       -10.0749
 127   1.0000      -0.370003       -10.0683
 128   1.0000      -0.367401        -9.9975
 129   1.0000      -0.366868        -9.9830
 130   1.0000      -0.364830        -9.9275
 131   1.0000      -0.363880        -9.9017
 132   1.0000      -0.362827        -9.8730
 133   1.0000      -0.359474        -9.7818
 134   1.0000      -0.359278        -9.7764
 135   1.0000      -0.357414        -9.7257
 136   1.0000      -0.355909        -9.6848
 137   1.0000      -0.354475        -9.6458
 138   1.0000      -0.353020        -9.6062
 139   1.0000      -0.352999        -9.6056
 140   1.0000      -0.352414        -9.5897
 141   1.0000      -0.351381        -9.5616
 142   1.0000      -0.350007        -9.5242
 143   1.0000      -0.348450        -9.4818
 144   1.0000      -0.347326        -9.4512
 145   1.0000      -0.345201        -9.3934
 146   1.0000      -0.343566        -9.3489
 147   1.0000      -0.342841        -9.3292
 148   1.0000      -0.340281        -9.2595
 149   1.0000      -0.338247        -9.2042
 150   1.0000      -0.337671        -9.1885
 151   1.0000      -0.336304        -9.1513
 152   1.0000      -0.334739        -9.1087
 153   1.0000      -0.332849        -9.0573
 154   1.0000      -0.331906        -9.0316
 155   1.0000      -0.327971        -8.9245
 156   1.0000      -0.321092        -8.7374
 157   1.0000      -0.320142        -8.7115
 158   1.0000      -0.310984        -8.4623
 159   1.0000      -0.308686        -8.3998
 160   1.0000      -0.306181        -8.3316
 161   1.0000      -0.262236        -7.1358
 162   1.0000      -0.241277        -6.5655
 163   1.0000      -0.232494        -6.3265
 164   1.0000      -0.228107        -6.2071
 165   0.0000      -0.129687        -3.5290
 166   0.0000      -0.103124        -2.8061
 167   0.0000      -0.084885        -2.3098
 168   0.0000      -0.072050        -1.9606
 169   0.0000      -0.066874        -1.8197

                 SPIN DOWN ORBITALS
  NO   OCC          E(Eh)            E(eV)
   0   1.0000    -217.765701     -5925.7060
   1   1.0000     -25.381339      -690.6613
   2   1.0000     -21.531637      -585.9056
   3   1.0000     -21.531444      -585.9004
   4   1.0000     -21.509776      -585.3108
   5   1.0000      -4.407353      -119.9302
   6   1.0000      -4.406749      -119.9137
   7   1.0000      -4.406733      -119.9133
   8   1.0000      -4.401808      -119.7793
   9   1.0000      -4.401683      -119.7759
  10   1.0000      -4.401604      -119.7737
  11   1.0000      -4.399294      -119.7109
  12   1.0000      -4.399271      -119.7103
  13   1.0000      -4.397101      -119.6512
  14   1.0000      -4.397010      -119.6487
  15   1.0000      -4.395835      -119.6168
  16   1.0000      -4.393471      -119.5524
  17   1.0000      -4.393440      -119.5516
  18   1.0000      -4.391222      -119.4912
  19   1.0000      -4.389157      -119.4350
  20   1.0000      -4.384593      -119.3109
  21   1.0000      -3.025611       -82.3311
  22   1.0000      -2.527021       -68.7637
  23   1.0000      -2.526489       -68.7493
  24   1.0000      -2.525674       -68.7271
  25   1.0000      -2.524535       -68.6961
  26   1.0000      -2.524434       -68.6933
  27   1.0000      -2.523941       -68.6799
  28   1.0000      -2.522940       -68.6527
  29   1.0000      -2.522590       -68.6432
  30   1.0000      -2.522503       -68.6408
  31   1.0000      -2.521349       -68.6094
  32   1.0000      -2.521169       -68.6045
  33   1.0000      -2.520771       -68.5937
  34   1.0000      -2.520513       -68.5866
  35   1.0000      -2.519826       -68.5680
  36   1.0000      -2.519391       -68.5561
  37   1.0000      -2.519232       -68.5518
  38   1.0000      -2.518384       -68.5287
  39   1.0000      -2.518320       -68.5270
  40   1.0000      -2.516601       -68.4802
  41   1.0000      -2.515772       -68.4576
  42   1.0000      -2.515740       -68.4568
  43   1.0000      -2.515207       -68.4423
  44   1.0000      -2.515074       -68.4386
  45   1.0000      -2.514658       -68.4273
  46   1.0000      -2.514338       -68.4186
  47   1.0000      -2.514269       -68.4167
  48   1.0000      -2.514021       -68.4100
  49   1.0000      -2.513949       -68.4080
  50   1.0000      -2.513649       -68.3999
  51   1.0000      -2.512782       -68.3763
  52   1.0000      -2.511402       -68.3387
  53   1.0000      -2.511226       -68.3339
  54   1.0000      -2.511208       -68.3334
  55   1.0000      -2.510969       -68.3269
  56   1.0000      -2.510830       -68.3232
  57   1.0000      -2.510198       -68.3060
  58   1.0000      -2.510167       -68.3051
  59   1.0000      -2.509098       -68.2760
  60   1.0000      -2.509053       -68.2748
  61   1.0000      -2.507455       -68.2313
  62   1.0000      -2.507085       -68.2213
  63   1.0000      -2.506479       -68.2048
  64   1.0000      -2.506368       -68.2017
  65   1.0000      -2.505692       -68.1834
  66   1.0000      -2.505152       -68.1686
  67   1.0000      -2.503868       -68.1337
  68   1.0000      -2.499485       -68.0144
  69   1.0000      -2.499050       -68.0026
  70   1.0000      -1.895450       -51.5778
  71   1.0000      -1.894919       -51.5634
  72   1.0000      -1.845014       -50.2054
  73   1.0000      -0.497219       -13.5300
  74   1.0000      -0.482621       -13.1328
  75   1.0000      -0.473177       -12.8758
  76   1.0000      -0.468890       -12.7592
  77   1.0000      -0.467746       -12.7280
  78   1.0000      -0.466904       -12.7051
  79   1.0000      -0.464913       -12.6509
  80   1.0000      -0.464593       -12.6422
  81   1.0000      -0.461279       -12.5520
  82   1.0000      -0.459283       -12.4977
  83   1.0000      -0.458903       -12.4874
  84   1.0000      -0.457420       -12.4470
  85   1.0000      -0.456914       -12.4333
  86   1.0000      -0.455715       -12.4006
  87   1.0000      -0.453584       -12.3427
  88   1.0000      -0.452579       -12.3153
  89   1.0000      -0.451861       -12.2958
  90   1.0000      -0.451303       -12.2806
  91   1.0000      -0.449082       -12.2201
  92   1.0000      -0.448834       -12.2134
  93   1.0000      -0.446226       -12.1424
  94   1.0000      -0.445529       -12.1235
  95   1.0000      -0.443762       -12.0754
  96   1.0000      -0.440884       -11.9971
  97   1.0000      -0.437803       -11.9132
  98   1.0000      -0.434669       -11.8279
  99   1.0000      -0.431704       -11.7473
 100   1.0000      -0.431446       -11.7403
 101   1.0000      -0.427865       -11.6428
 102   1.0000      -0.426442       -11.6041
 103   1.0000      -0.422634       -11.5004
 104   1.0000      -0.422337       -11.4924
 105   1.0000      -0.418841       -11.3973
 106   1.0000      -0.415638       -11.3101
 107   1.0000      -0.412710       -11.2304
 108   1.0000      -0.410910       -11.1814
 109   1.0000      -0.409911       -11.1543
 110   1.0000      -0.408152       -11.1064
 111   1.0000      -0.403328       -10.9751
 112   1.0000      -0.398507       -10.8439
 113   1.0000      -0.392152       -10.6710
 114   1.0000      -0.390023       -10.6131
 115   1.0000      -0.389601       -10.6016
 116   1.0000      -0.387599       -10.5471
 117   1.0000      -0.386913       -10.5284
 118   1.0000      -0.384775       -10.4703
 119   1.0000      -0.382516       -10.4088
 120   1.0000      -0.380300       -10.3485
 121   1.0000      -0.377104       -10.2615
 122   1.0000      -0.376095       -10.2341
 123   1.0000      -0.374885       -10.2011
 124   1.0000      -0.372685       -10.1413
 125   1.0000      -0.370726       -10.0880
 126   1.0000      -0.368949       -10.0396
 127   1.0000      -0.368702       -10.0329
 128   1.0000      -0.368123       -10.0171
 129   1.0000      -0.365780        -9.9534
 130   1.0000      -0.365548        -9.9471
 131   1.0000      -0.364519        -9.9191
 132   1.0000      -0.362328        -9.8594
 133   1.0000      -0.359829        -9.7915
 134   1.0000      -0.358816        -9.7639
 135   1.0000      -0.357401        -9.7254
 136   1.0000      -0.356435        -9.6991
 137   1.0000      -0.355099        -9.6627
 138   1.0000      -0.353584        -9.6215
 139   1.0000      -0.351414        -9.5625
 140   1.0000      -0.350881        -9.5479
 141   1.0000      -0.349783        -9.5181
 142   1.0000      -0.346883        -9.4392
 143   1.0000      -0.346257        -9.4221
 144   1.0000      -0.345270        -9.3953
 145   1.0000      -0.344343        -9.3701
 146   1.0000      -0.340150        -9.2560
 147   1.0000      -0.338096        -9.2001
 148   1.0000      -0.338044        -9.1987
 149   1.0000      -0.335686        -9.1345
 150   1.0000      -0.334372        -9.0987
 151   1.0000      -0.332514        -9.0482
 152   1.0000      -0.326836        -8.8937
 153   1.0000      -0.323237        -8.7957
 154   1.0000      -0.318891        -8.6775
 155   1.0000      -0.316599        -8.6151
 156   1.0000      -0.311561        -8.4780
 157   1.0000      -0.281171        -7.6511
 158   1.0000      -0.247146        -6.7252
 159   1.0000      -0.238410        -6.4875
 160   1.0000      -0.233625        -6.3573
 161   1.0000      -0.224044        -6.0966
 162   1.0000      -0.191892        -5.2216
 163   0.0000      -0.084005        -2.2859
 164   0.0000      -0.073842        -2.0093
 165   0.0000      -0.066641        -1.8134
 166   0.0000      -0.064181        -1.7465
 167   0.0000      -0.059440        -1.6175

MULLIKEN ATOMIC CHARGES AND SPIN POPULATIONS
--------------------------------------------
   0 Au:    0.448094   -0.038720
   1 Au:    0.322660   -0.092932
   2 Au:    0.541953   -0.131442
   3 Au:   -0.172602   -0.050971
   4 Au:    0.006562    0.051160
   5 Au:    0.471115   -0.372762
   6 Au:    0.321701   -0.092818
   7 Au:    0.447521   -0.038370
   8 Au:    0.449451   -0.101502
   9 Au:    0.435627   -0.003067
  10 Au:    0.362354   -0.026856
  11 Au:    0.348293   -0.190808
  12 Au:    0.435775   -0.003473
  13 Au:    0.165316   -0.099802
  14 Au:    0.010591    0.050545
  15 Au:    0.359938   -0.026418
  16 Cr:   -4.954348    3.168238
Sum of atomic charges         :   -0.0000000

LOEWDIN ATOMIC CHARGES AND SPIN POPULATIONS
-------------------------------------------
   0 Au:    0.123310   -0.087063
   1 Au:    0.086647   -0.105279
   2 Au:    0.087393   -0.145489
   3 Au:   -0.023957   -0.104033
   4 Au:   -0.039585   -0.051315
   5 Au:    0.140941   -0.224842
   6 Au:    0.086652   -0.105301
   7 Au:    0.123230   -0.086918
   8 Au:    0.088716   -0.099901
   9 Au:    0.105719   -0.086391
  10 Au:    0.073542   -0.089185
  11 Au:    0.091584   -0.130170
  12 Au:    0.105479   -0.086518
  13 Au:    0.070137   -0.061103
  14 Au:   -0.038688   -0.051442
  15 Au:    0.073342   -0.089037
  16 Cr:   -1.154463    3.603986

  Mayer bond orders larger than 0.100000
B(  0-Au,  1-Au) :   0.2105 B(  0-Au,  2-Au) :   0.2012 B(  0-Au, 11-Au) :   0.1775
B(  0-Au, 12-Au) :   0.1862 B(  0-Au, 16-Cr) :   0.3924 B(  1-Au,  2-Au) :   0.1153
B(  1-Au,  3-Au) :   0.1740 B(  1-Au,  4-Au) :   0.1606 B(  1-Au,  9-Au) :   0.1066
B(  1-Au, 10-Au) :   0.1523 B(  1-Au, 16-Cr) :   0.5889 B(  2-Au,  3-Au) :   0.2471
B(  2-Au,  6-Au) :   0.1149 B(  2-Au,  7-Au) :   0.2006 B(  2-Au,  8-Au) :   0.1046
B(  2-Au, 16-Cr) :   0.3639 B(  3-Au,  4-Au) :   0.2283 B(  3-Au,  5-Au) :   0.3090
B(  3-Au,  6-Au) :   0.1748 B(  3-Au, 14-Au) :   0.2270 B(  3-Au, 16-Cr) :   0.4598
B(  4-Au,  5-Au) :   0.2707 B(  4-Au, 10-Au) :   0.3030 B(  4-Au, 13-Au) :   0.1926
B(  4-Au, 14-Au) :   0.2516 B(  4-Au, 16-Cr) :   0.3704 B(  5-Au, 14-Au) :   0.2698
B(  6-Au,  7-Au) :   0.2105 B(  6-Au, 12-Au) :   0.1064 B(  6-Au, 14-Au) :   0.1601
B(  6-Au, 15-Au) :   0.1526 B(  6-Au, 16-Cr) :   0.5889 B(  7-Au,  9-Au) :   0.1869
B(  7-Au, 11-Au) :   0.1777 B(  7-Au, 16-Cr) :   0.3928 B(  8-Au,  9-Au) :   0.1759
B(  8-Au, 10-Au) :   0.1408 B(  8-Au, 12-Au) :   0.1759 B(  8-Au, 13-Au) :   0.1255
B(  8-Au, 15-Au) :   0.1411 B(  8-Au, 16-Cr) :   0.4682 B(  9-Au, 11-Au) :   0.2098
B(  9-Au, 15-Au) :   0.1656 B(  9-Au, 16-Cr) :   0.5365 B( 10-Au, 12-Au) :   0.1656
B( 10-Au, 13-Au) :   0.1892 B( 10-Au, 16-Cr) :   0.4653 B( 11-Au, 12-Au) :   0.2099
B( 11-Au, 16-Cr) :   0.3788 B( 12-Au, 16-Cr) :   0.5362 B( 13-Au, 14-Au) :   0.1913
B( 13-Au, 15-Au) :   0.1902 B( 13-Au, 16-Cr) :   0.3987 B( 14-Au, 15-Au) :   0.3031
B( 14-Au, 16-Cr) :   0.3691 B( 15-Au, 16-Cr) :   0.4654

MP2 TOTAL ENERGY:    -3213.717571109 Eh
FINAL SINGLE POINT ENERGY     -3213.717571109135

DIPOLE MOMENT
-------------
                                X             Y             Z
Electronic contribution:    -19.82070      -7.58031     -22.96215
Nuclear contribution   :     20.01394       7.68931      23.07469
                        -----------------------------------------
Total Dipole Moment    :      0.19324       0.10900       0.11254
                        -----------------------------------------
Magnitude (a.u.)       :      0.24877
Magnitude (Debye)      :      0.63232

Rotational constants in cm-1:     0.001045     0.000722     0.000691
Rotational constants in MHz :    31.328228    21.640554    20.721864

                             ****ORCA TERMINATED NORMALLY****
TOTAL RUN TIME: 0 days 2 hours 0 minutes 3 seconds 765 msec
