                         Program Version 5.0.3 -  RELEASE  -
|  1> !PBE def2-TZVP VERYSLOWCONV
|  2>
|  3> %scf
|  4>   AutoTRAHIter 200
|  5>   maxiter 400
|  6> end
|  7>
|  8>
|  9> %pal nprocs 6 end
| 10>
| 11> *xyzfile 0 5 pbe.xyz
| 12>
| 13> $new_job
| 14>
| 15> !PBE def2-TZVP VERYSLOWCONV
| 16>
| 17> %scf
| 18>   AutoTRAHIter 200
| 19>   maxiter 400
| 20> end
| 21>
| 22>
| 23> %pal nprocs 6 end
| 24>
| 25> *xyzfile 0 3 pbe.xyz
| 26>
| 27>
| 28>
| 29>
| 30>
| 31>                          ****END OF INPUT****
 Total Charge           Charge          ....    0
 Multiplicity           Mult            ....    5
 Number of Electrons    NEL             ....  328
FINAL SINGLE POINT ENERGY     -3217.503425360274

CARTESIAN COORDINATES (ANGSTROEM)
---------------------------------
  Au    11.524664    8.550357    8.129408
  Au     9.709825    7.340841    6.417815
  Au     9.905197   10.206893    6.606987
  Au     7.879516    9.166561    5.115028
  Au     7.094331    6.493481    5.754796
  Au     5.748141    7.970629    3.856802
  Au     7.203304   10.694558    7.477272
  Au     9.373423   11.427380    9.039072
  Au     7.330752    7.102025   10.345328
  Au     7.756401    9.859103   10.753732
  Au     8.235617    5.629679    8.083020
  Au    10.506433    9.393181   10.603968
  Au    10.070924    6.762779    9.775041
  Au     5.588229    6.505262    8.113424
  Au     5.392402    8.766993    6.471790
  Au     5.654142    9.082670    9.174227
  Cr     8.627925    8.652401    8.511178

 Multiplicity           Mult            ....    3
 Number of Electrons    NEL             ....  328
 Basis Dimension        Dim             ....  685

ORBITAL ENERGIES
----------------
                 SPIN UP ORBITALS
  NO   OCC          E(Eh)            E(eV)
   0   1.0000    -214.505910     -5837.0026
   1   1.0000     -24.305508      -661.3865
   2   1.0000     -20.671188      -562.4916
   3   1.0000     -20.670666      -562.4774
   4   1.0000     -20.664872      -562.3198
   5   1.0000      -4.037832      -109.8750
   6   1.0000      -4.037763      -109.8731
   7   1.0000      -4.037719      -109.8719
   8   1.0000      -4.034052      -109.7721
   9   1.0000      -4.033446      -109.7556
  10   1.0000      -4.033427      -109.7551
  11   1.0000      -4.029528      -109.6490
  12   1.0000      -4.029526      -109.6490
  13   1.0000      -4.026358      -109.5628
  14   1.0000      -4.026247      -109.5597
  15   1.0000      -4.025205      -109.5314
  16   1.0000      -4.022642      -109.4616
  17   1.0000      -4.022606      -109.4607
  18   1.0000      -4.021286      -109.4247
  19   1.0000      -4.017397      -109.3189
  20   1.0000      -4.013944      -109.2250
  21   1.0000      -2.808798       -76.4313
  22   1.0000      -2.253502       -61.3209
  23   1.0000      -2.253356       -61.3169
  24   1.0000      -2.251671       -61.2711
  25   1.0000      -2.251453       -61.2652
  26   1.0000      -2.251358       -61.2626
  27   1.0000      -2.251016       -61.2533
  28   1.0000      -2.250419       -61.2370
  29   1.0000      -2.249834       -61.2211
  30   1.0000      -2.248999       -61.1984
  31   1.0000      -2.248595       -61.1874
  32   1.0000      -2.248420       -61.1826
  33   1.0000      -2.248223       -61.1773
  34   1.0000      -2.247346       -61.1534
  35   1.0000      -2.247238       -61.1505
  36   1.0000      -2.246153       -61.1209
  37   1.0000      -2.245910       -61.1143
  38   1.0000      -2.245525       -61.1038
  39   1.0000      -2.244819       -61.0846
  40   1.0000      -2.243121       -61.0384
  41   1.0000      -2.242460       -61.0204
  42   1.0000      -2.242180       -61.0128
  43   1.0000      -2.241745       -61.0010
  44   1.0000      -2.241616       -60.9975
  45   1.0000      -2.241397       -60.9915
  46   1.0000      -2.241329       -60.9897
  47   1.0000      -2.239621       -60.9432
  48   1.0000      -2.239361       -60.9361
  49   1.0000      -2.239327       -60.9352
  50   1.0000      -2.239006       -60.9265
  51   1.0000      -2.237371       -60.8820
  52   1.0000      -2.237141       -60.8757
  53   1.0000      -2.236554       -60.8597
  54   1.0000      -2.236346       -60.8541
  55   1.0000      -2.236203       -60.8502
  56   1.0000      -2.236133       -60.8483
  57   1.0000      -2.234782       -60.8115
  58   1.0000      -2.234498       -60.8038
  59   1.0000      -2.234441       -60.8022
  60   1.0000      -2.234288       -60.7981
  61   1.0000      -2.233337       -60.7722
  62   1.0000      -2.233071       -60.7650
  63   1.0000      -2.231893       -60.7329
  64   1.0000      -2.231621       -60.7255
  65   1.0000      -2.230809       -60.7034
  66   1.0000      -2.230505       -60.6951
  67   1.0000      -2.227865       -60.6233
  68   1.0000      -2.224874       -60.5419
  69   1.0000      -2.224115       -60.5213
  70   1.0000      -1.801373       -49.0179
  71   1.0000      -1.800565       -48.9959
  72   1.0000      -1.792970       -48.7892
  73   1.0000      -0.430159       -11.7052
  74   1.0000      -0.397441       -10.8149
  75   1.0000      -0.387269       -10.5381
  76   1.0000      -0.386388       -10.5142
  77   1.0000      -0.376308       -10.2399
  78   1.0000      -0.373289       -10.1577
  79   1.0000      -0.372102       -10.1254
  80   1.0000      -0.366701        -9.9784
  81   1.0000      -0.366485        -9.9726
  82   1.0000      -0.363450        -9.8900
  83   1.0000      -0.362348        -9.8600
  84   1.0000      -0.360139        -9.7999
  85   1.0000      -0.359145        -9.7728
  86   1.0000      -0.355806        -9.6820
  87   1.0000      -0.353918        -9.6306
  88   1.0000      -0.353005        -9.6058
  89   1.0000      -0.352081        -9.5806
  90   1.0000      -0.349176        -9.5016
  91   1.0000      -0.348821        -9.4919
  92   1.0000      -0.345639        -9.4053
  93   1.0000      -0.344629        -9.3778
  94   1.0000      -0.343218        -9.3394
  95   1.0000      -0.341440        -9.2910
  96   1.0000      -0.338282        -9.2051
  97   1.0000      -0.335202        -9.1213
  98   1.0000      -0.332806        -9.0561
  99   1.0000      -0.331084        -9.0093
 100   1.0000      -0.330583        -8.9956
 101   1.0000      -0.326855        -8.8942
 102   1.0000      -0.325792        -8.8653
 103   1.0000      -0.323341        -8.7985
 104   1.0000      -0.321283        -8.7426
 105   1.0000      -0.321159        -8.7392
 106   1.0000      -0.318916        -8.6781
 107   1.0000      -0.316621        -8.6157
 108   1.0000      -0.312299        -8.4981
 109   1.0000      -0.310071        -8.4375
 110   1.0000      -0.309771        -8.4293
 111   1.0000      -0.309743        -8.4285
 112   1.0000      -0.305992        -8.3265
 113   1.0000      -0.296161        -8.0589
 114   1.0000      -0.295646        -8.0449
 115   1.0000      -0.293356        -7.9826
 116   1.0000      -0.292895        -7.9701
 117   1.0000      -0.291718        -7.9381
 118   1.0000      -0.286969        -7.8088
 119   1.0000      -0.286824        -7.8049
 120   1.0000      -0.284320        -7.7367
 121   1.0000      -0.282528        -7.6880
 122   1.0000      -0.281617        -7.6632
 123   1.0000      -0.279003        -7.5921
 124   1.0000      -0.277486        -7.5508
 125   1.0000      -0.275651        -7.5008
 126   1.0000      -0.273986        -7.4555
 127   1.0000      -0.273464        -7.4413
 128   1.0000      -0.272755        -7.4220
 129   1.0000      -0.270277        -7.3546
 130   1.0000      -0.269820        -7.3422
 131   1.0000      -0.269022        -7.3205
 132   1.0000      -0.268805        -7.3146
 133   1.0000      -0.267345        -7.2748
 134   1.0000      -0.265664        -7.2291
 135   1.0000      -0.264220        -7.1898
 136   1.0000      -0.261650        -7.1198
 137   1.0000      -0.261394        -7.1129
 138   1.0000      -0.261056        -7.1037
 139   1.0000      -0.260484        -7.0881
 140   1.0000      -0.259831        -7.0704
 141   1.0000      -0.257799        -7.0151
 142   1.0000      -0.256775        -6.9872
 143   1.0000      -0.254438        -6.9236
 144   1.0000      -0.253155        -6.8887
 145   1.0000      -0.252768        -6.8782
 146   1.0000      -0.251030        -6.8309
 147   1.0000      -0.250689        -6.8216
 148   1.0000      -0.249974        -6.8021
 149   1.0000      -0.246430        -6.7057
 150   1.0000      -0.246133        -6.6976
 151   1.0000      -0.245301        -6.6750
 152   1.0000      -0.243647        -6.6300
 153   1.0000      -0.243193        -6.6176
 154   1.0000      -0.237343        -6.4584
 155   1.0000      -0.236328        -6.4308
 156   1.0000      -0.234553        -6.3825
 157   1.0000      -0.229574        -6.2470
 158   1.0000      -0.228704        -6.2234
 159   1.0000      -0.226265        -6.1570
 160   1.0000      -0.222448        -6.0531
 161   1.0000      -0.219292        -5.9672
 162   1.0000      -0.211970        -5.7680
 163   1.0000      -0.201147        -5.4735
 164   1.0000      -0.199633        -5.4323
 165   0.0000      -0.183193        -4.9849
 166   0.0000      -0.182664        -4.9705
 167   0.0000      -0.165856        -4.5132
 168   0.0000      -0.140598        -3.8259
 169   0.0000      -0.135691        -3.6923

                 SPIN DOWN ORBITALS
  NO   OCC          E(Eh)            E(eV)
   0   1.0000    -214.505499     -5836.9914
   1   1.0000     -24.259116      -660.1241
   2   1.0000     -20.638076      -561.5906
   3   1.0000     -20.636848      -561.5572
   4   1.0000     -20.625482      -561.2479
   5   1.0000      -4.038246      -109.8863
   6   1.0000      -4.037778      -109.8735
   7   1.0000      -4.037771      -109.8733
   8   1.0000      -4.034269      -109.7780
   9   1.0000      -4.033546      -109.7584
  10   1.0000      -4.033530      -109.7579
  11   1.0000      -4.029546      -109.6495
  12   1.0000      -4.029544      -109.6495
  13   1.0000      -4.027047      -109.5815
  14   1.0000      -4.026932      -109.5784
  15   1.0000      -4.025952      -109.5517
  16   1.0000      -4.022675      -109.4625
  17   1.0000      -4.022643      -109.4617
  18   1.0000      -4.021328      -109.4259
  19   1.0000      -4.017937      -109.3336
  20   1.0000      -4.014667      -109.2446
  21   1.0000      -2.683862       -73.0316
  22   1.0000      -2.253453       -61.3196
  23   1.0000      -2.253260       -61.3143
  24   1.0000      -2.252314       -61.2886
  25   1.0000      -2.251509       -61.2667
  26   1.0000      -2.251492       -61.2662
  27   1.0000      -2.251182       -61.2578
  28   1.0000      -2.250324       -61.2344
  29   1.0000      -2.249845       -61.2214
  30   1.0000      -2.249500       -61.2120
  31   1.0000      -2.248532       -61.1857
  32   1.0000      -2.248485       -61.1844
  33   1.0000      -2.248423       -61.1827
  34   1.0000      -2.247410       -61.1551
  35   1.0000      -2.247358       -61.1537
  36   1.0000      -2.246449       -61.1290
  37   1.0000      -2.246418       -61.1281
  38   1.0000      -2.245954       -61.1155
  39   1.0000      -2.245403       -61.1005
  40   1.0000      -2.243654       -61.0529
  41   1.0000      -2.242912       -61.0327
  42   1.0000      -2.242780       -61.0292
  43   1.0000      -2.242082       -61.0102
  44   1.0000      -2.241929       -61.0060
  45   1.0000      -2.241781       -61.0020
  46   1.0000      -2.241608       -60.9972
  47   1.0000      -2.240313       -60.9620
  48   1.0000      -2.239797       -60.9480
  49   1.0000      -2.239204       -60.9318
  50   1.0000      -2.239200       -60.9317
  51   1.0000      -2.237579       -60.8876
  52   1.0000      -2.237303       -60.8801
  53   1.0000      -2.237279       -60.8795
  54   1.0000      -2.236644       -60.8622
  55   1.0000      -2.236092       -60.8472
  56   1.0000      -2.235810       -60.8395
  57   1.0000      -2.234970       -60.8166
  58   1.0000      -2.234958       -60.8163
  59   1.0000      -2.234848       -60.8133
  60   1.0000      -2.234301       -60.7984
  61   1.0000      -2.233332       -60.7721
  62   1.0000      -2.233165       -60.7675
  63   1.0000      -2.232353       -60.7454
  64   1.0000      -2.231789       -60.7301
  65   1.0000      -2.231652       -60.7264
  66   1.0000      -2.231398       -60.7194
  67   1.0000      -2.228286       -60.6347
  68   1.0000      -2.225736       -60.5654
  69   1.0000      -2.224681       -60.5367
  70   1.0000      -1.685726       -45.8709
  71   1.0000      -1.682772       -45.7906
  72   1.0000      -1.656939       -45.0876
  73   1.0000      -0.426112       -11.5951
  74   1.0000      -0.396393       -10.7864
  75   1.0000      -0.387687       -10.5495
  76   1.0000      -0.387080       -10.5330
  77   1.0000      -0.373432       -10.1616
  78   1.0000      -0.372924       -10.1478
  79   1.0000      -0.371356       -10.1051
  80   1.0000      -0.365931        -9.9575
  81   1.0000      -0.365337        -9.9413
  82   1.0000      -0.362553        -9.8656
  83   1.0000      -0.361634        -9.8406
  84   1.0000      -0.358200        -9.7471
  85   1.0000      -0.357165        -9.7190
  86   1.0000      -0.356924        -9.7124
  87   1.0000      -0.354607        -9.6494
  88   1.0000      -0.353321        -9.6144
  89   1.0000      -0.350750        -9.5444
  90   1.0000      -0.349884        -9.5208
  91   1.0000      -0.348874        -9.4933
  92   1.0000      -0.346252        -9.4220
  93   1.0000      -0.344451        -9.3730
  94   1.0000      -0.343862        -9.3570
  95   1.0000      -0.342139        -9.3101
  96   1.0000      -0.339199        -9.2301
  97   1.0000      -0.336036        -9.1440
  98   1.0000      -0.333608        -9.0779
  99   1.0000      -0.331210        -9.0127
 100   1.0000      -0.330702        -8.9989
 101   1.0000      -0.327222        -8.9042
 102   1.0000      -0.326587        -8.8869
 103   1.0000      -0.324141        -8.8203
 104   1.0000      -0.322386        -8.7726
 105   1.0000      -0.320069        -8.7095
 106   1.0000      -0.318365        -8.6631
 107   1.0000      -0.317695        -8.6449
 108   1.0000      -0.312539        -8.5046
 109   1.0000      -0.310935        -8.4610
 110   1.0000      -0.310342        -8.4448
 111   1.0000      -0.308458        -8.3936
 112   1.0000      -0.303698        -8.2640
 113   1.0000      -0.295998        -8.0545
 114   1.0000      -0.295398        -8.0382
 115   1.0000      -0.294066        -8.0019
 116   1.0000      -0.292462        -7.9583
 117   1.0000      -0.292440        -7.9577
 118   1.0000      -0.287872        -7.8334
 119   1.0000      -0.287828        -7.8322
 120   1.0000      -0.285189        -7.7604
 121   1.0000      -0.283190        -7.7060
 122   1.0000      -0.282293        -7.6816
 123   1.0000      -0.280036        -7.6202
 124   1.0000      -0.278256        -7.5717
 125   1.0000      -0.276682        -7.5289
 126   1.0000      -0.274926        -7.4811
 127   1.0000      -0.273758        -7.4493
 128   1.0000      -0.273288        -7.4365
 129   1.0000      -0.271416        -7.3856
 130   1.0000      -0.270815        -7.3692
 131   1.0000      -0.270106        -7.3499
 132   1.0000      -0.269866        -7.3434
 133   1.0000      -0.268102        -7.2954
 134   1.0000      -0.266529        -7.2526
 135   1.0000      -0.265307        -7.2194
 136   1.0000      -0.262669        -7.1476
 137   1.0000      -0.262258        -7.1364
 138   1.0000      -0.261748        -7.1225
 139   1.0000      -0.261700        -7.1212
 140   1.0000      -0.260556        -7.0901
 141   1.0000      -0.258669        -7.0387
 142   1.0000      -0.257773        -7.0144
 143   1.0000      -0.255380        -6.9492
 144   1.0000      -0.254061        -6.9134
 145   1.0000      -0.253749        -6.9049
 146   1.0000      -0.251581        -6.8459
 147   1.0000      -0.251203        -6.8356
 148   1.0000      -0.251007        -6.8302
 149   1.0000      -0.247519        -6.7353
 150   1.0000      -0.246988        -6.7209
 151   1.0000      -0.246747        -6.7143
 152   1.0000      -0.244312        -6.6481
 153   1.0000      -0.244131        -6.6432
 154   1.0000      -0.239013        -6.5039
 155   1.0000      -0.237703        -6.4682
 156   1.0000      -0.234273        -6.3749
 157   1.0000      -0.230379        -6.2689
 158   1.0000      -0.220905        -6.0111
 159   1.0000      -0.216565        -5.8930
 160   1.0000      -0.213493        -5.8094
 161   1.0000      -0.204446        -5.5632
 162   1.0000      -0.179164        -4.8753
 163   0.0000      -0.148062        -4.0290
 164   0.0000      -0.136762        -3.7215
 165   0.0000      -0.132986        -3.6187
 166   0.0000      -0.130335        -3.5466
 167   0.0000      -0.125246        -3.4081

MULLIKEN ATOMIC CHARGES AND SPIN POPULATIONS
--------------------------------------------
   0 Au:    0.471032   -0.021176
   1 Au:    0.317322   -0.048192
   2 Au:    0.553461   -0.076089
   3 Au:   -0.155042   -0.077504
   4 Au:    0.032121   -0.001713
   5 Au:    0.493435   -0.252825
   6 Au:    0.316417   -0.048131
   7 Au:    0.470756   -0.020958
   8 Au:    0.444872   -0.049214
   9 Au:    0.457799   -0.024478
  10 Au:    0.384565   -0.024588
  11 Au:    0.387830   -0.126305
  12 Au:    0.458128   -0.024750
  13 Au:    0.190571   -0.064708
  14 Au:    0.035858   -0.001743
  15 Au:    0.382864   -0.024147
  16 Cr:   -5.241987    2.886520
Sum of atomic charges         :    0.0000000

LOEWDIN ATOMIC CHARGES AND SPIN POPULATIONS
-------------------------------------------
   0 Au:    0.124830   -0.057483
   1 Au:    0.109181   -0.076003
   2 Au:    0.106247   -0.109246
   3 Au:   -0.016493   -0.093935
   4 Au:   -0.035904   -0.047645
   5 Au:    0.125872   -0.191550
   6 Au:    0.109276   -0.075954
   7 Au:    0.124880   -0.057321
   8 Au:    0.113427   -0.082668
   9 Au:    0.126230   -0.078416
  10 Au:    0.079639   -0.055536
  11 Au:    0.102692   -0.102088
  12 Au:    0.125995   -0.078589
  13 Au:    0.066536   -0.041971
  14 Au:   -0.035160   -0.047587
  15 Au:    0.079499   -0.055231
  16 Cr:   -1.306746    3.251224

  Mayer bond orders larger than 0.100000
B(  0-Au,  1-Au) :   0.2473 B(  0-Au,  2-Au) :   0.2472 B(  0-Au, 11-Au) :   0.2256
B(  0-Au, 12-Au) :   0.2146 B(  0-Au, 16-Cr) :   0.4090 B(  1-Au,  2-Au) :   0.1306
B(  1-Au,  3-Au) :   0.2131 B(  1-Au,  4-Au) :   0.1920 B(  1-Au,  9-Au) :   0.1114
B(  1-Au, 10-Au) :   0.1858 B(  1-Au, 16-Cr) :   0.6534 B(  2-Au,  3-Au) :   0.3145
B(  2-Au,  6-Au) :   0.1302 B(  2-Au,  7-Au) :   0.2470 B(  2-Au, 16-Cr) :   0.4799
B(  3-Au,  4-Au) :   0.2279 B(  3-Au,  5-Au) :   0.3718 B(  3-Au,  6-Au) :   0.2140
B(  3-Au, 14-Au) :   0.2265 B(  3-Au, 16-Cr) :   0.4431 B(  4-Au,  5-Au) :   0.3162
B(  4-Au, 10-Au) :   0.3501 B(  4-Au, 13-Au) :   0.2226 B(  4-Au, 14-Au) :   0.2707
B(  4-Au, 16-Cr) :   0.3329 B(  5-Au, 14-Au) :   0.3156 B(  6-Au,  7-Au) :   0.2473
B(  6-Au, 12-Au) :   0.1112 B(  6-Au, 14-Au) :   0.1917 B(  6-Au, 15-Au) :   0.1858
B(  6-Au, 16-Cr) :   0.6533 B(  7-Au,  9-Au) :   0.2150 B(  7-Au, 11-Au) :   0.2259
B(  7-Au, 16-Cr) :   0.4095 B(  8-Au,  9-Au) :   0.2182 B(  8-Au, 10-Au) :   0.1688
B(  8-Au, 12-Au) :   0.2181 B(  8-Au, 13-Au) :   0.1751 B(  8-Au, 15-Au) :   0.1690
B(  8-Au, 16-Cr) :   0.5811 B(  9-Au, 11-Au) :   0.2435 B(  9-Au, 15-Au) :   0.2019
B(  9-Au, 16-Cr) :   0.6174 B( 10-Au, 12-Au) :   0.2017 B( 10-Au, 13-Au) :   0.2162
B( 10-Au, 16-Cr) :   0.4484 B( 11-Au, 12-Au) :   0.2438 B( 11-Au, 16-Cr) :   0.3949
B( 12-Au, 16-Cr) :   0.6171 B( 13-Au, 14-Au) :   0.2212 B( 13-Au, 15-Au) :   0.2170
B( 13-Au, 16-Cr) :   0.4079 B( 14-Au, 15-Au) :   0.3497 B( 14-Au, 16-Cr) :   0.3319
B( 15-Au, 16-Cr) :   0.4480

FINAL SINGLE POINT ENERGY     -3217.501729227161

DIPOLE MOMENT
-------------
                                X             Y             Z
Electronic contribution:    -19.78851      -7.58576     -22.86777
Nuclear contribution   :     20.01394       7.68931      23.07469
                        -----------------------------------------
Total Dipole Moment    :      0.22543       0.10355       0.20693
                        -----------------------------------------
Magnitude (a.u.)       :      0.32305
Magnitude (Debye)      :      0.82112

Rotational constants in cm-1:     0.001045     0.000722     0.000691
Rotational constants in MHz :    31.328228    21.640554    20.721864

                             ****ORCA TERMINATED NORMALLY****
TOTAL RUN TIME: 0 days 0 hours 44 minutes 55 seconds 223 msec
