                         Program Version 5.0.3 -  RELEASE  -
|  1> !R2SCAN def2-TZVP VERYSLOWCONV
|  2> !KDIIS
|  3> %scf
|  4>   AutoTRAHIter 200
|  5>   maxiter 400
|  6> end
|  7>
|  8> %pal nprocs 6 end
|  9>
| 10> *xyzfile 0 5 pbe.xyz
| 11>
| 12> $new_job
| 13>
| 14> !R2SCAN def2-TZVP VERYSLOWCONV
| 15> !KDIIS
| 16> %scf
| 17>   AutoTRAHIter 200
| 18>   maxiter 400
| 19> end
| 20>
| 21>
| 22> %pal nprocs 6 end
| 23>
| 24> *xyzfile 0 3 pbe.xyz
| 25>
| 26>
| 27>
| 28>
| 29>
| 30>                          ****END OF INPUT****
 Total Charge           Charge          ....    0
 Multiplicity           Mult            ....    5
 Number of Electrons    NEL             ....  328
FINAL SINGLE POINT ENERGY     -3218.035511071113

CARTESIAN COORDINATES (ANGSTROEM)
---------------------------------
  Au    11.524664    8.550357    8.129408
  Au     9.709825    7.340841    6.417815
  Au     9.905197   10.206893    6.606987
  Au     7.879516    9.166561    5.115028
  Au     7.094331    6.493481    5.754796
  Au     5.748141    7.970629    3.856802
  Au     7.203304   10.694558    7.477272
  Au     9.373423   11.427380    9.039072
  Au     7.330752    7.102025   10.345328
  Au     7.756401    9.859103   10.753732
  Au     8.235617    5.629679    8.083020
  Au    10.506433    9.393181   10.603968
  Au    10.070924    6.762779    9.775041
  Au     5.588229    6.505262    8.113424
  Au     5.392402    8.766993    6.471790
  Au     5.654142    9.082670    9.174227
  Cr     8.627925    8.652401    8.511178

 Multiplicity           Mult            ....    3
 Number of Electrons    NEL             ....  328
 Basis Dimension        Dim             ....  685

ORBITAL ENERGIES
----------------
                 SPIN UP ORBITALS
  NO   OCC          E(Eh)            E(eV)
   0   1.0000    -215.302144     -5858.6692
   1   1.0000     -24.601962      -669.4534
   2   1.0000     -20.869608      -567.8909
   3   1.0000     -20.869430      -567.8861
   4   1.0000     -20.865138      -567.7693
   5   1.0000      -4.128583      -112.3444
   6   1.0000      -4.128575      -112.3442
   7   1.0000      -4.128026      -112.3293
   8   1.0000      -4.124329      -112.2287
   9   1.0000      -4.124172      -112.2244
  10   1.0000      -4.124123      -112.2231
  11   1.0000      -4.120347      -112.1203
  12   1.0000      -4.120346      -112.1203
  13   1.0000      -4.117213      -112.0351
  14   1.0000      -4.117099      -112.0320
  15   1.0000      -4.115502      -111.9885
  16   1.0000      -4.112939      -111.9188
  17   1.0000      -4.112897      -111.9176
  18   1.0000      -4.111255      -111.8729
  19   1.0000      -4.108042      -111.7855
  20   1.0000      -4.104601      -111.6919
  21   1.0000      -2.922700       -79.5307
  22   1.0000      -2.317037       -63.0498
  23   1.0000      -2.316911       -63.0463
  24   1.0000      -2.314984       -62.9939
  25   1.0000      -2.314945       -62.9929
  26   1.0000      -2.314689       -62.9859
  27   1.0000      -2.314317       -62.9758
  28   1.0000      -2.313716       -62.9594
  29   1.0000      -2.313340       -62.9492
  30   1.0000      -2.312355       -62.9224
  31   1.0000      -2.311862       -62.9090
  32   1.0000      -2.311822       -62.9079
  33   1.0000      -2.311583       -62.9014
  34   1.0000      -2.311107       -62.8884
  35   1.0000      -2.310857       -62.8816
  36   1.0000      -2.309466       -62.8438
  37   1.0000      -2.309328       -62.8400
  38   1.0000      -2.308921       -62.8289
  39   1.0000      -2.308105       -62.8067
  40   1.0000      -2.306420       -62.7609
  41   1.0000      -2.305947       -62.7480
  42   1.0000      -2.305606       -62.7387
  43   1.0000      -2.305332       -62.7313
  44   1.0000      -2.304930       -62.7203
  45   1.0000      -2.304730       -62.7149
  46   1.0000      -2.304568       -62.7105
  47   1.0000      -2.303293       -62.6758
  48   1.0000      -2.303114       -62.6709
  49   1.0000      -2.302987       -62.6675
  50   1.0000      -2.302538       -62.6552
  51   1.0000      -2.300309       -62.5946
  52   1.0000      -2.300202       -62.5917
  53   1.0000      -2.300002       -62.5862
  54   1.0000      -2.299725       -62.5787
  55   1.0000      -2.299418       -62.5703
  56   1.0000      -2.299278       -62.5665
  57   1.0000      -2.298385       -62.5422
  58   1.0000      -2.297943       -62.5302
  59   1.0000      -2.297646       -62.5221
  60   1.0000      -2.297292       -62.5125
  61   1.0000      -2.296393       -62.4880
  62   1.0000      -2.296157       -62.4816
  63   1.0000      -2.295171       -62.4548
  64   1.0000      -2.294520       -62.4371
  65   1.0000      -2.294170       -62.4275
  66   1.0000      -2.293713       -62.4151
  67   1.0000      -2.291631       -62.3584
  68   1.0000      -2.288382       -62.2700
  69   1.0000      -2.287659       -62.2504
  70   1.0000      -1.870897       -50.9097
  71   1.0000      -1.870369       -50.8953
  72   1.0000      -1.867187       -50.8087
  73   1.0000      -0.434466       -11.8224
  74   1.0000      -0.402825       -10.9614
  75   1.0000      -0.392390       -10.6775
  76   1.0000      -0.391927       -10.6649
  77   1.0000      -0.384818       -10.4714
  78   1.0000      -0.380681       -10.3589
  79   1.0000      -0.379843       -10.3361
  80   1.0000      -0.374964       -10.2033
  81   1.0000      -0.374255       -10.1840
  82   1.0000      -0.372251       -10.1295
  83   1.0000      -0.371300       -10.1036
  84   1.0000      -0.369043       -10.0422
  85   1.0000      -0.366951        -9.9853
  86   1.0000      -0.365025        -9.9328
  87   1.0000      -0.362729        -9.8704
  88   1.0000      -0.362237        -9.8570
  89   1.0000      -0.361246        -9.8300
  90   1.0000      -0.358037        -9.7427
  91   1.0000      -0.357880        -9.7384
  92   1.0000      -0.354726        -9.6526
  93   1.0000      -0.353608        -9.6222
  94   1.0000      -0.352345        -9.5878
  95   1.0000      -0.350451        -9.5363
  96   1.0000      -0.347126        -9.4458
  97   1.0000      -0.344296        -9.3688
  98   1.0000      -0.341620        -9.2960
  99   1.0000      -0.340096        -9.2545
 100   1.0000      -0.339371        -9.2347
 101   1.0000      -0.335596        -9.1320
 102   1.0000      -0.334746        -9.1089
 103   1.0000      -0.331884        -9.0310
 104   1.0000      -0.329996        -8.9796
 105   1.0000      -0.329252        -8.9594
 106   1.0000      -0.327306        -8.9064
 107   1.0000      -0.324912        -8.8413
 108   1.0000      -0.320894        -8.7320
 109   1.0000      -0.318677        -8.6716
 110   1.0000      -0.318294        -8.6612
 111   1.0000      -0.318048        -8.6545
 112   1.0000      -0.314103        -8.5472
 113   1.0000      -0.304267        -8.2795
 114   1.0000      -0.304029        -8.2731
 115   1.0000      -0.301886        -8.2147
 116   1.0000      -0.301307        -8.1990
 117   1.0000      -0.300010        -8.1637
 118   1.0000      -0.295486        -8.0406
 119   1.0000      -0.294840        -8.0230
 120   1.0000      -0.292549        -7.9607
 121   1.0000      -0.290374        -7.9015
 122   1.0000      -0.289477        -7.8771
 123   1.0000      -0.286914        -7.8073
 124   1.0000      -0.285261        -7.7624
 125   1.0000      -0.283987        -7.7277
 126   1.0000      -0.282016        -7.6740
 127   1.0000      -0.281805        -7.6683
 128   1.0000      -0.279860        -7.6154
 129   1.0000      -0.278593        -7.5809
 130   1.0000      -0.277915        -7.5624
 131   1.0000      -0.276963        -7.5365
 132   1.0000      -0.276036        -7.5113
 133   1.0000      -0.274965        -7.4822
 134   1.0000      -0.273555        -7.4438
 135   1.0000      -0.271705        -7.3935
 136   1.0000      -0.269504        -7.3336
 137   1.0000      -0.269293        -7.3278
 138   1.0000      -0.268885        -7.3167
 139   1.0000      -0.268235        -7.2991
 140   1.0000      -0.267215        -7.2713
 141   1.0000      -0.264796        -7.2055
 142   1.0000      -0.264397        -7.1946
 143   1.0000      -0.261807        -7.1241
 144   1.0000      -0.260705        -7.0942
 145   1.0000      -0.259894        -7.0721
 146   1.0000      -0.257954        -7.0193
 147   1.0000      -0.257747        -7.0137
 148   1.0000      -0.257064        -6.9951
 149   1.0000      -0.253538        -6.8991
 150   1.0000      -0.253429        -6.8961
 151   1.0000      -0.251905        -6.8547
 152   1.0000      -0.249971        -6.8021
 153   1.0000      -0.249370        -6.7857
 154   1.0000      -0.243486        -6.6256
 155   1.0000      -0.242752        -6.6056
 156   1.0000      -0.240976        -6.5573
 157   1.0000      -0.237422        -6.4606
 158   1.0000      -0.236576        -6.4376
 159   1.0000      -0.235732        -6.4146
 160   1.0000      -0.227320        -6.1857
 161   1.0000      -0.225266        -6.1298
 162   1.0000      -0.216760        -5.8983
 163   1.0000      -0.206044        -5.6067
 164   1.0000      -0.204989        -5.5780
 165   0.0000      -0.182285        -4.9602
 166   0.0000      -0.180232        -4.9044
 167   0.0000      -0.162744        -4.4285
 168   0.0000      -0.136731        -3.7206
 169   0.0000      -0.130076        -3.5395

                 SPIN DOWN ORBITALS
  NO   OCC          E(Eh)            E(eV)
   0   1.0000    -215.301557     -5858.6532
   1   1.0000     -24.539247      -667.7468
   2   1.0000     -20.823885      -566.6467
   3   1.0000     -20.823135      -566.6263
   4   1.0000     -20.812345      -566.3327
   5   1.0000      -4.128813      -112.3507
   6   1.0000      -4.128777      -112.3497
   7   1.0000      -4.128669      -112.3468
   8   1.0000      -4.124706      -112.2389
   9   1.0000      -4.124484      -112.2329
  10   1.0000      -4.124448      -112.2319
  11   1.0000      -4.120411      -112.1221
  12   1.0000      -4.120406      -112.1219
  13   1.0000      -4.118049      -112.0578
  14   1.0000      -4.117930      -112.0546
  15   1.0000      -4.116512      -112.0160
  16   1.0000      -4.113070      -111.9223
  17   1.0000      -4.113033      -111.9213
  18   1.0000      -4.111523      -111.8802
  19   1.0000      -4.108751      -111.8048
  20   1.0000      -4.105770      -111.7237
  21   1.0000      -2.759236       -75.0826
  22   1.0000      -2.317181       -63.0537
  23   1.0000      -2.317008       -63.0490
  24   1.0000      -2.315540       -63.0090
  25   1.0000      -2.315155       -62.9986
  26   1.0000      -2.315135       -62.9980
  27   1.0000      -2.314486       -62.9804
  28   1.0000      -2.313837       -62.9627
  29   1.0000      -2.313489       -62.9532
  30   1.0000      -2.312820       -62.9350
  31   1.0000      -2.312165       -62.9172
  32   1.0000      -2.312106       -62.9156
  33   1.0000      -2.311743       -62.9057
  34   1.0000      -2.311182       -62.8905
  35   1.0000      -2.311053       -62.8869
  36   1.0000      -2.310019       -62.8588
  37   1.0000      -2.309771       -62.8521
  38   1.0000      -2.309430       -62.8428
  39   1.0000      -2.308721       -62.8235
  40   1.0000      -2.306944       -62.7752
  41   1.0000      -2.306379       -62.7598
  42   1.0000      -2.306191       -62.7547
  43   1.0000      -2.305593       -62.7384
  44   1.0000      -2.305551       -62.7372
  45   1.0000      -2.305238       -62.7287
  46   1.0000      -2.305115       -62.7254
  47   1.0000      -2.304037       -62.6960
  48   1.0000      -2.303466       -62.6805
  49   1.0000      -2.302996       -62.6677
  50   1.0000      -2.302988       -62.6675
  51   1.0000      -2.300672       -62.6045
  52   1.0000      -2.300629       -62.6033
  53   1.0000      -2.300576       -62.6019
  54   1.0000      -2.300337       -62.5954
  55   1.0000      -2.299122       -62.5623
  56   1.0000      -2.298952       -62.5577
  57   1.0000      -2.298866       -62.5553
  58   1.0000      -2.298586       -62.5477
  59   1.0000      -2.297904       -62.5292
  60   1.0000      -2.297362       -62.5144
  61   1.0000      -2.296279       -62.4849
  62   1.0000      -2.296262       -62.4845
  63   1.0000      -2.295819       -62.4724
  64   1.0000      -2.295174       -62.4549
  65   1.0000      -2.295067       -62.4520
  66   1.0000      -2.294772       -62.4439
  67   1.0000      -2.292174       -62.3732
  68   1.0000      -2.289444       -62.2989
  69   1.0000      -2.288415       -62.2709
  70   1.0000      -1.715402       -46.6785
  71   1.0000      -1.713600       -46.6294
  72   1.0000      -1.689384       -45.9705
  73   1.0000      -0.430762       -11.7216
  74   1.0000      -0.402185       -10.9440
  75   1.0000      -0.393677       -10.7125
  76   1.0000      -0.393356       -10.7038
  77   1.0000      -0.381466       -10.3802
  78   1.0000      -0.380716       -10.3598
  79   1.0000      -0.379422       -10.3246
  80   1.0000      -0.374061       -10.1787
  81   1.0000      -0.373628       -10.1669
  82   1.0000      -0.371336       -10.1046
  83   1.0000      -0.370203       -10.0737
  84   1.0000      -0.366547        -9.9743
  85   1.0000      -0.366403        -9.9703
  86   1.0000      -0.365362        -9.9420
  87   1.0000      -0.363725        -9.8975
  88   1.0000      -0.362773        -9.8716
  89   1.0000      -0.359777        -9.7900
  90   1.0000      -0.359191        -9.7741
  91   1.0000      -0.357887        -9.7386
  92   1.0000      -0.355584        -9.6759
  93   1.0000      -0.353471        -9.6184
  94   1.0000      -0.353176        -9.6104
  95   1.0000      -0.351394        -9.5619
  96   1.0000      -0.348441        -9.4816
  97   1.0000      -0.345401        -9.3988
  98   1.0000      -0.342846        -9.3293
  99   1.0000      -0.340337        -9.2610
 100   1.0000      -0.339992        -9.2516
 101   1.0000      -0.336521        -9.1572
 102   1.0000      -0.335872        -9.1395
 103   1.0000      -0.333125        -9.0648
 104   1.0000      -0.331384        -9.0174
 105   1.0000      -0.328959        -8.9514
 106   1.0000      -0.327128        -8.9016
 107   1.0000      -0.326405        -8.8819
 108   1.0000      -0.321431        -8.7466
 109   1.0000      -0.319904        -8.7050
 110   1.0000      -0.319103        -8.6832
 111   1.0000      -0.316842        -8.6217
 112   1.0000      -0.311841        -8.4856
 113   1.0000      -0.304417        -8.2836
 114   1.0000      -0.303813        -8.2672
 115   1.0000      -0.302691        -8.2366
 116   1.0000      -0.301076        -8.1927
 117   1.0000      -0.300821        -8.1858
 118   1.0000      -0.296651        -8.0723
 119   1.0000      -0.296301        -8.0628
 120   1.0000      -0.293714        -7.9924
 121   1.0000      -0.291432        -7.9303
 122   1.0000      -0.290771        -7.9123
 123   1.0000      -0.288185        -7.8419
 124   1.0000      -0.286597        -7.7987
 125   1.0000      -0.285352        -7.7648
 126   1.0000      -0.283354        -7.7104
 127   1.0000      -0.281589        -7.6624
 128   1.0000      -0.281566        -7.6618
 129   1.0000      -0.280004        -7.6193
 130   1.0000      -0.279243        -7.5986
 131   1.0000      -0.278260        -7.5718
 132   1.0000      -0.277620        -7.5544
 133   1.0000      -0.276129        -7.5139
 134   1.0000      -0.274666        -7.4740
 135   1.0000      -0.273361        -7.4385
 136   1.0000      -0.270993        -7.3741
 137   1.0000      -0.270165        -7.3516
 138   1.0000      -0.270104        -7.3499
 139   1.0000      -0.269814        -7.3420
 140   1.0000      -0.268226        -7.2988
 141   1.0000      -0.266055        -7.2397
 142   1.0000      -0.265796        -7.2327
 143   1.0000      -0.263132        -7.1602
 144   1.0000      -0.262041        -7.1305
 145   1.0000      -0.261293        -7.1102
 146   1.0000      -0.258747        -7.0409
 147   1.0000      -0.258595        -7.0367
 148   1.0000      -0.258203        -7.0261
 149   1.0000      -0.254844        -6.9347
 150   1.0000      -0.254812        -6.9338
 151   1.0000      -0.253904        -6.9091
 152   1.0000      -0.251558        -6.8453
 153   1.0000      -0.251117        -6.8332
 154   1.0000      -0.246027        -6.6947
 155   1.0000      -0.244669        -6.6578
 156   1.0000      -0.239064        -6.5053
 157   1.0000      -0.236619        -6.4387
 158   1.0000      -0.223536        -6.0827
 159   1.0000      -0.218432        -5.9438
 160   1.0000      -0.215070        -5.8523
 161   1.0000      -0.205515        -5.5923
 162   1.0000      -0.179482        -4.8840
 163   0.0000      -0.144056        -3.9200
 164   0.0000      -0.131178        -3.5695
 165   0.0000      -0.127681        -3.4744
 166   0.0000      -0.125891        -3.4257
 167   0.0000      -0.118729        -3.2308

MULLIKEN ATOMIC CHARGES AND SPIN POPULATIONS
--------------------------------------------
   0 Au:    0.417862   -0.028176
   1 Au:    0.281538   -0.074789
   2 Au:    0.504960   -0.103308
   3 Au:   -0.154682   -0.069373
   4 Au:    0.039890    0.007489
   5 Au:    0.451941   -0.318376
   6 Au:    0.280682   -0.074536
   7 Au:    0.417767   -0.027841
   8 Au:    0.396310   -0.073329
   9 Au:    0.407596   -0.043915
  10 Au:    0.337964   -0.029393
  11 Au:    0.340398   -0.161176
  12 Au:    0.407615   -0.044156
  13 Au:    0.171577   -0.083371
  14 Au:    0.043350    0.007224
  15 Au:    0.336244   -0.028763
  16 Cr:   -4.681013    3.145789
Sum of atomic charges         :    0.0000000

LOEWDIN ATOMIC CHARGES AND SPIN POPULATIONS
-------------------------------------------
   0 Au:    0.119698   -0.065544
   1 Au:    0.105651   -0.090843
   2 Au:    0.101243   -0.123366
   3 Au:   -0.016749   -0.102136
   4 Au:   -0.033547   -0.052963
   5 Au:    0.120961   -0.219335
   6 Au:    0.105747   -0.090773
   7 Au:    0.119744   -0.065337
   8 Au:    0.107885   -0.094261
   9 Au:    0.122044   -0.092249
  10 Au:    0.076650   -0.065299
  11 Au:    0.095580   -0.116082
  12 Au:    0.121818   -0.092428
  13 Au:    0.065238   -0.051877
  14 Au:   -0.032804   -0.052923
  15 Au:    0.076511   -0.064997
  16 Cr:   -1.255668    3.440412

  Mayer bond orders larger than 0.100000
B(  0-Au,  1-Au) :   0.2457 B(  0-Au,  2-Au) :   0.2404 B(  0-Au, 11-Au) :   0.2131
B(  0-Au, 12-Au) :   0.2062 B(  0-Au, 16-Cr) :   0.4150 B(  1-Au,  2-Au) :   0.1251
B(  1-Au,  3-Au) :   0.2000 B(  1-Au,  4-Au) :   0.1881 B(  1-Au, 10-Au) :   0.1793
B(  1-Au, 16-Cr) :   0.6729 B(  2-Au,  3-Au) :   0.3188 B(  2-Au,  6-Au) :   0.1249
B(  2-Au,  7-Au) :   0.2402 B(  2-Au, 16-Cr) :   0.4945 B(  3-Au,  4-Au) :   0.2066
B(  3-Au,  5-Au) :   0.3489 B(  3-Au,  6-Au) :   0.2008 B(  3-Au, 14-Au) :   0.2053
B(  3-Au, 16-Cr) :   0.4221 B(  4-Au,  5-Au) :   0.3031 B(  4-Au, 10-Au) :   0.3509
B(  4-Au, 13-Au) :   0.2140 B(  4-Au, 14-Au) :   0.2430 B(  4-Au, 16-Cr) :   0.3163
B(  5-Au, 14-Au) :   0.3026 B(  6-Au,  7-Au) :   0.2456 B(  6-Au, 14-Au) :   0.1878
B(  6-Au, 15-Au) :   0.1793 B(  6-Au, 16-Cr) :   0.6730 B(  7-Au,  9-Au) :   0.2066
B(  7-Au, 11-Au) :   0.2134 B(  7-Au, 16-Cr) :   0.4156 B(  8-Au,  9-Au) :   0.2153
B(  8-Au, 10-Au) :   0.1596 B(  8-Au, 12-Au) :   0.2152 B(  8-Au, 13-Au) :   0.1625
B(  8-Au, 15-Au) :   0.1598 B(  8-Au, 16-Cr) :   0.5970 B(  9-Au, 11-Au) :   0.2311
B(  9-Au, 15-Au) :   0.2017 B(  9-Au, 16-Cr) :   0.6357 B( 10-Au, 12-Au) :   0.2016
B( 10-Au, 13-Au) :   0.2076 B( 10-Au, 16-Cr) :   0.4504 B( 11-Au, 12-Au) :   0.2313
B( 11-Au, 16-Cr) :   0.3937 B( 12-Au, 16-Cr) :   0.6355 B( 13-Au, 14-Au) :   0.2126
B( 13-Au, 15-Au) :   0.2084 B( 13-Au, 16-Cr) :   0.3806 B( 14-Au, 15-Au) :   0.3505
B( 14-Au, 16-Cr) :   0.3155 B( 15-Au, 16-Cr) :   0.4500

FINAL SINGLE POINT ENERGY     -3218.031464211980

DIPOLE MOMENT
-------------
                                X             Y             Z
Electronic contribution:    -19.81134      -7.59714     -22.88545
Nuclear contribution   :     20.01394       7.68931      23.07469
                        -----------------------------------------
Total Dipole Moment    :      0.20260       0.09218       0.18924
                        -----------------------------------------
Magnitude (a.u.)       :      0.29215
Magnitude (Debye)      :      0.74260

Rotational constants in cm-1:     0.001045     0.000722     0.000691
Rotational constants in MHz :    31.328228    21.640554    20.721864

                             ****ORCA TERMINATED NORMALLY****
TOTAL RUN TIME: 0 days 0 hours 31 minutes 9 seconds 748 msec
