                         Program Version 5.0.3 -  RELEASE  -
|  1> !RI-B2PLYP def2-TZVP def2-TZVP/C
|  2> !RIJCOSX VERYSLOWCONV
|  3>
|  4> %scf
|  5>   AutoTRAHIter 200
|  6>   maxiter 400
|  7> end
|  8>
|  9>
| 10> %pal nprocs 6 end
| 11>
| 12> *xyzfile 0 5 pbe.xyz
| 13>
| 14> $new_job
| 15>
| 16> !RI-B2PLYP def2-TZVP def2-TZVP/C
| 17> !RIJCOSX VERYSLOWCONV
| 18>
| 19> %scf
| 20>   AutoTRAHIter 200
| 21>   maxiter 400
| 22> end
| 23>
| 24>
| 25> %pal nprocs 6 end
| 26>
| 27> *xyzfile 0 3 pbe.xyz
| 28>
| 29>
| 30>
| 31>
| 32>
| 33>                          ****END OF INPUT****
 Total Charge           Charge          ....    0
 Multiplicity           Mult            ....    5
 Number of Electrons    NEL             ....  328
MP2 TOTAL ENERGY:    -3213.720719891 Eh
FINAL SINGLE POINT ENERGY     -3213.720719891072

CARTESIAN COORDINATES (ANGSTROEM)
---------------------------------
  Au     5.879823    5.485337    9.311747
  Au     6.423666    7.986971   10.240766
  Au     7.569675   10.500910   10.126868
  Au     5.742707    9.818213    8.168156
  Au     7.477773    9.324583    5.777173
  Au     8.088149   11.353753    7.543332
  Au     7.004002    6.709960    4.975774
  Au     4.928577    5.573144    6.653082
  Au     4.806158    8.336404    6.084204
  Au     7.701190    4.846816    7.079044
  Au    10.107974    9.671301    6.647817
  Au     9.351958    7.019334    6.463780
  Au    10.774188    7.896587    8.665704
  Au    10.245913   10.585619    9.314972
  Au     9.189922    8.391549   10.892573
  Au     8.653989    6.199183    9.308467
  Cr     6.793040    7.367896    7.619068

 Multiplicity           Mult            ....    3
 Number of Electrons    NEL             ....  328
 Basis Dimension        Dim             ....  685

ORBITAL ENERGIES
----------------
                 SPIN UP ORBITALS
  NO   OCC          E(Eh)            E(eV)
   0   1.0000    -217.767409     -5925.7525
   1   1.0000     -25.454248      -692.6453
   2   1.0000     -21.593771      -587.5964
   3   1.0000     -21.593547      -587.5903
   4   1.0000     -21.587507      -587.4259
   5   1.0000      -4.408024      -119.9484
   6   1.0000      -4.407694      -119.9395
   7   1.0000      -4.407595      -119.9367
   8   1.0000      -4.404974      -119.8654
   9   1.0000      -4.404800      -119.8607
  10   1.0000      -4.402911      -119.8093
  11   1.0000      -4.402787      -119.8059
  12   1.0000      -4.399865      -119.7264
  13   1.0000      -4.399811      -119.7249
  14   1.0000      -4.394667      -119.5850
  15   1.0000      -4.392240      -119.5189
  16   1.0000      -4.392055      -119.5139
  17   1.0000      -4.390566      -119.4734
  18   1.0000      -4.390458      -119.4704
  19   1.0000      -4.390336      -119.4671
  20   1.0000      -4.380015      -119.1863
  21   1.0000      -3.243814       -88.2687
  22   1.0000      -2.529582       -68.8334
  23   1.0000      -2.528788       -68.8118
  24   1.0000      -2.528363       -68.8002
  25   1.0000      -2.525402       -68.7197
  26   1.0000      -2.525318       -68.7174
  27   1.0000      -2.525008       -68.7090
  28   1.0000      -2.524949       -68.7074
  29   1.0000      -2.524416       -68.6929
  30   1.0000      -2.524198       -68.6869
  31   1.0000      -2.524042       -68.6827
  32   1.0000      -2.523253       -68.6612
  33   1.0000      -2.523035       -68.6553
  34   1.0000      -2.522455       -68.6395
  35   1.0000      -2.521716       -68.6194
  36   1.0000      -2.521240       -68.6064
  37   1.0000      -2.520382       -68.5831
  38   1.0000      -2.520237       -68.5791
  39   1.0000      -2.519544       -68.5603
  40   1.0000      -2.519389       -68.5561
  41   1.0000      -2.519170       -68.5501
  42   1.0000      -2.518884       -68.5423
  43   1.0000      -2.517437       -68.5029
  44   1.0000      -2.516470       -68.4766
  45   1.0000      -2.515779       -68.4578
  46   1.0000      -2.515570       -68.4521
  47   1.0000      -2.514285       -68.4172
  48   1.0000      -2.514077       -68.4115
  49   1.0000      -2.513755       -68.4027
  50   1.0000      -2.513033       -68.3831
  51   1.0000      -2.512371       -68.3651
  52   1.0000      -2.511437       -68.3397
  53   1.0000      -2.510747       -68.3209
  54   1.0000      -2.510247       -68.3073
  55   1.0000      -2.509517       -68.2874
  56   1.0000      -2.509492       -68.2868
  57   1.0000      -2.509237       -68.2798
  58   1.0000      -2.508024       -68.2468
  59   1.0000      -2.507861       -68.2424
  60   1.0000      -2.507242       -68.2255
  61   1.0000      -2.507101       -68.2217
  62   1.0000      -2.507026       -68.2196
  63   1.0000      -2.506756       -68.2123
  64   1.0000      -2.505892       -68.1888
  65   1.0000      -2.505777       -68.1857
  66   1.0000      -2.505556       -68.1796
  67   1.0000      -2.497814       -67.9690
  68   1.0000      -2.497345       -67.9562
  69   1.0000      -2.495898       -67.9168
  70   1.0000      -2.135942       -58.1219
  71   1.0000      -2.125334       -57.8333
  72   1.0000      -2.124896       -57.8214
  73   1.0000      -0.506798       -13.7907
  74   1.0000      -0.493536       -13.4298
  75   1.0000      -0.478036       -13.0080
  76   1.0000      -0.477406       -12.9909
  77   1.0000      -0.469701       -12.7812
  78   1.0000      -0.469252       -12.7690
  79   1.0000      -0.467277       -12.7152
  80   1.0000      -0.466040       -12.6816
  81   1.0000      -0.463961       -12.6250
  82   1.0000      -0.462932       -12.5970
  83   1.0000      -0.460512       -12.5312
  84   1.0000      -0.457154       -12.4398
  85   1.0000      -0.453693       -12.3456
  86   1.0000      -0.453570       -12.3423
  87   1.0000      -0.453131       -12.3303
  88   1.0000      -0.453036       -12.3277
  89   1.0000      -0.449693       -12.2368
  90   1.0000      -0.445202       -12.1146
  91   1.0000      -0.444024       -12.0825
  92   1.0000      -0.443991       -12.0816
  93   1.0000      -0.442974       -12.0539
  94   1.0000      -0.442066       -12.0292
  95   1.0000      -0.440998       -12.0002
  96   1.0000      -0.440318       -11.9817
  97   1.0000      -0.439304       -11.9541
  98   1.0000      -0.436051       -11.8655
  99   1.0000      -0.434325       -11.8186
 100   1.0000      -0.433271       -11.7899
 101   1.0000      -0.431105       -11.7310
 102   1.0000      -0.427747       -11.6396
 103   1.0000      -0.427534       -11.6338
 104   1.0000      -0.424869       -11.5613
 105   1.0000      -0.424318       -11.5463
 106   1.0000      -0.419449       -11.4138
 107   1.0000      -0.416210       -11.3256
 108   1.0000      -0.411197       -11.1892
 109   1.0000      -0.410548       -11.1716
 110   1.0000      -0.408830       -11.1248
 111   1.0000      -0.407046       -11.0763
 112   1.0000      -0.405617       -11.0374
 113   1.0000      -0.403100       -10.9689
 114   1.0000      -0.398353       -10.8397
 115   1.0000      -0.395619       -10.7653
 116   1.0000      -0.393851       -10.7172
 117   1.0000      -0.392352       -10.6764
 118   1.0000      -0.387552       -10.5458
 119   1.0000      -0.386821       -10.5259
 120   1.0000      -0.381027       -10.3683
 121   1.0000      -0.380191       -10.3455
 122   1.0000      -0.378041       -10.2870
 123   1.0000      -0.377685       -10.2773
 124   1.0000      -0.377676       -10.2771
 125   1.0000      -0.373447       -10.1620
 126   1.0000      -0.371887       -10.1195
 127   1.0000      -0.370825       -10.0907
 128   1.0000      -0.369074       -10.0430
 129   1.0000      -0.368488       -10.0271
 130   1.0000      -0.367315        -9.9951
 131   1.0000      -0.365597        -9.9484
 132   1.0000      -0.364344        -9.9143
 133   1.0000      -0.362482        -9.8636
 134   1.0000      -0.361619        -9.8401
 135   1.0000      -0.358008        -9.7419
 136   1.0000      -0.356255        -9.6942
 137   1.0000      -0.356164        -9.6917
 138   1.0000      -0.355809        -9.6820
 139   1.0000      -0.354164        -9.6373
 140   1.0000      -0.352873        -9.6022
 141   1.0000      -0.352383        -9.5888
 142   1.0000      -0.349887        -9.5209
 143   1.0000      -0.349676        -9.5152
 144   1.0000      -0.349340        -9.5060
 145   1.0000      -0.343358        -9.3432
 146   1.0000      -0.341133        -9.2827
 147   1.0000      -0.339012        -9.2250
 148   1.0000      -0.338067        -9.1993
 149   1.0000      -0.336947        -9.1688
 150   1.0000      -0.334428        -9.1003
 151   1.0000      -0.333095        -9.0640
 152   1.0000      -0.332447        -9.0463
 153   1.0000      -0.330925        -9.0049
 154   1.0000      -0.330788        -9.0012
 155   1.0000      -0.329877        -8.9764
 156   1.0000      -0.325366        -8.8537
 157   1.0000      -0.324361        -8.8263
 158   1.0000      -0.313903        -8.5417
 159   1.0000      -0.311301        -8.4709
 160   1.0000      -0.301372        -8.2007
 161   1.0000      -0.245317        -6.6754
 162   1.0000      -0.242752        -6.6056
 163   1.0000      -0.234579        -6.3832
 164   1.0000      -0.233823        -6.3627
 165   0.0000      -0.129503        -3.5239
 166   0.0000      -0.098784        -2.6881
 167   0.0000      -0.091012        -2.4766
 168   0.0000      -0.083884        -2.2826
 169   0.0000      -0.076548        -2.0830

                 SPIN DOWN ORBITALS
  NO   OCC          E(Eh)            E(eV)
   0   1.0000    -217.766131     -5925.7177
   1   1.0000     -25.383971      -690.7330
   2   1.0000     -21.534130      -585.9735
   3   1.0000     -21.533748      -585.9631
   4   1.0000     -21.512159      -585.3756
   5   1.0000      -4.407481      -119.9337
   6   1.0000      -4.407253      -119.9274
   7   1.0000      -4.407155      -119.9248
   8   1.0000      -4.404861      -119.8624
   9   1.0000      -4.404678      -119.8574
  10   1.0000      -4.402285      -119.7923
  11   1.0000      -4.402156      -119.7888
  12   1.0000      -4.399725      -119.7226
  13   1.0000      -4.399640      -119.7203
  14   1.0000      -4.395055      -119.5955
  15   1.0000      -4.392854      -119.5356
  16   1.0000      -4.392664      -119.5305
  17   1.0000      -4.391555      -119.5003
  18   1.0000      -4.391450      -119.4974
  19   1.0000      -4.390626      -119.4750
  20   1.0000      -4.381650      -119.2308
  21   1.0000      -3.028996       -82.4232
  22   1.0000      -2.528622       -68.8073
  23   1.0000      -2.527706       -68.7824
  24   1.0000      -2.527321       -68.7719
  25   1.0000      -2.524779       -68.7027
  26   1.0000      -2.524192       -68.6868
  27   1.0000      -2.523524       -68.6686
  28   1.0000      -2.523407       -68.6654
  29   1.0000      -2.523364       -68.6642
  30   1.0000      -2.522783       -68.6484
  31   1.0000      -2.522583       -68.6430
  32   1.0000      -2.522522       -68.6413
  33   1.0000      -2.522248       -68.6339
  34   1.0000      -2.521782       -68.6212
  35   1.0000      -2.520882       -68.5967
  36   1.0000      -2.520435       -68.5845
  37   1.0000      -2.520286       -68.5805
  38   1.0000      -2.520094       -68.5752
  39   1.0000      -2.518858       -68.5416
  40   1.0000      -2.518361       -68.5281
  41   1.0000      -2.518270       -68.5256
  42   1.0000      -2.517965       -68.5173
  43   1.0000      -2.517119       -68.4943
  44   1.0000      -2.516198       -68.4692
  45   1.0000      -2.515749       -68.4570
  46   1.0000      -2.515331       -68.4456
  47   1.0000      -2.514475       -68.4224
  48   1.0000      -2.514055       -68.4109
  49   1.0000      -2.513711       -68.4015
  50   1.0000      -2.513499       -68.3958
  51   1.0000      -2.512957       -68.3810
  52   1.0000      -2.512004       -68.3551
  53   1.0000      -2.511132       -68.3314
  54   1.0000      -2.510573       -68.3162
  55   1.0000      -2.509860       -68.2968
  56   1.0000      -2.509563       -68.2887
  57   1.0000      -2.509129       -68.2769
  58   1.0000      -2.508831       -68.2688
  59   1.0000      -2.508059       -68.2478
  60   1.0000      -2.507801       -68.2407
  61   1.0000      -2.507652       -68.2367
  62   1.0000      -2.507100       -68.2217
  63   1.0000      -2.506772       -68.2127
  64   1.0000      -2.506287       -68.1995
  65   1.0000      -2.506158       -68.1960
  66   1.0000      -2.505101       -68.1673
  67   1.0000      -2.499002       -68.0013
  68   1.0000      -2.498494       -67.9875
  69   1.0000      -2.496275       -67.9271
  70   1.0000      -1.899099       -51.6771
  71   1.0000      -1.897389       -51.6306
  72   1.0000      -1.848509       -50.3005
  73   1.0000      -0.499549       -13.5934
  74   1.0000      -0.476529       -12.9670
  75   1.0000      -0.474078       -12.9003
  76   1.0000      -0.469973       -12.7886
  77   1.0000      -0.468629       -12.7520
  78   1.0000      -0.466958       -12.7066
  79   1.0000      -0.463549       -12.6138
  80   1.0000      -0.462784       -12.5930
  81   1.0000      -0.461754       -12.5650
  82   1.0000      -0.457171       -12.4403
  83   1.0000      -0.456686       -12.4271
  84   1.0000      -0.456000       -12.4084
  85   1.0000      -0.453987       -12.3536
  86   1.0000      -0.453581       -12.3426
  87   1.0000      -0.453235       -12.3332
  88   1.0000      -0.452814       -12.3217
  89   1.0000      -0.449791       -12.2394
  90   1.0000      -0.446218       -12.1422
  91   1.0000      -0.445940       -12.1346
  92   1.0000      -0.445618       -12.1259
  93   1.0000      -0.445179       -12.1139
  94   1.0000      -0.443981       -12.0813
  95   1.0000      -0.440752       -11.9935
  96   1.0000      -0.439888       -11.9700
  97   1.0000      -0.438637       -11.9359
  98   1.0000      -0.434474       -11.8226
  99   1.0000      -0.433884       -11.8066
 100   1.0000      -0.429976       -11.7002
 101   1.0000      -0.429044       -11.6749
 102   1.0000      -0.428098       -11.6491
 103   1.0000      -0.426146       -11.5960
 104   1.0000      -0.424333       -11.5467
 105   1.0000      -0.419410       -11.4127
 106   1.0000      -0.415478       -11.3057
 107   1.0000      -0.415343       -11.3020
 108   1.0000      -0.409217       -11.1354
 109   1.0000      -0.408072       -11.1042
 110   1.0000      -0.407405       -11.0861
 111   1.0000      -0.406107       -11.0507
 112   1.0000      -0.402983       -10.9657
 113   1.0000      -0.397298       -10.8110
 114   1.0000      -0.397017       -10.8034
 115   1.0000      -0.392911       -10.6916
 116   1.0000      -0.391560       -10.6549
 117   1.0000      -0.388460       -10.5705
 118   1.0000      -0.383438       -10.4339
 119   1.0000      -0.382530       -10.4092
 120   1.0000      -0.379990       -10.3401
 121   1.0000      -0.377959       -10.2848
 122   1.0000      -0.377382       -10.2691
 123   1.0000      -0.376978       -10.2581
 124   1.0000      -0.373897       -10.1743
 125   1.0000      -0.371399       -10.1063
 126   1.0000      -0.370287       -10.0760
 127   1.0000      -0.369507       -10.0548
 128   1.0000      -0.368481       -10.0269
 129   1.0000      -0.367723       -10.0063
 130   1.0000      -0.365718        -9.9517
 131   1.0000      -0.364555        -9.9201
 132   1.0000      -0.362897        -9.8749
 133   1.0000      -0.359965        -9.7951
 134   1.0000      -0.359521        -9.7831
 135   1.0000      -0.357304        -9.7227
 136   1.0000      -0.356859        -9.7106
 137   1.0000      -0.355985        -9.6869
 138   1.0000      -0.355494        -9.6735
 139   1.0000      -0.354029        -9.6336
 140   1.0000      -0.352847        -9.6015
 141   1.0000      -0.351642        -9.5687
 142   1.0000      -0.351249        -9.5580
 143   1.0000      -0.351189        -9.5563
 144   1.0000      -0.343010        -9.3338
 145   1.0000      -0.340496        -9.2654
 146   1.0000      -0.339448        -9.2369
 147   1.0000      -0.339023        -9.2253
 148   1.0000      -0.337823        -9.1926
 149   1.0000      -0.335414        -9.1271
 150   1.0000      -0.333710        -9.0807
 151   1.0000      -0.330868        -9.0034
 152   1.0000      -0.328435        -8.9372
 153   1.0000      -0.327364        -8.9080
 154   1.0000      -0.319913        -8.7053
 155   1.0000      -0.314014        -8.5448
 156   1.0000      -0.313056        -8.5187
 157   1.0000      -0.265110        -7.2140
 158   1.0000      -0.259128        -7.0512
 159   1.0000      -0.246203        -6.6995
 160   1.0000      -0.227884        -6.2010
 161   1.0000      -0.219613        -5.9760
 162   1.0000      -0.187727        -5.1083
 163   0.0000      -0.092255        -2.5104
 164   0.0000      -0.085103        -2.3158
 165   0.0000      -0.081806        -2.2261
 166   0.0000      -0.072346        -1.9686
 167   0.0000      -0.064903        -1.7661

MULLIKEN ATOMIC CHARGES AND SPIN POPULATIONS
--------------------------------------------
   0 Au:    0.484859    0.002249
   1 Au:    0.136462   -0.083797
   2 Au:    0.115834    0.056382
   3 Au:    0.133897   -0.081498
   4 Au:    0.084853   -0.188837
   5 Au:    0.162588   -0.105312
   6 Au:    0.662675    0.022618
   7 Au:    0.255951   -0.319304
   8 Au:    0.483288    0.004254
   9 Au:    0.661860    0.021685
  10 Au:    0.155224   -0.058951
  11 Au:   -0.049839   -0.170707
  12 Au:    0.150494   -0.053907
  13 Au:    0.033529   -0.338744
  14 Au:    0.161668   -0.105873
  15 Au:    0.089328   -0.190240
  16 Cr:   -3.722672    3.589981
Sum of atomic charges         :   -0.0000000

LOEWDIN ATOMIC CHARGES AND SPIN POPULATIONS
-------------------------------------------
   0 Au:    0.146421   -0.070240
   1 Au:    0.055915   -0.104733
   2 Au:    0.017966   -0.053974
   3 Au:    0.055488   -0.104858
   4 Au:    0.016004   -0.113181
   5 Au:    0.041415   -0.112964
   6 Au:    0.120511   -0.040893
   7 Au:    0.087411   -0.183339
   8 Au:    0.146081   -0.068867
   9 Au:    0.121191   -0.041976
  10 Au:    0.030883   -0.134031
  11 Au:    0.030772   -0.089626
  12 Au:    0.029701   -0.132688
  13 Au:   -0.022407   -0.197317
  14 Au:    0.041199   -0.112567
  15 Au:    0.016600   -0.113491
  16 Cr:   -0.935152    3.674744

  Mayer bond orders larger than 0.100000
B(  0-Au,  1-Au) :   0.2912 B(  0-Au,  7-Au) :   0.2005 B(  0-Au, 15-Au) :   0.1123
B(  0-Au, 16-Cr) :   0.5485 B(  1-Au,  2-Au) :   0.2128 B(  1-Au,  3-Au) :   0.2539
B(  1-Au, 14-Au) :   0.1479 B(  1-Au, 16-Cr) :   0.5677 B(  2-Au,  3-Au) :   0.2135
B(  2-Au,  5-Au) :   0.2175 B(  2-Au, 13-Au) :   0.2800 B(  2-Au, 14-Au) :   0.2196
B(  2-Au, 16-Cr) :   0.3010 B(  3-Au,  5-Au) :   0.1489 B(  3-Au,  8-Au) :   0.2917
B(  3-Au, 16-Cr) :   0.5683 B(  4-Au,  5-Au) :   0.3208 B(  4-Au,  6-Au) :   0.1946
B(  4-Au,  8-Au) :   0.1116 B(  4-Au, 10-Au) :   0.2400 B(  4-Au, 11-Au) :   0.1452
B(  4-Au, 16-Cr) :   0.5129 B(  5-Au, 10-Au) :   0.2040 B(  5-Au, 13-Au) :   0.1877
B(  5-Au, 16-Cr) :   0.2825 B(  6-Au,  7-Au) :   0.1207 B(  6-Au,  9-Au) :   0.1088
B(  6-Au, 11-Au) :   0.1816 B(  6-Au, 16-Cr) :   0.4904 B(  7-Au,  8-Au) :   0.2023
B(  7-Au,  9-Au) :   0.1218 B(  7-Au, 16-Cr) :   0.4140 B(  8-Au, 16-Cr) :   0.5456
B(  9-Au, 11-Au) :   0.1822 B(  9-Au, 15-Au) :   0.1942 B(  9-Au, 16-Cr) :   0.4886
B( 10-Au, 11-Au) :   0.2817 B( 10-Au, 12-Au) :   0.1880 B( 10-Au, 13-Au) :   0.2534
B( 10-Au, 16-Cr) :   0.2695 B( 11-Au, 12-Au) :   0.2823 B( 11-Au, 15-Au) :   0.1469
B( 11-Au, 16-Cr) :   0.4906 B( 12-Au, 13-Au) :   0.2574 B( 12-Au, 14-Au) :   0.2023
B( 12-Au, 15-Au) :   0.2404 B( 12-Au, 16-Cr) :   0.2712 B( 13-Au, 14-Au) :   0.1850
B( 14-Au, 15-Au) :   0.3191 B( 14-Au, 16-Cr) :   0.2857 B( 15-Au, 16-Cr) :   0.5089

MP2 TOTAL ENERGY:    -3213.698058812 Eh
FINAL SINGLE POINT ENERGY     -3213.698058811773

DIPOLE MOMENT
-------------
                                X             Y             Z
Electronic contribution:     33.28117      25.57516      11.49617
Nuclear contribution   :    -33.65325     -26.05730     -11.79720
                        -----------------------------------------
Total Dipole Moment    :     -0.37208      -0.48214      -0.30103
                        -----------------------------------------
Magnitude (a.u.)       :      0.67935
Magnitude (Debye)      :      1.72678

Rotational constants in cm-1:     0.001036     0.000728     0.000692
Rotational constants in MHz :    31.059646    21.811119    20.739945

                             ****ORCA TERMINATED NORMALLY****
TOTAL RUN TIME: 0 days 1 hours 56 minutes 48 seconds 191 msec
