                         Program Version 5.0.3 -  RELEASE  -
|  1> !R2SCAN def2-TZVP VERYSLOWCONV
|  2> !KDIIS
|  3> %scf
|  4>   AutoTRAHIter 200
|  5>   maxiter 400
|  6> end
|  7>
|  8> %pal nprocs 6 end
|  9>
| 10> *xyzfile 0 5 pbe.xyz
| 11>
| 12> $new_job
| 13>
| 14> !R2SCAN def2-TZVP VERYSLOWCONV
| 15> !KDIIS
| 16> %scf
| 17>   AutoTRAHIter 200
| 18>   maxiter 400
| 19> end
| 20>
| 21>
| 22> %pal nprocs 6 end
| 23>
| 24> *xyzfile 0 3 pbe.xyz
| 25>
| 26>
| 27>
| 28>
| 29>
| 30>                          ****END OF INPUT****
 Total Charge           Charge          ....    0
 Multiplicity           Mult            ....    5
 Number of Electrons    NEL             ....  328
FINAL SINGLE POINT ENERGY     -3218.024131388545

CARTESIAN COORDINATES (ANGSTROEM)
---------------------------------
  Au     5.879823    5.485337    9.311747
  Au     6.423666    7.986971   10.240766
  Au     7.569675   10.500910   10.126868
  Au     5.742707    9.818213    8.168156
  Au     7.477773    9.324583    5.777173
  Au     8.088149   11.353753    7.543332
  Au     7.004002    6.709960    4.975774
  Au     4.928577    5.573144    6.653082
  Au     4.806158    8.336404    6.084204
  Au     7.701190    4.846816    7.079044
  Au    10.107974    9.671301    6.647817
  Au     9.351958    7.019334    6.463780
  Au    10.774188    7.896587    8.665704
  Au    10.245913   10.585619    9.314972
  Au     9.189922    8.391549   10.892573
  Au     8.653989    6.199183    9.308467
  Cr     6.793040    7.367896    7.619068

 Multiplicity           Mult            ....    3
 Number of Electrons    NEL             ....  328
 Basis Dimension        Dim             ....  685

ORBITAL ENERGIES
----------------
                 SPIN UP ORBITALS
  NO   OCC          E(Eh)            E(eV)
   0   1.0000    -215.293696     -5858.4393
   1   1.0000     -24.594285      -669.2445
   2   1.0000     -20.862495      -567.6973
   3   1.0000     -20.861584      -567.6726
   4   1.0000     -20.856731      -567.5405
   5   1.0000      -4.128668      -112.3468
   6   1.0000      -4.128616      -112.3453
   7   1.0000      -4.127649      -112.3191
   8   1.0000      -4.125609      -112.2635
   9   1.0000      -4.125524      -112.2612
  10   1.0000      -4.123988      -112.2194
  11   1.0000      -4.123877      -112.2164
  12   1.0000      -4.120132      -112.1145
  13   1.0000      -4.120013      -112.1113
  14   1.0000      -4.115381      -111.9852
  15   1.0000      -4.113001      -111.9204
  16   1.0000      -4.112806      -111.9152
  17   1.0000      -4.110514      -111.8528
  18   1.0000      -4.110495      -111.8522
  19   1.0000      -4.110480      -111.8519
  20   1.0000      -4.100891      -111.5909
  21   1.0000      -2.917155       -79.3798
  22   1.0000      -2.318429       -63.0877
  23   1.0000      -2.318255       -63.0829
  24   1.0000      -2.317453       -63.0611
  25   1.0000      -2.314190       -62.9723
  26   1.0000      -2.314079       -62.9693
  27   1.0000      -2.313706       -62.9591
  28   1.0000      -2.313477       -62.9529
  29   1.0000      -2.313125       -62.9433
  30   1.0000      -2.313046       -62.9412
  31   1.0000      -2.312352       -62.9223
  32   1.0000      -2.312130       -62.9163
  33   1.0000      -2.311438       -62.8974
  34   1.0000      -2.311332       -62.8945
  35   1.0000      -2.310881       -62.8823
  36   1.0000      -2.310695       -62.8772
  37   1.0000      -2.309917       -62.8560
  38   1.0000      -2.309648       -62.8487
  39   1.0000      -2.308979       -62.8305
  40   1.0000      -2.308885       -62.8279
  41   1.0000      -2.308588       -62.8199
  42   1.0000      -2.308358       -62.8136
  43   1.0000      -2.306452       -62.7617
  44   1.0000      -2.305768       -62.7431
  45   1.0000      -2.305223       -62.7283
  46   1.0000      -2.305095       -62.7248
  47   1.0000      -2.303826       -62.6903
  48   1.0000      -2.302732       -62.6605
  49   1.0000      -2.302599       -62.6569
  50   1.0000      -2.302521       -62.6548
  51   1.0000      -2.302389       -62.6512
  52   1.0000      -2.300804       -62.6081
  53   1.0000      -2.300114       -62.5893
  54   1.0000      -2.299244       -62.5656
  55   1.0000      -2.298916       -62.5567
  56   1.0000      -2.297793       -62.5261
  57   1.0000      -2.297747       -62.5249
  58   1.0000      -2.296922       -62.5024
  59   1.0000      -2.296603       -62.4937
  60   1.0000      -2.296510       -62.4912
  61   1.0000      -2.296250       -62.4841
  62   1.0000      -2.295474       -62.4630
  63   1.0000      -2.294623       -62.4399
  64   1.0000      -2.293938       -62.4212
  65   1.0000      -2.293266       -62.4029
  66   1.0000      -2.293219       -62.4017
  67   1.0000      -2.288050       -62.2610
  68   1.0000      -2.287424       -62.2440
  69   1.0000      -2.283266       -62.1308
  70   1.0000      -1.866161       -50.7808
  71   1.0000      -1.864796       -50.7437
  72   1.0000      -1.860950       -50.6390
  73   1.0000      -0.434608       -11.8263
  74   1.0000      -0.397094       -10.8055
  75   1.0000      -0.395709       -10.7678
  76   1.0000      -0.392836       -10.6896
  77   1.0000      -0.383985       -10.4488
  78   1.0000      -0.381878       -10.3914
  79   1.0000      -0.377334       -10.2678
  80   1.0000      -0.372607       -10.1392
  81   1.0000      -0.371144       -10.0993
  82   1.0000      -0.370108       -10.0712
  83   1.0000      -0.368155       -10.0180
  84   1.0000      -0.367177        -9.9914
  85   1.0000      -0.364049        -9.9063
  86   1.0000      -0.361698        -9.8423
  87   1.0000      -0.360468        -9.8088
  88   1.0000      -0.360238        -9.8026
  89   1.0000      -0.359275        -9.7764
  90   1.0000      -0.355850        -9.6832
  91   1.0000      -0.352791        -9.5999
  92   1.0000      -0.351745        -9.5715
  93   1.0000      -0.351010        -9.5515
  94   1.0000      -0.350020        -9.5245
  95   1.0000      -0.347500        -9.4560
  96   1.0000      -0.346599        -9.4314
  97   1.0000      -0.345468        -9.4007
  98   1.0000      -0.343764        -9.3543
  99   1.0000      -0.342327        -9.3152
 100   1.0000      -0.341271        -9.2865
 101   1.0000      -0.338546        -9.2123
 102   1.0000      -0.336232        -9.1493
 103   1.0000      -0.335517        -9.1299
 104   1.0000      -0.330913        -9.0046
 105   1.0000      -0.330283        -8.9875
 106   1.0000      -0.327418        -8.9095
 107   1.0000      -0.326793        -8.8925
 108   1.0000      -0.318602        -8.6696
 109   1.0000      -0.318491        -8.6666
 110   1.0000      -0.317229        -8.6322
 111   1.0000      -0.315780        -8.5928
 112   1.0000      -0.315243        -8.5782
 113   1.0000      -0.312985        -8.5168
 114   1.0000      -0.307262        -8.3610
 115   1.0000      -0.304498        -8.2858
 116   1.0000      -0.303587        -8.2610
 117   1.0000      -0.301176        -8.1954
 118   1.0000      -0.297003        -8.0819
 119   1.0000      -0.294341        -8.0094
 120   1.0000      -0.292850        -7.9688
 121   1.0000      -0.290882        -7.9153
 122   1.0000      -0.288329        -7.8458
 123   1.0000      -0.288160        -7.8412
 124   1.0000      -0.286561        -7.7977
 125   1.0000      -0.285115        -7.7584
 126   1.0000      -0.284735        -7.7480
 127   1.0000      -0.284058        -7.7296
 128   1.0000      -0.283901        -7.7253
 129   1.0000      -0.281253        -7.6533
 130   1.0000      -0.279456        -7.6044
 131   1.0000      -0.278870        -7.5884
 132   1.0000      -0.276372        -7.5205
 133   1.0000      -0.275384        -7.4936
 134   1.0000      -0.272972        -7.4279
 135   1.0000      -0.271902        -7.3988
 136   1.0000      -0.271617        -7.3911
 137   1.0000      -0.268670        -7.3109
 138   1.0000      -0.267985        -7.2922
 139   1.0000      -0.267502        -7.2791
 140   1.0000      -0.267122        -7.2688
 141   1.0000      -0.266446        -7.2504
 142   1.0000      -0.265225        -7.2171
 143   1.0000      -0.265016        -7.2115
 144   1.0000      -0.264394        -7.1945
 145   1.0000      -0.259024        -7.0484
 146   1.0000      -0.256003        -6.9662
 147   1.0000      -0.255945        -6.9646
 148   1.0000      -0.254314        -6.9202
 149   1.0000      -0.252862        -6.8807
 150   1.0000      -0.250544        -6.8176
 151   1.0000      -0.248868        -6.7720
 152   1.0000      -0.248063        -6.7501
 153   1.0000      -0.247974        -6.7477
 154   1.0000      -0.246145        -6.6980
 155   1.0000      -0.243494        -6.6258
 156   1.0000      -0.237871        -6.4728
 157   1.0000      -0.230248        -6.2654
 158   1.0000      -0.228539        -6.2189
 159   1.0000      -0.228260        -6.2113
 160   1.0000      -0.223318        -6.0768
 161   1.0000      -0.221228        -6.0199
 162   1.0000      -0.210101        -5.7171
 163   1.0000      -0.208042        -5.6611
 164   1.0000      -0.204082        -5.5533
 165   0.0000      -0.186156        -5.0656
 166   0.0000      -0.182088        -4.9549
 167   0.0000      -0.157271        -4.2796
 168   0.0000      -0.140373        -3.8197
 169   0.0000      -0.134688        -3.6650

                 SPIN DOWN ORBITALS
  NO   OCC          E(Eh)            E(eV)
   0   1.0000    -215.293111     -5858.4234
   1   1.0000     -24.531362      -667.5323
   2   1.0000     -20.817109      -566.4623
   3   1.0000     -20.814409      -566.3889
   4   1.0000     -20.803986      -566.1052
   5   1.0000      -4.128335      -112.3377
   6   1.0000      -4.128280      -112.3362
   7   1.0000      -4.127060      -112.3030
   8   1.0000      -4.125487      -112.2602
   9   1.0000      -4.125397      -112.2577
  10   1.0000      -4.123492      -112.2059
  11   1.0000      -4.123381      -112.2029
  12   1.0000      -4.119993      -112.1107
  13   1.0000      -4.119874      -112.1075
  14   1.0000      -4.115714      -111.9943
  15   1.0000      -4.113719      -111.9400
  16   1.0000      -4.113524      -111.9347
  17   1.0000      -4.111294      -111.8740
  18   1.0000      -4.111278      -111.8736
  19   1.0000      -4.110442      -111.8508
  20   1.0000      -4.102011      -111.6214
  21   1.0000      -2.751744       -74.8788
  22   1.0000      -2.317727       -63.0686
  23   1.0000      -2.317554       -63.0639
  24   1.0000      -2.316655       -63.0394
  25   1.0000      -2.313628       -62.9570
  26   1.0000      -2.313414       -62.9512
  27   1.0000      -2.312962       -62.9389
  28   1.0000      -2.312924       -62.9379
  29   1.0000      -2.312372       -62.9228
  30   1.0000      -2.312279       -62.9203
  31   1.0000      -2.311945       -62.9112
  32   1.0000      -2.311724       -62.9052
  33   1.0000      -2.311075       -62.8875
  34   1.0000      -2.310455       -62.8707
  35   1.0000      -2.310218       -62.8642
  36   1.0000      -2.310072       -62.8603
  37   1.0000      -2.309944       -62.8568
  38   1.0000      -2.309598       -62.8474
  39   1.0000      -2.308680       -62.8224
  40   1.0000      -2.308108       -62.8068
  41   1.0000      -2.307991       -62.8036
  42   1.0000      -2.307771       -62.7976
  43   1.0000      -2.306140       -62.7533
  44   1.0000      -2.305527       -62.7366
  45   1.0000      -2.305110       -62.7252
  46   1.0000      -2.304951       -62.7209
  47   1.0000      -2.304104       -62.6979
  48   1.0000      -2.303288       -62.6757
  49   1.0000      -2.303103       -62.6706
  50   1.0000      -2.302385       -62.6511
  51   1.0000      -2.302295       -62.6486
  52   1.0000      -2.301534       -62.6279
  53   1.0000      -2.300773       -62.6072
  54   1.0000      -2.299953       -62.5849
  55   1.0000      -2.299610       -62.5756
  56   1.0000      -2.298548       -62.5467
  57   1.0000      -2.297626       -62.5216
  58   1.0000      -2.297360       -62.5143
  59   1.0000      -2.297117       -62.5077
  60   1.0000      -2.297101       -62.5073
  61   1.0000      -2.296130       -62.4809
  62   1.0000      -2.295987       -62.4770
  63   1.0000      -2.295240       -62.4567
  64   1.0000      -2.293884       -62.4198
  65   1.0000      -2.293799       -62.4174
  66   1.0000      -2.293716       -62.4152
  67   1.0000      -2.289176       -62.2916
  68   1.0000      -2.288601       -62.2760
  69   1.0000      -2.283867       -62.1472
  70   1.0000      -1.710870       -46.5551
  71   1.0000      -1.704119       -46.3714
  72   1.0000      -1.681655       -45.7602
  73   1.0000      -0.429543       -11.6885
  74   1.0000      -0.397515       -10.8169
  75   1.0000      -0.395306       -10.7568
  76   1.0000      -0.391534       -10.6542
  77   1.0000      -0.383455       -10.4343
  78   1.0000      -0.379616       -10.3299
  79   1.0000      -0.373931       -10.1752
  80   1.0000      -0.371906       -10.1201
  81   1.0000      -0.371548       -10.1103
  82   1.0000      -0.368876       -10.0376
  83   1.0000      -0.367730       -10.0065
  84   1.0000      -0.367596       -10.0028
  85   1.0000      -0.363321        -9.8865
  86   1.0000      -0.361615        -9.8400
  87   1.0000      -0.361019        -9.8238
  88   1.0000      -0.359723        -9.7886
  89   1.0000      -0.359345        -9.7783
  90   1.0000      -0.355907        -9.6847
  91   1.0000      -0.353979        -9.6323
  92   1.0000      -0.352550        -9.5934
  93   1.0000      -0.352353        -9.5880
  94   1.0000      -0.351629        -9.5683
  95   1.0000      -0.348149        -9.4736
  96   1.0000      -0.347607        -9.4589
  97   1.0000      -0.346443        -9.4272
  98   1.0000      -0.343823        -9.3559
  99   1.0000      -0.342888        -9.3305
 100   1.0000      -0.341138        -9.2828
 101   1.0000      -0.337547        -9.1851
 102   1.0000      -0.335851        -9.1390
 103   1.0000      -0.335657        -9.1337
 104   1.0000      -0.331922        -9.0320
 105   1.0000      -0.330739        -8.9999
 106   1.0000      -0.326143        -8.8748
 107   1.0000      -0.325457        -8.8561
 108   1.0000      -0.319610        -8.6970
 109   1.0000      -0.318733        -8.6732
 110   1.0000      -0.317563        -8.6413
 111   1.0000      -0.316803        -8.6207
 112   1.0000      -0.314609        -8.5609
 113   1.0000      -0.309761        -8.4290
 114   1.0000      -0.308108        -8.3840
 115   1.0000      -0.304873        -8.2960
 116   1.0000      -0.304608        -8.2888
 117   1.0000      -0.300517        -8.1775
 118   1.0000      -0.296118        -8.0578
 119   1.0000      -0.294147        -8.0041
 120   1.0000      -0.293625        -7.9900
 121   1.0000      -0.291356        -7.9282
 122   1.0000      -0.289211        -7.8698
 123   1.0000      -0.288941        -7.8625
 124   1.0000      -0.287509        -7.8235
 125   1.0000      -0.285393        -7.7659
 126   1.0000      -0.285120        -7.7585
 127   1.0000      -0.284428        -7.7397
 128   1.0000      -0.284234        -7.7344
 129   1.0000      -0.282758        -7.6942
 130   1.0000      -0.279927        -7.6172
 131   1.0000      -0.279398        -7.6028
 132   1.0000      -0.276975        -7.5369
 133   1.0000      -0.276852        -7.5335
 134   1.0000      -0.273844        -7.4517
 135   1.0000      -0.273492        -7.4421
 136   1.0000      -0.273157        -7.4330
 137   1.0000      -0.269804        -7.3417
 138   1.0000      -0.268990        -7.3196
 139   1.0000      -0.268849        -7.3158
 140   1.0000      -0.268115        -7.2958
 141   1.0000      -0.267862        -7.2889
 142   1.0000      -0.267644        -7.2830
 143   1.0000      -0.266536        -7.2528
 144   1.0000      -0.265975        -7.2376
 145   1.0000      -0.258852        -7.0437
 146   1.0000      -0.258187        -7.0256
 147   1.0000      -0.257171        -6.9980
 148   1.0000      -0.256195        -6.9714
 149   1.0000      -0.255841        -6.9618
 150   1.0000      -0.252217        -6.8632
 151   1.0000      -0.250613        -6.8195
 152   1.0000      -0.249985        -6.8024
 153   1.0000      -0.249659        -6.7936
 154   1.0000      -0.247447        -6.7334
 155   1.0000      -0.245866        -6.6904
 156   1.0000      -0.237668        -6.4673
 157   1.0000      -0.228550        -6.2192
 158   1.0000      -0.228174        -6.2089
 159   1.0000      -0.221664        -6.0318
 160   1.0000      -0.212055        -5.7703
 161   1.0000      -0.201860        -5.4929
 162   1.0000      -0.175738        -4.7821
 163   0.0000      -0.151733        -4.1289
 164   0.0000      -0.145236        -3.9521
 165   0.0000      -0.143182        -3.8962
 166   0.0000      -0.127422        -3.4673
 167   0.0000      -0.124325        -3.3831

MULLIKEN ATOMIC CHARGES AND SPIN POPULATIONS
--------------------------------------------
   0 Au:    0.465015   -0.008891
   1 Au:    0.151793   -0.086167
   2 Au:    0.138104    0.012527
   3 Au:    0.151438   -0.086026
   4 Au:    0.072742   -0.144249
   5 Au:    0.155427   -0.093833
   6 Au:    0.622968   -0.001443
   7 Au:    0.277673   -0.258385
   8 Au:    0.464359   -0.008425
   9 Au:    0.622229   -0.000118
  10 Au:    0.172367   -0.076660
  11 Au:   -0.058415   -0.100592
  12 Au:    0.171431   -0.076697
  13 Au:    0.029593   -0.288939
  14 Au:    0.154661   -0.096018
  15 Au:    0.075250   -0.142972
  16 Cr:   -3.666636    3.456888
Sum of atomic charges         :   -0.0000000

LOEWDIN ATOMIC CHARGES AND SPIN POPULATIONS
-------------------------------------------
   0 Au:    0.154122   -0.068666
   1 Au:    0.076760   -0.087863
   2 Au:    0.014781   -0.056321
   3 Au:    0.076101   -0.087576
   4 Au:    0.040624   -0.099580
   5 Au:    0.037032   -0.110021
   6 Au:    0.131385   -0.047760
   7 Au:    0.095593   -0.154366
   8 Au:    0.154446   -0.068721
   9 Au:    0.131208   -0.046811
  10 Au:    0.028075   -0.122254
  11 Au:    0.046718   -0.064715
  12 Au:    0.027463   -0.122291
  13 Au:   -0.029819   -0.176503
  14 Au:    0.037317   -0.111039
  15 Au:    0.041030   -0.099280
  16 Cr:   -1.062835    3.523769

  Mayer bond orders larger than 0.100000
B(  0-Au,  1-Au) :   0.3234 B(  0-Au,  7-Au) :   0.2235 B(  0-Au,  9-Au) :   0.1031
B(  0-Au, 15-Au) :   0.1344 B(  0-Au, 16-Cr) :   0.6377 B(  1-Au,  2-Au) :   0.2320
B(  1-Au,  3-Au) :   0.2602 B(  1-Au, 14-Au) :   0.1694 B(  1-Au, 16-Cr) :   0.5741
B(  2-Au,  3-Au) :   0.2333 B(  2-Au,  5-Au) :   0.2487 B(  2-Au, 13-Au) :   0.2978
B(  2-Au, 14-Au) :   0.2500 B(  2-Au, 16-Cr) :   0.2570 B(  3-Au,  5-Au) :   0.1709
B(  3-Au,  8-Au) :   0.3229 B(  3-Au, 16-Cr) :   0.5719 B(  4-Au,  5-Au) :   0.3331
B(  4-Au,  6-Au) :   0.2345 B(  4-Au,  8-Au) :   0.1346 B(  4-Au, 10-Au) :   0.2420
B(  4-Au, 11-Au) :   0.1382 B(  4-Au, 16-Cr) :   0.5740 B(  5-Au, 10-Au) :   0.2170
B(  5-Au, 13-Au) :   0.2136 B(  5-Au, 16-Cr) :   0.2610 B(  6-Au,  7-Au) :   0.1348
B(  6-Au,  8-Au) :   0.1035 B(  6-Au,  9-Au) :   0.1431 B(  6-Au, 11-Au) :   0.2107
B(  6-Au, 16-Cr) :   0.5817 B(  7-Au,  8-Au) :   0.2250 B(  7-Au,  9-Au) :   0.1362
B(  7-Au, 16-Cr) :   0.4658 B(  8-Au, 16-Cr) :   0.6370 B(  9-Au, 11-Au) :   0.2112
B(  9-Au, 15-Au) :   0.2348 B(  9-Au, 16-Cr) :   0.5784 B( 10-Au, 11-Au) :   0.3005
B( 10-Au, 12-Au) :   0.2178 B( 10-Au, 13-Au) :   0.2764 B( 10-Au, 16-Cr) :   0.2657
B( 11-Au, 12-Au) :   0.2999 B( 11-Au, 15-Au) :   0.1394 B( 11-Au, 16-Cr) :   0.4668
B( 12-Au, 13-Au) :   0.2811 B( 12-Au, 14-Au) :   0.2164 B( 12-Au, 15-Au) :   0.2427
B( 12-Au, 16-Cr) :   0.2657 B( 13-Au, 14-Au) :   0.2108 B( 14-Au, 15-Au) :   0.3319
B( 14-Au, 16-Cr) :   0.2638 B( 15-Au, 16-Cr) :   0.5743

FINAL SINGLE POINT ENERGY     -3218.011281921711

DIPOLE MOMENT
-------------
                                X             Y             Z
Electronic contribution:     33.22077      25.52208      11.46746
Nuclear contribution   :    -33.65325     -26.05730     -11.79720
                        -----------------------------------------
Total Dipole Moment    :     -0.43248      -0.53522      -0.32974
                        -----------------------------------------
Magnitude (a.u.)       :      0.76303
Magnitude (Debye)      :      1.93948

Rotational constants in cm-1:     0.001036     0.000728     0.000692
Rotational constants in MHz :    31.059646    21.811119    20.739945

                             ****ORCA TERMINATED NORMALLY****
TOTAL RUN TIME: 0 days 0 hours 38 minutes 34 seconds 366 msec
