                         Program Version 5.0.3 -  RELEASE  -
|  1> !RI-B2PLYP def2-TZVP def2-TZVP/C
|  2> !RIJCOSX VERYSLOWCONV
|  3>
|  4> %scf
|  5>   AutoTRAHIter 200
|  6>   maxiter 400
|  7> end
|  8>
|  9>
| 10> %pal nprocs 6 end
| 11>
| 12> *xyzfile 0 5 pbe.xyz
| 13>
| 14> $new_job
| 15>
| 16> !RI-B2PLYP def2-TZVP def2-TZVP/C
| 17> !RIJCOSX VERYSLOWCONV
| 18>
| 19> %scf
| 20>   AutoTRAHIter 200
| 21>   maxiter 400
| 22> end
| 23>
| 24>
| 25> %pal nprocs 6 end
| 26>
| 27> *xyzfile 0 3 pbe.xyz
| 28>
| 29>
| 30>
| 31>
| 32>
| 33>                          ****END OF INPUT****
 Total Charge           Charge          ....    0
 Multiplicity           Mult            ....    5
 Number of Electrons    NEL             ....  290
MP2 TOTAL ENERGY:    -2942.506863231 Eh
FINAL SINGLE POINT ENERGY     -2942.506863230846

CARTESIAN COORDINATES (ANGSTROEM)
---------------------------------
  Au     4.620924    7.962592    8.657042
  Au     6.170590    9.868511    9.762963
  Au     8.939757    9.833446    9.582976
  Au     6.442240    5.690700    8.514678
  Au     7.511787    7.395638   10.345731
  Au     9.775526    7.533703    8.409221
  Au     7.425299   10.933466    7.444752
  Au     7.006499    9.325960    5.317312
  Au     5.257617    7.097933    6.174802
  Au     6.963945    6.861595    3.997784
  Au     9.041311    7.436620    5.775477
  Au     8.923860    4.933958    4.523086
  Au     6.509357    4.662551    5.930417
  Au     8.906735    5.139386    7.323560
  Cr     7.231108    8.258369    7.816341

 Multiplicity           Mult            ....    3
 Number of Electrons    NEL             ....  290
 Basis Dimension        Dim             ....  605

ORBITAL ENERGIES
----------------
                 SPIN UP ORBITALS
  NO   OCC          E(Eh)            E(eV)
   0   1.0000    -217.776375     -5925.9964
   1   1.0000     -25.464487      -692.9239
   2   1.0000     -21.605007      -587.9021
   3   1.0000     -21.602896      -587.8447
   4   1.0000     -21.597544      -587.6991
   5   1.0000      -4.407649      -119.9382
   6   1.0000      -4.406035      -119.8943
   7   1.0000      -4.405627      -119.8832
   8   1.0000      -4.405014      -119.8665
   9   1.0000      -4.404455      -119.8513
  10   1.0000      -4.396970      -119.6476
  11   1.0000      -4.396038      -119.6223
  12   1.0000      -4.393768      -119.5605
  13   1.0000      -4.393281      -119.5473
  14   1.0000      -4.392233      -119.5187
  15   1.0000      -4.391962      -119.5114
  16   1.0000      -4.387858      -119.3997
  17   1.0000      -4.386275      -119.3566
  18   1.0000      -4.379167      -119.1632
  19   1.0000      -3.250640       -88.4544
  20   1.0000      -2.527730       -68.7830
  21   1.0000      -2.527539       -68.7778
  22   1.0000      -2.526250       -68.7428
  23   1.0000      -2.525755       -68.7293
  24   1.0000      -2.525276       -68.7163
  25   1.0000      -2.524354       -68.6912
  26   1.0000      -2.523797       -68.6760
  27   1.0000      -2.523559       -68.6695
  28   1.0000      -2.523491       -68.6677
  29   1.0000      -2.522773       -68.6482
  30   1.0000      -2.522186       -68.6322
  31   1.0000      -2.521507       -68.6137
  32   1.0000      -2.521148       -68.6039
  33   1.0000      -2.519105       -68.5483
  34   1.0000      -2.518445       -68.5304
  35   1.0000      -2.517722       -68.5107
  36   1.0000      -2.515097       -68.4393
  37   1.0000      -2.514304       -68.4177
  38   1.0000      -2.512991       -68.3820
  39   1.0000      -2.512345       -68.3644
  40   1.0000      -2.512132       -68.3586
  41   1.0000      -2.511937       -68.3533
  42   1.0000      -2.511716       -68.3473
  43   1.0000      -2.511500       -68.3414
  44   1.0000      -2.511390       -68.3384
  45   1.0000      -2.510793       -68.3222
  46   1.0000      -2.510472       -68.3134
  47   1.0000      -2.510235       -68.3070
  48   1.0000      -2.510118       -68.3038
  49   1.0000      -2.509756       -68.2939
  50   1.0000      -2.508563       -68.2615
  51   1.0000      -2.507839       -68.2418
  52   1.0000      -2.506688       -68.2104
  53   1.0000      -2.505867       -68.1881
  54   1.0000      -2.505252       -68.1714
  55   1.0000      -2.503779       -68.1313
  56   1.0000      -2.502743       -68.1031
  57   1.0000      -2.501638       -68.0730
  58   1.0000      -2.498433       -67.9858
  59   1.0000      -2.497200       -67.9523
  60   1.0000      -2.495965       -67.9187
  61   1.0000      -2.495580       -67.9082
  62   1.0000      -2.142803       -58.3086
  63   1.0000      -2.132680       -58.0332
  64   1.0000      -2.128002       -57.9059
  65   1.0000      -0.492432       -13.3997
  66   1.0000      -0.484312       -13.1788
  67   1.0000      -0.477861       -13.0033
  68   1.0000      -0.473499       -12.8846
  69   1.0000      -0.471428       -12.8282
  70   1.0000      -0.468933       -12.7603
  71   1.0000      -0.465562       -12.6686
  72   1.0000      -0.462905       -12.5963
  73   1.0000      -0.459409       -12.5012
  74   1.0000      -0.458131       -12.4664
  75   1.0000      -0.454908       -12.3787
  76   1.0000      -0.453612       -12.3434
  77   1.0000      -0.452949       -12.3254
  78   1.0000      -0.449736       -12.2379
  79   1.0000      -0.448634       -12.2080
  80   1.0000      -0.446402       -12.1472
  81   1.0000      -0.445668       -12.1272
  82   1.0000      -0.443090       -12.0571
  83   1.0000      -0.439997       -11.9729
  84   1.0000      -0.438542       -11.9333
  85   1.0000      -0.434387       -11.8203
  86   1.0000      -0.433544       -11.7973
  87   1.0000      -0.430674       -11.7192
  88   1.0000      -0.429938       -11.6992
  89   1.0000      -0.426840       -11.6149
  90   1.0000      -0.423347       -11.5199
  91   1.0000      -0.420451       -11.4411
  92   1.0000      -0.416563       -11.3352
  93   1.0000      -0.415350       -11.3023
  94   1.0000      -0.414352       -11.2751
  95   1.0000      -0.407730       -11.0949
  96   1.0000      -0.406672       -11.0661
  97   1.0000      -0.405250       -11.0274
  98   1.0000      -0.403737       -10.9862
  99   1.0000      -0.403024       -10.9668
 100   1.0000      -0.401109       -10.9147
 101   1.0000      -0.395293       -10.7565
 102   1.0000      -0.394430       -10.7330
 103   1.0000      -0.391788       -10.6611
 104   1.0000      -0.391250       -10.6465
 105   1.0000      -0.388897       -10.5824
 106   1.0000      -0.386274       -10.5110
 107   1.0000      -0.381472       -10.3804
 108   1.0000      -0.380567       -10.3557
 109   1.0000      -0.378516       -10.2999
 110   1.0000      -0.374644       -10.1946
 111   1.0000      -0.372436       -10.1345
 112   1.0000      -0.371806       -10.1174
 113   1.0000      -0.367829       -10.0091
 114   1.0000      -0.366251        -9.9662
 115   1.0000      -0.364497        -9.9185
 116   1.0000      -0.362228        -9.8567
 117   1.0000      -0.361288        -9.8312
 118   1.0000      -0.358930        -9.7670
 119   1.0000      -0.358685        -9.7603
 120   1.0000      -0.356952        -9.7132
 121   1.0000      -0.356737        -9.7073
 122   1.0000      -0.355646        -9.6776
 123   1.0000      -0.354212        -9.6386
 124   1.0000      -0.352623        -9.5954
 125   1.0000      -0.351791        -9.5727
 126   1.0000      -0.349132        -9.5004
 127   1.0000      -0.346923        -9.4403
 128   1.0000      -0.345175        -9.3927
 129   1.0000      -0.342803        -9.3281
 130   1.0000      -0.342344        -9.3157
 131   1.0000      -0.340866        -9.2754
 132   1.0000      -0.337950        -9.1961
 133   1.0000      -0.335282        -9.1235
 134   1.0000      -0.334208        -9.0943
 135   1.0000      -0.332166        -9.0387
 136   1.0000      -0.331126        -9.0104
 137   1.0000      -0.328249        -8.9321
 138   1.0000      -0.326751        -8.8913
 139   1.0000      -0.322829        -8.7846
 140   1.0000      -0.316275        -8.6063
 141   1.0000      -0.295126        -8.0308
 142   1.0000      -0.292422        -7.9572
 143   1.0000      -0.244552        -6.6546
 144   1.0000      -0.233102        -6.3430
 145   1.0000      -0.222171        -6.0456
 146   0.0000      -0.124753        -3.3947
 147   0.0000      -0.096783        -2.6336
 148   0.0000      -0.092622        -2.5204
 149   0.0000      -0.079526        -2.1640
 150   0.0000      -0.069549        -1.8925

                 SPIN DOWN ORBITALS
  NO   OCC          E(Eh)            E(eV)
   0   1.0000    -217.775024     -5925.9597
   1   1.0000     -25.394998      -691.0330
   2   1.0000     -21.548448      -586.3631
   3   1.0000     -21.541175      -586.1652
   4   1.0000     -21.523215      -585.6765
   5   1.0000      -4.407486      -119.9338
   6   1.0000      -4.406260      -119.9004
   7   1.0000      -4.405395      -119.8769
   8   1.0000      -4.404579      -119.8547
   9   1.0000      -4.403624      -119.8287
  10   1.0000      -4.397622      -119.6654
  11   1.0000      -4.396979      -119.6479
  12   1.0000      -4.394277      -119.5743
  13   1.0000      -4.393827      -119.5621
  14   1.0000      -4.392699      -119.5314
  15   1.0000      -4.392514      -119.5264
  16   1.0000      -4.388520      -119.4177
  17   1.0000      -4.386179      -119.3540
  18   1.0000      -4.380710      -119.2052
  19   1.0000      -3.039227       -82.7016
  20   1.0000      -2.527656       -68.7810
  21   1.0000      -2.526778       -68.7571
  22   1.0000      -2.525561       -68.7240
  23   1.0000      -2.525333       -68.7178
  24   1.0000      -2.524669       -68.6997
  25   1.0000      -2.523088       -68.6567
  26   1.0000      -2.522975       -68.6536
  27   1.0000      -2.522509       -68.6410
  28   1.0000      -2.522112       -68.6302
  29   1.0000      -2.521950       -68.6258
  30   1.0000      -2.521562       -68.6152
  31   1.0000      -2.521377       -68.6102
  32   1.0000      -2.520300       -68.5808
  33   1.0000      -2.518559       -68.5335
  34   1.0000      -2.517473       -68.5039
  35   1.0000      -2.516419       -68.4752
  36   1.0000      -2.515721       -68.4563
  37   1.0000      -2.514835       -68.4321
  38   1.0000      -2.513966       -68.4085
  39   1.0000      -2.513174       -68.3870
  40   1.0000      -2.512934       -68.3804
  41   1.0000      -2.512319       -68.3637
  42   1.0000      -2.511909       -68.3525
  43   1.0000      -2.511752       -68.3483
  44   1.0000      -2.511435       -68.3396
  45   1.0000      -2.511177       -68.3326
  46   1.0000      -2.510587       -68.3165
  47   1.0000      -2.510406       -68.3116
  48   1.0000      -2.510273       -68.3080
  49   1.0000      -2.509912       -68.2982
  50   1.0000      -2.509024       -68.2740
  51   1.0000      -2.507820       -68.2413
  52   1.0000      -2.505952       -68.1904
  53   1.0000      -2.505748       -68.1849
  54   1.0000      -2.505082       -68.1668
  55   1.0000      -2.504055       -68.1388
  56   1.0000      -2.502957       -68.1089
  57   1.0000      -2.501723       -68.0753
  58   1.0000      -2.498430       -67.9857
  59   1.0000      -2.498087       -67.9764
  60   1.0000      -2.496966       -67.9459
  61   1.0000      -2.496388       -67.9302
  62   1.0000      -1.916064       -52.1388
  63   1.0000      -1.899597       -51.6907
  64   1.0000      -1.858982       -50.5855
  65   1.0000      -0.488673       -13.2975
  66   1.0000      -0.471415       -12.8279
  67   1.0000      -0.469859       -12.7855
  68   1.0000      -0.466737       -12.7006
  69   1.0000      -0.465916       -12.6782
  70   1.0000      -0.462264       -12.5789
  71   1.0000      -0.460548       -12.5321
  72   1.0000      -0.459731       -12.5099
  73   1.0000      -0.458887       -12.4869
  74   1.0000      -0.456457       -12.4208
  75   1.0000      -0.453920       -12.3518
  76   1.0000      -0.453103       -12.3296
  77   1.0000      -0.451761       -12.2931
  78   1.0000      -0.449317       -12.2265
  79   1.0000      -0.447406       -12.1745
  80   1.0000      -0.446442       -12.1483
  81   1.0000      -0.444723       -12.1015
  82   1.0000      -0.442676       -12.0458
  83   1.0000      -0.440124       -11.9764
  84   1.0000      -0.437082       -11.8936
  85   1.0000      -0.432262       -11.7624
  86   1.0000      -0.432079       -11.7575
  87   1.0000      -0.428912       -11.6713
  88   1.0000      -0.425831       -11.5875
  89   1.0000      -0.423866       -11.5340
  90   1.0000      -0.419520       -11.4157
  91   1.0000      -0.418035       -11.3753
  92   1.0000      -0.416654       -11.3377
  93   1.0000      -0.413319       -11.2470
  94   1.0000      -0.409778       -11.1506
  95   1.0000      -0.407435       -11.0869
  96   1.0000      -0.406256       -11.0548
  97   1.0000      -0.403948       -10.9920
  98   1.0000      -0.402271       -10.9463
  99   1.0000      -0.401825       -10.9342
 100   1.0000      -0.396160       -10.7801
 101   1.0000      -0.392539       -10.6815
 102   1.0000      -0.390399       -10.6233
 103   1.0000      -0.388542       -10.5728
 104   1.0000      -0.387529       -10.5452
 105   1.0000      -0.384319       -10.4579
 106   1.0000      -0.380803       -10.3622
 107   1.0000      -0.380555       -10.3554
 108   1.0000      -0.376530       -10.2459
 109   1.0000      -0.375984       -10.2311
 110   1.0000      -0.372476       -10.1356
 111   1.0000      -0.371425       -10.1070
 112   1.0000      -0.368011       -10.0141
 113   1.0000      -0.367032        -9.9874
 114   1.0000      -0.365751        -9.9526
 115   1.0000      -0.363136        -9.8814
 116   1.0000      -0.361658        -9.8412
 117   1.0000      -0.359614        -9.7856
 118   1.0000      -0.358168        -9.7462
 119   1.0000      -0.357726        -9.7342
 120   1.0000      -0.357440        -9.7264
 121   1.0000      -0.355435        -9.6719
 122   1.0000      -0.355254        -9.6669
 123   1.0000      -0.352431        -9.5901
 124   1.0000      -0.350531        -9.5384
 125   1.0000      -0.348866        -9.4931
 126   1.0000      -0.347309        -9.4508
 127   1.0000      -0.346209        -9.4208
 128   1.0000      -0.343533        -9.3480
 129   1.0000      -0.341800        -9.3008
 130   1.0000      -0.337987        -9.1971
 131   1.0000      -0.337355        -9.1799
 132   1.0000      -0.334920        -9.1136
 133   1.0000      -0.333314        -9.0699
 134   1.0000      -0.330752        -9.0002
 135   1.0000      -0.326232        -8.8772
 136   1.0000      -0.317818        -8.6483
 137   1.0000      -0.309432        -8.4201
 138   1.0000      -0.305384        -8.3099
 139   1.0000      -0.260198        -7.0804
 140   1.0000      -0.238176        -6.4811
 141   1.0000      -0.235389        -6.4053
 142   1.0000      -0.226121        -6.1531
 143   1.0000      -0.182818        -4.9747
 144   0.0000      -0.101468        -2.7611
 145   0.0000      -0.080454        -2.1893
 146   0.0000      -0.075581        -2.0567
 147   0.0000      -0.069865        -1.9011
 148   0.0000      -0.053672        -1.4605

MULLIKEN ATOMIC CHARGES AND SPIN POPULATIONS
--------------------------------------------
   0 Au:    0.342319   -0.113275
   1 Au:    0.346561   -0.218949
   2 Au:    0.473648   -0.096194
   3 Au:    0.162611   -0.127225
   4 Au:    0.558577   -0.121434
   5 Au:    0.159972   -0.133973
   6 Au:    0.189837   -0.009783
   7 Au:    0.220383   -0.102621
   8 Au:    0.116964   -0.201535
   9 Au:    0.226550    0.049907
  10 Au:    0.019827    0.059154
  11 Au:    0.134914   -0.367546
  12 Au:    0.155078   -0.025548
  13 Au:    0.197581   -0.006136
  14 Cr:   -3.304821    3.415157
Sum of atomic charges         :   -0.0000000

LOEWDIN ATOMIC CHARGES AND SPIN POPULATIONS
-------------------------------------------
   0 Au:    0.130312   -0.126707
   1 Au:    0.033836   -0.129384
   2 Au:    0.094777   -0.119337
   3 Au:    0.052217   -0.146507
   4 Au:    0.102747   -0.146591
   5 Au:    0.106349   -0.100960
   6 Au:    0.101806   -0.081572
   7 Au:    0.110408   -0.067366
   8 Au:    0.044392   -0.113056
   9 Au:    0.035017   -0.057835
  10 Au:   -0.001787   -0.048329
  11 Au:    0.028979   -0.230952
  12 Au:    0.037782   -0.061059
  13 Au:    0.026456   -0.069901
  14 Cr:   -0.903290    3.499556

  Mayer bond orders larger than 0.100000
B(  0-Au,  1-Au) :   0.1993 B(  0-Au,  3-Au) :   0.1422 B(  0-Au,  8-Au) :   0.3371
B(  0-Au, 14-Cr) :   0.5997 B(  1-Au,  2-Au) :   0.1608 B(  1-Au,  4-Au) :   0.1039
B(  1-Au,  6-Au) :   0.1791 B(  1-Au, 14-Cr) :   0.5429 B(  2-Au,  4-Au) :   0.1293
B(  2-Au,  5-Au) :   0.2592 B(  2-Au,  6-Au) :   0.1619 B(  2-Au, 14-Cr) :   0.4137
B(  3-Au,  4-Au) :   0.2559 B(  3-Au,  8-Au) :   0.1362 B(  3-Au, 12-Au) :   0.2544
B(  3-Au, 13-Au) :   0.1633 B(  3-Au, 14-Cr) :   0.5944 B(  4-Au,  5-Au) :   0.1308
B(  4-Au, 14-Cr) :   0.5407 B(  5-Au, 10-Au) :   0.2899 B(  5-Au, 13-Au) :   0.1575
B(  5-Au, 14-Cr) :   0.5120 B(  6-Au,  7-Au) :   0.4094 B(  6-Au, 14-Cr) :   0.5711
B(  7-Au,  8-Au) :   0.1346 B(  7-Au,  9-Au) :   0.1995 B(  7-Au, 10-Au) :   0.1471
B(  7-Au, 14-Cr) :   0.5786 B(  8-Au,  9-Au) :   0.2430 B(  8-Au, 12-Au) :   0.2105
B(  8-Au, 14-Cr) :   0.4309 B(  9-Au, 10-Au) :   0.2168 B(  9-Au, 11-Au) :   0.2426
B(  9-Au, 12-Au) :   0.1362 B(  9-Au, 14-Cr) :   0.3276 B( 10-Au, 11-Au) :   0.3519
B( 10-Au, 13-Au) :   0.2734 B( 10-Au, 14-Cr) :   0.3892 B( 11-Au, 12-Au) :   0.2476
B( 11-Au, 13-Au) :   0.2127 B( 12-Au, 13-Au) :   0.2168 B( 12-Au, 14-Cr) :   0.3107
B( 13-Au, 14-Cr) :   0.3723

MP2 TOTAL ENERGY:    -2942.472017104 Eh
FINAL SINGLE POINT ENERGY     -2942.472017104190

DIPOLE MOMENT
-------------
                                X             Y             Z
Electronic contribution:      5.61567     -27.59320     -19.11887
Nuclear contribution   :     -5.68381      27.51724      19.28771
                        -----------------------------------------
Total Dipole Moment    :     -0.06814      -0.07596       0.16884
                        -----------------------------------------
Magnitude (a.u.)       :      0.19728
Magnitude (Debye)      :      0.50145

Rotational constants in cm-1:     0.001364     0.000834     0.000818
Rotational constants in MHz :    40.877836    25.009831    24.516101

                             ****ORCA TERMINATED NORMALLY****
TOTAL RUN TIME: 0 days 2 hours 24 minutes 10 seconds 268 msec
