                         Program Version 5.0.3 -  RELEASE  -
|  1> !PBE def2-TZVP VERYSLOWCONV
|  2>
|  3> %scf
|  4>   AutoTRAHIter 200
|  5>   maxiter 400
|  6> end
|  7>
|  8>
|  9> %pal nprocs 6 end
| 10>
| 11> *xyzfile 0 5 pbe.xyz
| 12>
| 13> $new_job
| 14>
| 15> !PBE def2-TZVP VERYSLOWCONV
| 16>
| 17> %scf
| 18>   AutoTRAHIter 200
| 19>   maxiter 400
| 20> end
| 21>
| 22>
| 23> %pal nprocs 6 end
| 24>
| 25> *xyzfile 0 3 pbe.xyz
| 26>
| 27>
| 28>
| 29>
| 30>
| 31>                          ****END OF INPUT****
 Total Charge           Charge          ....    0
 Multiplicity           Mult            ....    5
 Number of Electrons    NEL             ....  290
FINAL SINGLE POINT ENERGY     -2945.817312437209

CARTESIAN COORDINATES (ANGSTROEM)
---------------------------------
  Au     4.620924    7.962592    8.657042
  Au     6.170590    9.868511    9.762963
  Au     8.939757    9.833446    9.582976
  Au     6.442240    5.690700    8.514678
  Au     7.511787    7.395638   10.345731
  Au     9.775526    7.533703    8.409221
  Au     7.425299   10.933466    7.444752
  Au     7.006499    9.325960    5.317312
  Au     5.257617    7.097933    6.174802
  Au     6.963945    6.861595    3.997784
  Au     9.041311    7.436620    5.775477
  Au     8.923860    4.933958    4.523086
  Au     6.509357    4.662551    5.930417
  Au     8.906735    5.139386    7.323560
  Cr     7.231108    8.258369    7.816341

 Multiplicity           Mult            ....    3
 Number of Electrons    NEL             ....  290
 Basis Dimension        Dim             ....  605

ORBITAL ENERGIES
----------------
                 SPIN UP ORBITALS
  NO   OCC          E(Eh)            E(eV)
   0   1.0000    -214.508968     -5837.0858
   1   1.0000     -24.310017      -661.5092
   2   1.0000     -20.676527      -562.6369
   3   1.0000     -20.672561      -562.5290
   4   1.0000     -20.671562      -562.5018
   5   1.0000      -4.035486      -109.8112
   6   1.0000      -4.034710      -109.7900
   7   1.0000      -4.032326      -109.7252
   8   1.0000      -4.031919      -109.7141
   9   1.0000      -4.031377      -109.6994
  10   1.0000      -4.025060      -109.5275
  11   1.0000      -4.024560      -109.5138
  12   1.0000      -4.023936      -109.4969
  13   1.0000      -4.021966      -109.4433
  14   1.0000      -4.021326      -109.4258
  15   1.0000      -4.020117      -109.3930
  16   1.0000      -4.019791      -109.3841
  17   1.0000      -4.018402      -109.3463
  18   1.0000      -4.013567      -109.2147
  19   1.0000      -2.809047       -76.4381
  20   1.0000      -2.251378       -61.2631
  21   1.0000      -2.250572       -61.2412
  22   1.0000      -2.249929       -61.2237
  23   1.0000      -2.249203       -61.2039
  24   1.0000      -2.248461       -61.1837
  25   1.0000      -2.248013       -61.1715
  26   1.0000      -2.246725       -61.1365
  27   1.0000      -2.246163       -61.1212
  28   1.0000      -2.245792       -61.1111
  29   1.0000      -2.245594       -61.1057
  30   1.0000      -2.243897       -61.0595
  31   1.0000      -2.243159       -61.0395
  32   1.0000      -2.242534       -61.0225
  33   1.0000      -2.241908       -61.0054
  34   1.0000      -2.241674       -60.9991
  35   1.0000      -2.240285       -60.9613
  36   1.0000      -2.239393       -60.9370
  37   1.0000      -2.238995       -60.9261
  38   1.0000      -2.238016       -60.8995
  39   1.0000      -2.237408       -60.8830
  40   1.0000      -2.237368       -60.8819
  41   1.0000      -2.237054       -60.8733
  42   1.0000      -2.236888       -60.8688
  43   1.0000      -2.236774       -60.8657
  44   1.0000      -2.236581       -60.8605
  45   1.0000      -2.235876       -60.8413
  46   1.0000      -2.235415       -60.8287
  47   1.0000      -2.235015       -60.8178
  48   1.0000      -2.234180       -60.7951
  49   1.0000      -2.233936       -60.7885
  50   1.0000      -2.233424       -60.7746
  51   1.0000      -2.232833       -60.7585
  52   1.0000      -2.232331       -60.7448
  53   1.0000      -2.232290       -60.7437
  54   1.0000      -2.231276       -60.7161
  55   1.0000      -2.229902       -60.6787
  56   1.0000      -2.229375       -60.6644
  57   1.0000      -2.228454       -60.6393
  58   1.0000      -2.226873       -60.5963
  59   1.0000      -2.226615       -60.5893
  60   1.0000      -2.226378       -60.5828
  61   1.0000      -2.225030       -60.5461
  62   1.0000      -1.801589       -49.0237
  63   1.0000      -1.797259       -48.9059
  64   1.0000      -1.795803       -48.8663
  65   1.0000      -0.419289       -11.4094
  66   1.0000      -0.388534       -10.5726
  67   1.0000      -0.378154       -10.2901
  68   1.0000      -0.375120       -10.2075
  69   1.0000      -0.367743       -10.0068
  70   1.0000      -0.364159        -9.9093
  71   1.0000      -0.364024        -9.9056
  72   1.0000      -0.358675        -9.7600
  73   1.0000      -0.357976        -9.7410
  74   1.0000      -0.357279        -9.7221
  75   1.0000      -0.355024        -9.6607
  76   1.0000      -0.353374        -9.6158
  77   1.0000      -0.349092        -9.4993
  78   1.0000      -0.348155        -9.4738
  79   1.0000      -0.345815        -9.4101
  80   1.0000      -0.344497        -9.3742
  81   1.0000      -0.342784        -9.3276
  82   1.0000      -0.339144        -9.2286
  83   1.0000      -0.337877        -9.1941
  84   1.0000      -0.335808        -9.1378
  85   1.0000      -0.332112        -9.0372
  86   1.0000      -0.331549        -9.0219
  87   1.0000      -0.329218        -8.9585
  88   1.0000      -0.325294        -8.8517
  89   1.0000      -0.324066        -8.8183
  90   1.0000      -0.321069        -8.7367
  91   1.0000      -0.319921        -8.7055
  92   1.0000      -0.315645        -8.5891
  93   1.0000      -0.314460        -8.5569
  94   1.0000      -0.311006        -8.4629
  95   1.0000      -0.308627        -8.3982
  96   1.0000      -0.306164        -8.3311
  97   1.0000      -0.304932        -8.2976
  98   1.0000      -0.303691        -8.2639
  99   1.0000      -0.301465        -8.2033
 100   1.0000      -0.296920        -8.0796
 101   1.0000      -0.296621        -8.0715
 102   1.0000      -0.294780        -8.0214
 103   1.0000      -0.293729        -7.9928
 104   1.0000      -0.291869        -7.9422
 105   1.0000      -0.288396        -7.8476
 106   1.0000      -0.283909        -7.7256
 107   1.0000      -0.283372        -7.7110
 108   1.0000      -0.280289        -7.6270
 109   1.0000      -0.279280        -7.5996
 110   1.0000      -0.276064        -7.5121
 111   1.0000      -0.274941        -7.4815
 112   1.0000      -0.271898        -7.3987
 113   1.0000      -0.271309        -7.3827
 114   1.0000      -0.269931        -7.3452
 115   1.0000      -0.268871        -7.3164
 116   1.0000      -0.267194        -7.2707
 117   1.0000      -0.265526        -7.2253
 118   1.0000      -0.263439        -7.1685
 119   1.0000      -0.262766        -7.1502
 120   1.0000      -0.261736        -7.1222
 121   1.0000      -0.261123        -7.1055
 122   1.0000      -0.260041        -7.0761
 123   1.0000      -0.259071        -7.0497
 124   1.0000      -0.257432        -7.0051
 125   1.0000      -0.256440        -6.9781
 126   1.0000      -0.255855        -6.9622
 127   1.0000      -0.252713        -6.8767
 128   1.0000      -0.252420        -6.8687
 129   1.0000      -0.250780        -6.8241
 130   1.0000      -0.248647        -6.7660
 131   1.0000      -0.248102        -6.7512
 132   1.0000      -0.246447        -6.7062
 133   1.0000      -0.243853        -6.6356
 134   1.0000      -0.241823        -6.5803
 135   1.0000      -0.240204        -6.5363
 136   1.0000      -0.239420        -6.5150
 137   1.0000      -0.236839        -6.4447
 138   1.0000      -0.232495        -6.3265
 139   1.0000      -0.225997        -6.1497
 140   1.0000      -0.219876        -5.9831
 141   1.0000      -0.218862        -5.9555
 142   1.0000      -0.215787        -5.8719
 143   1.0000      -0.214558        -5.8384
 144   1.0000      -0.205876        -5.6022
 145   1.0000      -0.195414        -5.3175
 146   0.0000      -0.190621        -5.1871
 147   0.0000      -0.173667        -4.7257
 148   0.0000      -0.157560        -4.2874
 149   0.0000      -0.150660        -4.0997
 150   0.0000      -0.134352        -3.6559

                 SPIN DOWN ORBITALS
  NO   OCC          E(Eh)            E(eV)
   0   1.0000    -214.508555     -5837.0745
   1   1.0000     -24.265997      -660.3114
   2   1.0000     -20.645771      -561.8000
   3   1.0000     -20.638335      -561.5976
   4   1.0000     -20.635623      -561.5238
   5   1.0000      -4.035597      -109.8142
   6   1.0000      -4.034115      -109.7739
   7   1.0000      -4.032155      -109.7205
   8   1.0000      -4.031749      -109.7095
   9   1.0000      -4.030701      -109.6810
  10   1.0000      -4.025360      -109.5356
  11   1.0000      -4.024671      -109.5169
  12   1.0000      -4.024502      -109.5123
  13   1.0000      -4.022677      -109.4626
  14   1.0000      -4.021354      -109.4266
  15   1.0000      -4.020178      -109.3946
  16   1.0000      -4.019667      -109.3807
  17   1.0000      -4.018341      -109.3446
  18   1.0000      -4.014586      -109.2424
  19   1.0000      -2.690740       -73.2188
  20   1.0000      -2.251466       -61.2655
  21   1.0000      -2.249928       -61.2236
  22   1.0000      -2.249526       -61.2127
  23   1.0000      -2.248930       -61.1965
  24   1.0000      -2.248592       -61.1873
  25   1.0000      -2.247944       -61.1697
  26   1.0000      -2.246374       -61.1269
  27   1.0000      -2.245829       -61.1121
  28   1.0000      -2.245781       -61.1108
  29   1.0000      -2.244626       -61.0794
  30   1.0000      -2.244022       -61.0629
  31   1.0000      -2.242623       -61.0249
  32   1.0000      -2.241891       -61.0050
  33   1.0000      -2.241671       -60.9990
  34   1.0000      -2.241417       -60.9921
  35   1.0000      -2.240305       -60.9618
  36   1.0000      -2.239334       -60.9354
  37   1.0000      -2.238891       -60.9233
  38   1.0000      -2.238721       -60.9187
  39   1.0000      -2.237916       -60.8968
  40   1.0000      -2.237449       -60.8841
  41   1.0000      -2.237379       -60.8822
  42   1.0000      -2.237268       -60.8792
  43   1.0000      -2.237001       -60.8719
  44   1.0000      -2.236595       -60.8608
  45   1.0000      -2.236480       -60.8577
  46   1.0000      -2.235434       -60.8293
  47   1.0000      -2.235312       -60.8259
  48   1.0000      -2.234669       -60.8084
  49   1.0000      -2.234215       -60.7961
  50   1.0000      -2.233513       -60.7770
  51   1.0000      -2.232772       -60.7568
  52   1.0000      -2.232735       -60.7558
  53   1.0000      -2.232229       -60.7420
  54   1.0000      -2.231245       -60.7153
  55   1.0000      -2.230018       -60.6819
  56   1.0000      -2.229332       -60.6632
  57   1.0000      -2.228465       -60.6396
  58   1.0000      -2.228023       -60.6276
  59   1.0000      -2.227723       -60.6194
  60   1.0000      -2.226611       -60.5892
  61   1.0000      -2.225757       -60.5659
  62   1.0000      -1.694663       -46.1141
  63   1.0000      -1.678639       -45.6781
  64   1.0000      -1.671736       -45.4903
  65   1.0000      -0.415520       -11.3069
  66   1.0000      -0.386965       -10.5299
  67   1.0000      -0.378235       -10.2923
  68   1.0000      -0.375544       -10.2191
  69   1.0000      -0.366922        -9.9844
  70   1.0000      -0.363885        -9.9018
  71   1.0000      -0.361691        -9.8421
  72   1.0000      -0.357290        -9.7224
  73   1.0000      -0.356378        -9.6976
  74   1.0000      -0.354826        -9.6553
  75   1.0000      -0.354244        -9.6395
  76   1.0000      -0.351958        -9.5773
  77   1.0000      -0.349681        -9.5153
  78   1.0000      -0.347997        -9.4695
  79   1.0000      -0.345886        -9.4120
  80   1.0000      -0.344110        -9.3637
  81   1.0000      -0.343198        -9.3389
  82   1.0000      -0.339560        -9.2399
  83   1.0000      -0.338307        -9.2058
  84   1.0000      -0.334254        -9.0955
  85   1.0000      -0.332276        -9.0417
  86   1.0000      -0.330598        -8.9960
  87   1.0000      -0.328422        -8.9368
  88   1.0000      -0.324880        -8.8404
  89   1.0000      -0.322161        -8.7664
  90   1.0000      -0.321478        -8.7478
  91   1.0000      -0.319115        -8.6835
  92   1.0000      -0.316181        -8.6037
  93   1.0000      -0.314014        -8.5448
  94   1.0000      -0.310655        -8.4534
  95   1.0000      -0.308713        -8.4005
  96   1.0000      -0.306834        -8.3494
  97   1.0000      -0.305250        -8.3063
  98   1.0000      -0.303622        -8.2620
  99   1.0000      -0.301815        -8.2128
 100   1.0000      -0.297336        -8.0909
 101   1.0000      -0.296169        -8.0592
 102   1.0000      -0.295125        -8.0308
 103   1.0000      -0.293569        -7.9884
 104   1.0000      -0.291030        -7.9193
 105   1.0000      -0.286992        -7.8095
 106   1.0000      -0.284181        -7.7329
 107   1.0000      -0.282707        -7.6928
 108   1.0000      -0.280394        -7.6299
 109   1.0000      -0.279512        -7.6059
 110   1.0000      -0.276394        -7.5211
 111   1.0000      -0.275277        -7.4907
 112   1.0000      -0.272637        -7.4188
 113   1.0000      -0.271935        -7.3997
 114   1.0000      -0.271042        -7.3754
 115   1.0000      -0.269621        -7.3368
 116   1.0000      -0.267878        -7.2893
 117   1.0000      -0.265875        -7.2348
 118   1.0000      -0.263997        -7.1837
 119   1.0000      -0.263342        -7.1659
 120   1.0000      -0.262572        -7.1449
 121   1.0000      -0.261628        -7.1193
 122   1.0000      -0.260628        -7.0920
 123   1.0000      -0.259577        -7.0634
 124   1.0000      -0.258192        -7.0258
 125   1.0000      -0.256973        -6.9926
 126   1.0000      -0.256627        -6.9832
 127   1.0000      -0.253785        -6.9058
 128   1.0000      -0.253032        -6.8853
 129   1.0000      -0.251780        -6.8513
 130   1.0000      -0.249827        -6.7981
 131   1.0000      -0.248561        -6.7637
 132   1.0000      -0.248416        -6.7597
 133   1.0000      -0.244818        -6.6618
 134   1.0000      -0.242659        -6.6031
 135   1.0000      -0.241927        -6.5832
 136   1.0000      -0.240791        -6.5523
 137   1.0000      -0.238066        -6.4781
 138   1.0000      -0.233078        -6.3424
 139   1.0000      -0.222254        -6.0478
 140   1.0000      -0.213972        -5.8225
 141   1.0000      -0.209622        -5.7041
 142   1.0000      -0.201607        -5.4860
 143   1.0000      -0.171510        -4.6670
 144   0.0000      -0.165217        -4.4958
 145   0.0000      -0.148292        -4.0352
 146   0.0000      -0.141858        -3.8602
 147   0.0000      -0.133378        -3.6294
 148   0.0000      -0.120465        -3.2780

MULLIKEN ATOMIC CHARGES AND SPIN POPULATIONS
--------------------------------------------
   0 Au:    0.387893   -0.089263
   1 Au:    0.396706   -0.138476
   2 Au:    0.474747   -0.022246
   3 Au:    0.210032   -0.098730
   4 Au:    0.578285   -0.075696
   5 Au:    0.208361   -0.051900
   6 Au:    0.229160   -0.049000
   7 Au:    0.234133   -0.035040
   8 Au:    0.124851   -0.062167
   9 Au:    0.267086   -0.004450
  10 Au:   -0.014953   -0.008721
  11 Au:    0.185820   -0.236242
  12 Au:    0.164662   -0.062619
  13 Au:    0.170621   -0.064676
  14 Cr:   -3.617403    2.999227
Sum of atomic charges         :   -0.0000000

LOEWDIN ATOMIC CHARGES AND SPIN POPULATIONS
-------------------------------------------
   0 Au:    0.150606   -0.093838
   1 Au:    0.064528   -0.109465
   2 Au:    0.093532   -0.060333
   3 Au:    0.074434   -0.108322
   4 Au:    0.123680   -0.097544
   5 Au:    0.121897   -0.034565
   6 Au:    0.136731   -0.075273
   7 Au:    0.133974   -0.028982
   8 Au:    0.054830   -0.043394
   9 Au:    0.031720   -0.056448
  10 Au:    0.013900   -0.036246
  11 Au:    0.041236   -0.188716
  12 Au:    0.033309   -0.066957
  13 Au:    0.028990   -0.084596
  14 Cr:   -1.103367    3.084679

  Mayer bond orders larger than 0.100000
B(  0-Au,  1-Au) :   0.2438 B(  0-Au,  3-Au) :   0.1805 B(  0-Au,  8-Au) :   0.3604
B(  0-Au, 14-Cr) :   0.6459 B(  1-Au,  2-Au) :   0.2081 B(  1-Au,  4-Au) :   0.1432
B(  1-Au,  6-Au) :   0.2121 B(  1-Au, 14-Cr) :   0.5656 B(  2-Au,  4-Au) :   0.1594
B(  2-Au,  5-Au) :   0.2882 B(  2-Au,  6-Au) :   0.1977 B(  2-Au, 14-Cr) :   0.4687
B(  3-Au,  4-Au) :   0.2901 B(  3-Au,  8-Au) :   0.1310 B(  3-Au, 12-Au) :   0.2710
B(  3-Au, 13-Au) :   0.2011 B(  3-Au, 14-Cr) :   0.6445 B(  4-Au,  5-Au) :   0.1410
B(  4-Au, 14-Cr) :   0.7312 B(  5-Au, 10-Au) :   0.3143 B(  5-Au, 13-Au) :   0.1886
B(  5-Au, 14-Cr) :   0.5425 B(  6-Au,  7-Au) :   0.4108 B(  6-Au, 14-Cr) :   0.6309
B(  7-Au,  8-Au) :   0.1245 B(  7-Au,  9-Au) :   0.2302 B(  7-Au, 10-Au) :   0.1942
B(  7-Au, 14-Cr) :   0.6730 B(  8-Au,  9-Au) :   0.2776 B(  8-Au, 12-Au) :   0.2941
B(  8-Au, 14-Cr) :   0.4955 B(  9-Au, 10-Au) :   0.2425 B(  9-Au, 11-Au) :   0.2778
B(  9-Au, 12-Au) :   0.1814 B(  9-Au, 14-Cr) :   0.3048 B( 10-Au, 11-Au) :   0.4237
B( 10-Au, 13-Au) :   0.2735 B( 10-Au, 14-Cr) :   0.3913 B( 11-Au, 12-Au) :   0.2845
B( 11-Au, 13-Au) :   0.2779 B( 11-Au, 14-Cr) :   0.1077 B( 12-Au, 13-Au) :   0.2263
B( 12-Au, 14-Cr) :   0.2821 B( 13-Au, 14-Cr) :   0.3642

FINAL SINGLE POINT ENERGY     -2945.797941762277

DIPOLE MOMENT
-------------
                                X             Y             Z
Electronic contribution:      5.58837     -27.47156     -19.15663
Nuclear contribution   :     -5.68381      27.51724      19.28771
                        -----------------------------------------
Total Dipole Moment    :     -0.09544       0.04568       0.13108
                        -----------------------------------------
Magnitude (a.u.)       :      0.16846
Magnitude (Debye)      :      0.42819

Rotational constants in cm-1:     0.001364     0.000834     0.000818
Rotational constants in MHz :    40.877836    25.009831    24.516101

                             ****ORCA TERMINATED NORMALLY****
TOTAL RUN TIME: 0 days 1 hours 18 minutes 46 seconds 241 msec
