                         Program Version 5.0.3 -  RELEASE  -
|  1> !R2SCAN def2-TZVP VERYSLOWCONV
|  2> !KDIIS
|  3> %scf
|  4>   AutoTRAHIter 200
|  5>   maxiter 400
|  6> end
|  7>
|  8> %pal nprocs 6 end
|  9>
| 10> *xyzfile 0 5 pbe.xyz
| 11>
| 12> $new_job
| 13>
| 14> !R2SCAN def2-TZVP VERYSLOWCONV
| 15> !KDIIS
| 16> %scf
| 17>   AutoTRAHIter 200
| 18>   maxiter 400
| 19> end
| 20>
| 21>
| 22> %pal nprocs 6 end
| 23>
| 24> *xyzfile 0 3 pbe.xyz
| 25>
| 26>
| 27>
| 28>
| 29>
| 30>                          ****END OF INPUT****
 Total Charge           Charge          ....    0
 Multiplicity           Mult            ....    5
 Number of Electrons    NEL             ....  290
FINAL SINGLE POINT ENERGY     -2946.299748298619

CARTESIAN COORDINATES (ANGSTROEM)
---------------------------------
  Au     4.620924    7.962592    8.657042
  Au     6.170590    9.868511    9.762963
  Au     8.939757    9.833446    9.582976
  Au     6.442240    5.690700    8.514678
  Au     7.511787    7.395638   10.345731
  Au     9.775526    7.533703    8.409221
  Au     7.425299   10.933466    7.444752
  Au     7.006499    9.325960    5.317312
  Au     5.257617    7.097933    6.174802
  Au     6.963945    6.861595    3.997784
  Au     9.041311    7.436620    5.775477
  Au     8.923860    4.933958    4.523086
  Au     6.509357    4.662551    5.930417
  Au     8.906735    5.139386    7.323560
  Cr     7.231108    8.258369    7.816341

 Multiplicity           Mult            ....    3
 Number of Electrons    NEL             ....  290
 Basis Dimension        Dim             ....  605

ORBITAL ENERGIES
----------------
                 SPIN UP ORBITALS
  NO   OCC          E(Eh)            E(eV)
   0   1.0000    -215.306255     -5858.7811
   1   1.0000     -24.607770      -669.6115
   2   1.0000     -20.876564      -568.0802
   3   1.0000     -20.873389      -567.9938
   4   1.0000     -20.872028      -567.9568
   5   1.0000      -4.126957      -112.3002
   6   1.0000      -4.125952      -112.2729
   7   1.0000      -4.123706      -112.2118
   8   1.0000      -4.122714      -112.1848
   9   1.0000      -4.122493      -112.1787
  10   1.0000      -4.115838      -111.9976
  11   1.0000      -4.115614      -111.9915
  12   1.0000      -4.114949      -111.9734
  13   1.0000      -4.112819      -111.9155
  14   1.0000      -4.111889      -111.8902
  15   1.0000      -4.110831      -111.8614
  16   1.0000      -4.109055      -111.8131
  17   1.0000      -4.108499      -111.7979
  18   1.0000      -4.103297      -111.6564
  19   1.0000      -2.924318       -79.5747
  20   1.0000      -2.315611       -63.0110
  21   1.0000      -2.314531       -62.9816
  22   1.0000      -2.314029       -62.9679
  23   1.0000      -2.313251       -62.9468
  24   1.0000      -2.312617       -62.9295
  25   1.0000      -2.311691       -62.9043
  26   1.0000      -2.310719       -62.8779
  27   1.0000      -2.310194       -62.8636
  28   1.0000      -2.309982       -62.8578
  29   1.0000      -2.309446       -62.8432
  30   1.0000      -2.307821       -62.7990
  31   1.0000      -2.306969       -62.7758
  32   1.0000      -2.306593       -62.7656
  33   1.0000      -2.306395       -62.7602
  34   1.0000      -2.305445       -62.7343
  35   1.0000      -2.304291       -62.7029
  36   1.0000      -2.303098       -62.6705
  37   1.0000      -2.302748       -62.6609
  38   1.0000      -2.301626       -62.6304
  39   1.0000      -2.301135       -62.6171
  40   1.0000      -2.300623       -62.6031
  41   1.0000      -2.300522       -62.6004
  42   1.0000      -2.300365       -62.5961
  43   1.0000      -2.300287       -62.5940
  44   1.0000      -2.299776       -62.5801
  45   1.0000      -2.299527       -62.5733
  46   1.0000      -2.299021       -62.5595
  47   1.0000      -2.298373       -62.5419
  48   1.0000      -2.298166       -62.5363
  49   1.0000      -2.297587       -62.5205
  50   1.0000      -2.296267       -62.4846
  51   1.0000      -2.296228       -62.4835
  52   1.0000      -2.295699       -62.4692
  53   1.0000      -2.294869       -62.4466
  54   1.0000      -2.293792       -62.4172
  55   1.0000      -2.293359       -62.4055
  56   1.0000      -2.291819       -62.3636
  57   1.0000      -2.291527       -62.3556
  58   1.0000      -2.290239       -62.3206
  59   1.0000      -2.289379       -62.2972
  60   1.0000      -2.288826       -62.2821
  61   1.0000      -2.287572       -62.2480
  62   1.0000      -1.872129       -50.9432
  63   1.0000      -1.870550       -50.9003
  64   1.0000      -1.869491       -50.8714
  65   1.0000      -0.424002       -11.5377
  66   1.0000      -0.393556       -10.7092
  67   1.0000      -0.384860       -10.4726
  68   1.0000      -0.381976       -10.3941
  69   1.0000      -0.376157       -10.2357
  70   1.0000      -0.373200       -10.1553
  71   1.0000      -0.372912       -10.1475
  72   1.0000      -0.367544       -10.0014
  73   1.0000      -0.366844        -9.9823
  74   1.0000      -0.366618        -9.9762
  75   1.0000      -0.363574        -9.8933
  76   1.0000      -0.362019        -9.8511
  77   1.0000      -0.358581        -9.7575
  78   1.0000      -0.357213        -9.7203
  79   1.0000      -0.354923        -9.6580
  80   1.0000      -0.353647        -9.6232
  81   1.0000      -0.352102        -9.5812
  82   1.0000      -0.348272        -9.4770
  83   1.0000      -0.346754        -9.4357
  84   1.0000      -0.344934        -9.3861
  85   1.0000      -0.340930        -9.2772
  86   1.0000      -0.340333        -9.2609
  87   1.0000      -0.338296        -9.2055
  88   1.0000      -0.333918        -9.0864
  89   1.0000      -0.332838        -9.0570
  90   1.0000      -0.329922        -8.9776
  91   1.0000      -0.328555        -8.9404
  92   1.0000      -0.324279        -8.8241
  93   1.0000      -0.323202        -8.7948
  94   1.0000      -0.319789        -8.7019
  95   1.0000      -0.317104        -8.6288
  96   1.0000      -0.315120        -8.5749
  97   1.0000      -0.313492        -8.5306
  98   1.0000      -0.312486        -8.5032
  99   1.0000      -0.310389        -8.4461
 100   1.0000      -0.305306        -8.3078
 101   1.0000      -0.304983        -8.2990
 102   1.0000      -0.303419        -8.2564
 103   1.0000      -0.302144        -8.2218
 104   1.0000      -0.300249        -8.1702
 105   1.0000      -0.297060        -8.0834
 106   1.0000      -0.292661        -7.9637
 107   1.0000      -0.291983        -7.9453
 108   1.0000      -0.288956        -7.8629
 109   1.0000      -0.287713        -7.8291
 110   1.0000      -0.284277        -7.7356
 111   1.0000      -0.283250        -7.7076
 112   1.0000      -0.280069        -7.6211
 113   1.0000      -0.279006        -7.5921
 114   1.0000      -0.277825        -7.5600
 115   1.0000      -0.276441        -7.5223
 116   1.0000      -0.275073        -7.4851
 117   1.0000      -0.273437        -7.4406
 118   1.0000      -0.271465        -7.3869
 119   1.0000      -0.270853        -7.3703
 120   1.0000      -0.269688        -7.3386
 121   1.0000      -0.269145        -7.3238
 122   1.0000      -0.267834        -7.2881
 123   1.0000      -0.267183        -7.2704
 124   1.0000      -0.265048        -7.2123
 125   1.0000      -0.264054        -7.1853
 126   1.0000      -0.263397        -7.1674
 127   1.0000      -0.260213        -7.0808
 128   1.0000      -0.259423        -7.0593
 129   1.0000      -0.258072        -7.0225
 130   1.0000      -0.255600        -6.9552
 131   1.0000      -0.255258        -6.9459
 132   1.0000      -0.253148        -6.8885
 133   1.0000      -0.250838        -6.8257
 134   1.0000      -0.248888        -6.7726
 135   1.0000      -0.246094        -6.6966
 136   1.0000      -0.244607        -6.6561
 137   1.0000      -0.242887        -6.6093
 138   1.0000      -0.238791        -6.4978
 139   1.0000      -0.236029        -6.4227
 140   1.0000      -0.231423        -6.2973
 141   1.0000      -0.225443        -6.1346
 142   1.0000      -0.220507        -6.0003
 143   1.0000      -0.219130        -5.9628
 144   1.0000      -0.212124        -5.7722
 145   1.0000      -0.198859        -5.4112
 146   0.0000      -0.189502        -5.1566
 147   0.0000      -0.172945        -4.7061
 148   0.0000      -0.154629        -4.2077
 149   0.0000      -0.147115        -4.0032
 150   0.0000      -0.129940        -3.5358

                 SPIN DOWN ORBITALS
  NO   OCC          E(Eh)            E(eV)
   0   1.0000    -215.305651     -5858.7646
   1   1.0000     -24.547093      -667.9603
   2   1.0000     -20.833172      -566.8994
   3   1.0000     -20.826065      -566.7060
   4   1.0000     -20.822558      -566.6106
   5   1.0000      -4.127209      -112.3071
   6   1.0000      -4.125452      -112.2593
   7   1.0000      -4.123637      -112.2099
   8   1.0000      -4.122650      -112.1830
   9   1.0000      -4.121862      -112.1616
  10   1.0000      -4.116443      -112.0141
  11   1.0000      -4.115753      -111.9953
  12   1.0000      -4.115749      -111.9952
  13   1.0000      -4.113679      -111.9389
  14   1.0000      -4.112141      -111.8970
  15   1.0000      -4.111176      -111.8708
  16   1.0000      -4.109167      -111.8161
  17   1.0000      -4.108467      -111.7971
  18   1.0000      -4.104809      -111.6975
  19   1.0000      -2.766471       -75.2795
  20   1.0000      -2.315683       -63.0129
  21   1.0000      -2.314032       -62.9680
  22   1.0000      -2.313485       -62.9531
  23   1.0000      -2.312932       -62.9381
  24   1.0000      -2.312845       -62.9357
  25   1.0000      -2.311573       -62.9011
  26   1.0000      -2.310528       -62.8727
  27   1.0000      -2.310258       -62.8653
  28   1.0000      -2.309407       -62.8422
  29   1.0000      -2.308492       -62.8173
  30   1.0000      -2.307861       -62.8001
  31   1.0000      -2.306562       -62.7647
  32   1.0000      -2.306128       -62.7529
  33   1.0000      -2.305917       -62.7472
  34   1.0000      -2.305516       -62.7363
  35   1.0000      -2.304194       -62.7003
  36   1.0000      -2.302941       -62.6662
  37   1.0000      -2.302837       -62.6634
  38   1.0000      -2.302347       -62.6500
  39   1.0000      -2.301688       -62.6321
  40   1.0000      -2.301436       -62.6253
  41   1.0000      -2.301170       -62.6180
  42   1.0000      -2.300888       -62.6103
  43   1.0000      -2.300359       -62.5959
  44   1.0000      -2.300118       -62.5894
  45   1.0000      -2.299890       -62.5832
  46   1.0000      -2.299367       -62.5690
  47   1.0000      -2.298790       -62.5533
  48   1.0000      -2.298508       -62.5456
  49   1.0000      -2.298118       -62.5350
  50   1.0000      -2.296830       -62.4999
  51   1.0000      -2.296225       -62.4835
  52   1.0000      -2.295421       -62.4616
  53   1.0000      -2.294652       -62.4407
  54   1.0000      -2.293812       -62.4178
  55   1.0000      -2.293516       -62.4097
  56   1.0000      -2.291770       -62.3622
  57   1.0000      -2.291538       -62.3559
  58   1.0000      -2.291017       -62.3417
  59   1.0000      -2.290523       -62.3283
  60   1.0000      -2.290281       -62.3217
  61   1.0000      -2.288564       -62.2750
  62   1.0000      -1.725817       -46.9619
  63   1.0000      -1.710795       -46.5531
  64   1.0000      -1.702367       -46.3238
  65   1.0000      -0.420384       -11.4392
  66   1.0000      -0.392481       -10.6800
  67   1.0000      -0.385282       -10.4841
  68   1.0000      -0.382782       -10.4160
  69   1.0000      -0.375306       -10.2126
  70   1.0000      -0.373110       -10.1528
  71   1.0000      -0.370074       -10.0702
  72   1.0000      -0.366340        -9.9686
  73   1.0000      -0.365728        -9.9520
  74   1.0000      -0.364081        -9.9072
  75   1.0000      -0.362363        -9.8604
  76   1.0000      -0.360762        -9.8168
  77   1.0000      -0.359328        -9.7778
  78   1.0000      -0.357316        -9.7231
  79   1.0000      -0.355558        -9.6752
  80   1.0000      -0.353231        -9.6119
  81   1.0000      -0.352906        -9.6031
  82   1.0000      -0.349008        -9.4970
  83   1.0000      -0.347467        -9.4551
  84   1.0000      -0.343584        -9.3494
  85   1.0000      -0.341376        -9.2893
  86   1.0000      -0.339786        -9.2461
  87   1.0000      -0.337737        -9.1903
  88   1.0000      -0.333976        -9.0880
  89   1.0000      -0.331389        -9.0175
  90   1.0000      -0.330476        -8.9927
  91   1.0000      -0.328055        -8.9268
  92   1.0000      -0.325201        -8.8492
  93   1.0000      -0.322968        -8.7884
  94   1.0000      -0.319579        -8.6962
  95   1.0000      -0.317643        -8.6435
  96   1.0000      -0.315929        -8.5969
  97   1.0000      -0.314295        -8.5524
  98   1.0000      -0.312894        -8.5143
  99   1.0000      -0.311077        -8.4648
 100   1.0000      -0.306302        -8.3349
 101   1.0000      -0.304753        -8.2928
 102   1.0000      -0.303614        -8.2618
 103   1.0000      -0.302185        -8.2229
 104   1.0000      -0.299912        -8.1610
 105   1.0000      -0.295711        -8.0467
 106   1.0000      -0.293059        -7.9745
 107   1.0000      -0.291406        -7.9296
 108   1.0000      -0.289286        -7.8719
 109   1.0000      -0.288155        -7.8411
 110   1.0000      -0.284861        -7.7515
 111   1.0000      -0.283920        -7.7258
 112   1.0000      -0.280903        -7.6438
 113   1.0000      -0.280150        -7.6233
 114   1.0000      -0.279289        -7.5998
 115   1.0000      -0.277989        -7.5645
 116   1.0000      -0.276158        -7.5146
 117   1.0000      -0.274044        -7.4571
 118   1.0000      -0.272048        -7.4028
 119   1.0000      -0.271513        -7.3883
 120   1.0000      -0.270969        -7.3734
 121   1.0000      -0.269973        -7.3463
 122   1.0000      -0.268538        -7.3073
 123   1.0000      -0.268093        -7.2952
 124   1.0000      -0.266143        -7.2421
 125   1.0000      -0.264983        -7.2105
 126   1.0000      -0.264413        -7.1950
 127   1.0000      -0.261584        -7.1181
 128   1.0000      -0.260662        -7.0930
 129   1.0000      -0.259625        -7.0648
 130   1.0000      -0.257487        -7.0066
 131   1.0000      -0.256276        -6.9736
 132   1.0000      -0.255830        -6.9615
 133   1.0000      -0.252246        -6.8640
 134   1.0000      -0.249913        -6.8005
 135   1.0000      -0.248685        -6.7671
 136   1.0000      -0.247521        -6.7354
 137   1.0000      -0.244784        -6.6609
 138   1.0000      -0.239709        -6.5228
 139   1.0000      -0.225620        -6.1394
 140   1.0000      -0.216743        -5.8979
 141   1.0000      -0.211895        -5.7660
 142   1.0000      -0.203655        -5.5417
 143   1.0000      -0.171419        -4.6646
 144   0.0000      -0.162354        -4.4179
 145   0.0000      -0.142491        -3.8774
 146   0.0000      -0.136819        -3.7230
 147   0.0000      -0.129059        -3.5119
 148   0.0000      -0.108170        -2.9435

MULLIKEN ATOMIC CHARGES AND SPIN POPULATIONS
--------------------------------------------
   0 Au:    0.353252   -0.115515
   1 Au:    0.339159   -0.194883
   2 Au:    0.423254   -0.027665
   3 Au:    0.193802   -0.119906
   4 Au:    0.517720   -0.117086
   5 Au:    0.192990   -0.070154
   6 Au:    0.209394   -0.080690
   7 Au:    0.205381   -0.060346
   8 Au:    0.114800   -0.069201
   9 Au:    0.250042   -0.016914
  10 Au:    0.023500    0.004770
  11 Au:    0.140943   -0.303890
  12 Au:    0.161800   -0.064079
  13 Au:    0.149766   -0.068845
  14 Cr:   -3.275804    3.304405
Sum of atomic charges         :   -0.0000000

LOEWDIN ATOMIC CHARGES AND SPIN POPULATIONS
-------------------------------------------
   0 Au:    0.143612   -0.113151
   1 Au:    0.053509   -0.133602
   2 Au:    0.088169   -0.067356
   3 Au:    0.072564   -0.126352
   4 Au:    0.118580   -0.121407
   5 Au:    0.117342   -0.049838
   6 Au:    0.130537   -0.099626
   7 Au:    0.130143   -0.049632
   8 Au:    0.050277   -0.054665
   9 Au:    0.032199   -0.068362
  10 Au:    0.016014   -0.043016
  11 Au:    0.031413   -0.226460
  12 Au:    0.034972   -0.074055
  13 Au:    0.028583   -0.095536
  14 Cr:   -1.047915    3.323059

  Mayer bond orders larger than 0.100000
B(  0-Au,  1-Au) :   0.2309 B(  0-Au,  3-Au) :   0.1708 B(  0-Au,  8-Au) :   0.3546
B(  0-Au, 14-Cr) :   0.6134 B(  1-Au,  2-Au) :   0.1926 B(  1-Au,  4-Au) :   0.1242
B(  1-Au,  6-Au) :   0.1910 B(  1-Au, 14-Cr) :   0.5640 B(  2-Au,  4-Au) :   0.1570
B(  2-Au,  5-Au) :   0.2896 B(  2-Au,  6-Au) :   0.1797 B(  2-Au, 14-Cr) :   0.4635
B(  3-Au,  4-Au) :   0.2955 B(  3-Au,  8-Au) :   0.1248 B(  3-Au, 12-Au) :   0.2634
B(  3-Au, 13-Au) :   0.1907 B(  3-Au, 14-Cr) :   0.6151 B(  4-Au,  5-Au) :   0.1330
B(  4-Au, 14-Cr) :   0.7298 B(  5-Au, 10-Au) :   0.3049 B(  5-Au, 13-Au) :   0.1816
B(  5-Au, 14-Cr) :   0.5114 B(  6-Au,  7-Au) :   0.4030 B(  6-Au, 14-Cr) :   0.6243
B(  7-Au,  8-Au) :   0.1152 B(  7-Au,  9-Au) :   0.2276 B(  7-Au, 10-Au) :   0.1873
B(  7-Au, 14-Cr) :   0.6696 B(  8-Au,  9-Au) :   0.2758 B(  8-Au, 12-Au) :   0.2826
B(  8-Au, 14-Cr) :   0.4812 B(  9-Au, 10-Au) :   0.2228 B(  9-Au, 11-Au) :   0.2533
B(  9-Au, 12-Au) :   0.1686 B(  9-Au, 14-Cr) :   0.2907 B( 10-Au, 11-Au) :   0.4001
B( 10-Au, 13-Au) :   0.2736 B( 10-Au, 14-Cr) :   0.3877 B( 11-Au, 12-Au) :   0.2630
B( 11-Au, 13-Au) :   0.2522 B( 12-Au, 13-Au) :   0.2099 B( 12-Au, 14-Cr) :   0.2774
B( 13-Au, 14-Cr) :   0.3552

FINAL SINGLE POINT ENERGY     -2946.276930876191

DIPOLE MOMENT
-------------
                                X             Y             Z
Electronic contribution:      5.60097     -27.49824     -19.17020
Nuclear contribution   :     -5.68381      27.51724      19.28771
                        -----------------------------------------
Total Dipole Moment    :     -0.08284       0.01900       0.11751
                        -----------------------------------------
Magnitude (a.u.)       :      0.14503
Magnitude (Debye)      :      0.36863

Rotational constants in cm-1:     0.001364     0.000834     0.000818
Rotational constants in MHz :    40.877836    25.009831    24.516101

                             ****ORCA TERMINATED NORMALLY****
TOTAL RUN TIME: 0 days 0 hours 29 minutes 34 seconds 400 msec
