                         Program Version 5.0.3 -  RELEASE  -
|  1> %pal nprocs 1 end
|  2>
|  3> !PBE def2-TZVP OPT UNO
|  4> !SLOWCONV
|  5>
|  6> *xyzfile 0 6 7.xyz                           ****END OF INPUT****
 Total Charge           Charge          ....    0
 Multiplicity           Mult            ....    6
 Number of Electrons    NEL             ....  311
FINAL SINGLE POINT ENERGY     -3300.919043337081
FINAL SINGLE POINT ENERGY     -3300.920333648010
FINAL SINGLE POINT ENERGY     -3300.921176502924
FINAL SINGLE POINT ENERGY     -3300.921287358998
FINAL SINGLE POINT ENERGY     -3300.921590774626
FINAL SINGLE POINT ENERGY     -3300.921696410524
FINAL SINGLE POINT ENERGY     -3300.921807754006
FINAL SINGLE POINT ENERGY     -3300.921859204850
FINAL SINGLE POINT ENERGY     -3300.921910781961
FINAL SINGLE POINT ENERGY     -3300.921951119643
FINAL SINGLE POINT ENERGY     -3300.921999832545
FINAL SINGLE POINT ENERGY     -3300.922027484703
FINAL SINGLE POINT ENERGY     -3300.922035465921
FINAL SINGLE POINT ENERGY     -3300.922040182665
FINAL SINGLE POINT ENERGY     -3300.922043977217
                    ***********************HURRAY********************

CARTESIAN COORDINATES (ANGSTROEM)
---------------------------------
  Au     7.053111    5.384571    6.158967
  Au     5.223044    7.494023    5.736880
  Au     4.927615    5.797164    8.001622
  Au     5.822883    7.220239   10.297219
  Au     4.548188    8.613124    8.295370
  Au     6.872710    9.690084    9.599218
  Au     7.570389    5.068845    8.880199
  Au     7.784557    5.765847   11.534708
  Au     8.875272    7.624248    9.900912
  Au     9.455176    6.424513    7.328404
  Au     6.200767    9.953093    6.573172
  Au     8.732046   10.439827    5.416072
  Au     8.014627    7.807278    5.235501
  Au     7.996374   11.560983    7.963775
  Au     9.355387    9.147013    7.753528
  Fe     7.040081    7.600804    7.817222

 Multiplicity           Mult            ....    6
 Number of Electrons    NEL             ....  311
 Basis Dimension        Dim             ....  645

ORBITAL ENERGIES
----------------
                 SPIN UP ORBITALS
  NO   OCC          E(Eh)            E(eV)
   0   1.0000    -254.780510     -6932.9301
   1   1.0000     -29.622608      -806.0722
   2   1.0000     -25.562379      -695.5877
   3   1.0000     -25.554706      -695.3789
   4   1.0000     -25.554583      -695.3756
   5   1.0000      -4.040372      -109.9441
   6   1.0000      -4.035351      -109.8075
   7   1.0000      -4.033918      -109.7685
   8   1.0000      -4.033149      -109.7476
   9   1.0000      -4.031167      -109.6936
  10   1.0000      -4.030933      -109.6873
  11   1.0000      -4.030408      -109.6730
  12   1.0000      -4.029121      -109.6380
  13   1.0000      -4.027807      -109.6022
  14   1.0000      -4.027777      -109.6014
  15   1.0000      -4.025492      -109.5392
  16   1.0000      -4.023541      -109.4861
  17   1.0000      -4.023538      -109.4860
  18   1.0000      -4.022273      -109.4516
  19   1.0000      -4.020650      -109.4074
  20   1.0000      -3.402849       -92.5962
  21   1.0000      -2.258858       -61.4667
  22   1.0000      -2.252378       -61.2903
  23   1.0000      -2.251593       -61.2690
  24   1.0000      -2.251479       -61.2659
  25   1.0000      -2.250272       -61.2330
  26   1.0000      -2.249609       -61.2150
  27   1.0000      -2.248336       -61.1803
  28   1.0000      -2.247341       -61.1533
  29   1.0000      -2.246974       -61.1433
  30   1.0000      -2.246365       -61.1267
  31   1.0000      -2.245617       -61.1063
  32   1.0000      -2.245455       -61.1019
  33   1.0000      -2.245446       -61.1017
  34   1.0000      -2.244753       -61.0828
  35   1.0000      -2.243953       -61.0611
  36   1.0000      -2.243767       -61.0560
  37   1.0000      -2.243634       -61.0524
  38   1.0000      -2.243441       -61.0471
  39   1.0000      -2.243289       -61.0430
  40   1.0000      -2.243038       -61.0362
  41   1.0000      -2.242230       -61.0142
  42   1.0000      -2.241980       -61.0074
  43   1.0000      -2.241717       -61.0002
  44   1.0000      -2.241487       -60.9940
  45   1.0000      -2.241078       -60.9828
  46   1.0000      -2.240795       -60.9751
  47   1.0000      -2.239924       -60.9514
  48   1.0000      -2.239685       -60.9449
  49   1.0000      -2.238721       -60.9187
  50   1.0000      -2.238401       -60.9100
  51   1.0000      -2.238117       -60.9022
  52   1.0000      -2.237779       -60.8931
  53   1.0000      -2.237616       -60.8886
  54   1.0000      -2.237445       -60.8840
  55   1.0000      -2.236634       -60.8619
  56   1.0000      -2.236359       -60.8544
  57   1.0000      -2.236172       -60.8493
  58   1.0000      -2.235224       -60.8235
  59   1.0000      -2.234904       -60.8148
  60   1.0000      -2.234575       -60.8059
  61   1.0000      -2.234545       -60.8051
  62   1.0000      -2.234017       -60.7907
  63   1.0000      -2.233626       -60.7801
  64   1.0000      -2.232916       -60.7607
  65   1.0000      -2.231822       -60.7310
  66   1.0000      -2.226139       -60.5763
  67   1.0000      -2.210938       -60.1627
  68   1.0000      -2.210726       -60.1569
  69   1.0000      -0.446390       -12.1469
  70   1.0000      -0.399384       -10.8678
  71   1.0000      -0.395146       -10.7525
  72   1.0000      -0.393141       -10.6979
  73   1.0000      -0.385950       -10.5022
  74   1.0000      -0.383824       -10.4444
  75   1.0000      -0.380976       -10.3669
  76   1.0000      -0.380356       -10.3500
  77   1.0000      -0.378625       -10.3029
  78   1.0000      -0.373429       -10.1615
  79   1.0000      -0.364929        -9.9302
  80   1.0000      -0.359423        -9.7804
  81   1.0000      -0.356024        -9.6879
  82   1.0000      -0.353962        -9.6318
  83   1.0000      -0.352096        -9.5810
  84   1.0000      -0.351778        -9.5724
  85   1.0000      -0.351134        -9.5548
  86   1.0000      -0.350165        -9.5285
  87   1.0000      -0.347008        -9.4426
  88   1.0000      -0.345620        -9.4048
  89   1.0000      -0.343475        -9.3464
  90   1.0000      -0.342867        -9.3299
  91   1.0000      -0.341313        -9.2876
  92   1.0000      -0.339837        -9.2474
  93   1.0000      -0.336873        -9.1668
  94   1.0000      -0.335713        -9.1352
  95   1.0000      -0.330422        -8.9912
  96   1.0000      -0.327971        -8.9245
  97   1.0000      -0.326034        -8.8718
  98   1.0000      -0.323161        -8.7937
  99   1.0000      -0.322844        -8.7850
 100   1.0000      -0.318090        -8.6557
 101   1.0000      -0.317540        -8.6407
 102   1.0000      -0.315825        -8.5940
 103   1.0000      -0.311738        -8.4828
 104   1.0000      -0.307940        -8.3795
 105   1.0000      -0.306695        -8.3456
 106   1.0000      -0.305596        -8.3157
 107   1.0000      -0.303779        -8.2663
 108   1.0000      -0.300574        -8.1790
 109   1.0000      -0.299737        -8.1563
 110   1.0000      -0.296921        -8.0796
 111   1.0000      -0.291296        -7.9266
 112   1.0000      -0.286711        -7.8018
 113   1.0000      -0.285907        -7.7799
 114   1.0000      -0.283910        -7.7256
 115   1.0000      -0.282213        -7.6794
 116   1.0000      -0.281104        -7.6492
 117   1.0000      -0.280598        -7.6355
 118   1.0000      -0.279807        -7.6139
 119   1.0000      -0.277790        -7.5590
 120   1.0000      -0.277154        -7.5417
 121   1.0000      -0.276162        -7.5147
 122   1.0000      -0.274563        -7.4712
 123   1.0000      -0.273392        -7.4394
 124   1.0000      -0.273049        -7.4300
 125   1.0000      -0.270761        -7.3678
 126   1.0000      -0.270488        -7.3603
 127   1.0000      -0.269811        -7.3419
 128   1.0000      -0.268893        -7.3170
 129   1.0000      -0.268354        -7.3023
 130   1.0000      -0.267447        -7.2776
 131   1.0000      -0.266065        -7.2400
 132   1.0000      -0.265155        -7.2152
 133   1.0000      -0.264547        -7.1987
 134   1.0000      -0.262887        -7.1535
 135   1.0000      -0.262406        -7.1404
 136   1.0000      -0.261728        -7.1220
 137   1.0000      -0.259546        -7.0626
 138   1.0000      -0.258503        -7.0342
 139   1.0000      -0.257627        -7.0104
 140   1.0000      -0.257182        -6.9983
 141   1.0000      -0.255300        -6.9471
 142   1.0000      -0.253151        -6.8886
 143   1.0000      -0.252649        -6.8749
 144   1.0000      -0.252011        -6.8576
 145   1.0000      -0.251209        -6.8357
 146   1.0000      -0.249970        -6.8020
 147   1.0000      -0.248629        -6.7655
 148   1.0000      -0.247354        -6.7309
 149   1.0000      -0.245976        -6.6934
 150   1.0000      -0.240624        -6.5477
 151   1.0000      -0.236003        -6.4220
 152   1.0000      -0.231598        -6.3021
 153   1.0000      -0.225666        -6.1407
 154   1.0000      -0.215875        -5.8742
 155   1.0000      -0.203200        -5.5293
 156   1.0000      -0.192738        -5.2447
 157   1.0000      -0.189808        -5.1649
 158   0.0000      -0.157622        -4.2891
 159   0.0000      -0.142899        -3.8885
 160   0.0000      -0.132066        -3.5937
 161   0.0000      -0.126108        -3.4316
 162   0.0000      -0.122802        -3.3416

                 SPIN DOWN ORBITALS
  NO   OCC          E(Eh)            E(eV)
   0   1.0000    -254.779765     -6932.9099
   1   1.0000     -29.559160      -804.3456
   2   1.0000     -25.512330      -694.2258
   3   1.0000     -25.507835      -694.1035
   4   1.0000     -25.507741      -694.1009
   5   1.0000      -4.039091      -109.9092
   6   1.0000      -4.034269      -109.7780
   7   1.0000      -4.032435      -109.7281
   8   1.0000      -4.032153      -109.7205
   9   1.0000      -4.030197      -109.6672
  10   1.0000      -4.030032      -109.6628
  11   1.0000      -4.029663      -109.6527
  12   1.0000      -4.027896      -109.6046
  13   1.0000      -4.027058      -109.5818
  14   1.0000      -4.026710      -109.5724
  15   1.0000      -4.024699      -109.5176
  16   1.0000      -4.023346      -109.4808
  17   1.0000      -4.022595      -109.4604
  18   1.0000      -4.021963      -109.4432
  19   1.0000      -4.020276      -109.3973
  20   1.0000      -3.260401       -88.7200
  21   1.0000      -2.257325       -61.4249
  22   1.0000      -2.251151       -61.2569
  23   1.0000      -2.250472       -61.2385
  24   1.0000      -2.249734       -61.2184
  25   1.0000      -2.248735       -61.1912
  26   1.0000      -2.248423       -61.1827
  27   1.0000      -2.247007       -61.1442
  28   1.0000      -2.246155       -61.1210
  29   1.0000      -2.245635       -61.1068
  30   1.0000      -2.245100       -61.0923
  31   1.0000      -2.244294       -61.0704
  32   1.0000      -2.244072       -61.0643
  33   1.0000      -2.243889       -61.0593
  34   1.0000      -2.243499       -61.0487
  35   1.0000      -2.242716       -61.0274
  36   1.0000      -2.242579       -61.0237
  37   1.0000      -2.242377       -61.0182
  38   1.0000      -2.242350       -61.0175
  39   1.0000      -2.242081       -61.0101
  40   1.0000      -2.241942       -61.0063
  41   1.0000      -2.241349       -60.9902
  42   1.0000      -2.241003       -60.9808
  43   1.0000      -2.240922       -60.9786
  44   1.0000      -2.240690       -60.9723
  45   1.0000      -2.240415       -60.9648
  46   1.0000      -2.239382       -60.9367
  47   1.0000      -2.238957       -60.9251
  48   1.0000      -2.238726       -60.9188
  49   1.0000      -2.237947       -60.8976
  50   1.0000      -2.237755       -60.8924
  51   1.0000      -2.237506       -60.8856
  52   1.0000      -2.237286       -60.8796
  53   1.0000      -2.236873       -60.8684
  54   1.0000      -2.236663       -60.8627
  55   1.0000      -2.236296       -60.8527
  56   1.0000      -2.235738       -60.8375
  57   1.0000      -2.235575       -60.8331
  58   1.0000      -2.234647       -60.8078
  59   1.0000      -2.234426       -60.8018
  60   1.0000      -2.234113       -60.7933
  61   1.0000      -2.233726       -60.7828
  62   1.0000      -2.233652       -60.7808
  63   1.0000      -2.233305       -60.7713
  64   1.0000      -2.232479       -60.7488
  65   1.0000      -2.231338       -60.7178
  66   1.0000      -2.080269       -56.6070
  67   1.0000      -2.074861       -56.4598
  68   1.0000      -2.074694       -56.4553
  69   1.0000      -0.441070       -12.0021
  70   1.0000      -0.397211       -10.8087
  71   1.0000      -0.393469       -10.7068
  72   1.0000      -0.390803       -10.6343
  73   1.0000      -0.379118       -10.3163
  74   1.0000      -0.375171       -10.2089
  75   1.0000      -0.372263       -10.1298
  76   1.0000      -0.369884       -10.0651
  77   1.0000      -0.368011       -10.0141
  78   1.0000      -0.362789        -9.8720
  79   1.0000      -0.360482        -9.8092
  80   1.0000      -0.354816        -9.6550
  81   1.0000      -0.353577        -9.6213
  82   1.0000      -0.350494        -9.5374
  83   1.0000      -0.349535        -9.5113
  84   1.0000      -0.348514        -9.4836
  85   1.0000      -0.347704        -9.4615
  86   1.0000      -0.346914        -9.4400
  87   1.0000      -0.345412        -9.3991
  88   1.0000      -0.342957        -9.3323
  89   1.0000      -0.341120        -9.2824
  90   1.0000      -0.339541        -9.2394
  91   1.0000      -0.338347        -9.2069
  92   1.0000      -0.337928        -9.1955
  93   1.0000      -0.334887        -9.1127
  94   1.0000      -0.333160        -9.0657
  95   1.0000      -0.328279        -8.9329
  96   1.0000      -0.324930        -8.8418
  97   1.0000      -0.321324        -8.7437
  98   1.0000      -0.319623        -8.6974
  99   1.0000      -0.316580        -8.6146
 100   1.0000      -0.314385        -8.5548
 101   1.0000      -0.312548        -8.5049
 102   1.0000      -0.309610        -8.4249
 103   1.0000      -0.304777        -8.2934
 104   1.0000      -0.301315        -8.1992
 105   1.0000      -0.298573        -8.1246
 106   1.0000      -0.296189        -8.0597
 107   1.0000      -0.292482        -7.9589
 108   1.0000      -0.290772        -7.9123
 109   1.0000      -0.288503        -7.8506
 110   1.0000      -0.287169        -7.8143
 111   1.0000      -0.283798        -7.7225
 112   1.0000      -0.282894        -7.6979
 113   1.0000      -0.282088        -7.6760
 114   1.0000      -0.281598        -7.6627
 115   1.0000      -0.279238        -7.5984
 116   1.0000      -0.278570        -7.5803
 117   1.0000      -0.277551        -7.5525
 118   1.0000      -0.277005        -7.5377
 119   1.0000      -0.274659        -7.4739
 120   1.0000      -0.274254        -7.4628
 121   1.0000      -0.272411        -7.4127
 122   1.0000      -0.271838        -7.3971
 123   1.0000      -0.270508        -7.3609
 124   1.0000      -0.269678        -7.3383
 125   1.0000      -0.268431        -7.3044
 126   1.0000      -0.268141        -7.2965
 127   1.0000      -0.267998        -7.2926
 128   1.0000      -0.266633        -7.2554
 129   1.0000      -0.265276        -7.2185
 130   1.0000      -0.264915        -7.2087
 131   1.0000      -0.261997        -7.1293
 132   1.0000      -0.261719        -7.1217
 133   1.0000      -0.260071        -7.0769
 134   1.0000      -0.257870        -7.0170
 135   1.0000      -0.257186        -6.9984
 136   1.0000      -0.255582        -6.9547
 137   1.0000      -0.252899        -6.8817
 138   1.0000      -0.252158        -6.8616
 139   1.0000      -0.250971        -6.8293
 140   1.0000      -0.250377        -6.8131
 141   1.0000      -0.248620        -6.7653
 142   1.0000      -0.246901        -6.7185
 143   1.0000      -0.245438        -6.6787
 144   1.0000      -0.244617        -6.6564
 145   1.0000      -0.239602        -6.5199
 146   1.0000      -0.235371        -6.4048
 147   1.0000      -0.231069        -6.2877
 148   1.0000      -0.226918        -6.1748
 149   1.0000      -0.218919        -5.9571
 150   1.0000      -0.210487        -5.7276
 151   1.0000      -0.205804        -5.6002
 152   1.0000      -0.202835        -5.5194
 153   0.0000      -0.178710        -4.8629
 154   0.0000      -0.174225        -4.7409
 155   0.0000      -0.173446        -4.7197
 156   0.0000      -0.164717        -4.4822
 157   0.0000      -0.162778        -4.4294

MULLIKEN ATOMIC CHARGES AND SPIN POPULATIONS
--------------------------------------------
   0 Au:    0.348612    0.112137
   1 Au:    0.293756    0.136314
   2 Au:    0.247895    0.132894
   3 Au:    0.063587    0.132883
   4 Au:    0.375050    0.088730
   5 Au:    0.033236    0.144177
   6 Au:    0.029100    0.133565
   7 Au:    0.467042    0.072789
   8 Au:    0.077771    0.119419
   9 Au:    0.345887    0.098755
  10 Au:   -0.169065    0.165551
  11 Au:    0.408529    0.067065
  12 Au:    0.001644    0.154001
  13 Au:    0.405313    0.086892
  14 Au:   -0.137266    0.142456
  15 Fe:   -2.791089    3.212372
Sum of atomic charges         :    0.0000000

LOEWDIN ATOMIC CHARGES AND SPIN POPULATIONS
-------------------------------------------
   0 Au:    0.057230    0.105704
   1 Au:    0.059310    0.116261
   2 Au:    0.065928    0.102157
   3 Au:   -0.002617    0.102201
   4 Au:    0.077546    0.096937
   5 Au:    0.021986    0.122705
   6 Au:   -0.010915    0.104494
   7 Au:    0.140491    0.077619
   8 Au:   -0.001429    0.113100
   9 Au:    0.092908    0.094417
  10 Au:   -0.028649    0.128035
  11 Au:    0.091155    0.071538
  12 Au:    0.009062    0.119579
  13 Au:    0.080575    0.094770
  14 Au:   -0.028975    0.117201
  15 Fe:   -0.623606    3.433284

  Mayer bond orders larger than 0.100000
B(  0-Au,  1-Au) :   0.1777 B(  0-Au,  2-Au) :   0.1706 B(  0-Au,  6-Au) :   0.2464
B(  0-Au,  9-Au) :   0.1209 B(  0-Au, 12-Au) :   0.2870 B(  0-Au, 15-Fe) :   0.4255
B(  1-Au,  2-Au) :   0.2015 B(  1-Au,  4-Au) :   0.1182 B(  1-Au, 10-Au) :   0.2375
B(  1-Au, 12-Au) :   0.1578 B(  1-Au, 15-Fe) :   0.4871 B(  2-Au,  3-Au) :   0.1693
B(  2-Au,  4-Au) :   0.1493 B(  2-Au,  6-Au) :   0.1458 B(  2-Au, 15-Fe) :   0.5194
B(  3-Au,  4-Au) :   0.2608 B(  3-Au,  5-Au) :   0.2347 B(  3-Au,  6-Au) :   0.1540
B(  3-Au,  7-Au) :   0.3187 B(  3-Au,  8-Au) :   0.1681 B(  3-Au, 15-Fe) :   0.4272
B(  4-Au,  5-Au) :   0.1139 B(  4-Au, 10-Au) :   0.3004 B(  4-Au, 15-Fe) :   0.4804
B(  5-Au,  8-Au) :   0.1053 B(  5-Au, 10-Au) :   0.1251 B(  5-Au, 13-Au) :   0.3679
B(  5-Au, 14-Au) :   0.1092 B(  5-Au, 15-Fe) :   0.5622 B(  6-Au,  7-Au) :   0.3171
B(  6-Au,  8-Au) :   0.1700 B(  6-Au,  9-Au) :   0.2434 B(  6-Au, 15-Fe) :   0.4428
B(  7-Au,  8-Au) :   0.4127 B(  8-Au, 14-Au) :   0.3920 B(  8-Au, 15-Fe) :   0.4669
B(  9-Au, 12-Au) :   0.1213 B(  9-Au, 14-Au) :   0.2073 B(  9-Au, 15-Fe) :   0.5374
B( 10-Au, 11-Au) :   0.2478 B( 10-Au, 12-Au) :   0.1302 B( 10-Au, 13-Au) :   0.2959
B( 10-Au, 14-Au) :   0.1571 B( 10-Au, 15-Fe) :   0.4572 B( 11-Au, 12-Au) :   0.3323
B( 11-Au, 13-Au) :   0.1669 B( 11-Au, 14-Au) :   0.3388 B( 12-Au, 14-Au) :   0.1470
B( 12-Au, 15-Fe) :   0.5256 B( 13-Au, 14-Au) :   0.2750 B( 14-Au, 15-Fe) :   0.4309

FINAL SINGLE POINT ENERGY     -3300.922046832763

DIPOLE MOMENT
-------------
                                X             Y             Z
Electronic contribution:      7.35996      10.23284       3.79206
Nuclear contribution   :     -7.21496     -10.14046      -3.61196
                        -----------------------------------------
Total Dipole Moment    :      0.14500       0.09238       0.18010
                        -----------------------------------------
Magnitude (a.u.)       :      0.24899
Magnitude (Debye)      :      0.63287

Rotational constants in cm-1:     0.001138     0.000856     0.000795
Rotational constants in MHz :    34.113824    25.672221    23.835243

                             ****ORCA TERMINATED NORMALLY****
TOTAL RUN TIME: 0 days 3 hours 0 minutes 53 seconds 580 msec
