                         Program Version 5.0.3 -  RELEASE  -
|  1> !SC-NEVPT2 def2-TZVP def2-TZVP/C
|  2> !MOREAD RIJCOSX def2/J
|  3> %maxcore 4000
|  4> %moinp "casscf.gbw"
|  5> %pal nprocs 6 end
|  6>
|  7> %casscf
|  8>  mult 6,4
|  9>  bweight 1,1
| 10>  nroots 1,24
| 11>  nel 5
| 12>  norb 5
| 13>  ptsettings
| 14>   d4tpre 1e-14 # default = 1e-10
| 15>   d3tpre 1e-14
| 16>  end
| 17>  rel
| 18>    dosoc true
| 19>    gtensor true
| 20>  end
| 21> end
| 22>
| 23>
| 24> *xyzfile 0 6 pbe.xyz
| 25>
| 26>
| 27>                          ****END OF INPUT****

CARTESIAN COORDINATES (ANGSTROEM)
---------------------------------
  Au     9.326877    7.658931    8.189430
  Au     8.762021    7.295466    5.545611
  Au     6.317129    7.079788    4.290942
  Au     4.969423    7.026647   10.175521
  Au     7.605943    5.558655    8.849821
  Au     7.039236    5.187380    6.164281
  Au     4.017135    6.416059    5.663252
  Au     9.193222    9.868782    6.505574
  Au     7.322984    9.639048    4.501853
  Au     6.606929   10.824436    6.917203
  Au     8.279638   10.264202    9.070360
  Au     5.600501    9.623573    9.311146
  Au     3.892976   10.796169    7.493490
  Au     3.728672    8.016067    7.904370
  Au     4.800196    9.111570    5.507743
  Au     7.583450    7.899661   10.310206
  Mn     5.198419    5.750440    7.902485

 Total Charge           Charge          ....    0
 Multiplicity           Mult            ....    6
 Number of Electrons    NEL             ....  329
 Basis Dimension        Dim             ....  685

ORBITAL ENERGIES
----------------

  NO   OCC          E(Eh)            E(eV)
   0   2.0000    -240.566096     -6546.1363
   1   2.0000     -29.145940      -793.1013
   2   2.0000     -24.850416      -676.2142
   3   2.0000     -24.849904      -676.2003
   4   2.0000     -24.849732      -676.1956
   5   2.0000      -4.728978      -128.6820
   6   2.0000      -4.725835      -128.5965
   7   2.0000      -4.725760      -128.5945
   8   2.0000      -4.715894      -128.3260
   9   2.0000      -4.714115      -128.2776
  10   2.0000      -4.713831      -128.2699
  11   2.0000      -4.713650      -128.2649
  12   2.0000      -4.713549      -128.2622
  13   2.0000      -4.710614      -128.1823
  14   2.0000      -4.708900      -128.1357
  15   2.0000      -4.708869      -128.1349
  16   2.0000      -4.707031      -128.0848
  17   2.0000      -4.705314      -128.0381
  18   2.0000      -4.705279      -128.0371
  19   2.0000      -4.697075      -127.8139
  20   2.0000      -4.696790      -127.8062
  21   2.0000      -3.849919      -104.7616
  22   2.0000      -2.767947       -75.3197
  23   2.0000      -2.766964       -75.2929
  24   2.0000      -2.763398       -75.1959
  25   2.0000      -2.762961       -75.1840
  26   2.0000      -2.762510       -75.1717
  27   2.0000      -2.761025       -75.1313
  28   2.0000      -2.760834       -75.1261
  29   2.0000      -2.759295       -75.0842
  30   2.0000      -2.758219       -75.0550
  31   2.0000      -2.756460       -75.0071
  32   2.0000      -2.754683       -74.9587
  33   2.0000      -2.754226       -74.9463
  34   2.0000      -2.752631       -74.9029
  35   2.0000      -2.751769       -74.8794
  36   2.0000      -2.751303       -74.8668
  37   2.0000      -2.751118       -74.8617
  38   2.0000      -2.750135       -74.8350
  39   2.0000      -2.749803       -74.8259
  40   2.0000      -2.749486       -74.8173
  41   2.0000      -2.748893       -74.8012
  42   2.0000      -2.748609       -74.7935
  43   2.0000      -2.748288       -74.7847
  44   2.0000      -2.748065       -74.7786
  45   2.0000      -2.747225       -74.7558
  46   2.0000      -2.747109       -74.7526
  47   2.0000      -2.746935       -74.7479
  48   2.0000      -2.746419       -74.7339
  49   2.0000      -2.745779       -74.7164
  50   2.0000      -2.745378       -74.7055
  51   2.0000      -2.743983       -74.6676
  52   2.0000      -2.743912       -74.6657
  53   2.0000      -2.743375       -74.6510
  54   2.0000      -2.743149       -74.6449
  55   2.0000      -2.742676       -74.6320
  56   2.0000      -2.742237       -74.6201
  57   2.0000      -2.742042       -74.6148
  58   2.0000      -2.740655       -74.5770
  59   2.0000      -2.740405       -74.5702
  60   2.0000      -2.739798       -74.5537
  61   2.0000      -2.739371       -74.5421
  62   2.0000      -2.739300       -74.5401
  63   2.0000      -2.738737       -74.5248
  64   2.0000      -2.736113       -74.4534
  65   2.0000      -2.732923       -74.3666
  66   2.0000      -2.732507       -74.3553
  67   2.0000      -2.730778       -74.3082
  68   2.0000      -2.730633       -74.3043
  69   2.0000      -2.728974       -74.2592
  70   2.0000      -2.516087       -68.4662
  71   2.0000      -2.515759       -68.4573
  72   2.0000      -2.515008       -68.4368
  73   2.0000      -0.562914       -15.3177
  74   2.0000      -0.558178       -15.1888
  75   2.0000      -0.557790       -15.1782
  76   2.0000      -0.552753       -15.0412
  77   2.0000      -0.550996       -14.9934
  78   2.0000      -0.548360       -14.9216
  79   2.0000      -0.546706       -14.8766
  80   2.0000      -0.544257       -14.8100
  81   2.0000      -0.541802       -14.7432
  82   2.0000      -0.541447       -14.7335
  83   2.0000      -0.540594       -14.7103
  84   2.0000      -0.540497       -14.7077
  85   2.0000      -0.537055       -14.6140
  86   2.0000      -0.532933       -14.5018
  87   2.0000      -0.532779       -14.4977
  88   2.0000      -0.532331       -14.4855
  89   2.0000      -0.530868       -14.4456
  90   2.0000      -0.530851       -14.4452
  91   2.0000      -0.528339       -14.3768
  92   2.0000      -0.526776       -14.3343
  93   2.0000      -0.526357       -14.3229
  94   2.0000      -0.523764       -14.2523
  95   2.0000      -0.521877       -14.2010
  96   2.0000      -0.518833       -14.1182
  97   2.0000      -0.518323       -14.1043
  98   2.0000      -0.514683       -14.0052
  99   2.0000      -0.513145       -13.9634
 100   2.0000      -0.511541       -13.9197
 101   2.0000      -0.508105       -13.8262
 102   2.0000      -0.505269       -13.7491
 103   2.0000      -0.502838       -13.6829
 104   2.0000      -0.501127       -13.6364
 105   2.0000      -0.500362       -13.6156
 106   2.0000      -0.496100       -13.4996
 107   2.0000      -0.494976       -13.4690
 108   2.0000      -0.493270       -13.4225
 109   2.0000      -0.492169       -13.3926
 110   2.0000      -0.488202       -13.2846
 111   2.0000      -0.486483       -13.2379
 112   2.0000      -0.484082       -13.1725
 113   2.0000      -0.483398       -13.1539
 114   2.0000      -0.482421       -13.1273
 115   2.0000      -0.481887       -13.1128
 116   2.0000      -0.474226       -12.9044
 117   2.0000      -0.471298       -12.8247
 118   2.0000      -0.466683       -12.6991
 119   2.0000      -0.462483       -12.5848
 120   2.0000      -0.461194       -12.5497
 121   2.0000      -0.460788       -12.5387
 122   2.0000      -0.458665       -12.4809
 123   2.0000      -0.455554       -12.3962
 124   2.0000      -0.455134       -12.3848
 125   2.0000      -0.453435       -12.3386
 126   2.0000      -0.449744       -12.2381
 127   2.0000      -0.447104       -12.1663
 128   2.0000      -0.444213       -12.0876
 129   2.0000      -0.443763       -12.0754
 130   2.0000      -0.441243       -12.0068
 131   2.0000      -0.440808       -11.9950
 132   2.0000      -0.439897       -11.9702
 133   2.0000      -0.439561       -11.9611
 134   2.0000      -0.438317       -11.9272
 135   2.0000      -0.430649       -11.7185
 136   2.0000      -0.430580       -11.7167
 137   2.0000      -0.430045       -11.7021
 138   2.0000      -0.428700       -11.6655
 139   2.0000      -0.425571       -11.5804
 140   2.0000      -0.425251       -11.5717
 141   2.0000      -0.422693       -11.5021
 142   2.0000      -0.421495       -11.4695
 143   2.0000      -0.420450       -11.4410
 144   2.0000      -0.417867       -11.3707
 145   2.0000      -0.412751       -11.2315
 146   2.0000      -0.411376       -11.1941
 147   2.0000      -0.411221       -11.1899
 148   2.0000      -0.408111       -11.1053
 149   2.0000      -0.407938       -11.1006
 150   2.0000      -0.402784       -10.9603
 151   2.0000      -0.395896       -10.7729
 152   2.0000      -0.391957       -10.6657
 153   2.0000      -0.379607       -10.3296
 154   2.0000      -0.369932       -10.0664
 155   2.0000      -0.368654       -10.0316
 156   2.0000      -0.364903        -9.9295
 157   2.0000      -0.268742        -7.3128
 158   2.0000      -0.259853        -7.0710
 159   2.0000      -0.241918        -6.5829
 160   2.0000      -0.234109        -6.3704
 161   2.0000      -0.229655        -6.2492
 162   1.0000      -0.169833        -4.6214
 163   1.0000      -0.166356        -4.5268
 164   1.0000      -0.171038        -4.6542
 165   1.0000      -0.169918        -4.6237
 166   1.0000      -0.167808        -4.5663
 167   0.0000      -0.025176        -0.6851
 168   0.0000      -0.020284        -0.5520
 169   0.0000      -0.015009        -0.4084
 170   0.0000      -0.012398        -0.3374
 171   0.0000      -0.004138        -0.1126

MULLIKEN ATOMIC CHARGES AND SPIN DENSITIES
------------------------------------------
   0 Au:   -0.189628    0.001925
   1 Au:   -0.205131    0.001945
   2 Au:    0.011129    0.000891
   3 Au:    0.228258    0.010214
   4 Au:    0.107628    0.010534
   5 Au:    0.114210    0.010563
   6 Au:    0.226740    0.010194
   7 Au:    0.201683    0.000172
   8 Au:    0.196150    0.000399
   9 Au:   -0.356252    0.000194
  10 Au:    0.197040    0.000397
  11 Au:   -0.529632    0.001888
  12 Au:    0.496203    0.000706
  13 Au:   -0.009105    0.006565
  14 Au:   -0.519832    0.001890
  15 Au:    0.012498    0.000890
  16 Mn:    0.018038    3.940632
Sum of atomic charges       :    0.0000000

LOEWDIN ATOMIC CHARGES AND SPIN DENSITIES
-----------------------------------------
   0 Au:   -0.062739    0.001738
   1 Au:   -0.065089    0.001743
   2 Au:   -0.045014    0.001902
   3 Au:    0.038283    0.015678
   4 Au:   -0.057887    0.016271
   5 Au:   -0.056365    0.016324
   6 Au:    0.038242    0.015645
   7 Au:    0.013609    0.000276
   8 Au:    0.033354    0.000666
   9 Au:   -0.088697    0.000308
  10 Au:    0.033429    0.000661
  11 Au:   -0.118018    0.001575
  12 Au:    0.183339    0.001026
  13 Au:   -0.108444    0.011183
  14 Au:   -0.116517    0.001576
  15 Au:   -0.044646    0.001892
  16 Mn:    0.423160    3.911536

  Mayer bond orders larger than 0.100000
B(  0-Au,  1-Au) :   0.4010 B(  0-Au,  4-Au) :   0.2990 B(  0-Au,  7-Au) :   0.2780
B(  0-Au, 10-Au) :   0.1294 B(  0-Au, 15-Au) :   0.3506 B(  1-Au,  2-Au) :   0.3533
B(  1-Au,  5-Au) :   0.2988 B(  1-Au,  7-Au) :   0.2813 B(  1-Au,  8-Au) :   0.1305
B(  2-Au,  5-Au) :   0.2798 B(  2-Au,  6-Au) :   0.2031 B(  2-Au,  8-Au) :   0.2624
B(  2-Au, 14-Au) :   0.2878 B(  3-Au, 11-Au) :   0.2847 B(  3-Au, 13-Au) :   0.2281
B(  3-Au, 15-Au) :   0.2033 B(  3-Au, 16-Mn) :   0.4106 B(  4-Au,  5-Au) :   0.2161
B(  4-Au, 15-Au) :   0.2810 B(  4-Au, 16-Mn) :   0.4726 B(  5-Au, 16-Mn) :   0.4707
B(  6-Au, 13-Au) :   0.2292 B(  6-Au, 14-Au) :   0.2828 B(  6-Au, 16-Mn) :   0.4113
B(  7-Au,  8-Au) :   0.2018 B(  7-Au,  9-Au) :   0.3390 B(  7-Au, 10-Au) :   0.2011
B(  8-Au,  9-Au) :   0.2970 B(  8-Au, 14-Au) :   0.3405 B(  9-Au, 10-Au) :   0.2973
B(  9-Au, 11-Au) :   0.3506 B(  9-Au, 12-Au) :   0.1981 B(  9-Au, 14-Au) :   0.3507
B( 10-Au, 11-Au) :   0.3424 B( 10-Au, 15-Au) :   0.2607 B( 11-Au, 12-Au) :   0.2514
B( 11-Au, 13-Au) :   0.3234 B( 11-Au, 15-Au) :   0.2899 B( 12-Au, 13-Au) :   0.1951
B( 12-Au, 14-Au) :   0.2492 B( 13-Au, 14-Au) :   0.3197 B( 13-Au, 16-Mn) :   0.3237

FINAL SINGLE POINT ENERGY     -3314.754525390028

DIPOLE MOMENT
-------------
                                X             Y             Z
Electronic contribution:     48.89239      91.89213     -22.69898
Nuclear contribution   :    -50.01811     -92.06900      22.95805
                        -----------------------------------------
Total Dipole Moment    :     -1.12572      -0.17687       0.25907
                        -----------------------------------------
Magnitude (a.u.)       :      1.16861
Magnitude (Debye)      :      2.97037

Rotational constants in cm-1:     0.000822     0.000804     0.000775
Rotational constants in MHz :    24.635340    24.093288    23.227279

                             ****ORCA TERMINATED NORMALLY****
TOTAL RUN TIME: 0 days 3 hours 2 minutes 53 seconds 247 msec
