                         Program Version 5.0.3 -  RELEASE  -
|  1> %pal nprocs 1 end
|  2>
|  3> !PBE def2-TZVP OPT UNO
|  4> !SLOWCONV KDIIS
|  5>
|  6> %geom maxiter 300 end
|  7>
|  8> *xyzfile 0 6 7.xyz                           ****END OF INPUT****
 Total Charge           Charge          ....    0
 Multiplicity           Mult            ....    6
 Number of Electrons    NEL             ....  329
FINAL SINGLE POINT ENERGY     -3324.027235905839
FINAL SINGLE POINT ENERGY     -3324.031893711906
FINAL SINGLE POINT ENERGY     -3324.035033062021
FINAL SINGLE POINT ENERGY     -3324.036437435429
FINAL SINGLE POINT ENERGY     -3324.037219825619
FINAL SINGLE POINT ENERGY     -3324.037659755642
FINAL SINGLE POINT ENERGY     -3324.038117997242
FINAL SINGLE POINT ENERGY     -3324.038470649456
FINAL SINGLE POINT ENERGY     -3324.038677243590
FINAL SINGLE POINT ENERGY     -3324.038900958387
FINAL SINGLE POINT ENERGY     -3324.039197357633
FINAL SINGLE POINT ENERGY     -3324.039237568422
FINAL SINGLE POINT ENERGY     -3324.039258598211
FINAL SINGLE POINT ENERGY     -3324.039270745875
FINAL SINGLE POINT ENERGY     -3324.039282628545
FINAL SINGLE POINT ENERGY     -3324.039293072917
FINAL SINGLE POINT ENERGY     -3324.039306218985
FINAL SINGLE POINT ENERGY     -3324.039315124129
FINAL SINGLE POINT ENERGY     -3324.039322132413
                    ***********************HURRAY********************

CARTESIAN COORDINATES (ANGSTROEM)
---------------------------------
  Au     4.082917    9.107484    7.664813
  Au     7.794246    8.041298   10.360173
  Au     5.858322    9.966459    9.693764
  Au     6.018923   10.921414    7.033058
  Au     8.372783    9.918213    8.557685
  Au     7.694723    9.393690    5.329251
  Au    10.201801    9.353085    6.555019
  Au     8.604659   11.740023    6.549558
  Au     7.649791    5.257494    6.532769
  Au     6.239843    6.054249   11.444888
  Au     4.681747    7.356008    9.616993
  Au     9.155929    7.143843    8.079406
  Au     4.965039    9.097184    5.095714
  Au     6.608167    6.963578    4.542346
  Au     5.167084    6.629912    6.904342
  Au     9.321538    7.089689    5.262620
  Mn     6.872962    6.012937    8.875425

 Multiplicity           Mult            ....    6
 Number of Electrons    NEL             ....  329
 Basis Dimension        Dim             ....  685

ORBITAL ENERGIES
----------------
                 SPIN UP ORBITALS
  NO   OCC          E(Eh)            E(eV)
   0   1.0000    -234.216254     -6373.3483
   1   1.0000     -26.915322      -732.4032
   2   1.0000     -23.064807      -627.6253
   3   1.0000     -23.063078      -627.5783
   4   1.0000     -23.062014      -627.5493
   5   1.0000      -4.040616      -109.9508
   6   1.0000      -4.037811      -109.8744
   7   1.0000      -4.035868      -109.8216
   8   1.0000      -4.031230      -109.6953
   9   1.0000      -4.031049      -109.6904
  10   1.0000      -4.029728      -109.6545
  11   1.0000      -4.029511      -109.6486
  12   1.0000      -4.029015      -109.6351
  13   1.0000      -4.026893      -109.5773
  14   1.0000      -4.026789      -109.5745
  15   1.0000      -4.026489      -109.5663
  16   1.0000      -4.023084      -109.4737
  17   1.0000      -4.022199      -109.4496
  18   1.0000      -4.021371      -109.4271
  19   1.0000      -4.019689      -109.3813
  20   1.0000      -4.013646      -109.2169
  21   1.0000      -3.127288       -85.0978
  22   1.0000      -2.258754       -61.4638
  23   1.0000      -2.256423       -61.4004
  24   1.0000      -2.253985       -61.3340
  25   1.0000      -2.253258       -61.3143
  26   1.0000      -2.251387       -61.2633
  27   1.0000      -2.250178       -61.2304
  28   1.0000      -2.249869       -61.2220
  29   1.0000      -2.248056       -61.1727
  30   1.0000      -2.247830       -61.1666
  31   1.0000      -2.246770       -61.1377
  32   1.0000      -2.246671       -61.1350
  33   1.0000      -2.246350       -61.1263
  34   1.0000      -2.245744       -61.1098
  35   1.0000      -2.245392       -61.1002
  36   1.0000      -2.244860       -61.0858
  37   1.0000      -2.244797       -61.0840
  38   1.0000      -2.244519       -61.0765
  39   1.0000      -2.243847       -61.0582
  40   1.0000      -2.242817       -61.0302
  41   1.0000      -2.242481       -61.0210
  42   1.0000      -2.241791       -61.0022
  43   1.0000      -2.241238       -60.9872
  44   1.0000      -2.240843       -60.9764
  45   1.0000      -2.240310       -60.9619
  46   1.0000      -2.239912       -60.9511
  47   1.0000      -2.239178       -60.9311
  48   1.0000      -2.238751       -60.9195
  49   1.0000      -2.238336       -60.9082
  50   1.0000      -2.237913       -60.8967
  51   1.0000      -2.237158       -60.8762
  52   1.0000      -2.236978       -60.8713
  53   1.0000      -2.236608       -60.8612
  54   1.0000      -2.236482       -60.8578
  55   1.0000      -2.235943       -60.8431
  56   1.0000      -2.235594       -60.8336
  57   1.0000      -2.235407       -60.8285
  58   1.0000      -2.235231       -60.8237
  59   1.0000      -2.234790       -60.8117
  60   1.0000      -2.233766       -60.7839
  61   1.0000      -2.233502       -60.7767
  62   1.0000      -2.232220       -60.7418
  63   1.0000      -2.232138       -60.7396
  64   1.0000      -2.231049       -60.7099
  65   1.0000      -2.229934       -60.6796
  66   1.0000      -2.229218       -60.6601
  67   1.0000      -2.228469       -60.6397
  68   1.0000      -2.227393       -60.6105
  69   1.0000      -2.223274       -60.4984
  70   1.0000      -2.032938       -55.3191
  71   1.0000      -2.028667       -55.2028
  72   1.0000      -2.027280       -55.1651
  73   1.0000      -0.420821       -11.4511
  74   1.0000      -0.399974       -10.8838
  75   1.0000      -0.391148       -10.6437
  76   1.0000      -0.383878       -10.4458
  77   1.0000      -0.376892       -10.2557
  78   1.0000      -0.372337       -10.1318
  79   1.0000      -0.371227       -10.1016
  80   1.0000      -0.366221        -9.9654
  81   1.0000      -0.365388        -9.9427
  82   1.0000      -0.362993        -9.8775
  83   1.0000      -0.362859        -9.8739
  84   1.0000      -0.359491        -9.7822
  85   1.0000      -0.358673        -9.7600
  86   1.0000      -0.357336        -9.7236
  87   1.0000      -0.353364        -9.6155
  88   1.0000      -0.350797        -9.5457
  89   1.0000      -0.348513        -9.4835
  90   1.0000      -0.347067        -9.4442
  91   1.0000      -0.346086        -9.4175
  92   1.0000      -0.344398        -9.3715
  93   1.0000      -0.342381        -9.3167
  94   1.0000      -0.341800        -9.3008
  95   1.0000      -0.339812        -9.2467
  96   1.0000      -0.338913        -9.2223
  97   1.0000      -0.336914        -9.1679
  98   1.0000      -0.335411        -9.1270
  99   1.0000      -0.333121        -9.0647
 100   1.0000      -0.330301        -8.9879
 101   1.0000      -0.329056        -8.9541
 102   1.0000      -0.325935        -8.8691
 103   1.0000      -0.324564        -8.8318
 104   1.0000      -0.321827        -8.7573
 105   1.0000      -0.319850        -8.7036
 106   1.0000      -0.319436        -8.6923
 107   1.0000      -0.315277        -8.5791
 108   1.0000      -0.312791        -8.5115
 109   1.0000      -0.312328        -8.4989
 110   1.0000      -0.310101        -8.4383
 111   1.0000      -0.308443        -8.3932
 112   1.0000      -0.304045        -8.2735
 113   1.0000      -0.302341        -8.2271
 114   1.0000      -0.301366        -8.2006
 115   1.0000      -0.300737        -8.1835
 116   1.0000      -0.297369        -8.0918
 117   1.0000      -0.295041        -8.0285
 118   1.0000      -0.292939        -7.9713
 119   1.0000      -0.290176        -7.8961
 120   1.0000      -0.290034        -7.8922
 121   1.0000      -0.286527        -7.7968
 122   1.0000      -0.285110        -7.7582
 123   1.0000      -0.282459        -7.6861
 124   1.0000      -0.282193        -7.6789
 125   1.0000      -0.280488        -7.6325
 126   1.0000      -0.279251        -7.5988
 127   1.0000      -0.278010        -7.5650
 128   1.0000      -0.276615        -7.5271
 129   1.0000      -0.274348        -7.4654
 130   1.0000      -0.272285        -7.4092
 131   1.0000      -0.271747        -7.3946
 132   1.0000      -0.271360        -7.3841
 133   1.0000      -0.269107        -7.3228
 134   1.0000      -0.268559        -7.3079
 135   1.0000      -0.266736        -7.2583
 136   1.0000      -0.265301        -7.2192
 137   1.0000      -0.263426        -7.1682
 138   1.0000      -0.262820        -7.1517
 139   1.0000      -0.261130        -7.1057
 140   1.0000      -0.261043        -7.1034
 141   1.0000      -0.260552        -7.0900
 142   1.0000      -0.259863        -7.0712
 143   1.0000      -0.258275        -7.0280
 144   1.0000      -0.256600        -6.9825
 145   1.0000      -0.256100        -6.9688
 146   1.0000      -0.254781        -6.9329
 147   1.0000      -0.254017        -6.9122
 148   1.0000      -0.253254        -6.8914
 149   1.0000      -0.252042        -6.8584
 150   1.0000      -0.249342        -6.7849
 151   1.0000      -0.248653        -6.7662
 152   1.0000      -0.247152        -6.7253
 153   1.0000      -0.245257        -6.6738
 154   1.0000      -0.244795        -6.6612
 155   1.0000      -0.243805        -6.6343
 156   1.0000      -0.242329        -6.5941
 157   1.0000      -0.241811        -6.5800
 158   1.0000      -0.240566        -6.5461
 159   1.0000      -0.238328        -6.4852
 160   1.0000      -0.234269        -6.3748
 161   1.0000      -0.232535        -6.3276
 162   1.0000      -0.226988        -6.1767
 163   1.0000      -0.220680        -6.0050
 164   1.0000      -0.214907        -5.8479
 165   1.0000      -0.205095        -5.5809
 166   1.0000      -0.199990        -5.4420
 167   0.0000      -0.164732        -4.4826
 168   0.0000      -0.147474        -4.0130
 169   0.0000      -0.139445        -3.7945
 170   0.0000      -0.134479        -3.6594
 171   0.0000      -0.124828        -3.3967

                 SPIN DOWN ORBITALS
  NO   OCC          E(Eh)            E(eV)
   0   1.0000    -234.215411     -6373.3253
   1   1.0000     -26.846236      -730.5232
   2   1.0000     -23.011268      -626.1684
   3   1.0000     -23.010694      -626.1528
   4   1.0000     -23.010465      -626.1466
   5   1.0000      -4.039208      -109.9124
   6   1.0000      -4.036472      -109.8380
   7   1.0000      -4.034318      -109.7794
   8   1.0000      -4.030843      -109.6848
   9   1.0000      -4.029666      -109.6528
  10   1.0000      -4.029489      -109.6480
  11   1.0000      -4.027840      -109.6031
  12   1.0000      -4.027575      -109.5959
  13   1.0000      -4.026824      -109.5754
  14   1.0000      -4.026719      -109.5726
  15   1.0000      -4.026367      -109.5630
  16   1.0000      -4.023013      -109.4717
  17   1.0000      -4.022166      -109.4487
  18   1.0000      -4.021333      -109.4260
  19   1.0000      -4.019594      -109.3787
  20   1.0000      -4.013580      -109.2151
  21   1.0000      -2.956963       -80.4631
  22   1.0000      -2.257271       -61.4235
  23   1.0000      -2.254791       -61.3560
  24   1.0000      -2.252235       -61.2864
  25   1.0000      -2.251207       -61.2585
  26   1.0000      -2.249729       -61.2182
  27   1.0000      -2.249633       -61.2156
  28   1.0000      -2.247587       -61.1599
  29   1.0000      -2.247357       -61.1537
  30   1.0000      -2.246733       -61.1367
  31   1.0000      -2.245466       -61.1022
  32   1.0000      -2.245320       -61.0983
  33   1.0000      -2.244792       -61.0839
  34   1.0000      -2.244440       -61.0743
  35   1.0000      -2.244386       -61.0729
  36   1.0000      -2.243905       -61.0598
  37   1.0000      -2.243633       -61.0524
  38   1.0000      -2.243280       -61.0427
  39   1.0000      -2.243116       -61.0383
  40   1.0000      -2.242364       -61.0178
  41   1.0000      -2.241808       -61.0027
  42   1.0000      -2.241359       -60.9905
  43   1.0000      -2.240783       -60.9748
  44   1.0000      -2.240016       -60.9539
  45   1.0000      -2.239844       -60.9493
  46   1.0000      -2.239350       -60.9358
  47   1.0000      -2.238998       -60.9262
  48   1.0000      -2.238244       -60.9057
  49   1.0000      -2.238135       -60.9027
  50   1.0000      -2.237811       -60.8939
  51   1.0000      -2.237073       -60.8738
  52   1.0000      -2.236877       -60.8685
  53   1.0000      -2.236499       -60.8582
  54   1.0000      -2.236328       -60.8536
  55   1.0000      -2.235717       -60.8370
  56   1.0000      -2.235233       -60.8238
  57   1.0000      -2.234799       -60.8120
  58   1.0000      -2.234503       -60.8039
  59   1.0000      -2.234335       -60.7994
  60   1.0000      -2.233477       -60.7760
  61   1.0000      -2.233366       -60.7730
  62   1.0000      -2.232077       -60.7379
  63   1.0000      -2.232000       -60.7358
  64   1.0000      -2.231001       -60.7086
  65   1.0000      -2.229908       -60.6789
  66   1.0000      -2.229111       -60.6572
  67   1.0000      -2.228364       -60.6369
  68   1.0000      -2.227314       -60.6083
  69   1.0000      -2.223234       -60.4973
  70   1.0000      -1.863059       -50.6964
  71   1.0000      -1.862201       -50.6731
  72   1.0000      -1.861660       -50.6583
  73   1.0000      -0.418583       -11.3902
  74   1.0000      -0.394276       -10.7288
  75   1.0000      -0.390335       -10.6215
  76   1.0000      -0.381494       -10.3810
  77   1.0000      -0.372278       -10.1302
  78   1.0000      -0.370835       -10.0909
  79   1.0000      -0.369343       -10.0503
  80   1.0000      -0.364098        -9.9076
  81   1.0000      -0.363185        -9.8828
  82   1.0000      -0.360629        -9.8132
  83   1.0000      -0.359710        -9.7882
  84   1.0000      -0.357112        -9.7175
  85   1.0000      -0.353739        -9.6257
  86   1.0000      -0.351846        -9.5742
  87   1.0000      -0.350260        -9.5311
  88   1.0000      -0.347068        -9.4442
  89   1.0000      -0.346427        -9.4267
  90   1.0000      -0.344585        -9.3766
  91   1.0000      -0.341917        -9.3040
  92   1.0000      -0.340858        -9.2752
  93   1.0000      -0.339865        -9.2482
  94   1.0000      -0.339102        -9.2274
  95   1.0000      -0.336852        -9.1662
  96   1.0000      -0.335969        -9.1422
  97   1.0000      -0.334040        -9.0897
  98   1.0000      -0.333108        -9.0643
  99   1.0000      -0.329458        -8.9650
 100   1.0000      -0.328224        -8.9314
 101   1.0000      -0.323777        -8.8104
 102   1.0000      -0.322978        -8.7887
 103   1.0000      -0.321385        -8.7453
 104   1.0000      -0.319134        -8.6841
 105   1.0000      -0.316687        -8.6175
 106   1.0000      -0.314350        -8.5539
 107   1.0000      -0.311352        -8.4723
 108   1.0000      -0.308113        -8.3842
 109   1.0000      -0.307144        -8.3578
 110   1.0000      -0.304505        -8.2860
 111   1.0000      -0.303268        -8.2523
 112   1.0000      -0.301182        -8.1956
 113   1.0000      -0.300991        -8.1904
 114   1.0000      -0.297459        -8.0943
 115   1.0000      -0.294773        -8.0212
 116   1.0000      -0.292937        -7.9712
 117   1.0000      -0.291747        -7.9388
 118   1.0000      -0.290549        -7.9062
 119   1.0000      -0.287999        -7.8368
 120   1.0000      -0.286174        -7.7872
 121   1.0000      -0.282610        -7.6902
 122   1.0000      -0.281406        -7.6574
 123   1.0000      -0.280251        -7.6260
 124   1.0000      -0.278840        -7.5876
 125   1.0000      -0.278567        -7.5802
 126   1.0000      -0.276487        -7.5236
 127   1.0000      -0.275487        -7.4964
 128   1.0000      -0.273478        -7.4417
 129   1.0000      -0.272403        -7.4125
 130   1.0000      -0.270880        -7.3710
 131   1.0000      -0.270226        -7.3532
 132   1.0000      -0.267781        -7.2867
 133   1.0000      -0.265653        -7.2288
 134   1.0000      -0.263556        -7.1717
 135   1.0000      -0.262882        -7.1534
 136   1.0000      -0.262242        -7.1360
 137   1.0000      -0.261146        -7.1062
 138   1.0000      -0.259832        -7.0704
 139   1.0000      -0.258426        -7.0321
 140   1.0000      -0.257589        -7.0094
 141   1.0000      -0.256375        -6.9763
 142   1.0000      -0.254744        -6.9319
 143   1.0000      -0.254268        -6.9190
 144   1.0000      -0.253062        -6.8862
 145   1.0000      -0.251824        -6.8525
 146   1.0000      -0.250039        -6.8039
 147   1.0000      -0.248097        -6.7511
 148   1.0000      -0.247206        -6.7268
 149   1.0000      -0.246052        -6.6954
 150   1.0000      -0.244509        -6.6534
 151   1.0000      -0.242560        -6.6004
 152   1.0000      -0.241928        -6.5832
 153   1.0000      -0.240804        -6.5526
 154   1.0000      -0.239018        -6.5040
 155   1.0000      -0.236697        -6.4409
 156   1.0000      -0.232038        -6.3141
 157   1.0000      -0.227100        -6.1797
 158   1.0000      -0.221203        -6.0192
 159   1.0000      -0.213145        -5.8000
 160   1.0000      -0.206221        -5.6116
 161   1.0000      -0.200607        -5.4588
 162   0.0000      -0.169290        -4.6066
 163   0.0000      -0.159206        -4.3322
 164   0.0000      -0.157058        -4.2738
 165   0.0000      -0.150281        -4.0894
 166   0.0000      -0.142949        -3.8898

MULLIKEN ATOMIC CHARGES AND SPIN POPULATIONS
--------------------------------------------
   0 Au:    0.098341    0.029982
   1 Au:    0.254373    0.038923
   2 Au:    0.162248   -0.004695
   3 Au:   -0.123571    0.007000
   4 Au:   -0.786510    0.028719
   5 Au:   -0.914973    0.005211
   6 Au:    0.402636    0.018874
   7 Au:    0.564515    0.005510
   8 Au:    0.227733    0.035678
   9 Au:    0.357899    0.058866
  10 Au:    0.003397    0.037103
  11 Au:   -0.155252    0.012155
  12 Au:    0.281843    0.011794
  13 Au:    0.173773    0.019744
  14 Au:   -0.231194    0.026477
  15 Au:    0.161997    0.018218
  16 Mn:   -0.477255    4.650443
Sum of atomic charges         :   -0.0000000

LOEWDIN ATOMIC CHARGES AND SPIN POPULATIONS
-------------------------------------------
   0 Au:   -0.026600    0.018807
   1 Au:   -0.019465    0.065171
   2 Au:    0.003011    0.006154
   3 Au:   -0.065249    0.008473
   4 Au:   -0.118750    0.019207
   5 Au:   -0.118710    0.009440
   6 Au:    0.052403    0.015528
   7 Au:    0.148893    0.005346
   8 Au:    0.025453    0.070038
   9 Au:    0.148132    0.072551
  10 Au:   -0.031401    0.061182
  11 Au:   -0.028050    0.058654
  12 Au:    0.035827    0.014100
  13 Au:   -0.007273    0.013612
  14 Au:   -0.014714    0.067954
  15 Au:   -0.010486    0.011252
  16 Mn:    0.026977    4.482533

  Mayer bond orders larger than 0.100000
B(  0-Au,  2-Au) :   0.2038 B(  0-Au,  3-Au) :   0.3648 B(  0-Au, 10-Au) :   0.4282
B(  0-Au, 12-Au) :   0.3322 B(  0-Au, 14-Au) :   0.2938 B(  1-Au,  2-Au) :   0.1589
B(  1-Au,  4-Au) :   0.5668 B(  1-Au,  9-Au) :   0.2674 B(  1-Au, 10-Au) :   0.1268
B(  1-Au, 11-Au) :   0.2056 B(  1-Au, 16-Mn) :   0.4059 B(  2-Au,  3-Au) :   0.2805
B(  2-Au,  4-Au) :   0.3732 B(  2-Au, 10-Au) :   0.2567 B(  3-Au,  4-Au) :   0.2496
B(  3-Au,  5-Au) :   0.3512 B(  3-Au,  7-Au) :   0.2956 B(  3-Au, 12-Au) :   0.2315
B(  4-Au,  5-Au) :   0.3248 B(  4-Au,  6-Au) :   0.2930 B(  4-Au,  7-Au) :   0.3431
B(  4-Au, 11-Au) :   0.2446 B(  5-Au,  6-Au) :   0.3063 B(  5-Au,  7-Au) :   0.2678
B(  5-Au, 11-Au) :   0.1074 B(  5-Au, 12-Au) :   0.4141 B(  5-Au, 13-Au) :   0.4372
B(  5-Au, 15-Au) :   0.3951 B(  6-Au,  7-Au) :   0.1727 B(  6-Au, 11-Au) :   0.2085
B(  6-Au, 15-Au) :   0.2780 B(  8-Au, 11-Au) :   0.1377 B(  8-Au, 13-Au) :   0.2208
B(  8-Au, 14-Au) :   0.1434 B(  8-Au, 15-Au) :   0.2717 B(  8-Au, 16-Mn) :   0.5841
B(  9-Au, 10-Au) :   0.3281 B(  9-Au, 16-Mn) :   0.5689 B( 10-Au, 14-Au) :   0.2389
B( 10-Au, 16-Mn) :   0.4480 B( 11-Au, 15-Au) :   0.2884 B( 11-Au, 16-Mn) :   0.4987
B( 12-Au, 13-Au) :   0.2868 B( 12-Au, 14-Au) :   0.1388 B( 13-Au, 14-Au) :   0.3465
B( 13-Au, 15-Au) :   0.2599 B( 14-Au, 16-Mn) :   0.5142

FINAL SINGLE POINT ENERGY     -3324.039326389061

DIPOLE MOMENT
-------------
                                X             Y             Z
Electronic contribution:      5.82460      86.17585     -51.59911
Nuclear contribution   :     -5.60318     -86.50552      52.10554
                        -----------------------------------------
Total Dipole Moment    :      0.22142      -0.32967       0.50643
                        -----------------------------------------
Magnitude (a.u.)       :      0.64357
Magnitude (Debye)      :      1.63583

Rotational constants in cm-1:     0.000915     0.000737     0.000712
Rotational constants in MHz :    27.420216    22.083516    21.333780

                             ****ORCA TERMINATED NORMALLY****
TOTAL RUN TIME: 0 days 7 hours 12 minutes 19 seconds 865 msec
