                         Program Version 5.0.3 -  RELEASE  -
|  1> !CASSCF def2-TZVP def2-TZVP/C
|  2> !MOREAD RIJCOSX
|  3> %maxcore 6000
|  4> %moinp "pbe.qro"
|  5> %pal nprocs 16 end
|  6>
|  7> %casscf
|  8>  mult 6,4
|  9>  bweight 1,1
| 10>  nroots 1,24
| 11>  nel 5
| 12>  norb 5
| 13> end
| 14>
| 15>
| 16> *xyzfile 0 6 pbe.xyz
| 17>
| 18>
| 19>                          ****END OF INPUT****

CARTESIAN COORDINATES (ANGSTROEM)
---------------------------------
  Au     6.660335    8.755551    5.997116
  Au     6.483308    4.922548    7.873563
  Au     4.806663    7.130805    7.111022
  Au     5.837835    9.291813    8.569310
  Au     8.924034    5.135554    6.392931
  Au     6.498302    5.919715    5.295060
  Au     8.764176    7.443804    4.738932
  Au     9.184835    9.846622    6.076790
  Au    10.578068    5.805516    8.427982
  Au     8.187450    5.945035    9.781622
  Au    10.034161    8.017811   10.019368
  Au     5.599389    6.724497    9.830822
  Au     7.408497    8.602180   10.737484
  Au     8.583563   10.085586    8.707140
  Mn     8.629877    7.588111    7.581091

 Total Charge           Charge          ....    0
 Multiplicity           Mult            ....    6
 Number of Electrons    NEL             ....  291
 Basis Dimension        Dim             ....  605

ORBITAL ENERGIES
----------------

  NO   OCC          E(Eh)            E(eV)
   0   2.0000    -240.573676     -6546.3425
   1   2.0000     -29.146816      -793.1252
   2   2.0000     -24.852417      -676.2686
   3   2.0000     -24.851583      -676.2460
   4   2.0000     -24.851383      -676.2405
   5   2.0000      -4.729352      -128.6922
   6   2.0000      -4.729297      -128.6907
   7   2.0000      -4.719204      -128.4161
   8   2.0000      -4.719111      -128.4135
   9   2.0000      -4.714942      -128.3001
  10   2.0000      -4.714920      -128.2995
  11   2.0000      -4.713460      -128.2598
  12   2.0000      -4.713271      -128.2546
  13   2.0000      -4.712664      -128.2381
  14   2.0000      -4.712645      -128.2376
  15   2.0000      -4.706135      -128.0605
  16   2.0000      -4.706025      -128.0575
  17   2.0000      -4.705442      -128.0416
  18   2.0000      -4.705163      -128.0340
  19   2.0000      -3.851365      -104.8010
  20   2.0000      -2.768212       -75.3269
  21   2.0000      -2.768150       -75.3252
  22   2.0000      -2.765990       -75.2664
  23   2.0000      -2.765908       -75.2642
  24   2.0000      -2.763978       -75.2117
  25   2.0000      -2.763951       -75.2109
  26   2.0000      -2.757437       -75.0337
  27   2.0000      -2.757348       -75.0313
  28   2.0000      -2.756072       -74.9965
  29   2.0000      -2.755781       -74.9886
  30   2.0000      -2.752834       -74.9084
  31   2.0000      -2.752568       -74.9012
  32   2.0000      -2.752347       -74.8952
  33   2.0000      -2.752257       -74.8927
  34   2.0000      -2.752057       -74.8873
  35   2.0000      -2.751102       -74.8613
  36   2.0000      -2.750581       -74.8471
  37   2.0000      -2.750421       -74.8428
  38   2.0000      -2.750168       -74.8359
  39   2.0000      -2.749884       -74.8282
  40   2.0000      -2.749843       -74.8270
  41   2.0000      -2.749262       -74.8112
  42   2.0000      -2.749105       -74.8070
  43   2.0000      -2.748318       -74.7855
  44   2.0000      -2.748241       -74.7834
  45   2.0000      -2.747160       -74.7540
  46   2.0000      -2.746984       -74.7492
  47   2.0000      -2.746751       -74.7429
  48   2.0000      -2.745023       -74.6959
  49   2.0000      -2.744725       -74.6878
  50   2.0000      -2.743651       -74.6585
  51   2.0000      -2.743139       -74.6446
  52   2.0000      -2.741026       -74.5871
  53   2.0000      -2.740866       -74.5828
  54   2.0000      -2.740724       -74.5789
  55   2.0000      -2.740662       -74.5772
  56   2.0000      -2.740256       -74.5662
  57   2.0000      -2.740146       -74.5632
  58   2.0000      -2.739830       -74.5546
  59   2.0000      -2.739448       -74.5442
  60   2.0000      -2.738269       -74.5121
  61   2.0000      -2.738080       -74.5069
  62   2.0000      -2.519962       -68.5717
  63   2.0000      -2.519657       -68.5633
  64   2.0000      -2.518770       -68.5392
  65   2.0000      -0.570690       -15.5293
  66   2.0000      -0.560211       -15.2441
  67   2.0000      -0.559667       -15.2293
  68   2.0000      -0.554288       -15.0829
  69   2.0000      -0.551875       -15.0173
  70   2.0000      -0.550967       -14.9926
  71   2.0000      -0.549616       -14.9558
  72   2.0000      -0.545710       -14.8495
  73   2.0000      -0.544947       -14.8288
  74   2.0000      -0.543599       -14.7921
  75   2.0000      -0.543293       -14.7837
  76   2.0000      -0.539812       -14.6890
  77   2.0000      -0.539060       -14.6686
  78   2.0000      -0.535403       -14.5691
  79   2.0000      -0.534531       -14.5453
  80   2.0000      -0.533934       -14.5291
  81   2.0000      -0.531650       -14.4669
  82   2.0000      -0.525778       -14.3072
  83   2.0000      -0.525553       -14.3010
  84   2.0000      -0.523834       -14.2542
  85   2.0000      -0.523023       -14.2322
  86   2.0000      -0.518458       -14.1079
  87   2.0000      -0.515523       -14.0281
  88   2.0000      -0.514821       -14.0090
  89   2.0000      -0.512630       -13.9494
  90   2.0000      -0.509661       -13.8686
  91   2.0000      -0.509144       -13.8545
  92   2.0000      -0.508113       -13.8265
  93   2.0000      -0.501071       -13.6348
  94   2.0000      -0.499847       -13.6015
  95   2.0000      -0.493699       -13.4342
  96   2.0000      -0.491237       -13.3672
  97   2.0000      -0.489548       -13.3213
  98   2.0000      -0.487648       -13.2696
  99   2.0000      -0.482324       -13.1247
 100   2.0000      -0.478812       -13.0291
 101   2.0000      -0.474329       -12.9072
 102   2.0000      -0.471457       -12.8290
 103   2.0000      -0.471060       -12.8182
 104   2.0000      -0.470094       -12.7919
 105   2.0000      -0.469353       -12.7717
 106   2.0000      -0.464125       -12.6295
 107   2.0000      -0.462554       -12.5867
 108   2.0000      -0.460792       -12.5388
 109   2.0000      -0.457341       -12.4449
 110   2.0000      -0.455149       -12.3852
 111   2.0000      -0.454729       -12.3738
 112   2.0000      -0.453000       -12.3268
 113   2.0000      -0.448992       -12.2177
 114   2.0000      -0.446202       -12.1418
 115   2.0000      -0.445658       -12.1270
 116   2.0000      -0.441975       -12.0267
 117   2.0000      -0.441735       -12.0202
 118   2.0000      -0.438395       -11.9293
 119   2.0000      -0.437775       -11.9125
 120   2.0000      -0.436536       -11.8788
 121   2.0000      -0.433871       -11.8062
 122   2.0000      -0.431698       -11.7471
 123   2.0000      -0.431479       -11.7411
 124   2.0000      -0.426142       -11.5959
 125   2.0000      -0.424394       -11.5484
 126   2.0000      -0.424233       -11.5440
 127   2.0000      -0.423023       -11.5110
 128   2.0000      -0.418779       -11.3956
 129   2.0000      -0.417862       -11.3706
 130   2.0000      -0.415996       -11.3198
 131   2.0000      -0.413741       -11.2585
 132   2.0000      -0.406697       -11.0668
 133   2.0000      -0.406295       -11.0558
 134   2.0000      -0.398168       -10.8347
 135   2.0000      -0.385381       -10.4867
 136   2.0000      -0.373488       -10.1631
 137   2.0000      -0.358946        -9.7674
 138   2.0000      -0.348644        -9.4871
 139   2.0000      -0.254257        -6.9187
 140   2.0000      -0.246233        -6.7003
 141   2.0000      -0.233443        -6.3523
 142   2.0000      -0.226030        -6.1506
 143   1.0000      -0.173466        -4.7202
 144   1.0000      -0.173246        -4.7143
 145   1.0000      -0.160388        -4.3644
 146   1.0000      -0.165052        -4.4913
 147   1.0000      -0.171947        -4.6789
 148   0.0000      -0.049981        -1.3601
 149   0.0000      -0.022798        -0.6204
 150   0.0000      -0.000619        -0.0168
 151   0.0000      -0.000053        -0.0014
 152   0.0000       0.002520         0.0686

MULLIKEN ATOMIC CHARGES AND SPIN DENSITIES
------------------------------------------
   0 Au:   -0.126301    0.007878
   1 Au:   -0.030325    0.004344
   2 Au:    0.148973    0.003313
   3 Au:   -0.036235    0.004384
   4 Au:    0.037156    0.009922
   5 Au:    0.116466    0.004243
   6 Au:    0.212664    0.007096
   7 Au:    0.328566    0.007853
   8 Au:    0.329755    0.007789
   9 Au:   -0.126969    0.007907
  10 Au:    0.211765    0.007126
  11 Au:    0.146084    0.003319
  12 Au:    0.117107    0.004241
  13 Au:    0.044106    0.009889
  14 Mn:   -1.372813    3.910695
Sum of atomic charges       :    0.0000000

LOEWDIN ATOMIC CHARGES AND SPIN DENSITIES
-----------------------------------------
   0 Au:   -0.073866    0.011776
   1 Au:   -0.020037    0.005809
   2 Au:    0.024347    0.004011
   3 Au:   -0.021173    0.005876
   4 Au:   -0.036327    0.012986
   5 Au:   -0.029382    0.005773
   6 Au:    0.039637    0.010331
   7 Au:    0.114538    0.010546
   8 Au:    0.114960    0.010475
   9 Au:   -0.073586    0.011816
  10 Au:    0.039358    0.010360
  11 Au:    0.023325    0.004020
  12 Au:   -0.029152    0.005785
  13 Au:   -0.034854    0.012964
  14 Mn:   -0.037787    3.877474

  Mayer bond orders larger than 0.100000
B(  0-Au,  2-Au) :   0.4475 B(  0-Au,  3-Au) :   0.2797 B(  0-Au,  5-Au) :   0.1736
B(  0-Au,  6-Au) :   0.2632 B(  0-Au,  7-Au) :   0.2569 B(  0-Au, 14-Mn) :   0.4229
B(  1-Au,  2-Au) :   0.1775 B(  1-Au,  4-Au) :   0.1679 B(  1-Au,  5-Au) :   0.2627
B(  1-Au,  9-Au) :   0.2808 B(  1-Au, 11-Au) :   0.2756 B(  1-Au, 14-Mn) :   0.1680
B(  2-Au,  3-Au) :   0.2768 B(  2-Au,  5-Au) :   0.2916 B(  3-Au, 11-Au) :   0.1793
B(  3-Au, 12-Au) :   0.2626 B(  3-Au, 13-Au) :   0.1679 B(  3-Au, 14-Mn) :   0.1726
B(  4-Au,  5-Au) :   0.2221 B(  4-Au,  6-Au) :   0.1280 B(  4-Au,  8-Au) :   0.2631
B(  4-Au, 14-Mn) :   0.4897 B(  5-Au,  6-Au) :   0.2445 B(  5-Au, 14-Mn) :   0.1609
B(  6-Au,  7-Au) :   0.1904 B(  6-Au, 14-Mn) :   0.3249 B(  7-Au, 13-Au) :   0.2614
B(  7-Au, 14-Mn) :   0.3840 B(  8-Au,  9-Au) :   0.2564 B(  8-Au, 10-Au) :   0.1918
B(  8-Au, 14-Mn) :   0.3812 B(  9-Au, 10-Au) :   0.2607 B(  9-Au, 11-Au) :   0.4498
B(  9-Au, 12-Au) :   0.1725 B(  9-Au, 14-Mn) :   0.4244 B( 10-Au, 12-Au) :   0.2449
B( 10-Au, 13-Au) :   0.1266 B( 10-Au, 14-Mn) :   0.3266 B( 11-Au, 12-Au) :   0.2925
B( 12-Au, 13-Au) :   0.2208 B( 12-Au, 14-Mn) :   0.1625 B( 13-Au, 14-Mn) :   0.4895

FINAL SINGLE POINT ENERGY     -3037.172471543687

DIPOLE MOMENT
-------------
                                X             Y             Z
Electronic contribution:    -34.07339      -6.69482       8.79296
Nuclear contribution   :     34.59160       6.79575      -8.92674
                        -----------------------------------------
Total Dipole Moment    :      0.51821       0.10092      -0.13378
                        -----------------------------------------
Magnitude (a.u.)       :      0.54463
Magnitude (Debye)      :      1.38435

Rotational constants in cm-1:     0.001103     0.000984     0.000957
Rotational constants in MHz :    33.053456    29.495510    28.697447

                             ****ORCA TERMINATED NORMALLY****
TOTAL RUN TIME: 0 days 0 hours 6 minutes 11 seconds 875 msec
