                         Program Version 5.0.3 -  RELEASE  -
|  1> %pal nprocs 1 end
|  2>
|  3> !PBE def2-TZVP OPT UNO
|  4> !SLOWCONV KDIIS
|  5>
|  6> %geom maxiter 300 end
|  7>
|  8> *xyzfile 0 5 7.xyz                           ****END OF INPUT****
 Total Charge           Charge          ....    0
 Multiplicity           Mult            ....    5
 Number of Electrons    NEL             ....  254
FINAL SINGLE POINT ENERGY     -2893.391247155207
FINAL SINGLE POINT ENERGY     -2893.392426175676
FINAL SINGLE POINT ENERGY     -2893.393267696250
FINAL SINGLE POINT ENERGY     -2893.393851353516
FINAL SINGLE POINT ENERGY     -2893.394250288254
FINAL SINGLE POINT ENERGY     -2893.394508887761
FINAL SINGLE POINT ENERGY     -2893.394778394631
FINAL SINGLE POINT ENERGY     -2893.395089887729
FINAL SINGLE POINT ENERGY     -2893.395271422969
FINAL SINGLE POINT ENERGY     -2893.395425262998
FINAL SINGLE POINT ENERGY     -2893.397117556763
FINAL SINGLE POINT ENERGY     -2893.397127137089
FINAL SINGLE POINT ENERGY     -2893.397131816769
FINAL SINGLE POINT ENERGY     -2893.397134216218
FINAL SINGLE POINT ENERGY     -2893.397135747563
FINAL SINGLE POINT ENERGY     -2893.397136947471
FINAL SINGLE POINT ENERGY     -2893.397137996883
FINAL SINGLE POINT ENERGY     -2893.397138833334
FINAL SINGLE POINT ENERGY     -2893.397139378531
                    ***********************HURRAY********************

CARTESIAN COORDINATES (ANGSTROEM)
---------------------------------
  Au     8.264597    9.367138    7.574942
  Au     6.726181    9.563667    2.701538
  Au     7.885633    7.438359    3.980912
  Au     7.067437   10.227402    5.387281
  Au     4.310427    8.986876    6.560551
  Au     4.514167   10.531455    4.310860
  Au     5.064247    7.781743    4.100229
  Au     8.148163    5.613481    5.960077
  Au     6.431637    4.521173    7.941059
  Au     5.263445    5.582960    5.677193
  Au     5.013579    6.966267    8.214927
  Au     7.863900    6.862186    8.525623
  Fe     6.659325    7.778560    6.307192

 Multiplicity           Mult            ....    5
 Number of Electrons    NEL             ....  254
 Basis Dimension        Dim             ....  525

ORBITAL ENERGIES
----------------
                 SPIN UP ORBITALS
  NO   OCC          E(Eh)            E(eV)
   0   1.0000    -254.774682     -6932.7716
   1   1.0000     -29.618984      -805.9735
   2   1.0000     -25.554461      -695.3722
   3   1.0000     -25.554010      -695.3600
   4   1.0000     -25.552525      -695.3196
   5   1.0000      -4.036169      -109.8297
   6   1.0000      -4.027482      -109.5934
   7   1.0000      -4.027400      -109.5911
   8   1.0000      -4.026966      -109.5793
   9   1.0000      -4.026511      -109.5669
  10   1.0000      -4.025828      -109.5483
  11   1.0000      -4.025771      -109.5468
  12   1.0000      -4.024301      -109.5068
  13   1.0000      -4.019046      -109.3638
  14   1.0000      -4.016549      -109.2958
  15   1.0000      -4.016387      -109.2915
  16   1.0000      -4.015344      -109.2631
  17   1.0000      -3.397254       -92.4440
  18   1.0000      -2.252976       -61.3066
  19   1.0000      -2.248397       -61.1820
  20   1.0000      -2.247231       -61.1503
  21   1.0000      -2.246444       -61.1288
  22   1.0000      -2.246080       -61.1189
  23   1.0000      -2.245934       -61.1150
  24   1.0000      -2.242870       -61.0316
  25   1.0000      -2.242437       -61.0198
  26   1.0000      -2.242237       -61.0144
  27   1.0000      -2.241737       -61.0008
  28   1.0000      -2.241398       -60.9915
  29   1.0000      -2.241018       -60.9812
  30   1.0000      -2.240684       -60.9721
  31   1.0000      -2.239875       -60.9501
  32   1.0000      -2.239640       -60.9437
  33   1.0000      -2.239374       -60.9365
  34   1.0000      -2.237692       -60.8907
  35   1.0000      -2.237148       -60.8759
  36   1.0000      -2.235149       -60.8215
  37   1.0000      -2.234353       -60.7998
  38   1.0000      -2.234279       -60.7978
  39   1.0000      -2.233614       -60.7797
  40   1.0000      -2.233592       -60.7791
  41   1.0000      -2.233450       -60.7753
  42   1.0000      -2.232688       -60.7545
  43   1.0000      -2.232099       -60.7385
  44   1.0000      -2.230856       -60.7047
  45   1.0000      -2.230658       -60.6993
  46   1.0000      -2.230288       -60.6892
  47   1.0000      -2.228799       -60.6487
  48   1.0000      -2.228442       -60.6390
  49   1.0000      -2.228284       -60.6347
  50   1.0000      -2.227722       -60.6194
  51   1.0000      -2.227443       -60.6118
  52   1.0000      -2.227426       -60.6113
  53   1.0000      -2.224751       -60.5386
  54   1.0000      -2.211396       -60.1751
  55   1.0000      -2.211293       -60.1723
  56   1.0000      -2.207873       -60.0793
  57   1.0000      -0.425387       -11.5754
  58   1.0000      -0.389589       -10.6013
  59   1.0000      -0.380167       -10.3449
  60   1.0000      -0.375332       -10.2133
  61   1.0000      -0.370153       -10.0724
  62   1.0000      -0.369452       -10.0533
  63   1.0000      -0.366630        -9.9765
  64   1.0000      -0.364466        -9.9176
  65   1.0000      -0.361184        -9.8283
  66   1.0000      -0.359816        -9.7911
  67   1.0000      -0.352167        -9.5829
  68   1.0000      -0.344663        -9.3788
  69   1.0000      -0.341742        -9.2993
  70   1.0000      -0.338374        -9.2076
  71   1.0000      -0.338128        -9.2009
  72   1.0000      -0.335738        -9.1359
  73   1.0000      -0.335418        -9.1272
  74   1.0000      -0.334521        -9.1028
  75   1.0000      -0.333693        -9.0802
  76   1.0000      -0.331392        -9.0176
  77   1.0000      -0.328049        -8.9267
  78   1.0000      -0.321314        -8.7434
  79   1.0000      -0.318458        -8.6657
  80   1.0000      -0.316820        -8.6211
  81   1.0000      -0.316090        -8.6013
  82   1.0000      -0.315013        -8.5719
  83   1.0000      -0.306990        -8.3536
  84   1.0000      -0.305448        -8.3117
  85   1.0000      -0.301487        -8.2039
  86   1.0000      -0.301078        -8.1927
  87   1.0000      -0.298129        -8.1125
  88   1.0000      -0.297873        -8.1055
  89   1.0000      -0.291092        -7.9210
  90   1.0000      -0.290887        -7.9154
  91   1.0000      -0.289239        -7.8706
  92   1.0000      -0.288907        -7.8616
  93   1.0000      -0.282909        -7.6983
  94   1.0000      -0.281849        -7.6695
  95   1.0000      -0.279269        -7.5993
  96   1.0000      -0.278156        -7.5690
  97   1.0000      -0.274753        -7.4764
  98   1.0000      -0.273693        -7.4476
  99   1.0000      -0.272689        -7.4202
 100   1.0000      -0.271901        -7.3988
 101   1.0000      -0.269105        -7.3227
 102   1.0000      -0.268536        -7.3072
 103   1.0000      -0.267572        -7.2810
 104   1.0000      -0.265760        -7.2317
 105   1.0000      -0.264506        -7.1976
 106   1.0000      -0.262851        -7.1526
 107   1.0000      -0.262780        -7.1506
 108   1.0000      -0.261681        -7.1207
 109   1.0000      -0.260966        -7.1012
 110   1.0000      -0.258739        -7.0407
 111   1.0000      -0.257053        -6.9948
 112   1.0000      -0.256428        -6.9778
 113   1.0000      -0.255938        -6.9644
 114   1.0000      -0.253322        -6.8932
 115   1.0000      -0.251821        -6.8524
 116   1.0000      -0.250513        -6.8168
 117   1.0000      -0.246669        -6.7122
 118   1.0000      -0.245450        -6.6790
 119   1.0000      -0.244843        -6.6625
 120   1.0000      -0.240969        -6.5571
 121   1.0000      -0.240175        -6.5355
 122   1.0000      -0.239653        -6.5213
 123   1.0000      -0.239097        -6.5062
 124   1.0000      -0.235454        -6.4070
 125   1.0000      -0.235044        -6.3959
 126   1.0000      -0.221708        -6.0330
 127   1.0000      -0.195618        -5.3230
 128   1.0000      -0.187562        -5.1038
 129   0.0000      -0.179403        -4.8818
 130   0.0000      -0.139851        -3.8055
 131   0.0000      -0.136097        -3.7034
 132   0.0000      -0.129960        -3.5364
 133   0.0000      -0.113164        -3.0793

                 SPIN DOWN ORBITALS
  NO   OCC          E(Eh)            E(eV)
   0   1.0000    -254.773925     -6932.7509
   1   1.0000     -29.557259      -804.2939
   2   1.0000     -25.507941      -694.1064
   3   1.0000     -25.506850      -694.0767
   4   1.0000     -25.506313      -694.0620
   5   1.0000      -4.035706      -109.8171
   6   1.0000      -4.026595      -109.5692
   7   1.0000      -4.026521      -109.5672
   8   1.0000      -4.026183      -109.5580
   9   1.0000      -4.025018      -109.5263
  10   1.0000      -4.024974      -109.5251
  11   1.0000      -4.024969      -109.5250
  12   1.0000      -4.023398      -109.4822
  13   1.0000      -4.017559      -109.3233
  14   1.0000      -4.016431      -109.2927
  15   1.0000      -4.016265      -109.2881
  16   1.0000      -4.015151      -109.2578
  17   1.0000      -3.258380       -88.6650
  18   1.0000      -2.252435       -61.2919
  19   1.0000      -2.247667       -61.1621
  20   1.0000      -2.246857       -61.1401
  21   1.0000      -2.244880       -61.0863
  22   1.0000      -2.244842       -61.0853
  23   1.0000      -2.243944       -61.0608
  24   1.0000      -2.242468       -61.0207
  25   1.0000      -2.241064       -60.9825
  26   1.0000      -2.240914       -60.9784
  27   1.0000      -2.240577       -60.9692
  28   1.0000      -2.240192       -60.9587
  29   1.0000      -2.239975       -60.9528
  30   1.0000      -2.239732       -60.9462
  31   1.0000      -2.238617       -60.9159
  32   1.0000      -2.238354       -60.9087
  33   1.0000      -2.237222       -60.8779
  34   1.0000      -2.236332       -60.8537
  35   1.0000      -2.234943       -60.8159
  36   1.0000      -2.234906       -60.8149
  37   1.0000      -2.233823       -60.7854
  38   1.0000      -2.233748       -60.7834
  39   1.0000      -2.233119       -60.7663
  40   1.0000      -2.233117       -60.7662
  41   1.0000      -2.232303       -60.7441
  42   1.0000      -2.231620       -60.7255
  43   1.0000      -2.231460       -60.7211
  44   1.0000      -2.230736       -60.7014
  45   1.0000      -2.230513       -60.6953
  46   1.0000      -2.230058       -60.6830
  47   1.0000      -2.228580       -60.6427
  48   1.0000      -2.228221       -60.6330
  49   1.0000      -2.228008       -60.6272
  50   1.0000      -2.227599       -60.6160
  51   1.0000      -2.227313       -60.6083
  52   1.0000      -2.227288       -60.6076
  53   1.0000      -2.223302       -60.4991
  54   1.0000      -2.075464       -56.4762
  55   1.0000      -2.074647       -56.4540
  56   1.0000      -2.073109       -56.4122
  57   1.0000      -0.420306       -11.4371
  58   1.0000      -0.387646       -10.5484
  59   1.0000      -0.372033       -10.1235
  60   1.0000      -0.370714       -10.0876
  61   1.0000      -0.367803       -10.0084
  62   1.0000      -0.363174        -9.8825
  63   1.0000      -0.358352        -9.7513
  64   1.0000      -0.355548        -9.6749
  65   1.0000      -0.350844        -9.5469
  66   1.0000      -0.349916        -9.5217
  67   1.0000      -0.342927        -9.3315
  68   1.0000      -0.342046        -9.3075
  69   1.0000      -0.337831        -9.1928
  70   1.0000      -0.335877        -9.1397
  71   1.0000      -0.334553        -9.1036
  72   1.0000      -0.333386        -9.0719
  73   1.0000      -0.330827        -9.0023
  74   1.0000      -0.326880        -8.8949
  75   1.0000      -0.325647        -8.8613
  76   1.0000      -0.322440        -8.7740
  77   1.0000      -0.322272        -8.7695
  78   1.0000      -0.317380        -8.6363
  79   1.0000      -0.315788        -8.5930
  80   1.0000      -0.314424        -8.5559
  81   1.0000      -0.311429        -8.4744
  82   1.0000      -0.310303        -8.4438
  83   1.0000      -0.304002        -8.2723
  84   1.0000      -0.298927        -8.1342
  85   1.0000      -0.295905        -8.0520
  86   1.0000      -0.295564        -8.0427
  87   1.0000      -0.292990        -7.9727
  88   1.0000      -0.290559        -7.9065
  89   1.0000      -0.288612        -7.8535
  90   1.0000      -0.286762        -7.8032
  91   1.0000      -0.285122        -7.7586
  92   1.0000      -0.283891        -7.7251
  93   1.0000      -0.278182        -7.5697
  94   1.0000      -0.276951        -7.5362
  95   1.0000      -0.275996        -7.5102
  96   1.0000      -0.274287        -7.4637
  97   1.0000      -0.272905        -7.4261
  98   1.0000      -0.271651        -7.3920
  99   1.0000      -0.270401        -7.3580
 100   1.0000      -0.269109        -7.3228
 101   1.0000      -0.266177        -7.2430
 102   1.0000      -0.265464        -7.2236
 103   1.0000      -0.264621        -7.2007
 104   1.0000      -0.262478        -7.1424
 105   1.0000      -0.260974        -7.1015
 106   1.0000      -0.260241        -7.0815
 107   1.0000      -0.259434        -7.0596
 108   1.0000      -0.257837        -7.0161
 109   1.0000      -0.256588        -6.9821
 110   1.0000      -0.255056        -6.9404
 111   1.0000      -0.251980        -6.8567
 112   1.0000      -0.248275        -6.7559
 113   1.0000      -0.247158        -6.7255
 114   1.0000      -0.246015        -6.6944
 115   1.0000      -0.244217        -6.6455
 116   1.0000      -0.242695        -6.6041
 117   1.0000      -0.240957        -6.5568
 118   1.0000      -0.239491        -6.5169
 119   1.0000      -0.235680        -6.4132
 120   1.0000      -0.234949        -6.3933
 121   1.0000      -0.224261        -6.1025
 122   1.0000      -0.205586        -5.5943
 123   1.0000      -0.201640        -5.4869
 124   1.0000      -0.200191        -5.4475
 125   0.0000      -0.169682        -4.6173
 126   0.0000      -0.168729        -4.5914
 127   0.0000      -0.166604        -4.5335
 128   0.0000      -0.163953        -4.4614
 129   0.0000      -0.158869        -4.3231

MULLIKEN ATOMIC CHARGES AND SPIN POPULATIONS
--------------------------------------------
   0 Au:    0.256097    0.061131
   1 Au:    0.329485    0.094104
   2 Au:    0.064484    0.022243
   3 Au:   -0.065456    0.201890
   4 Au:    0.065891    0.022540
   5 Au:    0.328203    0.094148
   6 Au:    0.038758   -0.041390
   7 Au:    0.177710    0.059589
   8 Au:    0.337789    0.076799
   9 Au:    0.095789    0.029228
  10 Au:    0.176823    0.059159
  11 Au:    0.149967    0.126904
  12 Fe:   -1.955541    3.193655
Sum of atomic charges         :   -0.0000000

LOEWDIN ATOMIC CHARGES AND SPIN POPULATIONS
-------------------------------------------
   0 Au:    0.138632    0.077161
   1 Au:    0.043858    0.078442
   2 Au:    0.074636    0.031884
   3 Au:   -0.039970    0.153752
   4 Au:    0.075083    0.031728
   5 Au:    0.043117    0.078711
   6 Au:   -0.021773    0.000362
   7 Au:    0.052993    0.042602
   8 Au:    0.030818    0.075284
   9 Au:    0.048754    0.015741
  10 Au:    0.053180    0.042447
  11 Au:    0.013501    0.077466
  12 Fe:   -0.512828    3.294418

  Mayer bond orders larger than 0.100000
B(  0-Au,  3-Au) :   0.4611 B(  0-Au, 11-Au) :   0.2615 B(  0-Au, 12-Fe) :   0.6309
B(  1-Au,  2-Au) :   0.4088 B(  1-Au,  3-Au) :   0.2822 B(  1-Au,  5-Au) :   0.1384
B(  1-Au,  6-Au) :   0.2747 B(  2-Au,  6-Au) :   0.2204 B(  2-Au,  7-Au) :   0.3326
B(  2-Au, 12-Fe) :   0.6191 B(  3-Au,  5-Au) :   0.2819 B(  3-Au, 12-Fe) :   0.5844
B(  4-Au,  5-Au) :   0.4097 B(  4-Au,  6-Au) :   0.2228 B(  4-Au, 10-Au) :   0.3319
B(  4-Au, 12-Fe) :   0.6176 B(  5-Au,  6-Au) :   0.2733 B(  6-Au,  9-Au) :   0.3298
B(  6-Au, 12-Fe) :   0.4714 B(  7-Au,  8-Au) :   0.2264 B(  7-Au,  9-Au) :   0.1623
B(  7-Au, 11-Au) :   0.1992 B(  7-Au, 12-Fe) :   0.5324 B(  8-Au,  9-Au) :   0.3492
B(  8-Au, 10-Au) :   0.2268 B(  8-Au, 11-Au) :   0.2334 B(  9-Au, 10-Au) :   0.1613
B(  9-Au, 11-Au) :   0.1060 B(  9-Au, 12-Fe) :   0.5978 B( 10-Au, 11-Au) :   0.1980
B( 10-Au, 12-Fe) :   0.5352 B( 11-Au, 12-Fe) :   0.5875

FINAL SINGLE POINT ENERGY     -2893.397139766536

DIPOLE MOMENT
-------------
                                X             Y             Z
Electronic contribution:    -10.74788       0.21094     -15.14012
Nuclear contribution   :     10.64999      -0.31708      15.06613
                        -----------------------------------------
Total Dipole Moment    :     -0.09790      -0.10614      -0.07399
                        -----------------------------------------
Magnitude (a.u.)       :      0.16225
Magnitude (Debye)      :      0.41240

Rotational constants in cm-1:     0.001839     0.001031     0.001025
Rotational constants in MHz :    55.131531    30.894425    30.726367

                             ****ORCA TERMINATED NORMALLY****
TOTAL RUN TIME: 0 days 4 hours 8 minutes 17 seconds 745 msec
