                         Program Version 5.0.3 -  RELEASE  -
|  1> %pal nprocs 16 end
|  2>
|  3> !PBE def2-TZVP OPT UNO
|  4> !SLOWCONV
|  5>
|  6> *xyzfile 0 5 6-1.xyz
|  7>
|  8>                          ****END OF INPUT****
 Total Charge           Charge          ....    0
 Multiplicity           Mult            ....    5
 Number of Electrons    NEL             ....  310
FINAL SINGLE POINT ENERGY     -3188.211875623957
FINAL SINGLE POINT ENERGY     -3188.211898457948
FINAL SINGLE POINT ENERGY     -3188.211914965971
FINAL SINGLE POINT ENERGY     -3188.211922525205
FINAL SINGLE POINT ENERGY     -3188.211932716374
FINAL SINGLE POINT ENERGY     -3188.211940546797
FINAL SINGLE POINT ENERGY     -3188.211945588796
FINAL SINGLE POINT ENERGY     -3188.211950449220
FINAL SINGLE POINT ENERGY     -3188.211954655206
FINAL SINGLE POINT ENERGY     -3188.211959825939
                    ***********************HURRAY********************

CARTESIAN COORDINATES (ANGSTROEM)
---------------------------------
  Au     5.973684   10.423535    7.858475
  Au     6.590164    5.578620    8.107303
  Au     4.740570    7.953564    8.366155
  Au     5.241810    6.806319    5.967024
  Au     7.811673    5.873798    5.590006
  Au     9.321007    8.143709    5.360624
  Au     8.315074   10.489117    6.482109
  Au    10.501556    9.112167    7.655378
  Au    10.258661    7.832510   10.044189
  Au     8.340940    9.794252    9.311685
  Au     8.432955    5.719267   10.122529
  Au     7.998626    8.131318   11.595599
  Au     9.553541    6.404059    7.683218
  Au     5.842880    6.609353   10.572365
  Au     5.810575    9.412927   10.457408
  Mn     7.345067    8.084133    7.311377

 Multiplicity           Mult            ....    5
 Number of Electrons    NEL             ....  310
 Basis Dimension        Dim             ....  645

ORBITAL ENERGIES
----------------
                 SPIN UP ORBITALS
  NO   OCC          E(Eh)            E(eV)
   0   1.0000    -234.214055     -6373.2884
   1   1.0000     -26.907903      -732.2013
   2   1.0000     -23.058000      -627.4401
   3   1.0000     -23.055397      -627.3693
   4   1.0000     -23.054887      -627.3554
   5   1.0000      -4.041296      -109.9692
   6   1.0000      -4.041141      -109.9650
   7   1.0000      -4.037626      -109.8694
   8   1.0000      -4.033981      -109.7702
   9   1.0000      -4.033427      -109.7551
  10   1.0000      -4.032880      -109.7402
  11   1.0000      -4.032662      -109.7343
  12   1.0000      -4.031450      -109.7013
  13   1.0000      -4.027708      -109.5995
  14   1.0000      -4.027329      -109.5892
  15   1.0000      -4.026960      -109.5791
  16   1.0000      -4.025575      -109.5415
  17   1.0000      -4.023326      -109.4803
  18   1.0000      -4.020519      -109.4039
  19   1.0000      -4.020391      -109.4004
  20   1.0000      -3.120716       -84.9190
  21   1.0000      -2.257412       -61.4273
  22   1.0000      -2.255831       -61.3843
  23   1.0000      -2.254890       -61.3587
  24   1.0000      -2.253738       -61.3273
  25   1.0000      -2.253257       -61.3142
  26   1.0000      -2.251669       -61.2710
  27   1.0000      -2.251594       -61.2690
  28   1.0000      -2.249602       -61.2148
  29   1.0000      -2.249462       -61.2110
  30   1.0000      -2.249319       -61.2071
  31   1.0000      -2.248993       -61.1982
  32   1.0000      -2.248650       -61.1889
  33   1.0000      -2.247770       -61.1649
  34   1.0000      -2.247352       -61.1536
  35   1.0000      -2.247061       -61.1456
  36   1.0000      -2.246040       -61.1179
  37   1.0000      -2.245513       -61.1035
  38   1.0000      -2.245184       -61.0946
  39   1.0000      -2.244893       -61.0866
  40   1.0000      -2.244620       -61.0792
  41   1.0000      -2.244112       -61.0654
  42   1.0000      -2.243934       -61.0605
  43   1.0000      -2.242781       -61.0292
  44   1.0000      -2.242265       -61.0151
  45   1.0000      -2.242201       -61.0134
  46   1.0000      -2.241593       -60.9969
  47   1.0000      -2.240997       -60.9806
  48   1.0000      -2.240699       -60.9725
  49   1.0000      -2.240267       -60.9608
  50   1.0000      -2.239547       -60.9412
  51   1.0000      -2.239268       -60.9336
  52   1.0000      -2.239102       -60.9291
  53   1.0000      -2.238808       -60.9211
  54   1.0000      -2.238192       -60.9043
  55   1.0000      -2.237803       -60.8937
  56   1.0000      -2.237366       -60.8818
  57   1.0000      -2.236383       -60.8551
  58   1.0000      -2.236243       -60.8513
  59   1.0000      -2.235322       -60.8262
  60   1.0000      -2.234831       -60.8129
  61   1.0000      -2.234343       -60.7996
  62   1.0000      -2.233368       -60.7730
  63   1.0000      -2.231982       -60.7353
  64   1.0000      -2.230203       -60.6869
  65   1.0000      -2.229398       -60.6650
  66   1.0000      -2.026858       -55.1536
  67   1.0000      -2.021781       -55.0155
  68   1.0000      -2.021180       -54.9991
  69   1.0000      -0.432855       -11.7786
  70   1.0000      -0.395986       -10.7753
  71   1.0000      -0.391553       -10.6547
  72   1.0000      -0.387173       -10.5355
  73   1.0000      -0.380507       -10.3541
  74   1.0000      -0.378561       -10.3012
  75   1.0000      -0.369536       -10.0556
  76   1.0000      -0.369081       -10.0432
  77   1.0000      -0.366686        -9.9780
  78   1.0000      -0.363982        -9.9044
  79   1.0000      -0.362780        -9.8717
  80   1.0000      -0.359473        -9.7817
  81   1.0000      -0.359230        -9.7751
  82   1.0000      -0.356819        -9.7095
  83   1.0000      -0.353995        -9.6327
  84   1.0000      -0.352496        -9.5919
  85   1.0000      -0.351170        -9.5558
  86   1.0000      -0.350571        -9.5395
  87   1.0000      -0.348078        -9.4717
  88   1.0000      -0.346988        -9.4420
  89   1.0000      -0.345738        -9.4080
  90   1.0000      -0.343137        -9.3372
  91   1.0000      -0.341750        -9.2995
  92   1.0000      -0.338289        -9.2053
  93   1.0000      -0.337040        -9.1713
  94   1.0000      -0.334732        -9.1085
  95   1.0000      -0.333676        -9.0798
  96   1.0000      -0.332633        -9.0514
  97   1.0000      -0.328698        -8.9443
  98   1.0000      -0.328627        -8.9424
  99   1.0000      -0.325263        -8.8509
 100   1.0000      -0.321031        -8.7357
 101   1.0000      -0.317916        -8.6509
 102   1.0000      -0.315969        -8.5980
 103   1.0000      -0.313402        -8.5281
 104   1.0000      -0.309530        -8.4227
 105   1.0000      -0.308899        -8.4056
 106   1.0000      -0.308077        -8.3832
 107   1.0000      -0.303649        -8.2627
 108   1.0000      -0.302676        -8.2362
 109   1.0000      -0.300254        -8.1703
 110   1.0000      -0.298922        -8.1341
 111   1.0000      -0.296195        -8.0599
 112   1.0000      -0.292379        -7.9560
 113   1.0000      -0.290614        -7.9080
 114   1.0000      -0.288196        -7.8422
 115   1.0000      -0.285872        -7.7790
 116   1.0000      -0.284164        -7.7325
 117   1.0000      -0.281787        -7.6678
 118   1.0000      -0.280728        -7.6390
 119   1.0000      -0.279920        -7.6170
 120   1.0000      -0.278694        -7.5836
 121   1.0000      -0.277135        -7.5412
 122   1.0000      -0.275169        -7.4877
 123   1.0000      -0.273663        -7.4468
 124   1.0000      -0.273450        -7.4410
 125   1.0000      -0.271961        -7.4004
 126   1.0000      -0.271411        -7.3855
 127   1.0000      -0.269612        -7.3365
 128   1.0000      -0.269072        -7.3218
 129   1.0000      -0.266651        -7.2559
 130   1.0000      -0.264600        -7.2001
 131   1.0000      -0.264237        -7.1903
 132   1.0000      -0.262014        -7.1298
 133   1.0000      -0.261270        -7.1095
 134   1.0000      -0.260552        -7.0900
 135   1.0000      -0.258270        -7.0279
 136   1.0000      -0.257117        -6.9965
 137   1.0000      -0.256027        -6.9669
 138   1.0000      -0.253688        -6.9032
 139   1.0000      -0.252931        -6.8826
 140   1.0000      -0.252604        -6.8737
 141   1.0000      -0.252148        -6.8613
 142   1.0000      -0.250584        -6.8187
 143   1.0000      -0.249897        -6.8000
 144   1.0000      -0.249186        -6.7807
 145   1.0000      -0.248599        -6.7647
 146   1.0000      -0.246040        -6.6951
 147   1.0000      -0.245024        -6.6674
 148   1.0000      -0.244281        -6.6472
 149   1.0000      -0.242851        -6.6083
 150   1.0000      -0.242073        -6.5871
 151   1.0000      -0.239205        -6.5091
 152   1.0000      -0.235623        -6.4116
 153   1.0000      -0.219380        -5.9696
 154   1.0000      -0.214006        -5.8234
 155   1.0000      -0.207980        -5.6594
 156   1.0000      -0.205252        -5.5852
 157   0.0000      -0.187317        -5.0972
 158   0.0000      -0.152631        -4.1533
 159   0.0000      -0.141070        -3.8387
 160   0.0000      -0.134949        -3.6721
 161   0.0000      -0.129037        -3.5113

                 SPIN DOWN ORBITALS
  NO   OCC          E(Eh)            E(eV)
   0   1.0000    -234.213337     -6373.2689
   1   1.0000     -26.839235      -730.3327
   2   1.0000     -23.005017      -625.9983
   3   1.0000     -23.003453      -625.9558
   4   1.0000     -23.003419      -625.9549
   5   1.0000      -4.040878      -109.9579
   6   1.0000      -4.040870      -109.9577
   7   1.0000      -4.037323      -109.8612
   8   1.0000      -4.033579      -109.7593
   9   1.0000      -4.032684      -109.7349
  10   1.0000      -4.032521      -109.7305
  11   1.0000      -4.032330      -109.7253
  12   1.0000      -4.030882      -109.6859
  13   1.0000      -4.027875      -109.6040
  14   1.0000      -4.027682      -109.5988
  15   1.0000      -4.026777      -109.5742
  16   1.0000      -4.025612      -109.5425
  17   1.0000      -4.023506      -109.4852
  18   1.0000      -4.020858      -109.4131
  19   1.0000      -4.020616      -109.4065
  20   1.0000      -2.951702       -80.3199
  21   1.0000      -2.256958       -61.4149
  22   1.0000      -2.255420       -61.3731
  23   1.0000      -2.254908       -61.3592
  24   1.0000      -2.253173       -61.3120
  25   1.0000      -2.252769       -61.3009
  26   1.0000      -2.251594       -61.2690
  27   1.0000      -2.251155       -61.2570
  28   1.0000      -2.249083       -61.2007
  29   1.0000      -2.248970       -61.1976
  30   1.0000      -2.248562       -61.1865
  31   1.0000      -2.248455       -61.1836
  32   1.0000      -2.248325       -61.1800
  33   1.0000      -2.247152       -61.1481
  34   1.0000      -2.246839       -61.1396
  35   1.0000      -2.246517       -61.1308
  36   1.0000      -2.245575       -61.1052
  37   1.0000      -2.245139       -61.0934
  38   1.0000      -2.244879       -61.0863
  39   1.0000      -2.244268       -61.0696
  40   1.0000      -2.243941       -61.0607
  41   1.0000      -2.243543       -61.0499
  42   1.0000      -2.243496       -61.0486
  43   1.0000      -2.242773       -61.0289
  44   1.0000      -2.242141       -61.0117
  45   1.0000      -2.241920       -61.0058
  46   1.0000      -2.241579       -60.9965
  47   1.0000      -2.240862       -60.9770
  48   1.0000      -2.240696       -60.9724
  49   1.0000      -2.240470       -60.9663
  50   1.0000      -2.239606       -60.9428
  51   1.0000      -2.239525       -60.9406
  52   1.0000      -2.239349       -60.9358
  53   1.0000      -2.238926       -60.9243
  54   1.0000      -2.238242       -60.9057
  55   1.0000      -2.237950       -60.8977
  56   1.0000      -2.237700       -60.8909
  57   1.0000      -2.236492       -60.8580
  58   1.0000      -2.235941       -60.8431
  59   1.0000      -2.235474       -60.8303
  60   1.0000      -2.235156       -60.8217
  61   1.0000      -2.234673       -60.8085
  62   1.0000      -2.233725       -60.7828
  63   1.0000      -2.232239       -60.7423
  64   1.0000      -2.230419       -60.6928
  65   1.0000      -2.229607       -60.6707
  66   1.0000      -1.858259       -50.5658
  67   1.0000      -1.857114       -50.5346
  68   1.0000      -1.856457       -50.5168
  69   1.0000      -0.427138       -11.6230
  70   1.0000      -0.395685       -10.7671
  71   1.0000      -0.390400       -10.6233
  72   1.0000      -0.383484       -10.4351
  73   1.0000      -0.375338       -10.2135
  74   1.0000      -0.373134       -10.1535
  75   1.0000      -0.369211       -10.0467
  76   1.0000      -0.367688       -10.0053
  77   1.0000      -0.365948        -9.9580
  78   1.0000      -0.362755        -9.8711
  79   1.0000      -0.362117        -9.8537
  80   1.0000      -0.359238        -9.7754
  81   1.0000      -0.357899        -9.7389
  82   1.0000      -0.355320        -9.6688
  83   1.0000      -0.352229        -9.5846
  84   1.0000      -0.350619        -9.5408
  85   1.0000      -0.349384        -9.5072
  86   1.0000      -0.348761        -9.4903
  87   1.0000      -0.347440        -9.4543
  88   1.0000      -0.345100        -9.3907
  89   1.0000      -0.343446        -9.3456
  90   1.0000      -0.342223        -9.3124
  91   1.0000      -0.338278        -9.2050
  92   1.0000      -0.336456        -9.1554
  93   1.0000      -0.334213        -9.0944
  94   1.0000      -0.333857        -9.0847
  95   1.0000      -0.333054        -9.0629
  96   1.0000      -0.329893        -8.9768
  97   1.0000      -0.328343        -8.9347
  98   1.0000      -0.324887        -8.8406
  99   1.0000      -0.322587        -8.7780
 100   1.0000      -0.320566        -8.7230
 101   1.0000      -0.315291        -8.5795
 102   1.0000      -0.311689        -8.4815
 103   1.0000      -0.309316        -8.4169
 104   1.0000      -0.305906        -8.3241
 105   1.0000      -0.305198        -8.3049
 106   1.0000      -0.303838        -8.2678
 107   1.0000      -0.301773        -8.2117
 108   1.0000      -0.299464        -8.1488
 109   1.0000      -0.295588        -8.0433
 110   1.0000      -0.294028        -8.0009
 111   1.0000      -0.291264        -7.9257
 112   1.0000      -0.289489        -7.8774
 113   1.0000      -0.288389        -7.8475
 114   1.0000      -0.287084        -7.8120
 115   1.0000      -0.285802        -7.7771
 116   1.0000      -0.282569        -7.6891
 117   1.0000      -0.281111        -7.6494
 118   1.0000      -0.279660        -7.6099
 119   1.0000      -0.278526        -7.5791
 120   1.0000      -0.276502        -7.5240
 121   1.0000      -0.275086        -7.4855
 122   1.0000      -0.274214        -7.4618
 123   1.0000      -0.272859        -7.4249
 124   1.0000      -0.271890        -7.3985
 125   1.0000      -0.270234        -7.3534
 126   1.0000      -0.268677        -7.3111
 127   1.0000      -0.268395        -7.3034
 128   1.0000      -0.267100        -7.2682
 129   1.0000      -0.264075        -7.1859
 130   1.0000      -0.262772        -7.1504
 131   1.0000      -0.261660        -7.1201
 132   1.0000      -0.260897        -7.0994
 133   1.0000      -0.258363        -7.0304
 134   1.0000      -0.257899        -7.0178
 135   1.0000      -0.253951        -6.9104
 136   1.0000      -0.253572        -6.9001
 137   1.0000      -0.252796        -6.8789
 138   1.0000      -0.251477        -6.8430
 139   1.0000      -0.251319        -6.8387
 140   1.0000      -0.249748        -6.7960
 141   1.0000      -0.248752        -6.7689
 142   1.0000      -0.247208        -6.7269
 143   1.0000      -0.245844        -6.6898
 144   1.0000      -0.243459        -6.6249
 145   1.0000      -0.242891        -6.6094
 146   1.0000      -0.240176        -6.5355
 147   1.0000      -0.236247        -6.4286
 148   1.0000      -0.224090        -6.0978
 149   1.0000      -0.219132        -5.9629
 150   1.0000      -0.215402        -5.8614
 151   1.0000      -0.211381        -5.7520
 152   1.0000      -0.193840        -5.2747
 153   0.0000      -0.152218        -4.1420
 154   0.0000      -0.149985        -4.0813
 155   0.0000      -0.148966        -4.0536
 156   0.0000      -0.143253        -3.8981
 157   0.0000      -0.141695        -3.8557

MULLIKEN ATOMIC CHARGES AND SPIN POPULATIONS
--------------------------------------------
   0 Au:    0.267404   -0.030463
   1 Au:   -0.098193   -0.094302
   2 Au:    0.022037   -0.003474
   3 Au:    0.358763    0.015069
   4 Au:    0.340982    0.004798
   5 Au:    0.321911   -0.024113
   6 Au:    0.304098    0.013049
   7 Au:    0.199631   -0.014177
   8 Au:    0.169128   -0.062012
   9 Au:   -0.456489   -0.104521
  10 Au:    0.139184   -0.068472
  11 Au:    0.136471   -0.032222
  12 Au:   -0.210903    0.046929
  13 Au:    0.163537    0.034224
  14 Au:    0.229312    0.023308
  15 Mn:   -1.886873    4.296380
Sum of atomic charges         :   -0.0000000

LOEWDIN ATOMIC CHARGES AND SPIN POPULATIONS
-------------------------------------------
   0 Au:    0.072562   -0.044957
   1 Au:   -0.019109   -0.020014
   2 Au:   -0.023080    0.000110
   3 Au:    0.119724   -0.036503
   4 Au:    0.065901   -0.008379
   5 Au:    0.055311   -0.013948
   6 Au:    0.075761   -0.032964
   7 Au:    0.009721   -0.018493
   8 Au:    0.016795   -0.070559
   9 Au:   -0.042362   -0.026672
  10 Au:   -0.004857   -0.062187
  11 Au:    0.002298   -0.048246
  12 Au:   -0.019776    0.018352
  13 Au:   -0.001798    0.010476
  14 Au:    0.004493    0.016440
  15 Mn:   -0.311583    4.337546

  Mayer bond orders larger than 0.100000
B(  0-Au,  2-Au) :   0.1748 B(  0-Au,  6-Au) :   0.2753 B(  0-Au,  9-Au) :   0.2257
B(  0-Au, 14-Au) :   0.2781 B(  0-Au, 15-Mn) :   0.4167 B(  1-Au,  2-Au) :   0.1227
B(  1-Au,  3-Au) :   0.2451 B(  1-Au,  4-Au) :   0.2398 B(  1-Au, 10-Au) :   0.3627
B(  1-Au, 12-Au) :   0.1461 B(  1-Au, 13-Au) :   0.3134 B(  1-Au, 15-Mn) :   0.4817
B(  2-Au,  3-Au) :   0.3023 B(  2-Au, 13-Au) :   0.3082 B(  2-Au, 14-Au) :   0.2816
B(  2-Au, 15-Mn) :   0.4373 B(  3-Au,  4-Au) :   0.2182 B(  3-Au, 15-Mn) :   0.3714
B(  4-Au,  5-Au) :   0.2380 B(  4-Au, 12-Au) :   0.2591 B(  4-Au, 15-Mn) :   0.3848
B(  5-Au,  6-Au) :   0.1947 B(  5-Au,  7-Au) :   0.2669 B(  5-Au, 12-Au) :   0.1816
B(  5-Au, 15-Mn) :   0.4196 B(  6-Au,  7-Au) :   0.2010 B(  6-Au,  9-Au) :   0.2147
B(  6-Au, 15-Mn) :   0.4803 B(  7-Au,  8-Au) :   0.3505 B(  7-Au,  9-Au) :   0.2973
B(  7-Au, 12-Au) :   0.2043 B(  7-Au, 15-Mn) :   0.1713 B(  8-Au,  9-Au) :   0.3181
B(  8-Au, 10-Au) :   0.2275 B(  8-Au, 11-Au) :   0.3354 B(  8-Au, 12-Au) :   0.2848
B(  9-Au, 11-Au) :   0.3521 B(  9-Au, 14-Au) :   0.3450 B(  9-Au, 15-Mn) :   0.4284
B( 10-Au, 11-Au) :   0.2353 B( 10-Au, 12-Au) :   0.3361 B( 10-Au, 13-Au) :   0.2552
B( 10-Au, 15-Mn) :   0.1175 B( 11-Au, 13-Au) :   0.2648 B( 11-Au, 14-Au) :   0.2775
B( 12-Au, 15-Mn) :   0.3999 B( 13-Au, 14-Au) :   0.2204 B( 14-Au, 15-Mn) :   0.1053

FINAL SINGLE POINT ENERGY     -3188.211962263983

DIPOLE MOMENT
-------------
                                X             Y             Z
Electronic contribution:     11.08159      -7.18018      37.33710
Nuclear contribution   :    -11.10518       7.25486     -37.77518
                        -----------------------------------------
Total Dipole Moment    :     -0.02359       0.07468      -0.43808
                        -----------------------------------------
Magnitude (a.u.)       :      0.44502
Magnitude (Debye)      :      1.13115

Rotational constants in cm-1:     0.000991     0.000904     0.000833
Rotational constants in MHz :    29.723150    27.094458    24.968224

                             ****ORCA TERMINATED NORMALLY****
TOTAL RUN TIME: 0 days 0 hours 31 minutes 58 seconds 282 msec
