                         Program Version 5.0.3 -  RELEASE  -
|  1> !SC-NEVPT2 def2-TZVP def2-TZVP/C
|  2> !MOREAD RIJCOSX def2/J
|  3> %maxcore 4000
|  4> %moinp "casscf.gbw"
|  5> %pal nprocs 8 end
|  6>
|  7> %casscf
|  8>  mult 5,3
|  9>  bweight 1,1
| 10>  nroots 5,45
| 11>  nel 6
| 12>  norb 5
| 13>  ptsettings
| 14>   d4tpre 1e-14 # default = 1e-10
| 15>   d3tpre 1e-14
| 16>  end
| 17>  rel
| 18>    dosoc true
| 19>    gtensor true
| 20>  end
| 21> end
| 22>
| 23>
| 24> *xyzfile 0 5 pbe.xyz
| 25>
| 26>
| 27>                          ****END OF INPUT****

CARTESIAN COORDINATES (ANGSTROEM)
---------------------------------
  Au     5.879823    5.485337    9.311747
  Au     6.423666    7.986971   10.240766
  Au     7.569675   10.500910   10.126868
  Au     5.742707    9.818213    8.168156
  Au     7.477773    9.324583    5.777173
  Au     8.088149   11.353753    7.543332
  Au     7.004002    6.709960    4.975774
  Au     4.928577    5.573144    6.653082
  Au     4.806158    8.336404    6.084204
  Au     7.701190    4.846816    7.079044
  Au    10.107974    9.671301    6.647817
  Au     9.351958    7.019334    6.463780
  Au    10.774188    7.896587    8.665704
  Au    10.245913   10.585619    9.314972
  Au     9.189922    8.391549   10.892573
  Au     8.653989    6.199183    9.308467
  Cr     6.793040    7.367896    7.619068

 Total Charge           Charge          ....    0
 Multiplicity           Mult            ....    5
 Number of Electrons    NEL             ....  328
 Basis Dimension        Dim             ....  685

ORBITAL ENERGIES
----------------

  NO   OCC          E(Eh)            E(eV)
   0   2.0000    -220.513035     -6000.4647
   1   2.0000     -26.352872      -717.0981
   2   2.0000     -22.286297      -606.4410
   3   2.0000     -22.286207      -606.4385
   4   2.0000     -22.272877      -606.0758
   5   2.0000      -4.721459      -128.4774
   6   2.0000      -4.717363      -128.3660
   7   2.0000      -4.717249      -128.3629
   8   2.0000      -4.715022      -128.3023
   9   2.0000      -4.714931      -128.2998
  10   2.0000      -4.714856      -128.2978
  11   2.0000      -4.714790      -128.2960
  12   2.0000      -4.713053      -128.2487
  13   2.0000      -4.712305      -128.2283
  14   2.0000      -4.709958      -128.1645
  15   2.0000      -4.709730      -128.1583
  16   2.0000      -4.707574      -128.0996
  17   2.0000      -4.707121      -128.0873
  18   2.0000      -4.707041      -128.0851
  19   2.0000      -4.704979      -128.0290
  20   2.0000      -4.704687      -128.0210
  21   2.0000      -3.407221       -92.7152
  22   2.0000      -2.760469       -75.1162
  23   2.0000      -2.759719       -75.0958
  24   2.0000      -2.757681       -75.0403
  25   2.0000      -2.757537       -75.0364
  26   2.0000      -2.757182       -75.0267
  27   2.0000      -2.755936       -74.9928
  28   2.0000      -2.754691       -74.9590
  29   2.0000      -2.754540       -74.9549
  30   2.0000      -2.753116       -74.9161
  31   2.0000      -2.753106       -74.9158
  32   2.0000      -2.752621       -74.9026
  33   2.0000      -2.752175       -74.8905
  34   2.0000      -2.751665       -74.8766
  35   2.0000      -2.751280       -74.8661
  36   2.0000      -2.751054       -74.8600
  37   2.0000      -2.750816       -74.8535
  38   2.0000      -2.750761       -74.8520
  39   2.0000      -2.750212       -74.8371
  40   2.0000      -2.750152       -74.8354
  41   2.0000      -2.750135       -74.8350
  42   2.0000      -2.749912       -74.8289
  43   2.0000      -2.749287       -74.8119
  44   2.0000      -2.748803       -74.7987
  45   2.0000      -2.748143       -74.7808
  46   2.0000      -2.747977       -74.7763
  47   2.0000      -2.747803       -74.7715
  48   2.0000      -2.747441       -74.7617
  49   2.0000      -2.746935       -74.7479
  50   2.0000      -2.746746       -74.7428
  51   2.0000      -2.746059       -74.7241
  52   2.0000      -2.745582       -74.7111
  53   2.0000      -2.745079       -74.6974
  54   2.0000      -2.744220       -74.6740
  55   2.0000      -2.744097       -74.6707
  56   2.0000      -2.743786       -74.6622
  57   2.0000      -2.743669       -74.6590
  58   2.0000      -2.742391       -74.6243
  59   2.0000      -2.742266       -74.6208
  60   2.0000      -2.742088       -74.6160
  61   2.0000      -2.741243       -74.5930
  62   2.0000      -2.740556       -74.5743
  63   2.0000      -2.740112       -74.5622
  64   2.0000      -2.739918       -74.5570
  65   2.0000      -2.739695       -74.5509
  66   2.0000      -2.739502       -74.5456
  67   2.0000      -2.738713       -74.5242
  68   2.0000      -2.738461       -74.5173
  69   2.0000      -2.737529       -74.4920
  70   2.0000      -2.172507       -59.1169
  71   2.0000      -2.171187       -59.0810
  72   2.0000      -2.159790       -58.7709
  73   2.0000      -0.562723       -15.3125
  74   2.0000      -0.556358       -15.1393
  75   2.0000      -0.552365       -15.0306
  76   2.0000      -0.549095       -14.9416
  77   2.0000      -0.548783       -14.9332
  78   2.0000      -0.546061       -14.8591
  79   2.0000      -0.545224       -14.8363
  80   2.0000      -0.544727       -14.8228
  81   2.0000      -0.540707       -14.7134
  82   2.0000      -0.539340       -14.6762
  83   2.0000      -0.539274       -14.6744
  84   2.0000      -0.538236       -14.6461
  85   2.0000      -0.537023       -14.6131
  86   2.0000      -0.535253       -14.5650
  87   2.0000      -0.534125       -14.5343
  88   2.0000      -0.533730       -14.5235
  89   2.0000      -0.532432       -14.4882
  90   2.0000      -0.531304       -14.4575
  91   2.0000      -0.529820       -14.4171
  92   2.0000      -0.529444       -14.4069
  93   2.0000      -0.525469       -14.2987
  94   2.0000      -0.523688       -14.2503
  95   2.0000      -0.521714       -14.1965
  96   2.0000      -0.519682       -14.1413
  97   2.0000      -0.517756       -14.0889
  98   2.0000      -0.515931       -14.0392
  99   2.0000      -0.515643       -14.0314
 100   2.0000      -0.512751       -13.9527
 101   2.0000      -0.511119       -13.9083
 102   2.0000      -0.507134       -13.7998
 103   2.0000      -0.505129       -13.7453
 104   2.0000      -0.504264       -13.7217
 105   2.0000      -0.499096       -13.5811
 106   2.0000      -0.497424       -13.5356
 107   2.0000      -0.496556       -13.5120
 108   2.0000      -0.491402       -13.3717
 109   2.0000      -0.489457       -13.3188
 110   2.0000      -0.487739       -13.2721
 111   2.0000      -0.486517       -13.2388
 112   2.0000      -0.482353       -13.1255
 113   2.0000      -0.478265       -13.0142
 114   2.0000      -0.476100       -12.9553
 115   2.0000      -0.475092       -12.9279
 116   2.0000      -0.470662       -12.8074
 117   2.0000      -0.466480       -12.6936
 118   2.0000      -0.463607       -12.6154
 119   2.0000      -0.462605       -12.5881
 120   2.0000      -0.459135       -12.4937
 121   2.0000      -0.457404       -12.4466
 122   2.0000      -0.456871       -12.4321
 123   2.0000      -0.455428       -12.3928
 124   2.0000      -0.452472       -12.3124
 125   2.0000      -0.452386       -12.3100
 126   2.0000      -0.450178       -12.2500
 127   2.0000      -0.446868       -12.1599
 128   2.0000      -0.446199       -12.1417
 129   2.0000      -0.445307       -12.1174
 130   2.0000      -0.444021       -12.0824
 131   2.0000      -0.441996       -12.0273
 132   2.0000      -0.441174       -12.0050
 133   2.0000      -0.439802       -11.9676
 134   2.0000      -0.436158       -11.8685
 135   2.0000      -0.435969       -11.8633
 136   2.0000      -0.433686       -11.8012
 137   2.0000      -0.433540       -11.7972
 138   2.0000      -0.432687       -11.7740
 139   2.0000      -0.430294       -11.7089
 140   2.0000      -0.430149       -11.7050
 141   2.0000      -0.429429       -11.6854
 142   2.0000      -0.427542       -11.6340
 143   2.0000      -0.427178       -11.6241
 144   2.0000      -0.417287       -11.3550
 145   2.0000      -0.417067       -11.3490
 146   2.0000      -0.415173       -11.2974
 147   2.0000      -0.412612       -11.2277
 148   2.0000      -0.409228       -11.1357
 149   2.0000      -0.408182       -11.1072
 150   2.0000      -0.404604       -11.0098
 151   2.0000      -0.404028       -10.9942
 152   2.0000      -0.400900       -10.9090
 153   2.0000      -0.387025       -10.5315
 154   2.0000      -0.382106       -10.3976
 155   2.0000      -0.356008        -9.6875
 156   2.0000      -0.343299        -9.3416
 157   2.0000      -0.261980        -7.1288
 158   2.0000      -0.258152        -7.0247
 159   2.0000      -0.247674        -6.7396
 160   2.0000      -0.221300        -6.0219
 161   1.2000      -0.118921        -3.2360
 162   1.2000      -0.102901        -2.8001
 163   1.2000      -0.145347        -3.9551
 164   1.2000      -0.099614        -2.7106
 165   1.2000      -0.099612        -2.7106
 166   0.0000      -0.036445        -0.9917
 167   0.0000      -0.017616        -0.4794
 168   0.0000      -0.011887        -0.3235
 169   0.0000      -0.009408        -0.2560
 170   0.0000      -0.005476        -0.1490

MULLIKEN ATOMIC CHARGES AND SPIN DENSITIES
------------------------------------------
   0 Au:    0.552364    0.016828
   1 Au:    0.088760    0.072645
   2 Au:    0.064366    0.024062
   3 Au:    0.091981    0.072791
   4 Au:    0.097986    0.069710
   5 Au:    0.159860    0.045160
   6 Au:    0.731160    0.008097
   7 Au:    0.385666    0.021218
   8 Au:    0.550851    0.016830
   9 Au:    0.730133    0.007719
  10 Au:    0.098581    0.050494
  11 Au:   -0.092538    0.069098
  12 Au:    0.097533    0.051113
  13 Au:    0.206400    0.015530
  14 Au:    0.161898    0.046235
  15 Au:    0.098233    0.068823
  16 Cr:   -4.023234    2.343646
Sum of atomic charges       :    0.0000000

LOEWDIN ATOMIC CHARGES AND SPIN DENSITIES
-----------------------------------------
   0 Au:    0.161989    0.037439
   1 Au:    0.040450    0.070189
   2 Au:    0.005811    0.039033
   3 Au:    0.040142    0.070352
   4 Au:    0.003713    0.058004
   5 Au:    0.052311    0.040002
   6 Au:    0.125906    0.018454
   7 Au:    0.184897    0.027961
   8 Au:    0.162165    0.037769
   9 Au:    0.125836    0.017909
  10 Au:    0.023839    0.064038
  11 Au:    0.003566    0.058947
  12 Au:    0.023343    0.064185
  13 Au:    0.064730    0.025306
  14 Au:    0.052608    0.040423
  15 Au:    0.003730    0.057594
  16 Cr:   -1.075036    2.272395

  Mayer bond orders larger than 0.100000
B(  0-Au,  1-Au) :   0.2450 B(  0-Au,  4-Au) :   0.1367 B(  0-Au,  7-Au) :   0.1691
B(  0-Au, 15-Au) :   0.1129 B(  0-Au, 16-Cr) :   0.3352 B(  1-Au,  2-Au) :   0.1994
B(  1-Au,  3-Au) :   0.2457 B(  1-Au, 14-Au) :   0.1220 B(  1-Au, 15-Au) :   0.1110
B(  1-Au, 16-Cr) :   0.4341 B(  2-Au,  3-Au) :   0.1993 B(  2-Au,  5-Au) :   0.2087
B(  2-Au, 13-Au) :   0.2565 B(  2-Au, 14-Au) :   0.2094 B(  2-Au, 16-Cr) :   0.3070
B(  3-Au,  4-Au) :   0.1146 B(  3-Au,  5-Au) :   0.1236 B(  3-Au,  8-Au) :   0.2438
B(  3-Au, 16-Cr) :   0.4320 B(  4-Au,  5-Au) :   0.2249 B(  4-Au,  6-Au) :   0.1609
B(  4-Au,  8-Au) :   0.1130 B(  4-Au, 10-Au) :   0.2012 B(  4-Au, 11-Au) :   0.1461
B(  4-Au, 16-Cr) :   0.4429 B(  5-Au, 10-Au) :   0.2072 B(  5-Au, 13-Au) :   0.2156
B(  5-Au, 16-Cr) :   0.2895 B(  6-Au, 11-Au) :   0.1442 B(  6-Au, 16-Cr) :   0.2876
B(  7-Au,  8-Au) :   0.1702 B(  7-Au, 16-Cr) :   0.3602 B(  8-Au, 15-Au) :   0.1374
B(  8-Au, 16-Cr) :   0.3361 B(  9-Au, 11-Au) :   0.1443 B(  9-Au, 15-Au) :   0.1620
B(  9-Au, 16-Cr) :   0.2872 B( 10-Au, 11-Au) :   0.2605 B( 10-Au, 12-Au) :   0.1876
B( 10-Au, 13-Au) :   0.2468 B( 10-Au, 16-Cr) :   0.2717 B( 11-Au, 12-Au) :   0.2584
B( 11-Au, 15-Au) :   0.1465 B( 11-Au, 16-Cr) :   0.5005 B( 12-Au, 13-Au) :   0.2495
B( 12-Au, 14-Au) :   0.2083 B( 12-Au, 15-Au) :   0.2031 B( 12-Au, 16-Cr) :   0.2710
B( 13-Au, 14-Au) :   0.2134 B( 14-Au, 15-Au) :   0.2228 B( 14-Au, 16-Cr) :   0.2913
B( 15-Au, 16-Cr) :   0.4425

FINAL SINGLE POINT ENERGY     -3208.216349703526

DIPOLE MOMENT
-------------
                                X             Y             Z
Electronic contribution:     33.06077      25.50601      11.50645
Nuclear contribution   :    -33.65325     -26.05730     -11.79720
                        -----------------------------------------
Total Dipole Moment    :     -0.59248      -0.55129      -0.29075
                        -----------------------------------------
Magnitude (a.u.)       :      0.85994
Magnitude (Debye)      :      2.18579

Rotational constants in cm-1:     0.001036     0.000728     0.000692
Rotational constants in MHz :    31.059646    21.811119    20.739945

                             ****ORCA TERMINATED NORMALLY****
TOTAL RUN TIME: 0 days 2 hours 6 minutes 9 seconds 746 msec
