                         Program Version 5.0.3 -  RELEASE  -
|  1> !RI-B2PLYP def2-TZVP def2-TZVP/C
|  2> !RIJCOSX VERYSLOWCONV
|  3>
|  4> %scf
|  5>   AutoTRAHIter 200
|  6>   maxiter 400
|  7> end
|  8>
|  9>
| 10> %pal nprocs 6 end
| 11>
| 12> *xyzfile 0 5 pbe.xyz
| 13>
| 14> $new_job
| 15>
| 16> !RI-B2PLYP def2-TZVP def2-TZVP/C
| 17> !RIJCOSX VERYSLOWCONV
| 18>
| 19> %scf
| 20>   AutoTRAHIter 200
| 21>   maxiter 400
| 22> end
| 23>
| 24>
| 25> %pal nprocs 6 end
| 26>
| 27> *xyzfile 0 3 pbe.xyz
| 28>
| 29>
| 30>
| 31>
| 32>
| 33>                          ****END OF INPUT****
 Total Charge           Charge          ....    0
 Multiplicity           Mult            ....    5
 Number of Electrons    NEL             ....  330
MP2 TOTAL ENERGY:    -3432.987616949 Eh
FINAL SINGLE POINT ENERGY     -3432.987616948955

CARTESIAN COORDINATES (ANGSTROEM)
---------------------------------
  Au     7.722206    9.747631    8.327318
  Au     4.837493    8.971830    8.873584
  Au     7.152397    5.990227    9.613166
  Au     4.735771    6.841996   10.647861
  Au     3.796102    8.012834    6.492862
  Au     6.869665    8.652049   10.737040
  Au     5.576466   10.329929    6.609694
  Au     4.812886    5.902193    8.056915
  Au     5.296595    5.912859    5.316292
  Au     5.709863    8.571842    4.407863
  Au     9.388266    7.617816    6.932962
  Au     8.084259    9.582362    5.541721
  Au     7.938822    6.767410    4.732386
  Au     9.315550    7.918423    9.688873
  Au     7.401721    5.120490    6.952643
  Au     9.631819    5.379527    8.548681
  Fe     6.539907    7.750953    6.935006

 Multiplicity           Mult            ....    3
 Number of Electrons    NEL             ....  330
 Basis Dimension        Dim             ....  685

ORBITAL ENERGIES
----------------
                 SPIN UP ORBITALS
  NO   OCC          E(Eh)            E(eV)
   0   1.0000    -258.346746     -7029.9723
   1   1.0000     -30.905216      -840.9737
   2   1.0000     -26.623012      -724.4490
   3   1.0000     -26.594339      -723.6688
   4   1.0000     -26.593292      -723.6403
   5   1.0000      -4.413331      -120.0928
   6   1.0000      -4.407647      -119.9382
   7   1.0000      -4.407517      -119.9346
   8   1.0000      -4.406017      -119.8938
   9   1.0000      -4.405703      -119.8853
  10   1.0000      -4.405616      -119.8829
  11   1.0000      -4.405570      -119.8817
  12   1.0000      -4.405362      -119.8760
  13   1.0000      -4.403584      -119.8276
  14   1.0000      -4.403461      -119.8243
  15   1.0000      -4.400850      -119.7532
  16   1.0000      -4.399830      -119.7255
  17   1.0000      -4.392940      -119.5380
  18   1.0000      -4.392744      -119.5326
  19   1.0000      -4.390691      -119.4768
  20   1.0000      -4.390585      -119.4739
  21   1.0000      -3.918046      -106.6154
  22   1.0000      -2.668003       -72.6001
  23   1.0000      -2.607433       -70.9519
  24   1.0000      -2.605392       -70.8963
  25   1.0000      -2.533792       -68.9480
  26   1.0000      -2.530338       -68.8540
  27   1.0000      -2.529060       -68.8192
  28   1.0000      -2.528486       -68.8036
  29   1.0000      -2.527674       -68.7815
  30   1.0000      -2.527670       -68.7814
  31   1.0000      -2.527218       -68.7691
  32   1.0000      -2.526470       -68.7487
  33   1.0000      -2.525155       -68.7130
  34   1.0000      -2.524868       -68.7052
  35   1.0000      -2.524611       -68.6982
  36   1.0000      -2.524072       -68.6835
  37   1.0000      -2.523914       -68.6792
  38   1.0000      -2.523608       -68.6709
  39   1.0000      -2.523202       -68.6598
  40   1.0000      -2.523110       -68.6573
  41   1.0000      -2.522949       -68.6529
  42   1.0000      -2.522617       -68.6439
  43   1.0000      -2.522290       -68.6350
  44   1.0000      -2.522047       -68.6284
  45   1.0000      -2.521611       -68.6165
  46   1.0000      -2.521396       -68.6107
  47   1.0000      -2.521232       -68.6062
  48   1.0000      -2.520464       -68.5853
  49   1.0000      -2.520341       -68.5820
  50   1.0000      -2.520297       -68.5808
  51   1.0000      -2.519850       -68.5686
  52   1.0000      -2.519321       -68.5542
  53   1.0000      -2.518858       -68.5416
  54   1.0000      -2.518833       -68.5409
  55   1.0000      -2.518070       -68.5202
  56   1.0000      -2.518026       -68.5190
  57   1.0000      -2.517340       -68.5003
  58   1.0000      -2.515556       -68.4518
  59   1.0000      -2.515158       -68.4409
  60   1.0000      -2.514985       -68.4362
  61   1.0000      -2.513804       -68.4041
  62   1.0000      -2.511046       -68.3290
  63   1.0000      -2.510009       -68.3008
  64   1.0000      -2.509757       -68.2940
  65   1.0000      -2.509465       -68.2860
  66   1.0000      -2.507499       -68.2325
  67   1.0000      -2.507340       -68.2282
  68   1.0000      -2.507049       -68.2203
  69   1.0000      -2.506647       -68.2093
  70   1.0000      -2.506486       -68.2050
  71   1.0000      -2.506311       -68.2002
  72   1.0000      -2.505809       -68.1865
  73   1.0000      -0.568516       -15.4701
  74   1.0000      -0.563306       -15.3283
  75   1.0000      -0.561643       -15.2831
  76   1.0000      -0.538657       -14.6576
  77   1.0000      -0.522631       -14.2215
  78   1.0000      -0.509123       -13.8539
  79   1.0000      -0.479048       -13.0356
  80   1.0000      -0.477039       -12.9809
  81   1.0000      -0.473021       -12.8715
  82   1.0000      -0.472619       -12.8606
  83   1.0000      -0.471270       -12.8239
  84   1.0000      -0.468370       -12.7450
  85   1.0000      -0.464631       -12.6433
  86   1.0000      -0.464082       -12.6283
  87   1.0000      -0.463229       -12.6051
  88   1.0000      -0.461986       -12.5713
  89   1.0000      -0.458340       -12.4721
  90   1.0000      -0.456244       -12.4150
  91   1.0000      -0.456190       -12.4136
  92   1.0000      -0.455120       -12.3845
  93   1.0000      -0.453311       -12.3352
  94   1.0000      -0.452581       -12.3154
  95   1.0000      -0.451342       -12.2816
  96   1.0000      -0.449328       -12.2268
  97   1.0000      -0.449234       -12.2243
  98   1.0000      -0.447197       -12.1688
  99   1.0000      -0.445277       -12.1166
 100   1.0000      -0.444753       -12.1023
 101   1.0000      -0.444077       -12.0840
 102   1.0000      -0.439329       -11.9548
 103   1.0000      -0.437226       -11.8975
 104   1.0000      -0.436823       -11.8866
 105   1.0000      -0.435803       -11.8588
 106   1.0000      -0.432192       -11.7605
 107   1.0000      -0.429258       -11.6807
 108   1.0000      -0.424620       -11.5545
 109   1.0000      -0.421052       -11.4574
 110   1.0000      -0.418843       -11.3973
 111   1.0000      -0.416615       -11.3367
 112   1.0000      -0.414602       -11.2819
 113   1.0000      -0.410185       -11.1617
 114   1.0000      -0.409814       -11.1516
 115   1.0000      -0.403751       -10.9866
 116   1.0000      -0.400379       -10.8949
 117   1.0000      -0.400152       -10.8887
 118   1.0000      -0.390966       -10.6387
 119   1.0000      -0.387780       -10.5520
 120   1.0000      -0.387468       -10.5435
 121   1.0000      -0.385688       -10.4951
 122   1.0000      -0.381905       -10.3922
 123   1.0000      -0.381791       -10.3891
 124   1.0000      -0.379919       -10.3381
 125   1.0000      -0.378450       -10.2982
 126   1.0000      -0.375944       -10.2299
 127   1.0000      -0.375282       -10.2119
 128   1.0000      -0.374763       -10.1978
 129   1.0000      -0.374404       -10.1880
 130   1.0000      -0.372947       -10.1484
 131   1.0000      -0.372355       -10.1323
 132   1.0000      -0.371649       -10.1131
 133   1.0000      -0.370681       -10.0867
 134   1.0000      -0.370383       -10.0786
 135   1.0000      -0.368026       -10.0145
 136   1.0000      -0.367018        -9.9871
 137   1.0000      -0.365994        -9.9592
 138   1.0000      -0.365594        -9.9483
 139   1.0000      -0.362127        -9.8540
 140   1.0000      -0.360436        -9.8080
 141   1.0000      -0.360168        -9.8007
 142   1.0000      -0.359427        -9.7805
 143   1.0000      -0.357054        -9.7159
 144   1.0000      -0.354937        -9.6583
 145   1.0000      -0.352744        -9.5987
 146   1.0000      -0.352199        -9.5838
 147   1.0000      -0.351802        -9.5730
 148   1.0000      -0.350228        -9.5302
 149   1.0000      -0.349042        -9.4979
 150   1.0000      -0.345360        -9.3977
 151   1.0000      -0.344748        -9.3811
 152   1.0000      -0.342882        -9.3303
 153   1.0000      -0.335512        -9.1297
 154   1.0000      -0.335144        -9.1197
 155   1.0000      -0.333257        -9.0684
 156   1.0000      -0.332818        -9.0564
 157   1.0000      -0.330466        -8.9924
 158   1.0000      -0.321439        -8.7468
 159   1.0000      -0.320128        -8.7111
 160   1.0000      -0.315004        -8.5717
 161   1.0000      -0.313908        -8.5419
 162   1.0000      -0.258260        -7.0276
 163   1.0000      -0.240142        -6.5346
 164   1.0000      -0.232176        -6.3178
 165   1.0000      -0.218287        -5.9399
 166   0.0000      -0.139512        -3.7963
 167   0.0000      -0.089239        -2.4283
 168   0.0000      -0.077588        -2.1113
 169   0.0000      -0.075109        -2.0438
 170   0.0000      -0.071640        -1.9494

                 SPIN DOWN ORBITALS
  NO   OCC          E(Eh)            E(eV)
   0   1.0000    -258.344912     -7029.9224
   1   1.0000     -30.812533      -838.4516
   2   1.0000     -26.523932      -721.7529
   3   1.0000     -26.516367      -721.5470
   4   1.0000     -26.516280      -721.5447
   5   1.0000      -4.412851      -120.0798
   6   1.0000      -4.407679      -119.9390
   7   1.0000      -4.407545      -119.9354
   8   1.0000      -4.406394      -119.9041
   9   1.0000      -4.406346      -119.9028
  10   1.0000      -4.406114      -119.8964
  11   1.0000      -4.406072      -119.8953
  12   1.0000      -4.405924      -119.8913
  13   1.0000      -4.404139      -119.8427
  14   1.0000      -4.404000      -119.8389
  15   1.0000      -4.403069      -119.8136
  16   1.0000      -4.400252      -119.7369
  17   1.0000      -4.393344      -119.5490
  18   1.0000      -4.393225      -119.5457
  19   1.0000      -4.392816      -119.5346
  20   1.0000      -4.392621      -119.5293
  21   1.0000      -3.673941       -99.9730
  22   1.0000      -2.532588       -68.9152
  23   1.0000      -2.529275       -68.8251
  24   1.0000      -2.528982       -68.8171
  25   1.0000      -2.528795       -68.8120
  26   1.0000      -2.527927       -68.7884
  27   1.0000      -2.527744       -68.7834
  28   1.0000      -2.526785       -68.7573
  29   1.0000      -2.526623       -68.7529
  30   1.0000      -2.524980       -68.7082
  31   1.0000      -2.524956       -68.7075
  32   1.0000      -2.524925       -68.7067
  33   1.0000      -2.524531       -68.6960
  34   1.0000      -2.524205       -68.6871
  35   1.0000      -2.523900       -68.6788
  36   1.0000      -2.523752       -68.6748
  37   1.0000      -2.523203       -68.6598
  38   1.0000      -2.523146       -68.6583
  39   1.0000      -2.522644       -68.6446
  40   1.0000      -2.522523       -68.6413
  41   1.0000      -2.522343       -68.6364
  42   1.0000      -2.521898       -68.6243
  43   1.0000      -2.521866       -68.6235
  44   1.0000      -2.521483       -68.6130
  45   1.0000      -2.521404       -68.6109
  46   1.0000      -2.520921       -68.5978
  47   1.0000      -2.520803       -68.5945
  48   1.0000      -2.520629       -68.5898
  49   1.0000      -2.519674       -68.5638
  50   1.0000      -2.519398       -68.5563
  51   1.0000      -2.519262       -68.5526
  52   1.0000      -2.518584       -68.5342
  53   1.0000      -2.518536       -68.5329
  54   1.0000      -2.517362       -68.5009
  55   1.0000      -2.516677       -68.4823
  56   1.0000      -2.516158       -68.4681
  57   1.0000      -2.515903       -68.4612
  58   1.0000      -2.513986       -68.4090
  59   1.0000      -2.511797       -68.3495
  60   1.0000      -2.511449       -68.3400
  61   1.0000      -2.510308       -68.3090
  62   1.0000      -2.509952       -68.2993
  63   1.0000      -2.509708       -68.2926
  64   1.0000      -2.509548       -68.2883
  65   1.0000      -2.509238       -68.2798
  66   1.0000      -2.509086       -68.2757
  67   1.0000      -2.507564       -68.2343
  68   1.0000      -2.507154       -68.2231
  69   1.0000      -2.507033       -68.2198
  70   1.0000      -2.352206       -64.0068
  71   1.0000      -2.352152       -64.0053
  72   1.0000      -2.339846       -63.6704
  73   1.0000      -0.524657       -14.2766
  74   1.0000      -0.484985       -13.1971
  75   1.0000      -0.481220       -13.0947
  76   1.0000      -0.480435       -13.0733
  77   1.0000      -0.478870       -13.0307
  78   1.0000      -0.475561       -12.9407
  79   1.0000      -0.473520       -12.8851
  80   1.0000      -0.473187       -12.8761
  81   1.0000      -0.468603       -12.7513
  82   1.0000      -0.467883       -12.7317
  83   1.0000      -0.467772       -12.7287
  84   1.0000      -0.466485       -12.6937
  85   1.0000      -0.464079       -12.6282
  86   1.0000      -0.461640       -12.5619
  87   1.0000      -0.459672       -12.5083
  88   1.0000      -0.459289       -12.4979
  89   1.0000      -0.458425       -12.4744
  90   1.0000      -0.457280       -12.4432
  91   1.0000      -0.456029       -12.4092
  92   1.0000      -0.454537       -12.3686
  93   1.0000      -0.453495       -12.3402
  94   1.0000      -0.452230       -12.3058
  95   1.0000      -0.448202       -12.1962
  96   1.0000      -0.447025       -12.1642
  97   1.0000      -0.443161       -12.0590
  98   1.0000      -0.442217       -12.0333
  99   1.0000      -0.440939       -11.9986
 100   1.0000      -0.438921       -11.9436
 101   1.0000      -0.434680       -11.8283
 102   1.0000      -0.432203       -11.7609
 103   1.0000      -0.426435       -11.6039
 104   1.0000      -0.423313       -11.5189
 105   1.0000      -0.421950       -11.4819
 106   1.0000      -0.420414       -11.4400
 107   1.0000      -0.417104       -11.3500
 108   1.0000      -0.414745       -11.2858
 109   1.0000      -0.411923       -11.2090
 110   1.0000      -0.409319       -11.1381
 111   1.0000      -0.406631       -11.0650
 112   1.0000      -0.402849       -10.9621
 113   1.0000      -0.398480       -10.8432
 114   1.0000      -0.395051       -10.7499
 115   1.0000      -0.391601       -10.6560
 116   1.0000      -0.390711       -10.6318
 117   1.0000      -0.388246       -10.5647
 118   1.0000      -0.388061       -10.5597
 119   1.0000      -0.386171       -10.5082
 120   1.0000      -0.386001       -10.5036
 121   1.0000      -0.378961       -10.3121
 122   1.0000      -0.377791       -10.2802
 123   1.0000      -0.377102       -10.2615
 124   1.0000      -0.376344       -10.2408
 125   1.0000      -0.375144       -10.2082
 126   1.0000      -0.374851       -10.2002
 127   1.0000      -0.373739       -10.1700
 128   1.0000      -0.372414       -10.1339
 129   1.0000      -0.372150       -10.1267
 130   1.0000      -0.369846       -10.0640
 131   1.0000      -0.369708       -10.0603
 132   1.0000      -0.368130       -10.0173
 133   1.0000      -0.367771       -10.0076
 134   1.0000      -0.365324        -9.9410
 135   1.0000      -0.363338        -9.8869
 136   1.0000      -0.362867        -9.8741
 137   1.0000      -0.362725        -9.8702
 138   1.0000      -0.360728        -9.8159
 139   1.0000      -0.356031        -9.6881
 140   1.0000      -0.355255        -9.6670
 141   1.0000      -0.354519        -9.6470
 142   1.0000      -0.353811        -9.6277
 143   1.0000      -0.352201        -9.5839
 144   1.0000      -0.350087        -9.5264
 145   1.0000      -0.348651        -9.4873
 146   1.0000      -0.347959        -9.4684
 147   1.0000      -0.346159        -9.4195
 148   1.0000      -0.337141        -9.1741
 149   1.0000      -0.335699        -9.1348
 150   1.0000      -0.335660        -9.1338
 151   1.0000      -0.334656        -9.1065
 152   1.0000      -0.334270        -9.0960
 153   1.0000      -0.333444        -9.0735
 154   1.0000      -0.329446        -8.9647
 155   1.0000      -0.328237        -8.9318
 156   1.0000      -0.322929        -8.7873
 157   1.0000      -0.316088        -8.6012
 158   1.0000      -0.265560        -7.2263
 159   1.0000      -0.250646        -6.8204
 160   1.0000      -0.242447        -6.5973
 161   1.0000      -0.235928        -6.4199
 162   1.0000      -0.228375        -6.2144
 163   1.0000      -0.172480        -4.6934
 164   0.0000      -0.084389        -2.2963
 165   0.0000      -0.078336        -2.1316
 166   0.0000      -0.074808        -2.0356
 167   0.0000      -0.072277        -1.9668
 168   0.0000      -0.066921        -1.8210

MULLIKEN ATOMIC CHARGES AND SPIN POPULATIONS
--------------------------------------------
   0 Au:   -0.120705   -0.070382
   1 Au:   -0.143741   -0.198410
   2 Au:   -0.592324    0.021919
   3 Au:    0.400419   -0.336407
   4 Au:    0.343146   -0.075518
   5 Au:    0.230553    0.036957
   6 Au:    0.335350   -0.060755
   7 Au:   -0.023860   -0.006069
   8 Au:    0.312791   -0.160673
   9 Au:    0.175577    0.025878
  10 Au:   -0.148603   -0.189931
  11 Au:    0.338736   -0.063783
  12 Au:    0.346571   -0.083067
  13 Au:    0.229109    0.037532
  14 Au:   -0.025846   -0.004060
  15 Au:    0.401293   -0.334737
  16 Fe:   -2.058468    3.461504
Sum of atomic charges         :   -0.0000000

LOEWDIN ATOMIC CHARGES AND SPIN POPULATIONS
-------------------------------------------
   0 Au:   -0.015001   -0.048545
   1 Au:   -0.048780   -0.144887
   2 Au:   -0.088559   -0.062407
   3 Au:    0.070513   -0.232662
   4 Au:    0.076120   -0.077082
   5 Au:    0.013219   -0.022792
   6 Au:    0.059707   -0.101572
   7 Au:   -0.011076   -0.087893
   8 Au:    0.024131   -0.102656
   9 Au:    0.030926   -0.019420
  10 Au:   -0.049620   -0.142979
  11 Au:    0.060238   -0.101878
  12 Au:    0.077365   -0.079865
  13 Au:    0.012481   -0.021869
  14 Au:   -0.011058   -0.087611
  15 Au:    0.069963   -0.231223
  16 Fe:   -0.270568    3.565342

  Mayer bond orders larger than 0.100000
B(  0-Au,  1-Au) :   0.1543 B(  0-Au,  5-Au) :   0.2881 B(  0-Au,  6-Au) :   0.1993
B(  0-Au, 10-Au) :   0.1511 B(  0-Au, 11-Au) :   0.1960 B(  0-Au, 13-Au) :   0.2863
B(  0-Au, 16-Fe) :   0.4819 B(  1-Au,  2-Au) :   0.1315 B(  1-Au,  3-Au) :   0.2658
B(  1-Au,  4-Au) :   0.1645 B(  1-Au,  5-Au) :   0.2730 B(  1-Au,  6-Au) :   0.3109
B(  1-Au,  7-Au) :   0.1143 B(  1-Au, 16-Fe) :   0.3457 B(  2-Au,  3-Au) :   0.2778
B(  2-Au,  5-Au) :   0.2462 B(  2-Au,  7-Au) :   0.2378 B(  2-Au, 10-Au) :   0.1301
B(  2-Au, 13-Au) :   0.2475 B(  2-Au, 14-Au) :   0.2394 B(  2-Au, 15-Au) :   0.2779
B(  2-Au, 16-Fe) :   0.2283 B(  3-Au,  5-Au) :   0.1658 B(  3-Au,  7-Au) :   0.2383
B(  4-Au,  7-Au) :   0.1902 B(  4-Au,  8-Au) :   0.1436 B(  4-Au,  9-Au) :   0.1475
B(  4-Au, 16-Fe) :   0.3902 B(  5-Au, 13-Au) :   0.2417 B(  6-Au,  9-Au) :   0.1752
B(  6-Au, 11-Au) :   0.1430 B(  6-Au, 16-Fe) :   0.3344 B(  7-Au,  8-Au) :   0.2157
B(  7-Au, 16-Fe) :   0.4483 B(  8-Au,  9-Au) :   0.1594 B(  8-Au, 12-Au) :   0.1429
B(  8-Au, 14-Au) :   0.2166 B(  8-Au, 16-Fe) :   0.3423 B(  9-Au, 11-Au) :   0.1747
B(  9-Au, 12-Au) :   0.1470 B(  9-Au, 16-Fe) :   0.3730 B( 10-Au, 11-Au) :   0.3142
B( 10-Au, 12-Au) :   0.1629 B( 10-Au, 13-Au) :   0.2755 B( 10-Au, 14-Au) :   0.1118
B( 10-Au, 15-Au) :   0.2666 B( 10-Au, 16-Fe) :   0.3476 B( 11-Au, 16-Fe) :   0.3342
B( 12-Au, 14-Au) :   0.1882 B( 12-Au, 16-Fe) :   0.3917 B( 13-Au, 15-Au) :   0.1653
B( 14-Au, 15-Au) :   0.2389 B( 14-Au, 16-Fe) :   0.4483

MP2 TOTAL ENERGY:    -3432.941926754 Eh
FINAL SINGLE POINT ENERGY     -3432.941926754226

DIPOLE MOMENT
-------------
                                X             Y             Z
Electronic contribution:      8.56863      -6.32812      24.80440
Nuclear contribution   :     -8.68665       6.44872     -25.16442
                        -----------------------------------------
Total Dipole Moment    :     -0.11802       0.12060      -0.36002
                        -----------------------------------------
Magnitude (a.u.)       :      0.39761
Magnitude (Debye)      :      1.01063

Rotational constants in cm-1:     0.000949     0.000833     0.000742
Rotational constants in MHz :    28.443922    24.982853    22.258270

                             ****ORCA TERMINATED NORMALLY****
TOTAL RUN TIME: 0 days 0 hours 41 minutes 26 seconds 969 msec
