                         Program Version 5.0.3 -  RELEASE  -
|  1> !PBE def2-TZVP VERYSLOWCONV
|  2>
|  3> %scf
|  4>   AutoTRAHIter 200
|  5>   maxiter 400
|  6> end
|  7>
|  8>
|  9> %pal nprocs 6 end
| 10>
| 11> *xyzfile 0 5 pbe.xyz
| 12>
| 13> $new_job
| 14>
| 15> !PBE def2-TZVP VERYSLOWCONV
| 16>
| 17> %scf
| 18>   AutoTRAHIter 200
| 19>   maxiter 400
| 20> end
| 21>
| 22>
| 23> %pal nprocs 6 end
| 24>
| 25> *xyzfile 0 3 pbe.xyz
| 26>
| 27>
| 28>
| 29>
| 30>
| 31>                          ****END OF INPUT****
 Total Charge           Charge          ....    0
 Multiplicity           Mult            ....    5
 Number of Electrons    NEL             ....  330
FINAL SINGLE POINT ENERGY     -3436.762579839271

CARTESIAN COORDINATES (ANGSTROEM)
---------------------------------
  Au     7.722206    9.747631    8.327318
  Au     4.837493    8.971830    8.873584
  Au     7.152397    5.990227    9.613166
  Au     4.735771    6.841996   10.647861
  Au     3.796102    8.012834    6.492862
  Au     6.869665    8.652049   10.737040
  Au     5.576466   10.329929    6.609694
  Au     4.812886    5.902193    8.056915
  Au     5.296595    5.912859    5.316292
  Au     5.709863    8.571842    4.407863
  Au     9.388266    7.617816    6.932962
  Au     8.084259    9.582362    5.541721
  Au     7.938822    6.767410    4.732386
  Au     9.315550    7.918423    9.688873
  Au     7.401721    5.120490    6.952643
  Au     9.631819    5.379527    8.548681
  Fe     6.539907    7.750953    6.935006

 Multiplicity           Mult            ....    3
 Number of Electrons    NEL             ....  330
 Basis Dimension        Dim             ....  685

ORBITAL ENERGIES
----------------
                 SPIN UP ORBITALS
  NO   OCC          E(Eh)            E(eV)
   0   1.0000    -254.734050     -6931.6659
   1   1.0000     -29.563341      -804.4594
   2   1.0000     -25.502947      -693.9705
   3   1.0000     -25.499448      -693.8753
   4   1.0000     -25.497115      -693.8118
   5   1.0000      -4.037799      -109.8741
   6   1.0000      -4.035203      -109.8035
   7   1.0000      -4.032660      -109.7343
   8   1.0000      -4.032430      -109.7280
   9   1.0000      -4.032221      -109.7223
  10   1.0000      -4.032077      -109.7184
  11   1.0000      -4.030659      -109.6798
  12   1.0000      -4.030605      -109.6783
  13   1.0000      -4.030446      -109.6740
  14   1.0000      -4.028641      -109.6249
  15   1.0000      -4.028630      -109.6246
  16   1.0000      -4.026476      -109.5660
  17   1.0000      -4.023768      -109.4923
  18   1.0000      -4.023683      -109.4900
  19   1.0000      -4.022462      -109.4567
  20   1.0000      -4.022267      -109.4515
  21   1.0000      -3.339780       -90.8800
  22   1.0000      -2.253997       -61.3344
  23   1.0000      -2.250729       -61.2455
  24   1.0000      -2.249661       -61.2164
  25   1.0000      -2.249651       -61.2161
  26   1.0000      -2.249164       -61.2029
  27   1.0000      -2.248900       -61.1957
  28   1.0000      -2.248402       -61.1821
  29   1.0000      -2.248126       -61.1746
  30   1.0000      -2.248047       -61.1725
  31   1.0000      -2.246995       -61.1438
  32   1.0000      -2.246533       -61.1313
  33   1.0000      -2.246263       -61.1239
  34   1.0000      -2.246197       -61.1221
  35   1.0000      -2.245573       -61.1051
  36   1.0000      -2.245267       -61.0968
  37   1.0000      -2.244490       -61.0757
  38   1.0000      -2.244179       -61.0672
  39   1.0000      -2.244034       -61.0633
  40   1.0000      -2.243939       -61.0607
  41   1.0000      -2.243834       -61.0578
  42   1.0000      -2.243403       -61.0461
  43   1.0000      -2.243154       -61.0393
  44   1.0000      -2.242973       -61.0344
  45   1.0000      -2.242853       -61.0311
  46   1.0000      -2.241832       -61.0034
  47   1.0000      -2.241685       -60.9994
  48   1.0000      -2.241561       -60.9960
  49   1.0000      -2.241478       -60.9937
  50   1.0000      -2.240590       -60.9695
  51   1.0000      -2.240547       -60.9684
  52   1.0000      -2.240095       -60.9561
  53   1.0000      -2.239995       -60.9534
  54   1.0000      -2.239469       -60.9391
  55   1.0000      -2.238989       -60.9260
  56   1.0000      -2.238737       -60.9191
  57   1.0000      -2.238496       -60.9126
  58   1.0000      -2.238402       -60.9100
  59   1.0000      -2.237725       -60.8916
  60   1.0000      -2.237643       -60.8894
  61   1.0000      -2.236916       -60.8696
  62   1.0000      -2.235981       -60.8441
  63   1.0000      -2.235263       -60.8246
  64   1.0000      -2.235135       -60.8211
  65   1.0000      -2.234884       -60.8143
  66   1.0000      -2.234728       -60.8100
  67   1.0000      -2.234575       -60.8059
  68   1.0000      -2.232787       -60.7572
  69   1.0000      -2.232151       -60.7399
  70   1.0000      -2.161253       -58.8107
  71   1.0000      -2.154226       -58.6195
  72   1.0000      -2.147924       -58.4480
  73   1.0000      -0.438696       -11.9375
  74   1.0000      -0.397809       -10.8249
  75   1.0000      -0.394922       -10.7464
  76   1.0000      -0.392211       -10.6726
  77   1.0000      -0.378908       -10.3106
  78   1.0000      -0.377900       -10.2832
  79   1.0000      -0.374682       -10.1956
  80   1.0000      -0.371478       -10.1084
  81   1.0000      -0.369703       -10.0601
  82   1.0000      -0.366928        -9.9846
  83   1.0000      -0.365337        -9.9413
  84   1.0000      -0.363379        -9.8881
  85   1.0000      -0.360375        -9.8063
  86   1.0000      -0.357256        -9.7214
  87   1.0000      -0.353605        -9.6221
  88   1.0000      -0.352968        -9.6048
  89   1.0000      -0.351380        -9.5615
  90   1.0000      -0.348632        -9.4868
  91   1.0000      -0.347162        -9.4468
  92   1.0000      -0.346782        -9.4364
  93   1.0000      -0.346305        -9.4234
  94   1.0000      -0.345455        -9.4003
  95   1.0000      -0.343193        -9.3388
  96   1.0000      -0.343004        -9.3336
  97   1.0000      -0.342209        -9.3120
  98   1.0000      -0.336742        -9.1632
  99   1.0000      -0.335465        -9.1285
 100   1.0000      -0.333996        -9.0885
 101   1.0000      -0.332593        -9.0503
 102   1.0000      -0.328057        -8.9269
 103   1.0000      -0.326117        -8.8741
 104   1.0000      -0.323079        -8.7914
 105   1.0000      -0.320589        -8.7237
 106   1.0000      -0.320041        -8.7088
 107   1.0000      -0.316496        -8.6123
 108   1.0000      -0.313718        -8.5367
 109   1.0000      -0.309651        -8.4260
 110   1.0000      -0.309151        -8.4124
 111   1.0000      -0.304855        -8.2955
 112   1.0000      -0.301788        -8.2121
 113   1.0000      -0.299299        -8.1443
 114   1.0000      -0.297460        -8.0943
 115   1.0000      -0.295301        -8.0356
 116   1.0000      -0.293590        -7.9890
 117   1.0000      -0.292594        -7.9619
 118   1.0000      -0.290767        -7.9122
 119   1.0000      -0.289775        -7.8852
 120   1.0000      -0.287860        -7.8331
 121   1.0000      -0.285804        -7.7771
 122   1.0000      -0.281423        -7.6579
 123   1.0000      -0.281017        -7.6469
 124   1.0000      -0.279490        -7.6053
 125   1.0000      -0.278302        -7.5730
 126   1.0000      -0.277324        -7.5464
 127   1.0000      -0.276043        -7.5115
 128   1.0000      -0.275459        -7.4956
 129   1.0000      -0.275011        -7.4834
 130   1.0000      -0.273529        -7.4431
 131   1.0000      -0.272194        -7.4068
 132   1.0000      -0.270910        -7.3718
 133   1.0000      -0.270453        -7.3594
 134   1.0000      -0.267876        -7.2893
 135   1.0000      -0.267586        -7.2814
 136   1.0000      -0.266643        -7.2557
 137   1.0000      -0.266013        -7.2386
 138   1.0000      -0.263720        -7.1762
 139   1.0000      -0.261559        -7.1174
 140   1.0000      -0.258994        -7.0476
 141   1.0000      -0.258046        -7.0218
 142   1.0000      -0.257935        -7.0188
 143   1.0000      -0.256759        -6.9868
 144   1.0000      -0.255035        -6.9398
 145   1.0000      -0.254764        -6.9325
 146   1.0000      -0.254482        -6.9248
 147   1.0000      -0.253377        -6.8947
 148   1.0000      -0.251012        -6.8304
 149   1.0000      -0.249929        -6.8009
 150   1.0000      -0.249280        -6.7832
 151   1.0000      -0.247039        -6.7223
 152   1.0000      -0.246915        -6.7189
 153   1.0000      -0.244946        -6.6653
 154   1.0000      -0.244681        -6.6581
 155   1.0000      -0.242549        -6.6001
 156   1.0000      -0.242076        -6.5872
 157   1.0000      -0.241115        -6.5611
 158   1.0000      -0.240112        -6.5338
 159   1.0000      -0.234024        -6.3681
 160   1.0000      -0.229785        -6.2528
 161   1.0000      -0.229660        -6.2494
 162   1.0000      -0.213888        -5.8202
 163   1.0000      -0.213413        -5.8073
 164   1.0000      -0.206989        -5.6325
 165   1.0000      -0.199246        -5.4218
 166   0.0000      -0.195095        -5.3088
 167   0.0000      -0.153215        -4.1692
 168   0.0000      -0.140106        -3.8125
 169   0.0000      -0.137260        -3.7350
 170   0.0000      -0.133309        -3.6275

                 SPIN DOWN ORBITALS
  NO   OCC          E(Eh)            E(eV)
   0   1.0000    -254.733499     -6931.6509
   1   1.0000     -29.512732      -803.0823
   2   1.0000     -25.463972      -692.9099
   3   1.0000     -25.461402      -692.8400
   4   1.0000     -25.459573      -692.7902
   5   1.0000      -4.037430      -109.8641
   6   1.0000      -4.035249      -109.8047
   7   1.0000      -4.032666      -109.7344
   8   1.0000      -4.032433      -109.7281
   9   1.0000      -4.032111      -109.7193
  10   1.0000      -4.031966      -109.7154
  11   1.0000      -4.031419      -109.7005
  12   1.0000      -4.031036      -109.6901
  13   1.0000      -4.030938      -109.6874
  14   1.0000      -4.028871      -109.6312
  15   1.0000      -4.028848      -109.6305
  16   1.0000      -4.026343      -109.5624
  17   1.0000      -4.025110      -109.5288
  18   1.0000      -4.024999      -109.5258
  19   1.0000      -4.022501      -109.4578
  20   1.0000      -4.022310      -109.4526
  21   1.0000      -3.223964       -87.7285
  22   1.0000      -2.253760       -61.3279
  23   1.0000      -2.250845       -61.2486
  24   1.0000      -2.250310       -61.2340
  25   1.0000      -2.249346       -61.2078
  26   1.0000      -2.249340       -61.2076
  27   1.0000      -2.249008       -61.1986
  28   1.0000      -2.248811       -61.1933
  29   1.0000      -2.248438       -61.1831
  30   1.0000      -2.247827       -61.1665
  31   1.0000      -2.247366       -61.1539
  32   1.0000      -2.246684       -61.1354
  33   1.0000      -2.246424       -61.1283
  34   1.0000      -2.246086       -61.1191
  35   1.0000      -2.245582       -61.1054
  36   1.0000      -2.245272       -61.0970
  37   1.0000      -2.244369       -61.0724
  38   1.0000      -2.244202       -61.0678
  39   1.0000      -2.244144       -61.0663
  40   1.0000      -2.243977       -61.0617
  41   1.0000      -2.243897       -61.0595
  42   1.0000      -2.243668       -61.0533
  43   1.0000      -2.243375       -61.0453
  44   1.0000      -2.243222       -61.0412
  45   1.0000      -2.243064       -61.0369
  46   1.0000      -2.242042       -61.0091
  47   1.0000      -2.241966       -61.0070
  48   1.0000      -2.241784       -61.0020
  49   1.0000      -2.241640       -60.9981
  50   1.0000      -2.240676       -60.9719
  51   1.0000      -2.240629       -60.9706
  52   1.0000      -2.240508       -60.9673
  53   1.0000      -2.240394       -60.9642
  54   1.0000      -2.239858       -60.9496
  55   1.0000      -2.239305       -60.9346
  56   1.0000      -2.239225       -60.9324
  57   1.0000      -2.239119       -60.9295
  58   1.0000      -2.238931       -60.9244
  59   1.0000      -2.238423       -60.9106
  60   1.0000      -2.238103       -60.9019
  61   1.0000      -2.237924       -60.8970
  62   1.0000      -2.237122       -60.8752
  63   1.0000      -2.236518       -60.8588
  64   1.0000      -2.235952       -60.8434
  65   1.0000      -2.235223       -60.8235
  66   1.0000      -2.235005       -60.8176
  67   1.0000      -2.234785       -60.8116
  68   1.0000      -2.232882       -60.7598
  69   1.0000      -2.232192       -60.7410
  70   1.0000      -2.045934       -55.6727
  71   1.0000      -2.041026       -55.5391
  72   1.0000      -2.035638       -55.3925
  73   1.0000      -0.435781       -11.8582
  74   1.0000      -0.398392       -10.8408
  75   1.0000      -0.394596       -10.7375
  76   1.0000      -0.393081       -10.6963
  77   1.0000      -0.377596       -10.2749
  78   1.0000      -0.375148       -10.2083
  79   1.0000      -0.372706       -10.1419
  80   1.0000      -0.369227       -10.0472
  81   1.0000      -0.368482       -10.0269
  82   1.0000      -0.366563        -9.9747
  83   1.0000      -0.364139        -9.9087
  84   1.0000      -0.362031        -9.8514
  85   1.0000      -0.359925        -9.7941
  86   1.0000      -0.357168        -9.7190
  87   1.0000      -0.353212        -9.6114
  88   1.0000      -0.352357        -9.5881
  89   1.0000      -0.351347        -9.5606
  90   1.0000      -0.349147        -9.5008
  91   1.0000      -0.347391        -9.4530
  92   1.0000      -0.347033        -9.4433
  93   1.0000      -0.346958        -9.4412
  94   1.0000      -0.346039        -9.4162
  95   1.0000      -0.343394        -9.3442
  96   1.0000      -0.343289        -9.3414
  97   1.0000      -0.342467        -9.3190
  98   1.0000      -0.336984        -9.1698
  99   1.0000      -0.336371        -9.1531
 100   1.0000      -0.334234        -9.0950
 101   1.0000      -0.332704        -9.0533
 102   1.0000      -0.328449        -8.9376
 103   1.0000      -0.325593        -8.8598
 104   1.0000      -0.322607        -8.7786
 105   1.0000      -0.319457        -8.6929
 106   1.0000      -0.319101        -8.6832
 107   1.0000      -0.317175        -8.6308
 108   1.0000      -0.313167        -8.5217
 109   1.0000      -0.309704        -8.4275
 110   1.0000      -0.307623        -8.3708
 111   1.0000      -0.305074        -8.3015
 112   1.0000      -0.301798        -8.2123
 113   1.0000      -0.297649        -8.0994
 114   1.0000      -0.297182        -8.0867
 115   1.0000      -0.292477        -7.9587
 116   1.0000      -0.290656        -7.9091
 117   1.0000      -0.290517        -7.9054
 118   1.0000      -0.290038        -7.8923
 119   1.0000      -0.288821        -7.8592
 120   1.0000      -0.286228        -7.7887
 121   1.0000      -0.283128        -7.7043
 122   1.0000      -0.282175        -7.6784
 123   1.0000      -0.279799        -7.6137
 124   1.0000      -0.279383        -7.6024
 125   1.0000      -0.278013        -7.5651
 126   1.0000      -0.276506        -7.5241
 127   1.0000      -0.276245        -7.5170
 128   1.0000      -0.275033        -7.4840
 129   1.0000      -0.274882        -7.4799
 130   1.0000      -0.273307        -7.4371
 131   1.0000      -0.272515        -7.4155
 132   1.0000      -0.271558        -7.3895
 133   1.0000      -0.271008        -7.3745
 134   1.0000      -0.268600        -7.3090
 135   1.0000      -0.267518        -7.2795
 136   1.0000      -0.267404        -7.2764
 137   1.0000      -0.266417        -7.2496
 138   1.0000      -0.264467        -7.1965
 139   1.0000      -0.261632        -7.1194
 140   1.0000      -0.259301        -7.0559
 141   1.0000      -0.258463        -7.0331
 142   1.0000      -0.258350        -7.0300
 143   1.0000      -0.256594        -6.9823
 144   1.0000      -0.255739        -6.9590
 145   1.0000      -0.255200        -6.9443
 146   1.0000      -0.254669        -6.9299
 147   1.0000      -0.253974        -6.9110
 148   1.0000      -0.251371        -6.8402
 149   1.0000      -0.250073        -6.8048
 150   1.0000      -0.248868        -6.7720
 151   1.0000      -0.245745        -6.6871
 152   1.0000      -0.245108        -6.6697
 153   1.0000      -0.243681        -6.6309
 154   1.0000      -0.243086        -6.6147
 155   1.0000      -0.242545        -6.6000
 156   1.0000      -0.231905        -6.3105
 157   1.0000      -0.229886        -6.2555
 158   1.0000      -0.220022        -5.9871
 159   1.0000      -0.216103        -5.8805
 160   1.0000      -0.209820        -5.7095
 161   1.0000      -0.208823        -5.6824
 162   1.0000      -0.170950        -4.6518
 163   1.0000      -0.169593        -4.6148
 164   0.0000      -0.152071        -4.1381
 165   0.0000      -0.149436        -4.0664
 166   0.0000      -0.145443        -3.9577
 167   0.0000      -0.142910        -3.8888
 168   0.0000      -0.131736        -3.5847

MULLIKEN ATOMIC CHARGES AND SPIN POPULATIONS
--------------------------------------------
   0 Au:   -0.096835   -0.019130
   1 Au:   -0.174027   -0.127504
   2 Au:   -0.567051   -0.043792
   3 Au:    0.469422   -0.197242
   4 Au:    0.362048   -0.051579
   5 Au:    0.245328    0.032912
   6 Au:    0.364159   -0.004625
   7 Au:   -0.018608    0.004051
   8 Au:    0.410059    0.000298
   9 Au:    0.227945    0.017543
  10 Au:   -0.176599   -0.113459
  11 Au:    0.367879   -0.008477
  12 Au:    0.365251   -0.059232
  13 Au:    0.244110    0.037032
  14 Au:   -0.020057    0.008329
  15 Au:    0.468358   -0.198663
  16 Fe:   -2.471382    2.723540
Sum of atomic charges         :   -0.0000000

LOEWDIN ATOMIC CHARGES AND SPIN POPULATIONS
-------------------------------------------
   0 Au:    0.026177   -0.000709
   1 Au:   -0.027660   -0.091162
   2 Au:   -0.074878   -0.051638
   3 Au:    0.090587   -0.157918
   4 Au:    0.087430   -0.047123
   5 Au:    0.011479   -0.009148
   6 Au:    0.084719   -0.028552
   7 Au:    0.013119   -0.032344
   8 Au:    0.078885   -0.014681
   9 Au:    0.047453   -0.001853
  10 Au:   -0.027865   -0.085471
  11 Au:    0.085509   -0.028944
  12 Au:    0.088626   -0.050522
  13 Au:    0.011681   -0.005265
  14 Au:    0.012713   -0.032305
  15 Au:    0.089789   -0.156213
  16 Fe:   -0.597764    2.793847

  Mayer bond orders larger than 0.100000
B(  0-Au,  1-Au) :   0.1660 B(  0-Au,  5-Au) :   0.3070 B(  0-Au,  6-Au) :   0.2061
B(  0-Au, 10-Au) :   0.1608 B(  0-Au, 11-Au) :   0.2022 B(  0-Au, 13-Au) :   0.3058
B(  0-Au, 16-Fe) :   0.4798 B(  1-Au,  2-Au) :   0.1287 B(  1-Au,  3-Au) :   0.2524
B(  1-Au,  4-Au) :   0.1958 B(  1-Au,  5-Au) :   0.3038 B(  1-Au,  6-Au) :   0.3262
B(  1-Au,  7-Au) :   0.1392 B(  1-Au, 16-Fe) :   0.3835 B(  2-Au,  3-Au) :   0.3810
B(  2-Au,  5-Au) :   0.2697 B(  2-Au,  7-Au) :   0.2463 B(  2-Au, 10-Au) :   0.1274
B(  2-Au, 13-Au) :   0.2705 B(  2-Au, 14-Au) :   0.2484 B(  2-Au, 15-Au) :   0.3801
B(  2-Au, 16-Fe) :   0.2043 B(  3-Au,  5-Au) :   0.2029 B(  3-Au,  7-Au) :   0.2631
B(  4-Au,  6-Au) :   0.1238 B(  4-Au,  7-Au) :   0.2088 B(  4-Au,  8-Au) :   0.1900
B(  4-Au,  9-Au) :   0.1791 B(  4-Au, 16-Fe) :   0.3726 B(  5-Au, 13-Au) :   0.2718
B(  6-Au,  9-Au) :   0.2064 B(  6-Au, 11-Au) :   0.1584 B(  6-Au, 16-Fe) :   0.3549
B(  7-Au,  8-Au) :   0.2154 B(  7-Au, 14-Au) :   0.1265 B(  7-Au, 16-Fe) :   0.4663
B(  8-Au,  9-Au) :   0.1935 B(  8-Au, 12-Au) :   0.1900 B(  8-Au, 14-Au) :   0.2170
B(  8-Au, 16-Fe) :   0.3732 B(  9-Au, 11-Au) :   0.2065 B(  9-Au, 12-Au) :   0.1786
B(  9-Au, 16-Fe) :   0.4166 B( 10-Au, 11-Au) :   0.3308 B( 10-Au, 12-Au) :   0.1951
B( 10-Au, 13-Au) :   0.3082 B( 10-Au, 14-Au) :   0.1352 B( 10-Au, 15-Au) :   0.2529
B( 10-Au, 16-Fe) :   0.3842 B( 11-Au, 12-Au) :   0.1223 B( 11-Au, 16-Fe) :   0.3547
B( 12-Au, 14-Au) :   0.2067 B( 12-Au, 16-Fe) :   0.3732 B( 13-Au, 15-Au) :   0.2000
B( 14-Au, 15-Au) :   0.2642 B( 14-Au, 16-Fe) :   0.4654

FINAL SINGLE POINT ENERGY     -3436.735198352602

DIPOLE MOMENT
-------------
                                X             Y             Z
Electronic contribution:      8.58351      -6.46651      24.93641
Nuclear contribution   :     -8.68665       6.44872     -25.16442
                        -----------------------------------------
Total Dipole Moment    :     -0.10313      -0.01778      -0.22800
                        -----------------------------------------
Magnitude (a.u.)       :      0.25088
Magnitude (Debye)      :      0.63768

Rotational constants in cm-1:     0.000949     0.000833     0.000742
Rotational constants in MHz :    28.443922    24.982853    22.258270

                             ****ORCA TERMINATED NORMALLY****
TOTAL RUN TIME: 0 days 0 hours 21 minutes 17 seconds 925 msec
