                         Program Version 5.0.3 -  RELEASE  -
|  1> !R2SCAN def2-TZVP VERYSLOWCONV
|  2>
|  3> %scf
|  4>   AutoTRAHIter 400
|  5>   maxiter 800
|  6> end
|  7>
|  8> %pal nprocs 6 end
|  9>
| 10> *xyzfile 0 5 pbe.xyz
| 11>
| 12> $new_job
| 13>
| 14> !R2SCAN def2-TZVP VERYSLOWCONV
| 15> %scf
| 16>   AutoTRAHIter 400
| 17>   maxiter 800
| 18> end
| 19>
| 20>
| 21> %pal nprocs 6 end
| 22>
| 23> *xyzfile 0 3 pbe.xyz
| 24>
| 25>
| 26>
| 27>
| 28>
| 29>                          ****END OF INPUT****
 Total Charge           Charge          ....    0
 Multiplicity           Mult            ....    5
 Number of Electrons    NEL             ....  330
FINAL SINGLE POINT ENERGY     -3437.307587075430

CARTESIAN COORDINATES (ANGSTROEM)
---------------------------------
  Au     7.722206    9.747631    8.327318
  Au     4.837493    8.971830    8.873584
  Au     7.152397    5.990227    9.613166
  Au     4.735771    6.841996   10.647861
  Au     3.796102    8.012834    6.492862
  Au     6.869665    8.652049   10.737040
  Au     5.576466   10.329929    6.609694
  Au     4.812886    5.902193    8.056915
  Au     5.296595    5.912859    5.316292
  Au     5.709863    8.571842    4.407863
  Au     9.388266    7.617816    6.932962
  Au     8.084259    9.582362    5.541721
  Au     7.938822    6.767410    4.732386
  Au     9.315550    7.918423    9.688873
  Au     7.401721    5.120490    6.952643
  Au     9.631819    5.379527    8.548681
  Fe     6.539907    7.750953    6.935006

 Multiplicity           Mult            ....    3
 Number of Electrons    NEL             ....  330
 Basis Dimension        Dim             ....  685

ORBITAL ENERGIES
----------------
                 SPIN UP ORBITALS
  NO   OCC          E(Eh)            E(eV)
   0   1.0000    -255.611466     -6955.5416
   1   1.0000     -29.900818      -813.6426
   2   1.0000     -25.736396      -700.3229
   3   1.0000     -25.730981      -700.1756
   4   1.0000     -25.729120      -700.1249
   5   1.0000      -4.129277      -112.3633
   6   1.0000      -4.126223      -112.2802
   7   1.0000      -4.123640      -112.2100
   8   1.0000      -4.123473      -112.2054
   9   1.0000      -4.123369      -112.2026
  10   1.0000      -4.123058      -112.1941
  11   1.0000      -4.121658      -112.1560
  12   1.0000      -4.121649      -112.1558
  13   1.0000      -4.121228      -112.1443
  14   1.0000      -4.119722      -112.1033
  15   1.0000      -4.119697      -112.1027
  16   1.0000      -4.117000      -112.0293
  17   1.0000      -4.114418      -111.9590
  18   1.0000      -4.114313      -111.9562
  19   1.0000      -4.112897      -111.9176
  20   1.0000      -4.112613      -111.9099
  21   1.0000      -3.479647       -94.6860
  22   1.0000      -2.318152       -63.0801
  23   1.0000      -2.314477       -62.9801
  24   1.0000      -2.314117       -62.9703
  25   1.0000      -2.313386       -62.9504
  26   1.0000      -2.313186       -62.9450
  27   1.0000      -2.312956       -62.9387
  28   1.0000      -2.312442       -62.9248
  29   1.0000      -2.311931       -62.9108
  30   1.0000      -2.311503       -62.8992
  31   1.0000      -2.310534       -62.8728
  32   1.0000      -2.310498       -62.8719
  33   1.0000      -2.309901       -62.8556
  34   1.0000      -2.309693       -62.8499
  35   1.0000      -2.309535       -62.8456
  36   1.0000      -2.309258       -62.8381
  37   1.0000      -2.308603       -62.8203
  38   1.0000      -2.308241       -62.8104
  39   1.0000      -2.307927       -62.8019
  40   1.0000      -2.307730       -62.7965
  41   1.0000      -2.307446       -62.7888
  42   1.0000      -2.307277       -62.7842
  43   1.0000      -2.306874       -62.7732
  44   1.0000      -2.306697       -62.7684
  45   1.0000      -2.306481       -62.7625
  46   1.0000      -2.305726       -62.7420
  47   1.0000      -2.305543       -62.7370
  48   1.0000      -2.305410       -62.7334
  49   1.0000      -2.305327       -62.7311
  50   1.0000      -2.304423       -62.7065
  51   1.0000      -2.304390       -62.7057
  52   1.0000      -2.304001       -62.6951
  53   1.0000      -2.303912       -62.6926
  54   1.0000      -2.302681       -62.6591
  55   1.0000      -2.302416       -62.6519
  56   1.0000      -2.302261       -62.6477
  57   1.0000      -2.302101       -62.6434
  58   1.0000      -2.301746       -62.6337
  59   1.0000      -2.300902       -62.6107
  60   1.0000      -2.300765       -62.6070
  61   1.0000      -2.299980       -62.5856
  62   1.0000      -2.299261       -62.5661
  63   1.0000      -2.298497       -62.5453
  64   1.0000      -2.298429       -62.5434
  65   1.0000      -2.298106       -62.5347
  66   1.0000      -2.297924       -62.5297
  67   1.0000      -2.297800       -62.5263
  68   1.0000      -2.296092       -62.4798
  69   1.0000      -2.295407       -62.4612
  70   1.0000      -2.255158       -61.3660
  71   1.0000      -2.243395       -61.0459
  72   1.0000      -2.238664       -60.9171
  73   1.0000      -0.443828       -12.0772
  74   1.0000      -0.403093       -10.9687
  75   1.0000      -0.400913       -10.9094
  76   1.0000      -0.397828       -10.8255
  77   1.0000      -0.388347       -10.5675
  78   1.0000      -0.387720       -10.5504
  79   1.0000      -0.383840       -10.4448
  80   1.0000      -0.380509       -10.3542
  81   1.0000      -0.377580       -10.2745
  82   1.0000      -0.375719       -10.2238
  83   1.0000      -0.374850       -10.2002
  84   1.0000      -0.372425       -10.1342
  85   1.0000      -0.369671       -10.0593
  86   1.0000      -0.366194        -9.9646
  87   1.0000      -0.363251        -9.8846
  88   1.0000      -0.362800        -9.8723
  89   1.0000      -0.361052        -9.8247
  90   1.0000      -0.358161        -9.7461
  91   1.0000      -0.356873        -9.7110
  92   1.0000      -0.356141        -9.6911
  93   1.0000      -0.355616        -9.6768
  94   1.0000      -0.354773        -9.6539
  95   1.0000      -0.352490        -9.5917
  96   1.0000      -0.352160        -9.5828
  97   1.0000      -0.351363        -9.5611
  98   1.0000      -0.346009        -9.4154
  99   1.0000      -0.344632        -9.3779
 100   1.0000      -0.343253        -9.3404
 101   1.0000      -0.341511        -9.2930
 102   1.0000      -0.337234        -9.1766
 103   1.0000      -0.335197        -9.1212
 104   1.0000      -0.332417        -9.0455
 105   1.0000      -0.330232        -8.9861
 106   1.0000      -0.329312        -8.9610
 107   1.0000      -0.325011        -8.8440
 108   1.0000      -0.323152        -8.7934
 109   1.0000      -0.318795        -8.6749
 110   1.0000      -0.318598        -8.6695
 111   1.0000      -0.313815        -8.5394
 112   1.0000      -0.310733        -8.4555
 113   1.0000      -0.308685        -8.3997
 114   1.0000      -0.307653        -8.3717
 115   1.0000      -0.304095        -8.2749
 116   1.0000      -0.303238        -8.2515
 117   1.0000      -0.302405        -8.2288
 118   1.0000      -0.300065        -8.1652
 119   1.0000      -0.298536        -8.1236
 120   1.0000      -0.296611        -8.0712
 121   1.0000      -0.294647        -8.0177
 122   1.0000      -0.290418        -7.9027
 123   1.0000      -0.288941        -7.8625
 124   1.0000      -0.288125        -7.8403
 125   1.0000      -0.286775        -7.8035
 126   1.0000      -0.286240        -7.7890
 127   1.0000      -0.284513        -7.7420
 128   1.0000      -0.284191        -7.7332
 129   1.0000      -0.283397        -7.7116
 130   1.0000      -0.282093        -7.6761
 131   1.0000      -0.280713        -7.6386
 132   1.0000      -0.279450        -7.6042
 133   1.0000      -0.278995        -7.5919
 134   1.0000      -0.276350        -7.5199
 135   1.0000      -0.275456        -7.4955
 136   1.0000      -0.274565        -7.4713
 137   1.0000      -0.274310        -7.4644
 138   1.0000      -0.271902        -7.3988
 139   1.0000      -0.269574        -7.3355
 140   1.0000      -0.266867        -7.2618
 141   1.0000      -0.266509        -7.2521
 142   1.0000      -0.266008        -7.2385
 143   1.0000      -0.265475        -7.2239
 144   1.0000      -0.263642        -7.1741
 145   1.0000      -0.263260        -7.1637
 146   1.0000      -0.262143        -7.1333
 147   1.0000      -0.261380        -7.1125
 148   1.0000      -0.261145        -7.1061
 149   1.0000      -0.259208        -7.0534
 150   1.0000      -0.258415        -7.0318
 151   1.0000      -0.257732        -7.0132
 152   1.0000      -0.255384        -6.9494
 153   1.0000      -0.253601        -6.9008
 154   1.0000      -0.252573        -6.8729
 155   1.0000      -0.251548        -6.8450
 156   1.0000      -0.249811        -6.7977
 157   1.0000      -0.249467        -6.7883
 158   1.0000      -0.249073        -6.7776
 159   1.0000      -0.241465        -6.5706
 160   1.0000      -0.240940        -6.5563
 161   1.0000      -0.236200        -6.4273
 162   1.0000      -0.221817        -6.0359
 163   1.0000      -0.216581        -5.8935
 164   1.0000      -0.209786        -5.7086
 165   1.0000      -0.201167        -5.4740
 166   0.0000      -0.195238        -5.3127
 167   0.0000      -0.148435        -4.0391
 168   0.0000      -0.136198        -3.7061
 169   0.0000      -0.134194        -3.6516
 170   0.0000      -0.129444        -3.5224

                 SPIN DOWN ORBITALS
  NO   OCC          E(Eh)            E(eV)
   0   1.0000    -255.610625     -6955.5187
   1   1.0000     -29.830260      -811.7226
   2   1.0000     -25.680284      -698.7961
   3   1.0000     -25.678017      -698.7344
   4   1.0000     -25.676797      -698.7012
   5   1.0000      -4.128874      -112.3524
   6   1.0000      -4.126304      -112.2824
   7   1.0000      -4.123700      -112.2116
   8   1.0000      -4.123573      -112.2081
   9   1.0000      -4.123525      -112.2068
  10   1.0000      -4.123250      -112.1993
  11   1.0000      -4.122682      -112.1839
  12   1.0000      -4.122295      -112.1734
  13   1.0000      -4.122210      -112.1710
  14   1.0000      -4.120085      -112.1132
  15   1.0000      -4.120048      -112.1122
  16   1.0000      -4.117076      -112.0313
  17   1.0000      -4.116341      -112.0113
  18   1.0000      -4.116193      -112.0073
  19   1.0000      -4.112900      -111.9177
  20   1.0000      -4.112627      -111.9103
  21   1.0000      -3.319250       -90.3214
  22   1.0000      -2.317673       -63.0671
  23   1.0000      -2.314647       -62.9847
  24   1.0000      -2.314466       -62.9798
  25   1.0000      -2.313628       -62.9570
  26   1.0000      -2.313578       -62.9556
  27   1.0000      -2.313096       -62.9425
  28   1.0000      -2.312953       -62.9386
  29   1.0000      -2.312677       -62.9311
  30   1.0000      -2.311684       -62.9041
  31   1.0000      -2.311045       -62.8867
  32   1.0000      -2.310389       -62.8689
  33   1.0000      -2.310297       -62.8664
  34   1.0000      -2.310010       -62.8586
  35   1.0000      -2.309765       -62.8519
  36   1.0000      -2.309435       -62.8429
  37   1.0000      -2.308633       -62.8211
  38   1.0000      -2.308280       -62.8115
  39   1.0000      -2.308185       -62.8089
  40   1.0000      -2.308032       -62.8048
  41   1.0000      -2.307549       -62.7916
  42   1.0000      -2.307484       -62.7898
  43   1.0000      -2.307423       -62.7882
  44   1.0000      -2.307156       -62.7809
  45   1.0000      -2.307043       -62.7778
  46   1.0000      -2.305920       -62.7473
  47   1.0000      -2.305855       -62.7455
  48   1.0000      -2.305793       -62.7438
  49   1.0000      -2.305628       -62.7393
  50   1.0000      -2.304674       -62.7134
  51   1.0000      -2.304605       -62.7115
  52   1.0000      -2.304522       -62.7092
  53   1.0000      -2.304416       -62.7063
  54   1.0000      -2.303741       -62.6880
  55   1.0000      -2.303189       -62.6730
  56   1.0000      -2.303073       -62.6698
  57   1.0000      -2.302673       -62.6589
  58   1.0000      -2.302639       -62.6580
  59   1.0000      -2.301978       -62.6400
  60   1.0000      -2.301669       -62.6316
  61   1.0000      -2.301524       -62.6277
  62   1.0000      -2.300834       -62.6089
  63   1.0000      -2.300162       -62.5906
  64   1.0000      -2.299581       -62.5748
  65   1.0000      -2.298368       -62.5418
  66   1.0000      -2.298239       -62.5383
  67   1.0000      -2.297935       -62.5300
  68   1.0000      -2.296196       -62.4827
  69   1.0000      -2.295427       -62.4618
  70   1.0000      -2.093961       -56.9796
  71   1.0000      -2.087862       -56.8136
  72   1.0000      -2.084237       -56.7150
  73   1.0000      -0.441521       -12.0144
  74   1.0000      -0.404623       -11.0104
  75   1.0000      -0.400830       -10.9071
  76   1.0000      -0.399303       -10.8656
  77   1.0000      -0.386246       -10.5103
  78   1.0000      -0.383747       -10.4423
  79   1.0000      -0.381198       -10.3729
  80   1.0000      -0.377191       -10.2639
  81   1.0000      -0.376597       -10.2477
  82   1.0000      -0.375679       -10.2227
  83   1.0000      -0.373381       -10.1602
  84   1.0000      -0.371112       -10.0985
  85   1.0000      -0.369283       -10.0487
  86   1.0000      -0.366217        -9.9653
  87   1.0000      -0.362668        -9.8687
  88   1.0000      -0.361859        -9.8467
  89   1.0000      -0.361148        -9.8273
  90   1.0000      -0.358887        -9.7658
  91   1.0000      -0.356992        -9.7142
  92   1.0000      -0.356680        -9.7058
  93   1.0000      -0.356560        -9.7025
  94   1.0000      -0.355543        -9.6748
  95   1.0000      -0.352813        -9.6005
  96   1.0000      -0.352552        -9.5934
  97   1.0000      -0.352008        -9.5786
  98   1.0000      -0.346613        -9.4318
  99   1.0000      -0.346043        -9.4163
 100   1.0000      -0.343781        -9.3548
 101   1.0000      -0.341919        -9.3041
 102   1.0000      -0.337901        -9.1947
 103   1.0000      -0.334764        -9.1094
 104   1.0000      -0.331747        -9.0273
 105   1.0000      -0.328465        -8.9380
 106   1.0000      -0.328454        -8.9377
 107   1.0000      -0.325895        -8.8681
 108   1.0000      -0.322293        -8.7700
 109   1.0000      -0.318916        -8.6781
 110   1.0000      -0.316505        -8.6125
 111   1.0000      -0.314071        -8.5463
 112   1.0000      -0.310777        -8.4567
 113   1.0000      -0.306359        -8.3365
 114   1.0000      -0.305939        -8.3250
 115   1.0000      -0.301345        -8.2000
 116   1.0000      -0.299291        -8.1441
 117   1.0000      -0.299150        -8.1403
 118   1.0000      -0.298837        -8.1318
 119   1.0000      -0.297493        -8.0952
 120   1.0000      -0.294870        -8.0238
 121   1.0000      -0.291522        -7.9327
 122   1.0000      -0.290618        -7.9081
 123   1.0000      -0.288472        -7.8497
 124   1.0000      -0.288099        -7.8396
 125   1.0000      -0.286390        -7.7931
 126   1.0000      -0.285278        -7.7628
 127   1.0000      -0.284647        -7.7456
 128   1.0000      -0.283591        -7.7169
 129   1.0000      -0.283342        -7.7101
 130   1.0000      -0.281799        -7.6681
 131   1.0000      -0.281258        -7.6534
 132   1.0000      -0.280351        -7.6287
 133   1.0000      -0.279734        -7.6120
 134   1.0000      -0.276980        -7.5370
 135   1.0000      -0.275822        -7.5055
 136   1.0000      -0.275702        -7.5022
 137   1.0000      -0.274867        -7.4795
 138   1.0000      -0.273001        -7.4287
 139   1.0000      -0.269682        -7.3384
 140   1.0000      -0.267248        -7.2722
 141   1.0000      -0.266877        -7.2621
 142   1.0000      -0.266614        -7.2549
 143   1.0000      -0.264742        -7.2040
 144   1.0000      -0.263578        -7.1723
 145   1.0000      -0.263072        -7.1586
 146   1.0000      -0.262992        -7.1564
 147   1.0000      -0.262216        -7.1353
 148   1.0000      -0.258810        -7.0426
 149   1.0000      -0.257372        -7.0034
 150   1.0000      -0.255998        -6.9661
 151   1.0000      -0.253069        -6.8864
 152   1.0000      -0.252121        -6.8606
 153   1.0000      -0.251173        -6.8348
 154   1.0000      -0.250298        -6.8110
 155   1.0000      -0.249804        -6.7975
 156   1.0000      -0.237990        -6.4760
 157   1.0000      -0.234576        -6.3831
 158   1.0000      -0.222840        -6.0638
 159   1.0000      -0.218108        -5.9350
 160   1.0000      -0.211459        -5.7541
 161   1.0000      -0.209714        -5.7066
 162   1.0000      -0.172964        -4.7066
 163   1.0000      -0.169161        -4.6031
 164   0.0000      -0.147927        -4.0253
 165   0.0000      -0.141859        -3.8602
 166   0.0000      -0.138698        -3.7742
 167   0.0000      -0.131659        -3.5826
 168   0.0000      -0.129062        -3.5120

MULLIKEN ATOMIC CHARGES AND SPIN POPULATIONS
--------------------------------------------
   0 Au:   -0.091744   -0.015400
   1 Au:   -0.148399   -0.150869
   2 Au:   -0.517746   -0.028660
   3 Au:    0.422959   -0.252328
   4 Au:    0.335055   -0.061812
   5 Au:    0.226106    0.033302
   6 Au:    0.334224   -0.020831
   7 Au:   -0.028793    0.002783
   8 Au:    0.380313   -0.004874
   9 Au:    0.188904    0.011148
  10 Au:   -0.152139   -0.128460
  11 Au:    0.339768   -0.027595
  12 Au:    0.339121   -0.073303
  13 Au:    0.225841    0.040631
  14 Au:   -0.030967    0.009958
  15 Au:    0.420524   -0.256422
  16 Fe:   -2.243029    2.922730
Sum of atomic charges         :   -0.0000000

LOEWDIN ATOMIC CHARGES AND SPIN POPULATIONS
-------------------------------------------
   0 Au:    0.021981   -0.004833
   1 Au:   -0.029514   -0.106150
   2 Au:   -0.073125   -0.062202
   3 Au:    0.084554   -0.188271
   4 Au:    0.084010   -0.054110
   5 Au:    0.008749   -0.013499
   6 Au:    0.080491   -0.046029
   7 Au:    0.008387   -0.045187
   8 Au:    0.072634   -0.018408
   9 Au:    0.039440   -0.012079
  10 Au:   -0.029873   -0.098164
  11 Au:    0.081408   -0.046588
  12 Au:    0.085596   -0.058131
  13 Au:    0.009507   -0.007224
  14 Au:    0.007701   -0.044867
  15 Au:    0.083331   -0.186358
  16 Fe:   -0.535276    2.992101

  Mayer bond orders larger than 0.100000
B(  0-Au,  1-Au) :   0.1539 B(  0-Au,  5-Au) :   0.3021 B(  0-Au,  6-Au) :   0.1996
B(  0-Au, 10-Au) :   0.1468 B(  0-Au, 11-Au) :   0.1942 B(  0-Au, 13-Au) :   0.3005
B(  0-Au, 16-Fe) :   0.4822 B(  1-Au,  2-Au) :   0.1106 B(  1-Au,  3-Au) :   0.2501
B(  1-Au,  4-Au) :   0.1840 B(  1-Au,  5-Au) :   0.2890 B(  1-Au,  6-Au) :   0.3301
B(  1-Au,  7-Au) :   0.1133 B(  1-Au, 16-Fe) :   0.3571 B(  2-Au,  3-Au) :   0.3714
B(  2-Au,  5-Au) :   0.2530 B(  2-Au,  7-Au) :   0.2354 B(  2-Au, 10-Au) :   0.1093
B(  2-Au, 13-Au) :   0.2525 B(  2-Au, 14-Au) :   0.2397 B(  2-Au, 15-Au) :   0.3687
B(  2-Au, 16-Fe) :   0.1966 B(  3-Au,  5-Au) :   0.1878 B(  3-Au,  7-Au) :   0.2538
B(  4-Au,  6-Au) :   0.1083 B(  4-Au,  7-Au) :   0.2122 B(  4-Au,  8-Au) :   0.1790
B(  4-Au,  9-Au) :   0.1700 B(  4-Au, 16-Fe) :   0.3663 B(  5-Au, 13-Au) :   0.2648
B(  6-Au,  9-Au) :   0.1951 B(  6-Au, 11-Au) :   0.1431 B(  6-Au, 16-Fe) :   0.3445
B(  7-Au,  8-Au) :   0.2078 B(  7-Au, 14-Au) :   0.1089 B(  7-Au, 16-Fe) :   0.4555
B(  8-Au,  9-Au) :   0.1796 B(  8-Au, 12-Au) :   0.1795 B(  8-Au, 14-Au) :   0.2106
B(  8-Au, 16-Fe) :   0.3786 B(  9-Au, 11-Au) :   0.1942 B(  9-Au, 12-Au) :   0.1693
B(  9-Au, 16-Fe) :   0.3882 B( 10-Au, 11-Au) :   0.3373 B( 10-Au, 12-Au) :   0.1844
B( 10-Au, 13-Au) :   0.2961 B( 10-Au, 14-Au) :   0.1063 B( 10-Au, 15-Au) :   0.2520
B( 10-Au, 16-Fe) :   0.3579 B( 11-Au, 12-Au) :   0.1085 B( 11-Au, 16-Fe) :   0.3426
B( 12-Au, 14-Au) :   0.2082 B( 12-Au, 16-Fe) :   0.3661 B( 13-Au, 15-Au) :   0.1826
B( 14-Au, 15-Au) :   0.2560 B( 14-Au, 16-Fe) :   0.4540

FINAL SINGLE POINT ENERGY     -3437.275793337891

DIPOLE MOMENT
-------------
                                X             Y             Z
Electronic contribution:      8.57288      -6.44091      24.89792
Nuclear contribution   :     -8.68665       6.44872     -25.16442
                        -----------------------------------------
Total Dipole Moment    :     -0.11377       0.00781      -0.26650
                        -----------------------------------------
Magnitude (a.u.)       :      0.28987
Magnitude (Debye)      :      0.73680

Rotational constants in cm-1:     0.000949     0.000833     0.000742
Rotational constants in MHz :    28.443922    24.982853    22.258270

                             ****ORCA TERMINATED NORMALLY****
TOTAL RUN TIME: 0 days 0 hours 28 minutes 27 seconds 833 msec
