                         Program Version 5.0.3 -  RELEASE  -
|  1> %pal nprocs 1 end
|  2>
|  3> !PBE def2-TZVP OPT UNO
|  4> !SLOWCONV KDIIS
|  5>
|  6> %geom maxiter 300 end
|  7>
|  8> *xyzfile 0 5 2.xyz                           ****END OF INPUT****
 Total Charge           Charge          ....    0
 Multiplicity           Mult            ....    5
 Number of Electrons    NEL             ....  216
FINAL SINGLE POINT ENERGY     -2621.723281538899
FINAL SINGLE POINT ENERGY     -2621.724702639554
FINAL SINGLE POINT ENERGY     -2621.725480812446
FINAL SINGLE POINT ENERGY     -2621.725561136676
FINAL SINGLE POINT ENERGY     -2621.725665132658
FINAL SINGLE POINT ENERGY     -2621.725745192534
FINAL SINGLE POINT ENERGY     -2621.725852991734
FINAL SINGLE POINT ENERGY     -2621.725933267714
FINAL SINGLE POINT ENERGY     -2621.725956589934
FINAL SINGLE POINT ENERGY     -2621.725968445313
FINAL SINGLE POINT ENERGY     -2621.725974258925
                    ***********************HURRAY********************

CARTESIAN COORDINATES (ANGSTROEM)
---------------------------------
  Au    10.746341    5.002736    5.049143
  Au     8.340528    7.443499    9.470186
  Au     7.254991    7.519236    6.774852
  Au     7.827527    5.275404    5.484041
  Au     9.614442    3.545775    7.131058
  Au     9.494827    5.009934    9.397671
  Au    11.075911    7.443816    8.825104
  Au     7.379847    9.760691    8.416175
  Au    11.432212    7.484836    5.884043
  Au     9.659249    9.127979    7.071932
  Fe     9.542505    6.227423    7.116707

 Multiplicity           Mult            ....    5
 Number of Electrons    NEL             ....  216
 Basis Dimension        Dim             ....  445

ORBITAL ENERGIES
----------------
                 SPIN UP ORBITALS
  NO   OCC          E(Eh)            E(eV)
   0   1.0000    -254.767511     -6932.5764
   1   1.0000     -29.610845      -805.7521
   2   1.0000     -25.551677      -695.2965
   3   1.0000     -25.544153      -695.0917
   4   1.0000     -25.541076      -695.0080
   5   1.0000      -4.028272      -109.6149
   6   1.0000      -4.027058      -109.5818
   7   1.0000      -4.026475      -109.5660
   8   1.0000      -4.026292      -109.5610
   9   1.0000      -4.022727      -109.4640
  10   1.0000      -4.022599      -109.4605
  11   1.0000      -4.019055      -109.3641
  12   1.0000      -4.017660      -109.3261
  13   1.0000      -4.011575      -109.1605
  14   1.0000      -4.011359      -109.1546
  15   1.0000      -3.389661       -92.2374
  16   1.0000      -2.246739       -61.1369
  17   1.0000      -2.245940       -61.1151
  18   1.0000      -2.244747       -61.0827
  19   1.0000      -2.244207       -61.0680
  20   1.0000      -2.242206       -61.0135
  21   1.0000      -2.241865       -61.0042
  22   1.0000      -2.241242       -60.9873
  23   1.0000      -2.239875       -60.9501
  24   1.0000      -2.239338       -60.9355
  25   1.0000      -2.238577       -60.9148
  26   1.0000      -2.238481       -60.9122
  27   1.0000      -2.236497       -60.8582
  28   1.0000      -2.235194       -60.8227
  29   1.0000      -2.234696       -60.8092
  30   1.0000      -2.234345       -60.7996
  31   1.0000      -2.234121       -60.7935
  32   1.0000      -2.233881       -60.7870
  33   1.0000      -2.233247       -60.7697
  34   1.0000      -2.231400       -60.7195
  35   1.0000      -2.231297       -60.7167
  36   1.0000      -2.230593       -60.6975
  37   1.0000      -2.230488       -60.6947
  38   1.0000      -2.228909       -60.6517
  39   1.0000      -2.228569       -60.6424
  40   1.0000      -2.227448       -60.6119
  41   1.0000      -2.225675       -60.5637
  42   1.0000      -2.225079       -60.5475
  43   1.0000      -2.223911       -60.5157
  44   1.0000      -2.219792       -60.4036
  45   1.0000      -2.218899       -60.3793
  46   1.0000      -2.214827       -60.2685
  47   1.0000      -2.199469       -59.8506
  48   1.0000      -2.193839       -59.6974
  49   1.0000      -0.416431       -11.3317
  50   1.0000      -0.380341       -10.3496
  51   1.0000      -0.378494       -10.2994
  52   1.0000      -0.370173       -10.0729
  53   1.0000      -0.364243        -9.9116
  54   1.0000      -0.356640        -9.7047
  55   1.0000      -0.354550        -9.6478
  56   1.0000      -0.353234        -9.6120
  57   1.0000      -0.352103        -9.5812
  58   1.0000      -0.344364        -9.3706
  59   1.0000      -0.339544        -9.2395
  60   1.0000      -0.336717        -9.1625
  61   1.0000      -0.334751        -9.1090
  62   1.0000      -0.332131        -9.0377
  63   1.0000      -0.328753        -8.9458
  64   1.0000      -0.324958        -8.8425
  65   1.0000      -0.324085        -8.8188
  66   1.0000      -0.321682        -8.7534
  67   1.0000      -0.314994        -8.5714
  68   1.0000      -0.314755        -8.5649
  69   1.0000      -0.312913        -8.5148
  70   1.0000      -0.309327        -8.4172
  71   1.0000      -0.302587        -8.2338
  72   1.0000      -0.301051        -8.1920
  73   1.0000      -0.297890        -8.1060
  74   1.0000      -0.296263        -8.0617
  75   1.0000      -0.291144        -7.9224
  76   1.0000      -0.286009        -7.7827
  77   1.0000      -0.285227        -7.7614
  78   1.0000      -0.284892        -7.7523
  79   1.0000      -0.283168        -7.7054
  80   1.0000      -0.280609        -7.6357
  81   1.0000      -0.280140        -7.6230
  82   1.0000      -0.277196        -7.5429
  83   1.0000      -0.275175        -7.4879
  84   1.0000      -0.273950        -7.4546
  85   1.0000      -0.272252        -7.4084
  86   1.0000      -0.266916        -7.2632
  87   1.0000      -0.265704        -7.2302
  88   1.0000      -0.264549        -7.1987
  89   1.0000      -0.263826        -7.1791
  90   1.0000      -0.262916        -7.1543
  91   1.0000      -0.260558        -7.0902
  92   1.0000      -0.258666        -7.0387
  93   1.0000      -0.258199        -7.0260
  94   1.0000      -0.256730        -6.9860
  95   1.0000      -0.256065        -6.9679
  96   1.0000      -0.253368        -6.8945
  97   1.0000      -0.251949        -6.8559
  98   1.0000      -0.251308        -6.8385
  99   1.0000      -0.248324        -6.7572
 100   1.0000      -0.245250        -6.6736
 101   1.0000      -0.244744        -6.6598
 102   1.0000      -0.241257        -6.5649
 103   1.0000      -0.239989        -6.5304
 104   1.0000      -0.236124        -6.4253
 105   1.0000      -0.235112        -6.3977
 106   1.0000      -0.233812        -6.3624
 107   1.0000      -0.230303        -6.2669
 108   1.0000      -0.202695        -5.5156
 109   1.0000      -0.179574        -4.8864
 110   0.0000      -0.167266        -4.5515
 111   0.0000      -0.145152        -3.9498
 112   0.0000      -0.132894        -3.6162
 113   0.0000      -0.127765        -3.4767
 114   0.0000      -0.111132        -3.0240

                 SPIN DOWN ORBITALS
  NO   OCC          E(Eh)            E(eV)
   0   1.0000    -254.766749     -6932.5557
   1   1.0000     -29.549740      -804.0893
   2   1.0000     -25.502751      -693.9651
   3   1.0000     -25.498691      -693.8547
   4   1.0000     -25.496959      -693.8075
   5   1.0000      -4.027536      -109.5948
   6   1.0000      -4.025643      -109.5433
   7   1.0000      -4.025256      -109.5328
   8   1.0000      -4.025080      -109.5280
   9   1.0000      -4.022261      -109.4513
  10   1.0000      -4.022132      -109.4478
  11   1.0000      -4.018971      -109.3617
  12   1.0000      -4.016193      -109.2862
  13   1.0000      -4.010394      -109.1284
  14   1.0000      -4.010143      -109.1215
  15   1.0000      -3.251862       -88.4877
  16   1.0000      -2.245525       -61.1038
  17   1.0000      -2.244083       -61.0646
  18   1.0000      -2.243165       -61.0396
  19   1.0000      -2.242718       -61.0275
  20   1.0000      -2.240740       -60.9736
  21   1.0000      -2.240410       -60.9647
  22   1.0000      -2.239562       -60.9416
  23   1.0000      -2.239366       -60.9362
  24   1.0000      -2.238444       -60.9112
  25   1.0000      -2.237773       -60.8929
  26   1.0000      -2.237682       -60.8904
  27   1.0000      -2.234998       -60.8174
  28   1.0000      -2.234204       -60.7958
  29   1.0000      -2.233804       -60.7849
  30   1.0000      -2.233351       -60.7726
  31   1.0000      -2.233256       -60.7700
  32   1.0000      -2.233142       -60.7669
  33   1.0000      -2.232355       -60.7455
  34   1.0000      -2.231349       -60.7181
  35   1.0000      -2.231201       -60.7141
  36   1.0000      -2.230061       -60.6830
  37   1.0000      -2.229336       -60.6633
  38   1.0000      -2.228978       -60.6536
  39   1.0000      -2.226577       -60.5883
  40   1.0000      -2.225674       -60.5637
  41   1.0000      -2.224930       -60.5434
  42   1.0000      -2.223581       -60.5067
  43   1.0000      -2.222838       -60.4865
  44   1.0000      -2.218545       -60.3697
  45   1.0000      -2.217638       -60.3450
  46   1.0000      -2.071553       -56.3698
  47   1.0000      -2.066714       -56.2381
  48   1.0000      -2.065741       -56.2117
  49   1.0000      -0.410692       -11.1755
  50   1.0000      -0.376917       -10.2564
  51   1.0000      -0.371400       -10.1063
  52   1.0000      -0.364712        -9.9243
  53   1.0000      -0.353563        -9.6209
  54   1.0000      -0.352592        -9.5945
  55   1.0000      -0.345206        -9.3935
  56   1.0000      -0.343497        -9.3470
  57   1.0000      -0.339229        -9.2309
  58   1.0000      -0.338218        -9.2034
  59   1.0000      -0.333761        -9.0821
  60   1.0000      -0.330755        -9.0003
  61   1.0000      -0.325976        -8.8702
  62   1.0000      -0.324396        -8.8273
  63   1.0000      -0.323515        -8.8033
  64   1.0000      -0.321122        -8.7382
  65   1.0000      -0.319522        -8.6946
  66   1.0000      -0.312697        -8.5089
  67   1.0000      -0.309833        -8.4310
  68   1.0000      -0.308288        -8.3890
  69   1.0000      -0.305972        -8.3259
  70   1.0000      -0.305308        -8.3079
  71   1.0000      -0.301616        -8.2074
  72   1.0000      -0.298236        -8.1154
  73   1.0000      -0.296381        -8.0649
  74   1.0000      -0.291437        -7.9304
  75   1.0000      -0.286567        -7.7979
  76   1.0000      -0.285347        -7.7647
  77   1.0000      -0.283863        -7.7243
  78   1.0000      -0.282850        -7.6967
  79   1.0000      -0.280570        -7.6347
  80   1.0000      -0.277312        -7.5460
  81   1.0000      -0.272379        -7.4118
  82   1.0000      -0.271420        -7.3857
  83   1.0000      -0.269956        -7.3459
  84   1.0000      -0.268735        -7.3127
  85   1.0000      -0.267504        -7.2792
  86   1.0000      -0.264735        -7.2038
  87   1.0000      -0.262028        -7.1301
  88   1.0000      -0.261553        -7.1172
  89   1.0000      -0.258768        -7.0414
  90   1.0000      -0.256875        -6.9899
  91   1.0000      -0.256525        -6.9804
  92   1.0000      -0.255114        -6.9420
  93   1.0000      -0.254387        -6.9222
  94   1.0000      -0.251545        -6.8449
  95   1.0000      -0.250000        -6.8028
  96   1.0000      -0.246820        -6.7163
  97   1.0000      -0.246188        -6.6991
  98   1.0000      -0.238859        -6.4997
  99   1.0000      -0.237877        -6.4730
 100   1.0000      -0.235714        -6.4141
 101   1.0000      -0.234570        -6.3830
 102   1.0000      -0.228943        -6.2298
 103   1.0000      -0.210005        -5.7145
 104   1.0000      -0.195525        -5.3205
 105   1.0000      -0.191467        -5.2101
 106   0.0000      -0.172522        -4.6946
 107   0.0000      -0.169438        -4.6106
 108   0.0000      -0.163100        -4.4382
 109   0.0000      -0.152842        -4.1591
 110   0.0000      -0.151240        -4.1155

MULLIKEN ATOMIC CHARGES AND SPIN POPULATIONS
--------------------------------------------
   0 Au:    0.163452    0.192605
   1 Au:   -0.058464    0.129997
   2 Au:    0.022493    0.030789
   3 Au:    0.255187    0.059253
   4 Au:    0.162044    0.195444
   5 Au:    0.283818    0.017260
   6 Au:    0.283774   -0.051609
   7 Au:    0.366250    0.078780
   8 Au:    0.284824    0.015346
   9 Au:   -0.057192    0.127678
  10 Fe:   -1.706187    3.204457
Sum of atomic charges         :    0.0000000

LOEWDIN ATOMIC CHARGES AND SPIN POPULATIONS
-------------------------------------------
   0 Au:    0.024532    0.127042
   1 Au:   -0.045588    0.070847
   2 Au:    0.017814    0.063849
   3 Au:    0.095488    0.058561
   4 Au:    0.024880    0.130289
   5 Au:    0.097908    0.060625
   6 Au:    0.115716   -0.013193
   7 Au:    0.090245    0.073147
   8 Au:    0.099868    0.058394
   9 Au:   -0.044676    0.070122
  10 Fe:   -0.476184    3.300317

  Mayer bond orders larger than 0.100000
B(  0-Au,  3-Au) :   0.1014 B(  0-Au,  4-Au) :   0.1966 B(  0-Au,  8-Au) :   0.3012
B(  0-Au, 10-Fe) :   0.5994 B(  1-Au,  2-Au) :   0.2018 B(  1-Au,  5-Au) :   0.3461
B(  1-Au,  6-Au) :   0.2135 B(  1-Au,  7-Au) :   0.3972 B(  1-Au,  9-Au) :   0.1582
B(  1-Au, 10-Fe) :   0.4400 B(  2-Au,  3-Au) :   0.4489 B(  2-Au,  7-Au) :   0.3088
B(  2-Au,  9-Au) :   0.2045 B(  2-Au, 10-Fe) :   0.5968 B(  3-Au, 10-Fe) :   0.6652
B(  4-Au,  5-Au) :   0.3090 B(  4-Au, 10-Fe) :   0.6052 B(  5-Au,  6-Au) :   0.1428
B(  5-Au, 10-Fe) :   0.5991 B(  6-Au,  8-Au) :   0.1424 B(  6-Au,  9-Au) :   0.2075
B(  6-Au, 10-Fe) :   0.6230 B(  7-Au,  9-Au) :   0.3979 B(  8-Au,  9-Au) :   0.3495
B(  8-Au, 10-Fe) :   0.6004 B(  9-Au, 10-Fe) :   0.4420

FINAL SINGLE POINT ENERGY     -2621.725978429114

DIPOLE MOMENT
-------------
                                X             Y             Z
Electronic contribution:     -9.77862      20.47564       9.05123
Nuclear contribution   :      9.84517     -20.22563      -8.85262
                        -----------------------------------------
Total Dipole Moment    :      0.06655       0.25002       0.19861
                        -----------------------------------------
Magnitude (a.u.)       :      0.32617
Magnitude (Debye)      :      0.82905

Rotational constants in cm-1:     0.002231     0.001434     0.001389
Rotational constants in MHz :    66.892468    42.982824    41.632414

                             ****ORCA TERMINATED NORMALLY****
TOTAL RUN TIME: 0 days 1 hours 10 minutes 22 seconds 292 msec
