                         Program Version 5.0.3 -  RELEASE  -
|  1> %pal nprocs 1 end
|  2>
|  3> !PBE def2-TZVP OPT UNO
|  4> !SLOWCONV KDIIS
|  5>
|  6> %geom maxiter 300 end
|  7>
|  8> *xyzfile 0 4 4.xyz                           ****END OF INPUT****
 Total Charge           Charge          ....    0
 Multiplicity           Mult            ....    4
 Number of Electrons    NEL             ....  329
FINAL SINGLE POINT ENERGY     -3323.989830755961
FINAL SINGLE POINT ENERGY     -3323.996211578577
FINAL SINGLE POINT ENERGY     -3324.000698517582
FINAL SINGLE POINT ENERGY     -3324.003301213539
FINAL SINGLE POINT ENERGY     -3324.005192127318
FINAL SINGLE POINT ENERGY     -3324.006763547025
FINAL SINGLE POINT ENERGY     -3324.008210970831
FINAL SINGLE POINT ENERGY     -3324.009546047675
FINAL SINGLE POINT ENERGY     -3324.010732153695
FINAL SINGLE POINT ENERGY     -3324.011782231348
FINAL SINGLE POINT ENERGY     -3324.019481721065
FINAL SINGLE POINT ENERGY     -3324.019966441851
FINAL SINGLE POINT ENERGY     -3324.020257479477
FINAL SINGLE POINT ENERGY     -3324.020377114672
FINAL SINGLE POINT ENERGY     -3324.020453599390
FINAL SINGLE POINT ENERGY     -3324.020548777240
FINAL SINGLE POINT ENERGY     -3324.020578024242
FINAL SINGLE POINT ENERGY     -3324.020598183206
FINAL SINGLE POINT ENERGY     -3324.020612163049
                    ***********************HURRAY********************

CARTESIAN COORDINATES (ANGSTROEM)
---------------------------------
  Au     7.861906    5.881458    9.814884
  Au     5.324278    4.679755    9.679840
  Au     9.714946    4.885973    7.830305
  Au     6.913016    4.902612    7.354493
  Au     5.960364    6.208704    5.116806
  Au     4.414771    6.187760    7.548932
  Au     5.762350   10.042913    9.790397
  Au     3.688737    8.678343    8.537416
  Au     9.490290    7.591013    8.404027
  Au     7.919679    9.850347    8.011409
  Au     9.721211    9.038723    6.044701
  Au     7.917474    8.557475   10.556023
  Au     8.612045    6.514659    5.862904
  Au     6.998486    8.803659    5.521910
  Au     4.288012    8.325276    5.784527
  Au     5.421780   10.531069    7.032682
  Mn     5.616470    7.341045    9.772739

 Multiplicity           Mult            ....    4
 Number of Electrons    NEL             ....  329
 Basis Dimension        Dim             ....  685

ORBITAL ENERGIES
----------------
                 SPIN UP ORBITALS
  NO   OCC          E(Eh)            E(eV)
   0   1.0000    -234.203356     -6372.9973
   1   1.0000     -26.896344      -731.8867
   2   1.0000     -23.049936      -627.2206
   3   1.0000     -23.042595      -627.0209
   4   1.0000     -23.042119      -627.0079
   5   1.0000      -4.037849      -109.8755
   6   1.0000      -4.034560      -109.7860
   7   1.0000      -4.033162      -109.7479
   8   1.0000      -4.032985      -109.7431
   9   1.0000      -4.031762      -109.7098
  10   1.0000      -4.029729      -109.6545
  11   1.0000      -4.028864      -109.6310
  12   1.0000      -4.028300      -109.6156
  13   1.0000      -4.028237      -109.6139
  14   1.0000      -4.027103      -109.5831
  15   1.0000      -4.026520      -109.5672
  16   1.0000      -4.024859      -109.5220
  17   1.0000      -4.022912      -109.4690
  18   1.0000      -4.022461      -109.4567
  19   1.0000      -4.017406      -109.3192
  20   1.0000      -4.014645      -109.2441
  21   1.0000      -3.107395       -84.5565
  22   1.0000      -2.253512       -61.3212
  23   1.0000      -2.252364       -61.2899
  24   1.0000      -2.251102       -61.2556
  25   1.0000      -2.249248       -61.2051
  26   1.0000      -2.248742       -61.1914
  27   1.0000      -2.247753       -61.1645
  28   1.0000      -2.247341       -61.1533
  29   1.0000      -2.247023       -61.1446
  30   1.0000      -2.246877       -61.1406
  31   1.0000      -2.246449       -61.1290
  32   1.0000      -2.246086       -61.1191
  33   1.0000      -2.245497       -61.1031
  34   1.0000      -2.245328       -61.0985
  35   1.0000      -2.244820       -61.0846
  36   1.0000      -2.244388       -61.0729
  37   1.0000      -2.244167       -61.0669
  38   1.0000      -2.243794       -61.0567
  39   1.0000      -2.243722       -61.0548
  40   1.0000      -2.243047       -61.0364
  41   1.0000      -2.242868       -61.0315
  42   1.0000      -2.242618       -61.0247
  43   1.0000      -2.242457       -61.0204
  44   1.0000      -2.242347       -61.0174
  45   1.0000      -2.242177       -61.0127
  46   1.0000      -2.241479       -60.9937
  47   1.0000      -2.241095       -60.9833
  48   1.0000      -2.239486       -60.9395
  49   1.0000      -2.239184       -60.9313
  50   1.0000      -2.238826       -60.9215
  51   1.0000      -2.237444       -60.8840
  52   1.0000      -2.237177       -60.8767
  53   1.0000      -2.236706       -60.8639
  54   1.0000      -2.236543       -60.8594
  55   1.0000      -2.236129       -60.8482
  56   1.0000      -2.235984       -60.8442
  57   1.0000      -2.235776       -60.8386
  58   1.0000      -2.235601       -60.8338
  59   1.0000      -2.235324       -60.8263
  60   1.0000      -2.234995       -60.8173
  61   1.0000      -2.233942       -60.7886
  62   1.0000      -2.232898       -60.7602
  63   1.0000      -2.232263       -60.7430
  64   1.0000      -2.231532       -60.7231
  65   1.0000      -2.231199       -60.7140
  66   1.0000      -2.229442       -60.6662
  67   1.0000      -2.227050       -60.6011
  68   1.0000      -2.226665       -60.5906
  69   1.0000      -2.226132       -60.5761
  70   1.0000      -2.021468       -55.0070
  71   1.0000      -2.005202       -54.5643
  72   1.0000      -2.003904       -54.5290
  73   1.0000      -0.418275       -11.3819
  74   1.0000      -0.392479       -10.6799
  75   1.0000      -0.386400       -10.5145
  76   1.0000      -0.385977       -10.5030
  77   1.0000      -0.372227       -10.1288
  78   1.0000      -0.370512       -10.0821
  79   1.0000      -0.367411        -9.9978
  80   1.0000      -0.366519        -9.9735
  81   1.0000      -0.365423        -9.9437
  82   1.0000      -0.363916        -9.9027
  83   1.0000      -0.362542        -9.8653
  84   1.0000      -0.360840        -9.8189
  85   1.0000      -0.357718        -9.7340
  86   1.0000      -0.355342        -9.6693
  87   1.0000      -0.353831        -9.6282
  88   1.0000      -0.351206        -9.5568
  89   1.0000      -0.349558        -9.5120
  90   1.0000      -0.348687        -9.4882
  91   1.0000      -0.345374        -9.3981
  92   1.0000      -0.344591        -9.3768
  93   1.0000      -0.343603        -9.3499
  94   1.0000      -0.341451        -9.2914
  95   1.0000      -0.339183        -9.2296
  96   1.0000      -0.338945        -9.2232
  97   1.0000      -0.337364        -9.1802
  98   1.0000      -0.335259        -9.1229
  99   1.0000      -0.332265        -9.0414
 100   1.0000      -0.331316        -9.0156
 101   1.0000      -0.327085        -8.9004
 102   1.0000      -0.326756        -8.8915
 103   1.0000      -0.323725        -8.8090
 104   1.0000      -0.321296        -8.7429
 105   1.0000      -0.314747        -8.5647
 106   1.0000      -0.314157        -8.5487
 107   1.0000      -0.311340        -8.4720
 108   1.0000      -0.310766        -8.4564
 109   1.0000      -0.308290        -8.3890
 110   1.0000      -0.307014        -8.3543
 111   1.0000      -0.305359        -8.3092
 112   1.0000      -0.303384        -8.2555
 113   1.0000      -0.302081        -8.2200
 114   1.0000      -0.300683        -8.1820
 115   1.0000      -0.297884        -8.1058
 116   1.0000      -0.295830        -8.0499
 117   1.0000      -0.294855        -8.0234
 118   1.0000      -0.294415        -8.0114
 119   1.0000      -0.290260        -7.8984
 120   1.0000      -0.288537        -7.8515
 121   1.0000      -0.287102        -7.8124
 122   1.0000      -0.286073        -7.7844
 123   1.0000      -0.284439        -7.7400
 124   1.0000      -0.280531        -7.6336
 125   1.0000      -0.280012        -7.6195
 126   1.0000      -0.276866        -7.5339
 127   1.0000      -0.275106        -7.4860
 128   1.0000      -0.273830        -7.4513
 129   1.0000      -0.273681        -7.4473
 130   1.0000      -0.272174        -7.4062
 131   1.0000      -0.268803        -7.3145
 132   1.0000      -0.267974        -7.2919
 133   1.0000      -0.267006        -7.2656
 134   1.0000      -0.265990        -7.2379
 135   1.0000      -0.262810        -7.1514
 136   1.0000      -0.262310        -7.1378
 137   1.0000      -0.261666        -7.1203
 138   1.0000      -0.260860        -7.0984
 139   1.0000      -0.259879        -7.0717
 140   1.0000      -0.259648        -7.0654
 141   1.0000      -0.257997        -7.0205
 142   1.0000      -0.257758        -7.0139
 143   1.0000      -0.256378        -6.9764
 144   1.0000      -0.255364        -6.9488
 145   1.0000      -0.253584        -6.9004
 146   1.0000      -0.252600        -6.8736
 147   1.0000      -0.252294        -6.8653
 148   1.0000      -0.251787        -6.8515
 149   1.0000      -0.251256        -6.8370
 150   1.0000      -0.249685        -6.7943
 151   1.0000      -0.248324        -6.7572
 152   1.0000      -0.247663        -6.7392
 153   1.0000      -0.246229        -6.7002
 154   1.0000      -0.244668        -6.6577
 155   1.0000      -0.243816        -6.6346
 156   1.0000      -0.242078        -6.5873
 157   1.0000      -0.241843        -6.5809
 158   1.0000      -0.236512        -6.4358
 159   1.0000      -0.235183        -6.3997
 160   1.0000      -0.233523        -6.3545
 161   1.0000      -0.231177        -6.2906
 162   1.0000      -0.225971        -6.1490
 163   1.0000      -0.222986        -6.0677
 164   1.0000      -0.209834        -5.7099
 165   1.0000      -0.208926        -5.6852
 166   0.0000      -0.190565        -5.1855
 167   0.0000      -0.152078        -4.1382
 168   0.0000      -0.143341        -3.9005
 169   0.0000      -0.138977        -3.7818
 170   0.0000      -0.132337        -3.6011

                 SPIN DOWN ORBITALS
  NO   OCC          E(Eh)            E(eV)
   0   1.0000    -234.202664     -6372.9785
   1   1.0000     -26.830341      -730.0907
   2   1.0000     -22.996908      -625.7777
   3   1.0000     -22.993868      -625.6950
   4   1.0000     -22.993563      -625.6867
   5   1.0000      -4.037398      -109.8632
   6   1.0000      -4.034522      -109.7849
   7   1.0000      -4.033004      -109.7436
   8   1.0000      -4.032758      -109.7369
   9   1.0000      -4.031857      -109.7124
  10   1.0000      -4.030532      -109.6763
  11   1.0000      -4.029971      -109.6611
  12   1.0000      -4.028899      -109.6319
  13   1.0000      -4.028734      -109.6274
  14   1.0000      -4.027383      -109.5907
  15   1.0000      -4.025855      -109.5491
  16   1.0000      -4.025609      -109.5424
  17   1.0000      -4.023371      -109.4815
  18   1.0000      -4.023209      -109.4771
  19   1.0000      -4.017650      -109.3258
  20   1.0000      -4.014938      -109.2520
  21   1.0000      -2.944198       -80.1157
  22   1.0000      -2.252992       -61.3070
  23   1.0000      -2.251980       -61.2795
  24   1.0000      -2.251305       -61.2611
  25   1.0000      -2.248938       -61.1967
  26   1.0000      -2.248627       -61.1883
  27   1.0000      -2.248286       -61.1790
  28   1.0000      -2.247668       -61.1622
  29   1.0000      -2.247074       -61.1460
  30   1.0000      -2.246859       -61.1401
  31   1.0000      -2.246828       -61.1393
  32   1.0000      -2.246393       -61.1275
  33   1.0000      -2.245945       -61.1153
  34   1.0000      -2.245707       -61.1088
  35   1.0000      -2.245256       -61.0965
  36   1.0000      -2.244740       -61.0825
  37   1.0000      -2.244369       -61.0724
  38   1.0000      -2.244317       -61.0710
  39   1.0000      -2.244113       -61.0654
  40   1.0000      -2.243576       -61.0508
  41   1.0000      -2.243257       -61.0421
  42   1.0000      -2.242840       -61.0308
  43   1.0000      -2.242725       -61.0276
  44   1.0000      -2.242707       -61.0272
  45   1.0000      -2.241570       -60.9962
  46   1.0000      -2.241468       -60.9935
  47   1.0000      -2.241167       -60.9852
  48   1.0000      -2.240449       -60.9657
  49   1.0000      -2.239579       -60.9421
  50   1.0000      -2.238510       -60.9130
  51   1.0000      -2.238371       -60.9092
  52   1.0000      -2.237844       -60.8948
  53   1.0000      -2.237283       -60.8796
  54   1.0000      -2.237178       -60.8767
  55   1.0000      -2.236629       -60.8618
  56   1.0000      -2.236495       -60.8581
  57   1.0000      -2.236400       -60.8555
  58   1.0000      -2.236151       -60.8488
  59   1.0000      -2.235838       -60.8403
  60   1.0000      -2.234582       -60.8061
  61   1.0000      -2.234090       -60.7927
  62   1.0000      -2.233628       -60.7801
  63   1.0000      -2.232668       -60.7540
  64   1.0000      -2.231787       -60.7300
  65   1.0000      -2.231461       -60.7211
  66   1.0000      -2.229803       -60.6760
  67   1.0000      -2.227236       -60.6062
  68   1.0000      -2.226808       -60.5945
  69   1.0000      -2.226508       -60.5864
  70   1.0000      -1.852095       -50.3981
  71   1.0000      -1.848932       -50.3120
  72   1.0000      -1.848572       -50.3022
  73   1.0000      -0.418184       -11.3794
  74   1.0000      -0.392564       -10.6822
  75   1.0000      -0.387088       -10.5332
  76   1.0000      -0.383922       -10.4470
  77   1.0000      -0.372718       -10.1422
  78   1.0000      -0.370697       -10.0872
  79   1.0000      -0.367752       -10.0071
  80   1.0000      -0.366385        -9.9699
  81   1.0000      -0.365546        -9.9470
  82   1.0000      -0.363168        -9.8823
  83   1.0000      -0.362450        -9.8628
  84   1.0000      -0.358633        -9.7589
  85   1.0000      -0.357042        -9.7156
  86   1.0000      -0.354291        -9.6408
  87   1.0000      -0.353366        -9.6156
  88   1.0000      -0.351637        -9.5685
  89   1.0000      -0.349033        -9.4977
  90   1.0000      -0.348068        -9.4714
  91   1.0000      -0.345377        -9.3982
  92   1.0000      -0.343722        -9.3532
  93   1.0000      -0.341744        -9.2993
  94   1.0000      -0.340011        -9.2522
  95   1.0000      -0.339258        -9.2317
  96   1.0000      -0.338051        -9.1988
  97   1.0000      -0.336753        -9.1635
  98   1.0000      -0.332874        -9.0580
  99   1.0000      -0.332212        -9.0400
 100   1.0000      -0.331650        -9.0246
 101   1.0000      -0.325524        -8.8579
 102   1.0000      -0.323851        -8.8124
 103   1.0000      -0.323215        -8.7951
 104   1.0000      -0.318783        -8.6745
 105   1.0000      -0.313774        -8.5382
 106   1.0000      -0.313402        -8.5281
 107   1.0000      -0.312185        -8.4950
 108   1.0000      -0.309490        -8.4216
 109   1.0000      -0.306671        -8.3449
 110   1.0000      -0.304337        -8.2814
 111   1.0000      -0.303715        -8.2645
 112   1.0000      -0.302619        -8.2347
 113   1.0000      -0.301770        -8.2116
 114   1.0000      -0.299008        -8.1364
 115   1.0000      -0.297148        -8.0858
 116   1.0000      -0.295797        -8.0490
 117   1.0000      -0.294620        -8.0170
 118   1.0000      -0.291944        -7.9442
 119   1.0000      -0.289054        -7.8655
 120   1.0000      -0.287880        -7.8336
 121   1.0000      -0.287252        -7.8165
 122   1.0000      -0.285334        -7.7643
 123   1.0000      -0.282869        -7.6973
 124   1.0000      -0.280233        -7.6255
 125   1.0000      -0.278519        -7.5789
 126   1.0000      -0.276296        -7.5184
 127   1.0000      -0.274966        -7.4822
 128   1.0000      -0.273371        -7.4388
 129   1.0000      -0.272344        -7.4109
 130   1.0000      -0.270185        -7.3521
 131   1.0000      -0.269317        -7.3285
 132   1.0000      -0.266112        -7.2413
 133   1.0000      -0.264640        -7.2012
 134   1.0000      -0.263462        -7.1692
 135   1.0000      -0.262768        -7.1503
 136   1.0000      -0.262180        -7.1343
 137   1.0000      -0.260791        -7.0965
 138   1.0000      -0.259400        -7.0586
 139   1.0000      -0.259170        -7.0524
 140   1.0000      -0.258087        -7.0229
 141   1.0000      -0.256953        -6.9921
 142   1.0000      -0.255574        -6.9545
 143   1.0000      -0.254083        -6.9140
 144   1.0000      -0.253631        -6.9016
 145   1.0000      -0.252670        -6.8755
 146   1.0000      -0.251884        -6.8541
 147   1.0000      -0.249711        -6.7950
 148   1.0000      -0.249288        -6.7835
 149   1.0000      -0.248427        -6.7601
 150   1.0000      -0.246511        -6.7079
 151   1.0000      -0.246033        -6.6949
 152   1.0000      -0.243559        -6.6276
 153   1.0000      -0.241141        -6.5618
 154   1.0000      -0.239671        -6.5218
 155   1.0000      -0.237153        -6.4533
 156   1.0000      -0.232952        -6.3389
 157   1.0000      -0.232312        -6.3215
 158   1.0000      -0.226450        -6.1620
 159   1.0000      -0.214942        -5.8489
 160   1.0000      -0.211355        -5.7513
 161   1.0000      -0.193998        -5.2790
 162   1.0000      -0.167336        -4.5534
 163   0.0000      -0.154656        -4.2084
 164   0.0000      -0.148413        -4.0385
 165   0.0000      -0.140775        -3.8307
 166   0.0000      -0.139510        -3.7963
 167   0.0000      -0.136137        -3.7045

MULLIKEN ATOMIC CHARGES AND SPIN POPULATIONS
--------------------------------------------
   0 Au:   -0.046126   -0.084193
   1 Au:    0.392576   -0.126394
   2 Au:    0.412156   -0.168941
   3 Au:   -0.441612   -0.109927
   4 Au:    0.229367   -0.044351
   5 Au:   -0.207951   -0.115397
   6 Au:    0.269665   -0.054154
   7 Au:    0.190035   -0.033841
   8 Au:   -0.345789   -0.023935
   9 Au:   -0.506175   -0.187785
  10 Au:    0.555434   -0.079437
  11 Au:    0.288802   -0.079816
  12 Au:   -0.163193   -0.081274
  13 Au:   -0.512495   -0.112832
  14 Au:    0.173952   -0.051903
  15 Au:    0.200618    0.009797
  16 Mn:   -0.489263    4.344382
Sum of atomic charges         :   -0.0000000

LOEWDIN ATOMIC CHARGES AND SPIN POPULATIONS
-------------------------------------------
   0 Au:   -0.038322   -0.041686
   1 Au:    0.134497   -0.123048
   2 Au:    0.095066   -0.120917
   3 Au:   -0.099633   -0.092428
   4 Au:    0.051272   -0.088112
   5 Au:   -0.051308   -0.059497
   6 Au:    0.027813   -0.068831
   7 Au:    0.030233   -0.003600
   8 Au:   -0.096070   -0.068847
   9 Au:   -0.090417   -0.095682
  10 Au:    0.148095   -0.104477
  11 Au:    0.070629   -0.092386
  12 Au:   -0.083276   -0.095221
  13 Au:   -0.082368   -0.083991
  14 Au:   -0.014182   -0.059120
  15 Au:    0.000618   -0.023104
  16 Mn:   -0.002646    4.220947

  Mayer bond orders larger than 0.100000
B(  0-Au,  1-Au) :   0.1766 B(  0-Au,  2-Au) :   0.1945 B(  0-Au,  3-Au) :   0.3421
B(  0-Au,  8-Au) :   0.3590 B(  0-Au, 11-Au) :   0.2030 B(  0-Au, 16-Mn) :   0.5036
B(  1-Au,  3-Au) :   0.2313 B(  1-Au,  5-Au) :   0.3170 B(  1-Au, 16-Mn) :   0.4728
B(  2-Au,  3-Au) :   0.2334 B(  2-Au,  8-Au) :   0.2643 B(  2-Au, 12-Au) :   0.2611
B(  3-Au,  4-Au) :   0.3746 B(  3-Au,  5-Au) :   0.3230 B(  3-Au,  8-Au) :   0.1090
B(  3-Au, 12-Au) :   0.3638 B(  3-Au, 16-Mn) :   0.1063 B(  4-Au,  5-Au) :   0.2411
B(  4-Au, 12-Au) :   0.3123 B(  4-Au, 13-Au) :   0.2659 B(  4-Au, 14-Au) :   0.2596
B(  5-Au,  7-Au) :   0.2588 B(  5-Au, 14-Au) :   0.3523 B(  5-Au, 16-Mn) :   0.4596
B(  6-Au,  7-Au) :   0.2157 B(  6-Au,  9-Au) :   0.3115 B(  6-Au, 11-Au) :   0.2697
B(  6-Au, 15-Au) :   0.2292 B(  6-Au, 16-Mn) :   0.4634 B(  7-Au, 14-Au) :   0.2366
B(  7-Au, 15-Au) :   0.1805 B(  7-Au, 16-Mn) :   0.5319 B(  8-Au,  9-Au) :   0.4169
B(  8-Au, 10-Au) :   0.2162 B(  8-Au, 11-Au) :   0.2864 B(  8-Au, 12-Au) :   0.3472
B(  9-Au, 10-Au) :   0.3003 B(  9-Au, 11-Au) :   0.2253 B(  9-Au, 13-Au) :   0.4073
B(  9-Au, 15-Au) :   0.3682 B(  9-Au, 16-Mn) :   0.1140 B( 10-Au, 12-Au) :   0.2338
B( 10-Au, 13-Au) :   0.2989 B( 11-Au, 16-Mn) :   0.4217 B( 12-Au, 13-Au) :   0.3877
B( 13-Au, 14-Au) :   0.4053 B( 13-Au, 15-Au) :   0.3461 B( 14-Au, 15-Au) :   0.2723

FINAL SINGLE POINT ENERGY     -3324.020617351445

DIPOLE MOMENT
-------------
                                X             Y             Z
Electronic contribution:     46.08775       7.19868     -76.12548
Nuclear contribution   :    -46.07140      -7.37069      76.54824
                        -----------------------------------------
Total Dipole Moment    :      0.01635      -0.17201       0.42276
                        -----------------------------------------
Magnitude (a.u.)       :      0.45670
Magnitude (Debye)      :      1.16085

Rotational constants in cm-1:     0.000888     0.000782     0.000733
Rotational constants in MHz :    26.629884    23.439977    21.983610

                             ****ORCA TERMINATED NORMALLY****
TOTAL RUN TIME: 0 days 10 hours 35 minutes 53 seconds 718 msec
