                         Program Version 5.0.3 -  RELEASE  -
|  1> %pal nprocs 1 end
|  2>
|  3> !PBE def2-TZVP OPT UNO
|  4> !SLOWCONV KDIIS
|  5>
|  6> %geom maxiter 300 end
|  7>
|  8> *xyzfile 0 6 3.xyz                           ****END OF INPUT****
 Total Charge           Charge          ....    0
 Multiplicity           Mult            ....    6
 Number of Electrons    NEL             ....  253
FINAL SINGLE POINT ENERGY     -2780.684252158785
FINAL SINGLE POINT ENERGY     -2780.686911437548
FINAL SINGLE POINT ENERGY     -2780.688005703547
FINAL SINGLE POINT ENERGY     -2780.688790277792
FINAL SINGLE POINT ENERGY     -2780.689439678030
FINAL SINGLE POINT ENERGY     -2780.689912146328
FINAL SINGLE POINT ENERGY     -2780.690345599631
FINAL SINGLE POINT ENERGY     -2780.690837427400
FINAL SINGLE POINT ENERGY     -2780.691305114725
FINAL SINGLE POINT ENERGY     -2780.691630760744
FINAL SINGLE POINT ENERGY     -2780.691923719366
FINAL SINGLE POINT ENERGY     -2780.692187957254
FINAL SINGLE POINT ENERGY     -2780.692382645568
FINAL SINGLE POINT ENERGY     -2780.692442137546
FINAL SINGLE POINT ENERGY     -2780.692464557019
FINAL SINGLE POINT ENERGY     -2780.692481389579
FINAL SINGLE POINT ENERGY     -2780.692508030957
FINAL SINGLE POINT ENERGY     -2780.692516149873
FINAL SINGLE POINT ENERGY     -2780.692521876634
                    ***********************HURRAY********************

CARTESIAN COORDINATES (ANGSTROEM)
---------------------------------
  Au     8.785617    6.935146    6.402243
  Au    10.920102    8.015935    7.686367
  Au     4.574798    6.635170    8.241733
  Au     9.183718    6.603748    9.247387
  Au     6.668210    5.740199    9.954660
  Au     7.650142    8.251728   10.913516
  Au     5.138809    8.978183    9.755905
  Au     7.579288    9.494702    6.243922
  Au     7.435863   10.300174    9.014758
  Au    10.035678    9.326387   10.036140
  Au     9.705135   10.595438    7.527159
  Au     6.016442    7.165476    5.875926
  Mn     6.961139    7.758495    8.248835

 Multiplicity           Mult            ....    6
 Number of Electrons    NEL             ....  253
 Basis Dimension        Dim             ....  525

ORBITAL ENERGIES
----------------
                 SPIN UP ORBITALS
  NO   OCC          E(Eh)            E(eV)
   0   1.0000    -234.198224     -6372.8577
   1   1.0000     -26.895283      -731.8579
   2   1.0000     -23.044097      -627.0618
   3   1.0000     -23.043418      -627.0433
   4   1.0000     -23.043098      -627.0346
   5   1.0000      -4.038202      -109.8851
   6   1.0000      -4.038174      -109.8843
   7   1.0000      -4.033547      -109.7584
   8   1.0000      -4.029905      -109.6593
   9   1.0000      -4.029806      -109.6566
  10   1.0000      -4.025333      -109.5349
  11   1.0000      -4.021904      -109.4416
  12   1.0000      -4.021864      -109.4405
  13   1.0000      -4.016946      -109.3066
  14   1.0000      -4.016846      -109.3039
  15   1.0000      -4.016809      -109.3029
  16   1.0000      -4.011193      -109.1501
  17   1.0000      -3.106657       -84.5364
  18   1.0000      -2.255201       -61.3671
  19   1.0000      -2.255171       -61.3663
  20   1.0000      -2.251342       -61.2621
  21   1.0000      -2.251304       -61.2611
  22   1.0000      -2.248755       -61.1917
  23   1.0000      -2.248243       -61.1778
  24   1.0000      -2.246888       -61.1409
  25   1.0000      -2.246733       -61.1367
  26   1.0000      -2.246422       -61.1283
  27   1.0000      -2.245330       -61.0985
  28   1.0000      -2.245316       -61.0981
  29   1.0000      -2.244116       -61.0655
  30   1.0000      -2.243784       -61.0565
  31   1.0000      -2.242012       -61.0082
  32   1.0000      -2.239841       -60.9492
  33   1.0000      -2.238901       -60.9236
  34   1.0000      -2.238882       -60.9231
  35   1.0000      -2.238105       -60.9019
  36   1.0000      -2.236877       -60.8685
  37   1.0000      -2.234732       -60.8101
  38   1.0000      -2.234514       -60.8042
  39   1.0000      -2.233756       -60.7836
  40   1.0000      -2.233233       -60.7693
  41   1.0000      -2.232607       -60.7523
  42   1.0000      -2.232603       -60.7522
  43   1.0000      -2.231081       -60.7108
  44   1.0000      -2.231016       -60.7090
  45   1.0000      -2.230429       -60.6931
  46   1.0000      -2.229931       -60.6795
  47   1.0000      -2.228161       -60.6313
  48   1.0000      -2.227401       -60.6107
  49   1.0000      -2.226467       -60.5853
  50   1.0000      -2.225814       -60.5675
  51   1.0000      -2.225276       -60.5528
  52   1.0000      -2.223751       -60.5113
  53   1.0000      -2.221928       -60.4617
  54   1.0000      -2.010230       -54.7012
  55   1.0000      -2.009086       -54.6700
  56   1.0000      -2.008744       -54.6607
  57   1.0000      -0.422663       -11.5012
  58   1.0000      -0.382567       -10.4102
  59   1.0000      -0.380493       -10.3537
  60   1.0000      -0.378717       -10.3054
  61   1.0000      -0.367881       -10.0105
  62   1.0000      -0.364690        -9.9237
  63   1.0000      -0.364458        -9.9174
  64   1.0000      -0.355460        -9.6725
  65   1.0000      -0.353400        -9.6165
  66   1.0000      -0.351068        -9.5531
  67   1.0000      -0.346231        -9.4214
  68   1.0000      -0.345704        -9.4071
  69   1.0000      -0.345471        -9.4008
  70   1.0000      -0.344875        -9.3845
  71   1.0000      -0.341520        -9.2932
  72   1.0000      -0.337897        -9.1946
  73   1.0000      -0.335217        -9.1217
  74   1.0000      -0.331712        -9.0263
  75   1.0000      -0.331163        -9.0114
  76   1.0000      -0.329592        -8.9687
  77   1.0000      -0.328072        -8.9273
  78   1.0000      -0.325860        -8.8671
  79   1.0000      -0.318859        -8.6766
  80   1.0000      -0.317900        -8.6505
  81   1.0000      -0.316134        -8.6025
  82   1.0000      -0.313229        -8.5234
  83   1.0000      -0.309902        -8.4328
  84   1.0000      -0.305516        -8.3135
  85   1.0000      -0.304735        -8.2923
  86   1.0000      -0.301464        -8.2033
  87   1.0000      -0.300070        -8.1653
  88   1.0000      -0.297456        -8.0942
  89   1.0000      -0.297324        -8.0906
  90   1.0000      -0.291881        -7.9425
  91   1.0000      -0.290270        -7.8986
  92   1.0000      -0.285122        -7.7586
  93   1.0000      -0.284897        -7.7524
  94   1.0000      -0.281181        -7.6513
  95   1.0000      -0.281148        -7.6504
  96   1.0000      -0.278612        -7.5814
  97   1.0000      -0.276787        -7.5318
  98   1.0000      -0.276276        -7.5179
  99   1.0000      -0.274216        -7.4618
 100   1.0000      -0.273599        -7.4450
 101   1.0000      -0.273172        -7.4334
 102   1.0000      -0.267852        -7.2886
 103   1.0000      -0.265799        -7.2328
 104   1.0000      -0.264602        -7.2002
 105   1.0000      -0.261636        -7.1195
 106   1.0000      -0.260533        -7.0895
 107   1.0000      -0.259447        -7.0599
 108   1.0000      -0.259310        -7.0562
 109   1.0000      -0.257241        -6.9999
 110   1.0000      -0.256006        -6.9663
 111   1.0000      -0.254216        -6.9176
 112   1.0000      -0.251532        -6.8445
 113   1.0000      -0.250089        -6.8053
 114   1.0000      -0.249876        -6.7995
 115   1.0000      -0.249338        -6.7848
 116   1.0000      -0.248113        -6.7515
 117   1.0000      -0.246893        -6.7183
 118   1.0000      -0.245505        -6.6805
 119   1.0000      -0.241793        -6.5795
 120   1.0000      -0.239815        -6.5257
 121   1.0000      -0.239429        -6.5152
 122   1.0000      -0.236178        -6.4267
 123   1.0000      -0.235080        -6.3968
 124   1.0000      -0.233687        -6.3590
 125   1.0000      -0.232168        -6.3176
 126   1.0000      -0.206350        -5.6151
 127   1.0000      -0.196923        -5.3585
 128   1.0000      -0.195156        -5.3105
 129   0.0000      -0.161880        -4.4050
 130   0.0000      -0.156985        -4.2718
 131   0.0000      -0.132436        -3.6038
 132   0.0000      -0.124149        -3.3783
 133   0.0000      -0.122679        -3.3383

                 SPIN DOWN ORBITALS
  NO   OCC          E(Eh)            E(eV)
   0   1.0000    -234.197475     -6372.8373
   1   1.0000     -26.828252      -730.0339
   2   1.0000     -22.992962      -625.6703
   3   1.0000     -22.992661      -625.6621
   4   1.0000     -22.992234      -625.6505
   5   1.0000      -4.036820      -109.8475
   6   1.0000      -4.036792      -109.8467
   7   1.0000      -4.032778      -109.7375
   8   1.0000      -4.028785      -109.6288
   9   1.0000      -4.028686      -109.6261
  10   1.0000      -4.023845      -109.4944
  11   1.0000      -4.020518      -109.4039
  12   1.0000      -4.020468      -109.4025
  13   1.0000      -4.016651      -109.2986
  14   1.0000      -4.016551      -109.2959
  15   1.0000      -4.015331      -109.2627
  16   1.0000      -4.010979      -109.1443
  17   1.0000      -2.942126       -80.0593
  18   1.0000      -2.253442       -61.3193
  19   1.0000      -2.253407       -61.3183
  20   1.0000      -2.249726       -61.2181
  21   1.0000      -2.249690       -61.2172
  22   1.0000      -2.247744       -61.1642
  23   1.0000      -2.247244       -61.1506
  24   1.0000      -2.245687       -61.1082
  25   1.0000      -2.245429       -61.1012
  26   1.0000      -2.245326       -61.0984
  27   1.0000      -2.244671       -61.0806
  28   1.0000      -2.243825       -61.0576
  29   1.0000      -2.242790       -61.0294
  30   1.0000      -2.242494       -61.0214
  31   1.0000      -2.239960       -60.9524
  32   1.0000      -2.238946       -60.9248
  33   1.0000      -2.237270       -60.8792
  34   1.0000      -2.236999       -60.8718
  35   1.0000      -2.236966       -60.8710
  36   1.0000      -2.235630       -60.8346
  37   1.0000      -2.233075       -60.7651
  38   1.0000      -2.233035       -60.7640
  39   1.0000      -2.232850       -60.7589
  40   1.0000      -2.232431       -60.7475
  41   1.0000      -2.232216       -60.7417
  42   1.0000      -2.230530       -60.6958
  43   1.0000      -2.230127       -60.6848
  44   1.0000      -2.229799       -60.6759
  45   1.0000      -2.229729       -60.6740
  46   1.0000      -2.229626       -60.6712
  47   1.0000      -2.227106       -60.6026
  48   1.0000      -2.227000       -60.5997
  49   1.0000      -2.225581       -60.5611
  50   1.0000      -2.225202       -60.5508
  51   1.0000      -2.224964       -60.5443
  52   1.0000      -2.223522       -60.5051
  53   1.0000      -2.221684       -60.4551
  54   1.0000      -1.848538       -50.3013
  55   1.0000      -1.848048       -50.2879
  56   1.0000      -1.846960       -50.2584
  57   1.0000      -0.414441       -11.2775
  58   1.0000      -0.378345       -10.2953
  59   1.0000      -0.376609       -10.2481
  60   1.0000      -0.373506       -10.1636
  61   1.0000      -0.363731        -9.8976
  62   1.0000      -0.359642        -9.7864
  63   1.0000      -0.358050        -9.7430
  64   1.0000      -0.351573        -9.5668
  65   1.0000      -0.347702        -9.4615
  66   1.0000      -0.347383        -9.4528
  67   1.0000      -0.344208        -9.3664
  68   1.0000      -0.340413        -9.2631
  69   1.0000      -0.338241        -9.2040
  70   1.0000      -0.337188        -9.1754
  71   1.0000      -0.336074        -9.1450
  72   1.0000      -0.334627        -9.1057
  73   1.0000      -0.332426        -9.0458
  74   1.0000      -0.328785        -8.9467
  75   1.0000      -0.327376        -8.9084
  76   1.0000      -0.325372        -8.8538
  77   1.0000      -0.323585        -8.8052
  78   1.0000      -0.318246        -8.6599
  79   1.0000      -0.316790        -8.6203
  80   1.0000      -0.313533        -8.5317
  81   1.0000      -0.312192        -8.4952
  82   1.0000      -0.307026        -8.3546
  83   1.0000      -0.304478        -8.2853
  84   1.0000      -0.303881        -8.2690
  85   1.0000      -0.299369        -8.1462
  86   1.0000      -0.299037        -8.1372
  87   1.0000      -0.298468        -8.1217
  88   1.0000      -0.295366        -8.0373
  89   1.0000      -0.294607        -8.0167
  90   1.0000      -0.287689        -7.8284
  91   1.0000      -0.284412        -7.7392
  92   1.0000      -0.283139        -7.7046
  93   1.0000      -0.282154        -7.6778
  94   1.0000      -0.279105        -7.5948
  95   1.0000      -0.276141        -7.5142
  96   1.0000      -0.275878        -7.5070
  97   1.0000      -0.274020        -7.4565
  98   1.0000      -0.273901        -7.4532
  99   1.0000      -0.272521        -7.4157
 100   1.0000      -0.271575        -7.3899
 101   1.0000      -0.270847        -7.3701
 102   1.0000      -0.265360        -7.2208
 103   1.0000      -0.263385        -7.1671
 104   1.0000      -0.262812        -7.1515
 105   1.0000      -0.260297        -7.0830
 106   1.0000      -0.258872        -7.0443
 107   1.0000      -0.257845        -7.0163
 108   1.0000      -0.257729        -7.0132
 109   1.0000      -0.255857        -6.9622
 110   1.0000      -0.252355        -6.8669
 111   1.0000      -0.252083        -6.8595
 112   1.0000      -0.249821        -6.7980
 113   1.0000      -0.248302        -6.7566
 114   1.0000      -0.247147        -6.7252
 115   1.0000      -0.245496        -6.6803
 116   1.0000      -0.243945        -6.6381
 117   1.0000      -0.239816        -6.5257
 118   1.0000      -0.239622        -6.5204
 119   1.0000      -0.235794        -6.4163
 120   1.0000      -0.232189        -6.3182
 121   1.0000      -0.211149        -5.7456
 122   1.0000      -0.206361        -5.6154
 123   1.0000      -0.201152        -5.4736
 124   0.0000      -0.169895        -4.6231
 125   0.0000      -0.162780        -4.4295
 126   0.0000      -0.141485        -3.8500
 127   0.0000      -0.138587        -3.7711
 128   0.0000      -0.136125        -3.7041

MULLIKEN ATOMIC CHARGES AND SPIN POPULATIONS
--------------------------------------------
   0 Au:    0.134056    0.043592
   1 Au:    0.151021    0.083734
   2 Au:    0.264432    0.067327
   3 Au:    0.059726    0.034844
   4 Au:    0.283363    0.107662
   5 Au:    0.193126    0.023452
   6 Au:    0.283487    0.107131
   7 Au:    0.131828    0.043742
   8 Au:    0.057686    0.034898
   9 Au:    0.001119    0.073384
  10 Au:    0.154260    0.083818
  11 Au:    0.259534    0.091391
  12 Mn:   -1.973637    4.205025
Sum of atomic charges         :   -0.0000000

LOEWDIN ATOMIC CHARGES AND SPIN POPULATIONS
-------------------------------------------
   0 Au:    0.057420    0.053541
   1 Au:    0.008814    0.066798
   2 Au:    0.042635    0.070844
   3 Au:    0.011618    0.060665
   4 Au:    0.103044    0.078596
   5 Au:    0.017658    0.039451
   6 Au:    0.102639    0.078144
   7 Au:    0.057014    0.053612
   8 Au:    0.011388    0.060666
   9 Au:   -0.023100    0.057911
  10 Au:    0.009620    0.066899
  11 Au:    0.099522    0.068939
  12 Mn:   -0.498273    4.243934

  Mayer bond orders larger than 0.100000
B(  0-Au,  1-Au) :   0.4111 B(  0-Au,  3-Au) :   0.2111 B(  0-Au,  7-Au) :   0.1722
B(  0-Au, 11-Au) :   0.2098 B(  0-Au, 12-Mn) :   0.4878 B(  1-Au,  3-Au) :   0.3749
B(  1-Au,  9-Au) :   0.2329 B(  1-Au, 10-Au) :   0.2338 B(  1-Au, 12-Mn) :   0.1281
B(  2-Au,  4-Au) :   0.1950 B(  2-Au,  6-Au) :   0.1963 B(  2-Au, 11-Au) :   0.2111
B(  2-Au, 12-Mn) :   0.5686 B(  3-Au,  4-Au) :   0.3628 B(  3-Au,  5-Au) :   0.2422
B(  3-Au,  9-Au) :   0.2157 B(  3-Au, 12-Mn) :   0.4289 B(  4-Au,  5-Au) :   0.1596
B(  4-Au, 12-Mn) :   0.5531 B(  5-Au,  6-Au) :   0.1608 B(  5-Au,  8-Au) :   0.2423
B(  5-Au,  9-Au) :   0.3778 B(  5-Au, 12-Mn) :   0.4494 B(  6-Au,  8-Au) :   0.3627
B(  6-Au, 12-Mn) :   0.5509 B(  7-Au,  8-Au) :   0.2130 B(  7-Au, 10-Au) :   0.4110
B(  7-Au, 11-Au) :   0.2095 B(  7-Au, 12-Mn) :   0.4886 B(  8-Au,  9-Au) :   0.2164
B(  8-Au, 10-Au) :   0.3751 B(  8-Au, 12-Mn) :   0.4287 B(  9-Au, 10-Au) :   0.2329
B(  9-Au, 12-Mn) :   0.1590 B( 10-Au, 12-Mn) :   0.1270 B( 11-Au, 12-Mn) :   0.5362

FINAL SINGLE POINT ENERGY     -2780.692523352683

DIPOLE MOMENT
-------------
                                X             Y             Z
Electronic contribution:     30.64547      14.89666       5.68446
Nuclear contribution   :    -30.80427     -14.97852      -5.80209
                        -----------------------------------------
Total Dipole Moment    :     -0.15879      -0.08186      -0.11763
                        -----------------------------------------
Magnitude (a.u.)       :      0.21390
Magnitude (Debye)      :      0.54368

Rotational constants in cm-1:     0.001600     0.001203     0.001086
Rotational constants in MHz :    47.975621    36.051381    32.548719

                             ****ORCA TERMINATED NORMALLY****
TOTAL RUN TIME: 0 days 3 hours 31 minutes 27 seconds 506 msec
