                         Program Version 5.0.3 -  RELEASE  -
|  1> %pal nprocs 1 end
|  2>
|  3> !PBE def2-TZVP OPT UNO
|  4> !SLOWCONV KDIIS
|  5>
|  6> %geom maxiter 300 end
|  7>
|  8> *xyzfile 0 3 9.xyz                           ****END OF INPUT****
 Total Charge           Charge          ....    0
 Multiplicity           Mult            ....    3
 Number of Electrons    NEL             ....  214
FINAL SINGLE POINT ENERGY     -2402.465020318403
FINAL SINGLE POINT ENERGY     -2402.467702728368
FINAL SINGLE POINT ENERGY     -2402.469163943773
FINAL SINGLE POINT ENERGY     -2402.470455229376
FINAL SINGLE POINT ENERGY     -2402.470926278052
FINAL SINGLE POINT ENERGY     -2402.471251327104
FINAL SINGLE POINT ENERGY     -2402.471619237915
FINAL SINGLE POINT ENERGY     -2402.471858749352
FINAL SINGLE POINT ENERGY     -2402.472103450449
FINAL SINGLE POINT ENERGY     -2402.472561402388
FINAL SINGLE POINT ENERGY     -2402.480646766247
FINAL SINGLE POINT ENERGY     -2402.480675933885
FINAL SINGLE POINT ENERGY     -2402.480719352049
FINAL SINGLE POINT ENERGY     -2402.480736840954
FINAL SINGLE POINT ENERGY     -2402.480764169573
FINAL SINGLE POINT ENERGY     -2402.480777656797
FINAL SINGLE POINT ENERGY     -2402.480787757206
FINAL SINGLE POINT ENERGY     -2402.480792762733
FINAL SINGLE POINT ENERGY     -2402.480794602726
                    ***********************HURRAY********************

CARTESIAN COORDINATES (ANGSTROEM)
---------------------------------
  Au     7.638730    4.821765    8.094755
  Au    10.323856    5.676245    8.099027
  Au     9.118204    7.780623    9.212727
  Au     7.594280    9.451161    7.761217
  Au     6.795274    5.941520    4.822461
  Au     9.229742    9.061005    5.422401
  Au    11.650139    4.402472    6.075279
  Au     8.958144    4.596186    5.616001
  Au    10.753887    6.919368    5.485708
  Au     6.410251    8.515380    5.487515
  Cr     8.271005    7.003054    6.791664

 Multiplicity           Mult            ....    3
 Number of Electrons    NEL             ....  214
 Basis Dimension        Dim             ....  445

ORBITAL ENERGIES
----------------
                 SPIN UP ORBITALS
  NO   OCC          E(Eh)            E(eV)
   0   1.0000    -214.505834     -5837.0005
   1   1.0000     -24.308912      -661.4791
   2   1.0000     -20.674693      -562.5870
   3   1.0000     -20.672006      -562.5139
   4   1.0000     -20.670642      -562.4768
   5   1.0000      -4.028799      -109.6292
   6   1.0000      -4.028749      -109.6278
   7   1.0000      -4.022844      -109.4671
   8   1.0000      -4.019675      -109.3809
   9   1.0000      -4.017730      -109.3280
  10   1.0000      -4.016588      -109.2969
  11   1.0000      -4.016204      -109.2865
  12   1.0000      -4.012403      -109.1830
  13   1.0000      -4.011624      -109.1618
  14   1.0000      -4.011166      -109.1494
  15   1.0000      -2.805980       -76.3546
  16   1.0000      -2.246628       -61.1338
  17   1.0000      -2.246082       -61.1190
  18   1.0000      -2.243374       -61.0453
  19   1.0000      -2.241895       -61.0051
  20   1.0000      -2.240720       -60.9731
  21   1.0000      -2.238290       -60.9070
  22   1.0000      -2.237067       -60.8737
  23   1.0000      -2.236541       -60.8594
  24   1.0000      -2.235323       -60.8262
  25   1.0000      -2.234253       -60.7971
  26   1.0000      -2.234083       -60.7925
  27   1.0000      -2.233406       -60.7741
  28   1.0000      -2.233022       -60.7636
  29   1.0000      -2.232961       -60.7620
  30   1.0000      -2.232072       -60.7378
  31   1.0000      -2.231593       -60.7247
  32   1.0000      -2.231287       -60.7164
  33   1.0000      -2.229781       -60.6754
  34   1.0000      -2.228612       -60.6436
  35   1.0000      -2.228194       -60.6322
  36   1.0000      -2.226325       -60.5814
  37   1.0000      -2.225608       -60.5619
  38   1.0000      -2.225158       -60.5496
  39   1.0000      -2.224626       -60.5351
  40   1.0000      -2.224416       -60.5294
  41   1.0000      -2.223445       -60.5030
  42   1.0000      -2.223176       -60.4957
  43   1.0000      -2.220941       -60.4349
  44   1.0000      -2.217570       -60.3431
  45   1.0000      -2.217041       -60.3288
  46   1.0000      -1.798490       -48.9394
  47   1.0000      -1.794684       -48.8358
  48   1.0000      -1.791854       -48.7588
  49   1.0000      -0.407043       -11.0762
  50   1.0000      -0.379169       -10.3177
  51   1.0000      -0.363645        -9.8953
  52   1.0000      -0.362730        -9.8704
  53   1.0000      -0.357197        -9.7198
  54   1.0000      -0.355798        -9.6818
  55   1.0000      -0.346146        -9.4191
  56   1.0000      -0.342677        -9.3247
  57   1.0000      -0.337264        -9.1774
  58   1.0000      -0.335517        -9.1299
  59   1.0000      -0.334767        -9.1095
  60   1.0000      -0.328389        -8.9359
  61   1.0000      -0.328090        -8.9278
  62   1.0000      -0.326549        -8.8859
  63   1.0000      -0.322414        -8.7733
  64   1.0000      -0.318001        -8.6533
  65   1.0000      -0.314652        -8.5621
  66   1.0000      -0.310627        -8.4526
  67   1.0000      -0.306408        -8.3378
  68   1.0000      -0.305541        -8.3142
  69   1.0000      -0.305200        -8.3049
  70   1.0000      -0.298949        -8.1348
  71   1.0000      -0.296977        -8.0811
  72   1.0000      -0.296464        -8.0672
  73   1.0000      -0.289702        -7.8832
  74   1.0000      -0.288388        -7.8474
  75   1.0000      -0.287047        -7.8109
  76   1.0000      -0.285023        -7.7559
  77   1.0000      -0.280139        -7.6230
  78   1.0000      -0.277967        -7.5639
  79   1.0000      -0.277130        -7.5411
  80   1.0000      -0.273652        -7.4465
  81   1.0000      -0.271984        -7.4011
  82   1.0000      -0.270157        -7.3514
  83   1.0000      -0.267623        -7.2824
  84   1.0000      -0.266927        -7.2634
  85   1.0000      -0.264325        -7.1926
  86   1.0000      -0.263168        -7.1612
  87   1.0000      -0.262475        -7.1423
  88   1.0000      -0.260611        -7.0916
  89   1.0000      -0.258794        -7.0421
  90   1.0000      -0.256634        -6.9834
  91   1.0000      -0.255195        -6.9442
  92   1.0000      -0.254211        -6.9174
  93   1.0000      -0.251967        -6.8564
  94   1.0000      -0.249486        -6.7889
  95   1.0000      -0.246277        -6.7015
  96   1.0000      -0.243665        -6.6305
  97   1.0000      -0.242806        -6.6071
  98   1.0000      -0.237752        -6.4696
  99   1.0000      -0.234911        -6.3922
 100   1.0000      -0.233160        -6.3446
 101   1.0000      -0.231846        -6.3089
 102   1.0000      -0.228476        -6.2171
 103   1.0000      -0.216901        -5.9022
 104   1.0000      -0.211059        -5.7432
 105   1.0000      -0.209994        -5.7142
 106   1.0000      -0.208895        -5.6843
 107   1.0000      -0.203045        -5.5251
 108   0.0000      -0.185782        -5.0554
 109   0.0000      -0.165313        -4.4984
 110   0.0000      -0.158197        -4.3048
 111   0.0000      -0.139034        -3.7833
 112   0.0000      -0.126579        -3.4444

                 SPIN DOWN ORBITALS
  NO   OCC          E(Eh)            E(eV)
   0   1.0000    -214.505411     -5836.9890
   1   1.0000     -24.265582      -660.3000
   2   1.0000     -20.644229      -561.7580
   3   1.0000     -20.637139      -561.5651
   4   1.0000     -20.636625      -561.5511
   5   1.0000      -4.029142      -109.6385
   6   1.0000      -4.029101      -109.6374
   7   1.0000      -4.023476      -109.4844
   8   1.0000      -4.019229      -109.3688
   9   1.0000      -4.017839      -109.3310
  10   1.0000      -4.016631      -109.2981
  11   1.0000      -4.016268      -109.2882
  12   1.0000      -4.012298      -109.1802
  13   1.0000      -4.011380      -109.1552
  14   1.0000      -4.010925      -109.1428
  15   1.0000      -2.689411       -73.1826
  16   1.0000      -2.247156       -61.1482
  17   1.0000      -2.246558       -61.1320
  18   1.0000      -2.243657       -61.0530
  19   1.0000      -2.242225       -61.0141
  20   1.0000      -2.240848       -60.9766
  21   1.0000      -2.238621       -60.9160
  22   1.0000      -2.237306       -60.8802
  23   1.0000      -2.236816       -60.8669
  24   1.0000      -2.235160       -60.8218
  25   1.0000      -2.234782       -60.8115
  26   1.0000      -2.234475       -60.8032
  27   1.0000      -2.233550       -60.7780
  28   1.0000      -2.232917       -60.7608
  29   1.0000      -2.232353       -60.7454
  30   1.0000      -2.231900       -60.7331
  31   1.0000      -2.231777       -60.7297
  32   1.0000      -2.230930       -60.7067
  33   1.0000      -2.229996       -60.6813
  34   1.0000      -2.228179       -60.6318
  35   1.0000      -2.227759       -60.6204
  36   1.0000      -2.226316       -60.5811
  37   1.0000      -2.225768       -60.5662
  38   1.0000      -2.225314       -60.5539
  39   1.0000      -2.224511       -60.5320
  40   1.0000      -2.224373       -60.5283
  41   1.0000      -2.223381       -60.5013
  42   1.0000      -2.223374       -60.5011
  43   1.0000      -2.221103       -60.4393
  44   1.0000      -2.217113       -60.3307
  45   1.0000      -2.216583       -60.3163
  46   1.0000      -1.692128       -46.0451
  47   1.0000      -1.675595       -45.5953
  48   1.0000      -1.672872       -45.5212
  49   1.0000      -0.403755       -10.9867
  50   1.0000      -0.375929       -10.2295
  51   1.0000      -0.364054        -9.9064
  52   1.0000      -0.362362        -9.8604
  53   1.0000      -0.357896        -9.7388
  54   1.0000      -0.353272        -9.6130
  55   1.0000      -0.343654        -9.3513
  56   1.0000      -0.339054        -9.2261
  57   1.0000      -0.339006        -9.2248
  58   1.0000      -0.334878        -9.1125
  59   1.0000      -0.334028        -9.0894
  60   1.0000      -0.327973        -8.9246
  61   1.0000      -0.327797        -8.9198
  62   1.0000      -0.323572        -8.8048
  63   1.0000      -0.321236        -8.7413
  64   1.0000      -0.315047        -8.5729
  65   1.0000      -0.313816        -8.5394
  66   1.0000      -0.310697        -8.4545
  67   1.0000      -0.306836        -8.3494
  68   1.0000      -0.305136        -8.3032
  69   1.0000      -0.303998        -8.2722
  70   1.0000      -0.297930        -8.1071
  71   1.0000      -0.297042        -8.0829
  72   1.0000      -0.294153        -8.0043
  73   1.0000      -0.289052        -7.8655
  74   1.0000      -0.287845        -7.8327
  75   1.0000      -0.287426        -7.8213
  76   1.0000      -0.286016        -7.7829
  77   1.0000      -0.281067        -7.6482
  78   1.0000      -0.277796        -7.5592
  79   1.0000      -0.277321        -7.5463
  80   1.0000      -0.273806        -7.4506
  81   1.0000      -0.273065        -7.4305
  82   1.0000      -0.271628        -7.3914
  83   1.0000      -0.268725        -7.3124
  84   1.0000      -0.267942        -7.2911
  85   1.0000      -0.264687        -7.2025
  86   1.0000      -0.263929        -7.1819
  87   1.0000      -0.263485        -7.1698
  88   1.0000      -0.261512        -7.1161
  89   1.0000      -0.259736        -7.0678
  90   1.0000      -0.257765        -7.0141
  91   1.0000      -0.256010        -6.9664
  92   1.0000      -0.253755        -6.9050
  93   1.0000      -0.253073        -6.8865
  94   1.0000      -0.250307        -6.8112
  95   1.0000      -0.247708        -6.7405
  96   1.0000      -0.244722        -6.6592
  97   1.0000      -0.243894        -6.6367
  98   1.0000      -0.238146        -6.4803
  99   1.0000      -0.236419        -6.4333
 100   1.0000      -0.234685        -6.3861
 101   1.0000      -0.231882        -6.3098
 102   1.0000      -0.231035        -6.2868
 103   1.0000      -0.208585        -5.6759
 104   1.0000      -0.191734        -5.2173
 105   1.0000      -0.190493        -5.1836
 106   0.0000      -0.149433        -4.0663
 107   0.0000      -0.142566        -3.8794
 108   0.0000      -0.124638        -3.3916
 109   0.0000      -0.113694        -3.0938
 110   0.0000      -0.113384        -3.0853

MULLIKEN ATOMIC CHARGES AND SPIN POPULATIONS
--------------------------------------------
   0 Au:    0.400584   -0.067463
   1 Au:    0.243273   -0.130924
   2 Au:    0.239107   -0.085222
   3 Au:    0.326191   -0.167120
   4 Au:    0.226455   -0.084897
   5 Au:    0.248225   -0.063238
   6 Au:    0.398805   -0.118393
   7 Au:    0.256045   -0.131072
   8 Au:    0.030393   -0.029203
   9 Au:    0.327536   -0.172955
  10 Cr:   -2.696615    3.050488
Sum of atomic charges         :   -0.0000000

LOEWDIN ATOMIC CHARGES AND SPIN POPULATIONS
-------------------------------------------
   0 Au:    0.177049   -0.068308
   1 Au:   -0.003661   -0.109600
   2 Au:    0.129486   -0.098690
   3 Au:    0.091668   -0.141831
   4 Au:    0.130419   -0.098926
   5 Au:    0.120769   -0.082494
   6 Au:    0.152576   -0.115843
   7 Au:   -0.003541   -0.110038
   8 Au:    0.051184   -0.028571
   9 Au:    0.090136   -0.145232
  10 Cr:   -0.936087    2.999534

  Mayer bond orders larger than 0.100000
B(  0-Au,  1-Au) :   0.1755 B(  0-Au,  7-Au) :   0.1798 B(  0-Au, 10-Cr) :   0.8902
B(  1-Au,  2-Au) :   0.3710 B(  1-Au,  6-Au) :   0.3588 B(  1-Au,  7-Au) :   0.1108
B(  1-Au,  8-Au) :   0.2082 B(  1-Au, 10-Cr) :   0.5986 B(  2-Au,  3-Au) :   0.3417
B(  2-Au, 10-Cr) :   0.7035 B(  3-Au,  5-Au) :   0.1203 B(  3-Au,  9-Au) :   0.2511
B(  3-Au, 10-Cr) :   0.6584 B(  4-Au,  7-Au) :   0.3703 B(  4-Au,  9-Au) :   0.3438
B(  4-Au, 10-Cr) :   0.7042 B(  5-Au,  8-Au) :   0.5190 B(  5-Au,  9-Au) :   0.1199
B(  5-Au, 10-Cr) :   0.8091 B(  6-Au,  7-Au) :   0.3521 B(  6-Au,  8-Au) :   0.3615
B(  6-Au, 10-Cr) :   0.1940 B(  7-Au,  8-Au) :   0.1957 B(  7-Au, 10-Cr) :   0.6051
B(  8-Au, 10-Cr) :   0.4820 B(  9-Au, 10-Cr) :   0.6494

FINAL SINGLE POINT ENERGY     -2402.480796192037

DIPOLE MOMENT
-------------
                                X             Y             Z
Electronic contribution:     20.38527     -10.25011      -6.45489
Nuclear contribution   :    -20.14076      10.01300       6.42954
                        -----------------------------------------
Total Dipole Moment    :      0.24451      -0.23711      -0.02535
                        -----------------------------------------
Magnitude (a.u.)       :      0.34154
Magnitude (Debye)      :      0.86813

Rotational constants in cm-1:     0.002151     0.001469     0.001354
Rotational constants in MHz :    64.480668    44.026810    40.602947

                             ****ORCA TERMINATED NORMALLY****
TOTAL RUN TIME: 0 days 4 hours 43 minutes 2 seconds 859 msec
