                         Program Version 5.0.3 -  RELEASE  -
|  1> %pal nprocs 1 end
|  2>
|  3> !PBE def2-TZVP OPT UNO
|  4> !SLOWCONV
|  5>
|  6> *xyzfile 0 3 1.xyz                           ****END OF INPUT****
 Total Charge           Charge          ....    0
 Multiplicity           Mult            ....    3
 Number of Electrons    NEL             ....  292
FINAL SINGLE POINT ENERGY     -3165.061959242792
FINAL SINGLE POINT ENERGY     -3165.063332141156
FINAL SINGLE POINT ENERGY     -3165.063801745434
FINAL SINGLE POINT ENERGY     -3165.064064941906
FINAL SINGLE POINT ENERGY     -3165.064251534130
FINAL SINGLE POINT ENERGY     -3165.064377591179
FINAL SINGLE POINT ENERGY     -3165.064402738590
FINAL SINGLE POINT ENERGY     -3165.064481211968
FINAL SINGLE POINT ENERGY     -3165.064529206134
FINAL SINGLE POINT ENERGY     -3165.064585892925
FINAL SINGLE POINT ENERGY     -3165.064622924594
FINAL SINGLE POINT ENERGY     -3165.064649876167
FINAL SINGLE POINT ENERGY     -3165.064668089957
FINAL SINGLE POINT ENERGY     -3165.064683628874
FINAL SINGLE POINT ENERGY     -3165.064694435149
FINAL SINGLE POINT ENERGY     -3165.064698809694
                    ***********************HURRAY********************

CARTESIAN COORDINATES (ANGSTROEM)
---------------------------------
  Au     7.500467    7.738083   10.616082
  Au     9.539873    7.102918    6.561666
  Au     7.879933   10.671775    6.691311
  Au     9.628631    6.459501    9.321893
  Au     6.100330    9.363832    8.368847
  Au     8.942662    9.123329    8.591312
  Au     5.668291    4.910237    7.696518
  Au     5.096539    6.900765    9.654969
  Au     8.375666    4.693892    7.538556
  Au     8.458255    8.658393    4.679480
  Au     7.251707   11.036771    4.051161
  Au     4.602432    7.393280    6.933792
  Au     5.712916    9.240961    5.398013
  Au     6.933525    6.503177    5.534375
  Fe     7.268350    7.037612    8.076266

 Multiplicity           Mult            ....    3
 Number of Electrons    NEL             ....  292
 Basis Dimension        Dim             ....  605

ORBITAL ENERGIES
----------------
                 SPIN UP ORBITALS
  NO   OCC          E(Eh)            E(eV)
   0   1.0000    -254.745947     -6931.9896
   1   1.0000     -29.581070      -804.9418
   2   1.0000     -25.524687      -694.5620
   3   1.0000     -25.519386      -694.4178
   4   1.0000     -25.506798      -694.0753
   5   1.0000      -4.031701      -109.7082
   6   1.0000      -4.031441      -109.7011
   7   1.0000      -4.031348      -109.6986
   8   1.0000      -4.030960      -109.6880
   9   1.0000      -4.030787      -109.6833
  10   1.0000      -4.026003      -109.5531
  11   1.0000      -4.025343      -109.5351
  12   1.0000      -4.024986      -109.5254
  13   1.0000      -4.023491      -109.4848
  14   1.0000      -4.023082      -109.4736
  15   1.0000      -4.017380      -109.3185
  16   1.0000      -4.016854      -109.3041
  17   1.0000      -4.016717      -109.3004
  18   1.0000      -4.016654      -109.2987
  19   1.0000      -3.356974       -91.3479
  20   1.0000      -2.248139       -61.1750
  21   1.0000      -2.247846       -61.1670
  22   1.0000      -2.247628       -61.1611
  23   1.0000      -2.247539       -61.1587
  24   1.0000      -2.247126       -61.1474
  25   1.0000      -2.245726       -61.1093
  26   1.0000      -2.245592       -61.1057
  27   1.0000      -2.243906       -61.0598
  28   1.0000      -2.243554       -61.0502
  29   1.0000      -2.243534       -61.0497
  30   1.0000      -2.242717       -61.0274
  31   1.0000      -2.241775       -61.0018
  32   1.0000      -2.241448       -60.9929
  33   1.0000      -2.241389       -60.9913
  34   1.0000      -2.241179       -60.9856
  35   1.0000      -2.241006       -60.9809
  36   1.0000      -2.240714       -60.9729
  37   1.0000      -2.240050       -60.9549
  38   1.0000      -2.239937       -60.9518
  39   1.0000      -2.239319       -60.9350
  40   1.0000      -2.238888       -60.9232
  41   1.0000      -2.238690       -60.9179
  42   1.0000      -2.237787       -60.8933
  43   1.0000      -2.237568       -60.8873
  44   1.0000      -2.236558       -60.8598
  45   1.0000      -2.235698       -60.8364
  46   1.0000      -2.235519       -60.8316
  47   1.0000      -2.235094       -60.8200
  48   1.0000      -2.234936       -60.8157
  49   1.0000      -2.234506       -60.8040
  50   1.0000      -2.233960       -60.7891
  51   1.0000      -2.232449       -60.7480
  52   1.0000      -2.232116       -60.7390
  53   1.0000      -2.231943       -60.7343
  54   1.0000      -2.228518       -60.6411
  55   1.0000      -2.228454       -60.6393
  56   1.0000      -2.227973       -60.6262
  57   1.0000      -2.227796       -60.6214
  58   1.0000      -2.226908       -60.5972
  59   1.0000      -2.226448       -60.5847
  60   1.0000      -2.225113       -60.5484
  61   1.0000      -2.224309       -60.5265
  62   1.0000      -2.186538       -59.4987
  63   1.0000      -2.175995       -59.2118
  64   1.0000      -2.150265       -58.5117
  65   1.0000      -0.430301       -11.7091
  66   1.0000      -0.392144       -10.6708
  67   1.0000      -0.385305       -10.4847
  68   1.0000      -0.381303       -10.3758
  69   1.0000      -0.375438       -10.2162
  70   1.0000      -0.374462       -10.1896
  71   1.0000      -0.367246        -9.9933
  72   1.0000      -0.363992        -9.9047
  73   1.0000      -0.361558        -9.8385
  74   1.0000      -0.357611        -9.7311
  75   1.0000      -0.355802        -9.6819
  76   1.0000      -0.354369        -9.6429
  77   1.0000      -0.348513        -9.4835
  78   1.0000      -0.346524        -9.4294
  79   1.0000      -0.345245        -9.3946
  80   1.0000      -0.343754        -9.3540
  81   1.0000      -0.341380        -9.2894
  82   1.0000      -0.337624        -9.1872
  83   1.0000      -0.336830        -9.1656
  84   1.0000      -0.331998        -9.0341
  85   1.0000      -0.331674        -9.0253
  86   1.0000      -0.328403        -8.9363
  87   1.0000      -0.327777        -8.9193
  88   1.0000      -0.327499        -8.9117
  89   1.0000      -0.323076        -8.7913
  90   1.0000      -0.321977        -8.7614
  91   1.0000      -0.319185        -8.6855
  92   1.0000      -0.318919        -8.6782
  93   1.0000      -0.318125        -8.6566
  94   1.0000      -0.313020        -8.5177
  95   1.0000      -0.310988        -8.4624
  96   1.0000      -0.308563        -8.3964
  97   1.0000      -0.306439        -8.3386
  98   1.0000      -0.303069        -8.2469
  99   1.0000      -0.299806        -8.1581
 100   1.0000      -0.298844        -8.1319
 101   1.0000      -0.298301        -8.1172
 102   1.0000      -0.295374        -8.0375
 103   1.0000      -0.292743        -7.9659
 104   1.0000      -0.289827        -7.8866
 105   1.0000      -0.284946        -7.7538
 106   1.0000      -0.283120        -7.7041
 107   1.0000      -0.281094        -7.6490
 108   1.0000      -0.278353        -7.5744
 109   1.0000      -0.276303        -7.5186
 110   1.0000      -0.274836        -7.4787
 111   1.0000      -0.274581        -7.4717
 112   1.0000      -0.274477        -7.4689
 113   1.0000      -0.273276        -7.4362
 114   1.0000      -0.271201        -7.3797
 115   1.0000      -0.270832        -7.3697
 116   1.0000      -0.270043        -7.3483
 117   1.0000      -0.268307        -7.3010
 118   1.0000      -0.266360        -7.2480
 119   1.0000      -0.265655        -7.2288
 120   1.0000      -0.265384        -7.2215
 121   1.0000      -0.262000        -7.1294
 122   1.0000      -0.259915        -7.0726
 123   1.0000      -0.258501        -7.0342
 124   1.0000      -0.257741        -7.0135
 125   1.0000      -0.255125        -6.9423
 126   1.0000      -0.253901        -6.9090
 127   1.0000      -0.253527        -6.8988
 128   1.0000      -0.249759        -6.7963
 129   1.0000      -0.248891        -6.7727
 130   1.0000      -0.248449        -6.7607
 131   1.0000      -0.247231        -6.7275
 132   1.0000      -0.245776        -6.6879
 133   1.0000      -0.245547        -6.6817
 134   1.0000      -0.244641        -6.6570
 135   1.0000      -0.243914        -6.6372
 136   1.0000      -0.243691        -6.6312
 137   1.0000      -0.241129        -6.5615
 138   1.0000      -0.239585        -6.5194
 139   1.0000      -0.239193        -6.5088
 140   1.0000      -0.234006        -6.3676
 141   1.0000      -0.233225        -6.3464
 142   1.0000      -0.231062        -6.2875
 143   1.0000      -0.228994        -6.2313
 144   1.0000      -0.221263        -6.0209
 145   1.0000      -0.200834        -5.4650
 146   1.0000      -0.200162        -5.4467
 147   0.0000      -0.181901        -4.9498
 148   0.0000      -0.181275        -4.9328
 149   0.0000      -0.137182        -3.7329
 150   0.0000      -0.127968        -3.4822
 151   0.0000      -0.126429        -3.4403

                 SPIN DOWN ORBITALS
  NO   OCC          E(Eh)            E(eV)
   0   1.0000    -254.745311     -6931.9723
   1   1.0000     -29.526926      -803.4685
   2   1.0000     -25.481032      -693.3741
   3   1.0000     -25.478090      -693.2941
   4   1.0000     -25.469100      -693.0494
   5   1.0000      -4.031686      -109.7077
   6   1.0000      -4.031430      -109.7008
   7   1.0000      -4.031112      -109.6921
   8   1.0000      -4.030930      -109.6872
   9   1.0000      -4.030773      -109.6829
  10   1.0000      -4.026117      -109.5562
  11   1.0000      -4.025371      -109.5359
  12   1.0000      -4.025019      -109.5263
  13   1.0000      -4.023434      -109.4832
  14   1.0000      -4.023022      -109.4720
  15   1.0000      -4.017665      -109.3262
  16   1.0000      -4.017284      -109.3159
  17   1.0000      -4.017104      -109.3110
  18   1.0000      -4.017037      -109.3091
  19   1.0000      -3.234240       -88.0081
  20   1.0000      -2.248252       -61.1781
  21   1.0000      -2.247592       -61.1601
  22   1.0000      -2.247166       -61.1485
  23   1.0000      -2.246916       -61.1417
  24   1.0000      -2.246634       -61.1340
  25   1.0000      -2.245532       -61.1040
  26   1.0000      -2.245453       -61.1019
  27   1.0000      -2.243795       -61.0568
  28   1.0000      -2.243302       -61.0434
  29   1.0000      -2.243224       -61.0412
  30   1.0000      -2.242953       -61.0338
  31   1.0000      -2.241735       -61.0007
  32   1.0000      -2.241385       -60.9912
  33   1.0000      -2.241281       -60.9884
  34   1.0000      -2.241072       -60.9827
  35   1.0000      -2.241030       -60.9815
  36   1.0000      -2.240828       -60.9760
  37   1.0000      -2.240124       -60.9569
  38   1.0000      -2.239925       -60.9515
  39   1.0000      -2.239700       -60.9453
  40   1.0000      -2.238768       -60.9200
  41   1.0000      -2.238458       -60.9115
  42   1.0000      -2.237983       -60.8986
  43   1.0000      -2.237810       -60.8939
  44   1.0000      -2.236678       -60.8631
  45   1.0000      -2.235803       -60.8393
  46   1.0000      -2.235692       -60.8363
  47   1.0000      -2.235473       -60.8303
  48   1.0000      -2.235102       -60.8202
  49   1.0000      -2.234961       -60.8164
  50   1.0000      -2.234041       -60.7913
  51   1.0000      -2.232574       -60.7514
  52   1.0000      -2.232529       -60.7502
  53   1.0000      -2.232057       -60.7374
  54   1.0000      -2.229052       -60.6556
  55   1.0000      -2.228978       -60.6536
  56   1.0000      -2.228255       -60.6339
  57   1.0000      -2.228042       -60.6281
  58   1.0000      -2.227513       -60.6137
  59   1.0000      -2.226759       -60.5932
  60   1.0000      -2.225391       -60.5560
  61   1.0000      -2.224559       -60.5333
  62   1.0000      -2.058571       -56.0166
  63   1.0000      -2.054856       -55.9155
  64   1.0000      -2.039056       -55.4855
  65   1.0000      -0.427298       -11.6274
  66   1.0000      -0.391327       -10.6485
  67   1.0000      -0.385869       -10.5000
  68   1.0000      -0.381897       -10.3920
  69   1.0000      -0.371044       -10.0966
  70   1.0000      -0.368028       -10.0146
  71   1.0000      -0.365123        -9.9355
  72   1.0000      -0.362463        -9.8631
  73   1.0000      -0.361095        -9.8259
  74   1.0000      -0.358150        -9.7458
  75   1.0000      -0.352141        -9.5822
  76   1.0000      -0.350773        -9.5450
  77   1.0000      -0.348497        -9.4831
  78   1.0000      -0.346489        -9.4284
  79   1.0000      -0.346345        -9.4245
  80   1.0000      -0.341215        -9.2849
  81   1.0000      -0.341113        -9.2822
  82   1.0000      -0.336673        -9.1613
  83   1.0000      -0.336380        -9.1534
  84   1.0000      -0.332079        -9.0363
  85   1.0000      -0.331061        -9.0086
  86   1.0000      -0.328882        -8.9493
  87   1.0000      -0.327340        -8.9074
  88   1.0000      -0.326509        -8.8848
  89   1.0000      -0.322231        -8.7683
  90   1.0000      -0.320450        -8.7199
  91   1.0000      -0.320160        -8.7120
  92   1.0000      -0.314705        -8.5636
  93   1.0000      -0.313260        -8.5242
  94   1.0000      -0.313086        -8.5195
  95   1.0000      -0.310916        -8.4605
  96   1.0000      -0.306105        -8.3295
  97   1.0000      -0.303625        -8.2621
  98   1.0000      -0.301504        -8.2043
  99   1.0000      -0.298955        -8.1350
 100   1.0000      -0.298625        -8.1260
 101   1.0000      -0.296206        -8.0602
 102   1.0000      -0.292292        -7.9537
 103   1.0000      -0.290223        -7.8974
 104   1.0000      -0.287167        -7.8142
 105   1.0000      -0.282815        -7.6958
 106   1.0000      -0.282365        -7.6835
 107   1.0000      -0.279325        -7.6008
 108   1.0000      -0.278501        -7.5784
 109   1.0000      -0.276787        -7.5317
 110   1.0000      -0.275417        -7.4945
 111   1.0000      -0.274946        -7.4817
 112   1.0000      -0.273800        -7.4505
 113   1.0000      -0.272891        -7.4257
 114   1.0000      -0.271253        -7.3812
 115   1.0000      -0.271132        -7.3779
 116   1.0000      -0.270539        -7.3617
 117   1.0000      -0.268075        -7.2947
 118   1.0000      -0.266698        -7.2572
 119   1.0000      -0.265159        -7.2154
 120   1.0000      -0.264452        -7.1961
 121   1.0000      -0.262057        -7.1309
 122   1.0000      -0.261320        -7.1109
 123   1.0000      -0.258492        -7.0339
 124   1.0000      -0.258236        -7.0270
 125   1.0000      -0.255725        -6.9586
 126   1.0000      -0.253771        -6.9054
 127   1.0000      -0.252190        -6.8624
 128   1.0000      -0.249319        -6.7843
 129   1.0000      -0.249117        -6.7788
 130   1.0000      -0.248158        -6.7527
 131   1.0000      -0.247624        -6.7382
 132   1.0000      -0.245704        -6.6859
 133   1.0000      -0.245475        -6.6797
 134   1.0000      -0.244451        -6.6519
 135   1.0000      -0.241495        -6.5714
 136   1.0000      -0.239148        -6.5075
 137   1.0000      -0.236148        -6.4259
 138   1.0000      -0.229843        -6.2543
 139   1.0000      -0.222290        -6.0488
 140   1.0000      -0.209574        -5.7028
 141   1.0000      -0.207689        -5.6515
 142   1.0000      -0.201744        -5.4897
 143   1.0000      -0.199513        -5.4290
 144   1.0000      -0.175622        -4.7789
 145   0.0000      -0.154269        -4.1979
 146   0.0000      -0.153167        -4.1679
 147   0.0000      -0.146539        -3.9875
 148   0.0000      -0.145855        -3.9689
 149   0.0000      -0.135720        -3.6931

MULLIKEN ATOMIC CHARGES AND SPIN POPULATIONS
--------------------------------------------
   0 Au:    0.326801   -0.115234
   1 Au:    0.091928   -0.100223
   2 Au:   -0.010646    0.040301
   3 Au:    0.339532   -0.024083
   4 Au:    0.087867   -0.095578
   5 Au:    0.104790   -0.099259
   6 Au:    0.327497   -0.063881
   7 Au:    0.328032   -0.063583
   8 Au:    0.327481   -0.115735
   9 Au:    0.001711    0.040163
  10 Au:    0.466644   -0.030704
  11 Au:    0.200703   -0.090682
  12 Au:   -0.291454    0.020470
  13 Au:    0.083350   -0.095844
  14 Fe:   -2.384238    2.793871
Sum of atomic charges         :   -0.0000000

LOEWDIN ATOMIC CHARGES AND SPIN POPULATIONS
-------------------------------------------
   0 Au:    0.100003   -0.093826
   1 Au:    0.038374   -0.077019
   2 Au:   -0.049919   -0.006045
   3 Au:    0.094896   -0.085267
   4 Au:    0.050913   -0.050816
   5 Au:    0.040328   -0.076290
   6 Au:    0.092095   -0.092500
   7 Au:    0.091494   -0.092960
   8 Au:    0.099688   -0.094729
   9 Au:   -0.048532   -0.005721
  10 Au:    0.130252   -0.018049
  11 Au:    0.039573   -0.093476
  12 Au:   -0.093889   -0.010695
  13 Au:    0.049678   -0.050931
  14 Fe:   -0.634954    2.848323

  Mayer bond orders larger than 0.100000
B(  0-Au,  3-Au) :   0.1945 B(  0-Au,  5-Au) :   0.1612 B(  0-Au,  7-Au) :   0.2760
B(  0-Au, 14-Fe) :   0.5201 B(  1-Au,  3-Au) :   0.1928 B(  1-Au,  5-Au) :   0.1600
B(  1-Au,  8-Au) :   0.1580 B(  1-Au,  9-Au) :   0.4503 B(  1-Au, 13-Au) :   0.1767
B(  1-Au, 14-Fe) :   0.4942 B(  2-Au,  4-Au) :   0.3406 B(  2-Au,  5-Au) :   0.4491
B(  2-Au,  9-Au) :   0.2362 B(  2-Au, 10-Au) :   0.3177 B(  2-Au, 12-Au) :   0.2693
B(  2-Au, 14-Fe) :   0.1204 B(  3-Au,  5-Au) :   0.1846 B(  3-Au,  8-Au) :   0.1920
B(  3-Au, 14-Fe) :   0.4554 B(  4-Au,  5-Au) :   0.1740 B(  4-Au,  7-Au) :   0.1429
B(  4-Au, 11-Au) :   0.1626 B(  4-Au, 12-Au) :   0.2121 B(  4-Au, 14-Fe) :   0.5120
B(  5-Au, 14-Fe) :   0.4938 B(  6-Au,  7-Au) :   0.1543 B(  6-Au,  8-Au) :   0.2763
B(  6-Au, 11-Au) :   0.1837 B(  6-Au, 13-Au) :   0.1364 B(  6-Au, 14-Fe) :   0.5064
B(  7-Au, 11-Au) :   0.1817 B(  7-Au, 14-Fe) :   0.5053 B(  8-Au, 14-Fe) :   0.5165
B(  9-Au, 10-Au) :   0.3142 B(  9-Au, 12-Au) :   0.2678 B(  9-Au, 13-Au) :   0.3388
B(  9-Au, 14-Fe) :   0.1180 B( 10-Au, 12-Au) :   0.4114 B( 11-Au, 12-Au) :   0.5717
B( 11-Au, 13-Au) :   0.1630 B( 11-Au, 14-Fe) :   0.3794 B( 12-Au, 13-Au) :   0.2110
B( 12-Au, 14-Fe) :   0.1687 B( 13-Au, 14-Fe) :   0.5134

FINAL SINGLE POINT ENERGY     -3165.064700435422

DIPOLE MOMENT
-------------
                                X             Y             Z
Electronic contribution:     -0.16839      30.55380     -30.98488
Nuclear contribution   :      0.17908     -30.73485      31.16957
                        -----------------------------------------
Total Dipole Moment    :      0.01069      -0.18105       0.18469
                        -----------------------------------------
Magnitude (a.u.)       :      0.25885
Magnitude (Debye)      :      0.65795

Rotational constants in cm-1:     0.001301     0.000876     0.000839
Rotational constants in MHz :    38.988883    26.263511    25.162308

                             ****ORCA TERMINATED NORMALLY****
TOTAL RUN TIME: 0 days 4 hours 31 minutes 38 seconds 705 msec
