                         Program Version 5.0.3 -  RELEASE  -
|  1> !RI-B2PLYP def2-TZVP def2-TZVP/C
|  2> !RIJCOSX
|  3> %pal nprocs 6 end
|  4>
|  5> *xyzfile 0 5 pbe.xyz
|  6>
|  7> $new_job
|  8>
|  9> !RI-B2PLYP def2-TZVP def2-TZVP/C
| 10> !RIJCOSX
| 11> %pal nprocs 6 end
| 12>
| 13> *xyzfile 0 3 pbe.xyz
| 14>
| 15>
| 16>
| 17>
| 18>
| 19>                          ****END OF INPUT****
 Total Charge           Charge          ....    0
 Multiplicity           Mult            ....    5
 Number of Electrons    NEL             ....  292
MP2 TOTAL ENERGY:    -3161.730990223 Eh
FINAL SINGLE POINT ENERGY     -3161.730990222751

CARTESIAN COORDINATES (ANGSTROEM)
---------------------------------
  Au     7.735625   10.021001    6.320655
  Au     6.714205   10.099642    3.793133
  Au     5.353098    6.261140    5.126060
  Au     7.706315    7.684291    4.661576
  Au     4.758137    7.100000    7.725146
  Au     5.132316    8.972509    5.745763
  Au     5.770792    9.803221    8.356111
  Au     9.294783    5.924236    8.768414
  Au     7.710105    5.620544    6.480858
  Au     8.456922    7.759178   10.690639
  Au     9.569718    7.902554    6.759605
  Au     5.696273    7.735921   10.290891
  Au     8.689304    9.792140    8.876154
  Au     6.546088    5.334831    9.066909
  Fe     7.337272    7.678162    8.157562

 Multiplicity           Mult            ....    3
 Number of Electrons    NEL             ....  292
 Basis Dimension        Dim             ....  605

ORBITAL ENERGIES
----------------
                 SPIN UP ORBITALS
  NO   OCC          E(Eh)            E(eV)
   0   1.0000    -258.334765     -7029.6463
   1   1.0000     -30.894777      -840.6896
   2   1.0000     -26.606373      -723.9962
   3   1.0000     -26.598298      -723.7765
   4   1.0000     -26.574356      -723.1250
   5   1.0000      -4.406462      -119.9059
   6   1.0000      -4.406452      -119.9057
   7   1.0000      -4.402227      -119.7907
   8   1.0000      -4.400472      -119.7429
   9   1.0000      -4.400438      -119.7420
  10   1.0000      -4.400397      -119.7409
  11   1.0000      -4.397766      -119.6693
  12   1.0000      -4.394472      -119.5797
  13   1.0000      -4.394337      -119.5760
  14   1.0000      -4.390197      -119.4633
  15   1.0000      -4.390085      -119.4603
  16   1.0000      -4.384954      -119.3207
  17   1.0000      -4.383683      -119.2861
  18   1.0000      -4.382309      -119.2487
  19   1.0000      -3.906711      -106.3070
  20   1.0000      -2.643404       -71.9307
  21   1.0000      -2.626431       -71.4688
  22   1.0000      -2.576404       -70.1075
  23   1.0000      -2.526596       -68.7522
  24   1.0000      -2.526495       -68.7494
  25   1.0000      -2.524706       -68.7008
  26   1.0000      -2.524531       -68.6960
  27   1.0000      -2.524497       -68.6951
  28   1.0000      -2.522182       -68.6321
  29   1.0000      -2.522048       -68.6284
  30   1.0000      -2.521353       -68.6095
  31   1.0000      -2.521193       -68.6051
  32   1.0000      -2.520829       -68.5952
  33   1.0000      -2.519260       -68.5525
  34   1.0000      -2.518877       -68.5421
  35   1.0000      -2.518785       -68.5396
  36   1.0000      -2.517441       -68.5031
  37   1.0000      -2.516857       -68.4872
  38   1.0000      -2.516733       -68.4838
  39   1.0000      -2.515651       -68.4543
  40   1.0000      -2.515640       -68.4541
  41   1.0000      -2.515432       -68.4484
  42   1.0000      -2.514258       -68.4164
  43   1.0000      -2.513651       -68.3999
  44   1.0000      -2.513157       -68.3865
  45   1.0000      -2.512463       -68.3676
  46   1.0000      -2.510456       -68.3130
  47   1.0000      -2.510340       -68.3098
  48   1.0000      -2.510060       -68.3022
  49   1.0000      -2.509099       -68.2761
  50   1.0000      -2.508742       -68.2663
  51   1.0000      -2.508528       -68.2605
  52   1.0000      -2.507499       -68.2325
  53   1.0000      -2.506904       -68.2163
  54   1.0000      -2.506089       -68.1941
  55   1.0000      -2.504813       -68.1594
  56   1.0000      -2.503967       -68.1364
  57   1.0000      -2.502746       -68.1032
  58   1.0000      -2.500185       -68.0335
  59   1.0000      -2.500151       -68.0326
  60   1.0000      -2.499548       -68.0162
  61   1.0000      -2.499068       -68.0031
  62   1.0000      -2.499047       -68.0025
  63   1.0000      -2.498706       -67.9933
  64   1.0000      -2.498381       -67.9844
  65   1.0000      -0.560348       -15.2478
  66   1.0000      -0.558899       -15.2084
  67   1.0000      -0.542454       -14.7609
  68   1.0000      -0.537788       -14.6340
  69   1.0000      -0.512063       -13.9340
  70   1.0000      -0.499028       -13.5793
  71   1.0000      -0.476443       -12.9647
  72   1.0000      -0.465644       -12.6708
  73   1.0000      -0.463801       -12.6207
  74   1.0000      -0.461799       -12.5662
  75   1.0000      -0.459692       -12.5089
  76   1.0000      -0.457924       -12.4607
  77   1.0000      -0.453299       -12.3349
  78   1.0000      -0.452516       -12.3136
  79   1.0000      -0.451171       -12.2770
  80   1.0000      -0.448738       -12.2108
  81   1.0000      -0.447628       -12.1806
  82   1.0000      -0.445084       -12.1113
  83   1.0000      -0.443894       -12.0790
  84   1.0000      -0.441163       -12.0047
  85   1.0000      -0.438348       -11.9280
  86   1.0000      -0.434729       -11.8296
  87   1.0000      -0.434246       -11.8164
  88   1.0000      -0.433269       -11.7898
  89   1.0000      -0.427712       -11.6386
  90   1.0000      -0.427458       -11.6317
  91   1.0000      -0.426356       -11.6017
  92   1.0000      -0.422648       -11.5008
  93   1.0000      -0.421549       -11.4709
  94   1.0000      -0.418788       -11.3958
  95   1.0000      -0.418742       -11.3945
  96   1.0000      -0.414355       -11.2752
  97   1.0000      -0.412104       -11.2139
  98   1.0000      -0.410144       -11.1606
  99   1.0000      -0.409699       -11.1485
 100   1.0000      -0.404724       -11.0131
 101   1.0000      -0.404400       -11.0043
 102   1.0000      -0.399034       -10.8583
 103   1.0000      -0.396077       -10.7778
 104   1.0000      -0.390262       -10.6196
 105   1.0000      -0.389537       -10.5998
 106   1.0000      -0.388020       -10.5586
 107   1.0000      -0.385038       -10.4774
 108   1.0000      -0.383030       -10.4228
 109   1.0000      -0.378114       -10.2890
 110   1.0000      -0.375531       -10.2187
 111   1.0000      -0.374336       -10.1862
 112   1.0000      -0.372627       -10.1397
 113   1.0000      -0.370872       -10.0919
 114   1.0000      -0.370405       -10.0792
 115   1.0000      -0.368628       -10.0309
 116   1.0000      -0.367296        -9.9946
 117   1.0000      -0.365942        -9.9578
 118   1.0000      -0.364141        -9.9088
 119   1.0000      -0.362772        -9.8715
 120   1.0000      -0.360703        -9.8152
 121   1.0000      -0.360654        -9.8139
 122   1.0000      -0.357461        -9.7270
 123   1.0000      -0.356995        -9.7143
 124   1.0000      -0.354943        -9.6585
 125   1.0000      -0.353232        -9.6119
 126   1.0000      -0.352926        -9.6036
 127   1.0000      -0.350146        -9.5280
 128   1.0000      -0.349763        -9.5175
 129   1.0000      -0.346753        -9.4356
 130   1.0000      -0.345915        -9.4128
 131   1.0000      -0.343391        -9.3441
 132   1.0000      -0.341972        -9.3055
 133   1.0000      -0.339880        -9.2486
 134   1.0000      -0.338417        -9.2088
 135   1.0000      -0.337797        -9.1919
 136   1.0000      -0.335894        -9.1401
 137   1.0000      -0.330548        -8.9947
 138   1.0000      -0.327025        -8.8988
 139   1.0000      -0.325281        -8.8514
 140   1.0000      -0.320070        -8.7095
 141   1.0000      -0.314396        -8.5551
 142   1.0000      -0.295776        -8.0485
 143   1.0000      -0.294273        -8.0076
 144   1.0000      -0.248077        -6.7505
 145   1.0000      -0.226063        -6.1515
 146   1.0000      -0.211834        -5.7643
 147   0.0000      -0.120812        -3.2875
 148   0.0000      -0.112722        -3.0673
 149   0.0000      -0.079251        -2.1565
 150   0.0000      -0.069115        -1.8807
 151   0.0000      -0.054190        -1.4746

                 SPIN DOWN ORBITALS
  NO   OCC          E(Eh)            E(eV)
   0   1.0000    -258.332754     -7029.5916
   1   1.0000     -30.802647      -838.1826
   2   1.0000     -26.512578      -721.4439
   3   1.0000     -26.510523      -721.3880
   4   1.0000     -26.503554      -721.1984
   5   1.0000      -4.406412      -119.9046
   6   1.0000      -4.406397      -119.9042
   7   1.0000      -4.403319      -119.8204
   8   1.0000      -4.400857      -119.7534
   9   1.0000      -4.400840      -119.7530
  10   1.0000      -4.400551      -119.7451
  11   1.0000      -4.398389      -119.6863
  12   1.0000      -4.394857      -119.5901
  13   1.0000      -4.394723      -119.5865
  14   1.0000      -4.390931      -119.4833
  15   1.0000      -4.390815      -119.4801
  16   1.0000      -4.384770      -119.3157
  17   1.0000      -4.383810      -119.2895
  18   1.0000      -4.383382      -119.2779
  19   1.0000      -3.664351       -99.7121
  20   1.0000      -2.525636       -68.7261
  21   1.0000      -2.525307       -68.7171
  22   1.0000      -2.525246       -68.7154
  23   1.0000      -2.523549       -68.6693
  24   1.0000      -2.523522       -68.6685
  25   1.0000      -2.521786       -68.6213
  26   1.0000      -2.521417       -68.6112
  27   1.0000      -2.521092       -68.6024
  28   1.0000      -2.520550       -68.5877
  29   1.0000      -2.519838       -68.5683
  30   1.0000      -2.519205       -68.5511
  31   1.0000      -2.518670       -68.5365
  32   1.0000      -2.517855       -68.5143
  33   1.0000      -2.517105       -68.4939
  34   1.0000      -2.516868       -68.4875
  35   1.0000      -2.516764       -68.4846
  36   1.0000      -2.516163       -68.4683
  37   1.0000      -2.516072       -68.4658
  38   1.0000      -2.515645       -68.4542
  39   1.0000      -2.514189       -68.4146
  40   1.0000      -2.513791       -68.4037
  41   1.0000      -2.512985       -68.3818
  42   1.0000      -2.512650       -68.3727
  43   1.0000      -2.511121       -68.3311
  44   1.0000      -2.510683       -68.3192
  45   1.0000      -2.510351       -68.3101
  46   1.0000      -2.510255       -68.3075
  47   1.0000      -2.509644       -68.2909
  48   1.0000      -2.509482       -68.2865
  49   1.0000      -2.508485       -68.2593
  50   1.0000      -2.507977       -68.2455
  51   1.0000      -2.506200       -68.1972
  52   1.0000      -2.504925       -68.1625
  53   1.0000      -2.503962       -68.1363
  54   1.0000      -2.502207       -68.0885
  55   1.0000      -2.501255       -68.0626
  56   1.0000      -2.500694       -68.0473
  57   1.0000      -2.500138       -68.0322
  58   1.0000      -2.500046       -68.0297
  59   1.0000      -2.499371       -68.0114
  60   1.0000      -2.499284       -68.0090
  61   1.0000      -2.499026       -68.0019
  62   1.0000      -2.345295       -63.8187
  63   1.0000      -2.337665       -63.6111
  64   1.0000      -2.333329       -63.4931
  65   1.0000      -0.512511       -13.9461
  66   1.0000      -0.479038       -13.0353
  67   1.0000      -0.472339       -12.8530
  68   1.0000      -0.471613       -12.8332
  69   1.0000      -0.467814       -12.7299
  70   1.0000      -0.462574       -12.5873
  71   1.0000      -0.462164       -12.5761
  72   1.0000      -0.460576       -12.5329
  73   1.0000      -0.458780       -12.4840
  74   1.0000      -0.456578       -12.4241
  75   1.0000      -0.455408       -12.3923
  76   1.0000      -0.454599       -12.3703
  77   1.0000      -0.453252       -12.3336
  78   1.0000      -0.451327       -12.2812
  79   1.0000      -0.450528       -12.2595
  80   1.0000      -0.448212       -12.1965
  81   1.0000      -0.446600       -12.1526
  82   1.0000      -0.444217       -12.0877
  83   1.0000      -0.438538       -11.9332
  84   1.0000      -0.436367       -11.8742
  85   1.0000      -0.431155       -11.7323
  86   1.0000      -0.428303       -11.6547
  87   1.0000      -0.428208       -11.6521
  88   1.0000      -0.426098       -11.5947
  89   1.0000      -0.424193       -11.5429
  90   1.0000      -0.423190       -11.5156
  91   1.0000      -0.417782       -11.3684
  92   1.0000      -0.416848       -11.3430
  93   1.0000      -0.412424       -11.2226
  94   1.0000      -0.412128       -11.2146
  95   1.0000      -0.409972       -11.1559
  96   1.0000      -0.407383       -11.0855
  97   1.0000      -0.402521       -10.9531
  98   1.0000      -0.399103       -10.8601
  99   1.0000      -0.398892       -10.8544
 100   1.0000      -0.393370       -10.7041
 101   1.0000      -0.392323       -10.6757
 102   1.0000      -0.391796       -10.6613
 103   1.0000      -0.387115       -10.5339
 104   1.0000      -0.384782       -10.4705
 105   1.0000      -0.383149       -10.4260
 106   1.0000      -0.381722       -10.3872
 107   1.0000      -0.379774       -10.3342
 108   1.0000      -0.378457       -10.2983
 109   1.0000      -0.373505       -10.1636
 110   1.0000      -0.373263       -10.1570
 111   1.0000      -0.370831       -10.0908
 112   1.0000      -0.367908       -10.0113
 113   1.0000      -0.367803       -10.0084
 114   1.0000      -0.365314        -9.9407
 115   1.0000      -0.364770        -9.9259
 116   1.0000      -0.361782        -9.8446
 117   1.0000      -0.359942        -9.7945
 118   1.0000      -0.358941        -9.7673
 119   1.0000      -0.357230        -9.7207
 120   1.0000      -0.354941        -9.6584
 121   1.0000      -0.354437        -9.6447
 122   1.0000      -0.352996        -9.6055
 123   1.0000      -0.352472        -9.5913
 124   1.0000      -0.349293        -9.5048
 125   1.0000      -0.347980        -9.4690
 126   1.0000      -0.345327        -9.3968
 127   1.0000      -0.343567        -9.3489
 128   1.0000      -0.342500        -9.3199
 129   1.0000      -0.341961        -9.3052
 130   1.0000      -0.340938        -9.2774
 131   1.0000      -0.337889        -9.1944
 132   1.0000      -0.332671        -9.0524
 133   1.0000      -0.330270        -8.9871
 134   1.0000      -0.329123        -8.9559
 135   1.0000      -0.324207        -8.8221
 136   1.0000      -0.321492        -8.7482
 137   1.0000      -0.316905        -8.6234
 138   1.0000      -0.311648        -8.4804
 139   1.0000      -0.310712        -8.4549
 140   1.0000      -0.251490        -6.8434
 141   1.0000      -0.234952        -6.3934
 142   1.0000      -0.224576        -6.1110
 143   1.0000      -0.218761        -5.9528
 144   1.0000      -0.208651        -5.6777
 145   0.0000      -0.083258        -2.2656
 146   0.0000      -0.070643        -1.9223
 147   0.0000      -0.059298        -1.6136
 148   0.0000      -0.057014        -1.5514
 149   0.0000      -0.051561        -1.4031

MULLIKEN ATOMIC CHARGES AND SPIN POPULATIONS
--------------------------------------------
   0 Au:   -0.373074   -0.160922
   1 Au:    0.547755    0.017476
   2 Au:    0.305818   -0.012866
   3 Au:   -0.162059    0.005363
   4 Au:   -0.010601   -0.225700
   5 Au:   -0.162879    0.007712
   6 Au:    0.212073   -0.244630
   7 Au:    0.234551   -0.040439
   8 Au:   -0.014254   -0.226327
   9 Au:    0.277497    0.030504
  10 Au:    0.213628   -0.245458
  11 Au:    0.237096   -0.043310
  12 Au:    0.393937   -0.118453
  13 Au:    0.309821   -0.215674
  14 Fe:   -2.009309    3.472723
Sum of atomic charges         :   -0.0000000

LOEWDIN ATOMIC CHARGES AND SPIN POPULATIONS
-------------------------------------------
   0 Au:   -0.092571   -0.118873
   1 Au:    0.169121    0.019526
   2 Au:    0.073838   -0.086061
   3 Au:   -0.104667   -0.038282
   4 Au:   -0.005608   -0.159251
   5 Au:   -0.104755   -0.037102
   6 Au:    0.065230   -0.180261
   7 Au:    0.054489   -0.093479
   8 Au:   -0.006378   -0.159884
   9 Au:    0.036947   -0.012636
  10 Au:    0.066091   -0.180127
  11 Au:    0.055247   -0.094432
  12 Au:    0.083738   -0.159997
  13 Au:    0.072684   -0.149685
  14 Fe:   -0.363405    3.450546

  Mayer bond orders larger than 0.100000
B(  0-Au,  1-Au) :   0.4102 B(  0-Au,  3-Au) :   0.3029 B(  0-Au,  5-Au) :   0.3027
B(  0-Au,  6-Au) :   0.1801 B(  0-Au, 10-Au) :   0.1806 B(  0-Au, 12-Au) :   0.3577
B(  0-Au, 14-Fe) :   0.3196 B(  1-Au,  3-Au) :   0.2429 B(  1-Au,  5-Au) :   0.2417
B(  2-Au,  3-Au) :   0.2148 B(  2-Au,  4-Au) :   0.2742 B(  2-Au,  5-Au) :   0.2143
B(  2-Au,  8-Au) :   0.2763 B(  2-Au, 14-Fe) :   0.1226 B(  3-Au,  5-Au) :   0.2062
B(  3-Au,  8-Au) :   0.3343 B(  3-Au, 10-Au) :   0.2508 B(  3-Au, 14-Fe) :   0.1895
B(  4-Au,  5-Au) :   0.3341 B(  4-Au,  8-Au) :   0.1018 B(  4-Au, 11-Au) :   0.2050
B(  4-Au, 13-Au) :   0.1544 B(  4-Au, 14-Fe) :   0.4688 B(  5-Au,  6-Au) :   0.2526
B(  5-Au, 14-Fe) :   0.1896 B(  6-Au, 11-Au) :   0.1417 B(  6-Au, 14-Fe) :   0.5170
B(  7-Au,  8-Au) :   0.2096 B(  7-Au,  9-Au) :   0.1891 B(  7-Au, 10-Au) :   0.1411
B(  7-Au, 13-Au) :   0.1646 B(  7-Au, 14-Fe) :   0.4291 B(  8-Au, 13-Au) :   0.1532
B(  8-Au, 14-Fe) :   0.4678 B(  9-Au, 11-Au) :   0.1869 B(  9-Au, 12-Au) :   0.2726
B(  9-Au, 14-Fe) :   0.4041 B( 10-Au, 14-Fe) :   0.5187 B( 11-Au, 13-Au) :   0.1659
B( 11-Au, 14-Fe) :   0.4326 B( 12-Au, 14-Fe) :   0.4205 B( 13-Au, 14-Fe) :   0.4560

MP2 TOTAL ENERGY:    -3161.736716964 Eh
FINAL SINGLE POINT ENERGY     -3161.736716964177

DIPOLE MOMENT
-------------
                                X             Y             Z
Electronic contribution:     -9.73944       6.91873     -31.43441
Nuclear contribution   :      9.78502      -6.86384      31.48100
                        -----------------------------------------
Total Dipole Moment    :      0.04557       0.05489       0.04659
                        -----------------------------------------
Magnitude (a.u.)       :      0.08521
Magnitude (Debye)      :      0.21658

Rotational constants in cm-1:     0.001321     0.000915     0.000880
Rotational constants in MHz :    39.592212    27.432360    26.374260

                             ****ORCA TERMINATED NORMALLY****
TOTAL RUN TIME: 0 days 1 hours 36 minutes 24 seconds 12 msec
