                         Program Version 5.0.3 -  RELEASE  -
|  1> !PBE def2-TZVP VERYSLOWCONV
|  2>
|  3> %pal nprocs 6 end
|  4>
|  5> *xyzfile 0 5 pbe.xyz
|  6>
|  7> $new_job
|  8>
|  9> !PBE def2-TZVP VERYSLOWCONV
| 10>
| 11>
| 12> %pal nprocs 6 end
| 13>
| 14> *xyzfile 0 3 pbe.xyz
| 15>
| 16>
| 17>
| 18>
| 19>
| 20>                          ****END OF INPUT****
 Total Charge           Charge          ....    0
 Multiplicity           Mult            ....    5
 Number of Electrons    NEL             ....  292
FINAL SINGLE POINT ENERGY     -3165.065895713395

CARTESIAN COORDINATES (ANGSTROEM)
---------------------------------
  Au     7.735625   10.021001    6.320655
  Au     6.714205   10.099642    3.793133
  Au     5.353098    6.261140    5.126060
  Au     7.706315    7.684291    4.661576
  Au     4.758137    7.100000    7.725146
  Au     5.132316    8.972509    5.745763
  Au     5.770792    9.803221    8.356111
  Au     9.294783    5.924236    8.768414
  Au     7.710105    5.620544    6.480858
  Au     8.456922    7.759178   10.690639
  Au     9.569718    7.902554    6.759605
  Au     5.696273    7.735921   10.290891
  Au     8.689304    9.792140    8.876154
  Au     6.546088    5.334831    9.066909
  Fe     7.337272    7.678162    8.157562

 Multiplicity           Mult            ....    3
 Number of Electrons    NEL             ....  292
 Basis Dimension        Dim             ....  605

ORBITAL ENERGIES
----------------
                 SPIN UP ORBITALS
  NO   OCC          E(Eh)            E(eV)
   0   1.0000    -254.750654     -6932.1177
   1   1.0000     -29.587075      -805.1052
   2   1.0000     -25.527498      -694.6385
   3   1.0000     -25.526205      -694.6034
   4   1.0000     -25.514631      -694.2884
   5   1.0000      -4.035401      -109.8088
   6   1.0000      -4.035386      -109.8084
   7   1.0000      -4.031272      -109.6965
   8   1.0000      -4.028661      -109.6254
   9   1.0000      -4.028635      -109.6247
  10   1.0000      -4.026369      -109.5631
  11   1.0000      -4.024789      -109.5201
  12   1.0000      -4.023427      -109.4830
  13   1.0000      -4.023392      -109.4821
  14   1.0000      -4.021792      -109.4385
  15   1.0000      -4.021739      -109.4371
  16   1.0000      -4.015186      -109.2588
  17   1.0000      -4.012575      -109.1877
  18   1.0000      -4.012184      -109.1771
  19   1.0000      -3.363464       -91.5245
  20   1.0000      -2.251146       -61.2568
  21   1.0000      -2.251100       -61.2555
  22   1.0000      -2.249139       -61.2022
  23   1.0000      -2.248794       -61.1928
  24   1.0000      -2.248757       -61.1918
  25   1.0000      -2.245762       -61.1103
  26   1.0000      -2.245520       -61.1037
  27   1.0000      -2.244921       -61.0874
  28   1.0000      -2.244564       -61.0777
  29   1.0000      -2.243491       -61.0485
  30   1.0000      -2.242513       -61.0219
  31   1.0000      -2.241845       -61.0037
  32   1.0000      -2.241041       -60.9818
  33   1.0000      -2.240944       -60.9792
  34   1.0000      -2.240503       -60.9672
  35   1.0000      -2.240228       -60.9597
  36   1.0000      -2.239761       -60.9470
  37   1.0000      -2.239632       -60.9435
  38   1.0000      -2.238942       -60.9247
  39   1.0000      -2.238224       -60.9052
  40   1.0000      -2.237970       -60.8983
  41   1.0000      -2.237672       -60.8902
  42   1.0000      -2.237293       -60.8798
  43   1.0000      -2.235751       -60.8379
  44   1.0000      -2.235587       -60.8334
  45   1.0000      -2.235402       -60.8284
  46   1.0000      -2.235210       -60.8232
  47   1.0000      -2.234984       -60.8170
  48   1.0000      -2.234974       -60.8167
  49   1.0000      -2.233974       -60.7895
  50   1.0000      -2.233779       -60.7842
  51   1.0000      -2.231088       -60.7110
  52   1.0000      -2.230187       -60.6865
  53   1.0000      -2.228809       -60.6490
  54   1.0000      -2.228535       -60.6415
  55   1.0000      -2.227934       -60.6252
  56   1.0000      -2.227445       -60.6119
  57   1.0000      -2.226808       -60.5945
  58   1.0000      -2.224500       -60.5317
  59   1.0000      -2.223652       -60.5087
  60   1.0000      -2.223359       -60.5007
  61   1.0000      -2.222816       -60.4859
  62   1.0000      -2.186882       -59.5081
  63   1.0000      -2.184121       -59.4330
  64   1.0000      -2.160963       -58.8028
  65   1.0000      -0.431425       -11.7397
  66   1.0000      -0.392808       -10.6888
  67   1.0000      -0.384781       -10.4704
  68   1.0000      -0.381728       -10.3873
  69   1.0000      -0.371539       -10.1101
  70   1.0000      -0.369997       -10.0681
  71   1.0000      -0.367469        -9.9994
  72   1.0000      -0.362319        -9.8592
  73   1.0000      -0.361799        -9.8450
  74   1.0000      -0.356946        -9.7130
  75   1.0000      -0.356931        -9.7126
  76   1.0000      -0.354131        -9.6364
  77   1.0000      -0.349971        -9.5232
  78   1.0000      -0.348268        -9.4769
  79   1.0000      -0.348155        -9.4738
  80   1.0000      -0.346456        -9.4276
  81   1.0000      -0.344504        -9.3744
  82   1.0000      -0.341795        -9.3007
  83   1.0000      -0.338920        -9.2225
  84   1.0000      -0.333301        -9.0696
  85   1.0000      -0.330834        -9.0025
  86   1.0000      -0.327561        -8.9134
  87   1.0000      -0.326718        -8.8904
  88   1.0000      -0.324101        -8.8192
  89   1.0000      -0.323053        -8.7907
  90   1.0000      -0.321391        -8.7455
  91   1.0000      -0.318675        -8.6716
  92   1.0000      -0.315899        -8.5960
  93   1.0000      -0.314285        -8.5521
  94   1.0000      -0.311534        -8.4773
  95   1.0000      -0.310309        -8.4439
  96   1.0000      -0.310034        -8.4365
  97   1.0000      -0.307652        -8.3716
  98   1.0000      -0.305835        -8.3222
  99   1.0000      -0.302800        -8.2396
 100   1.0000      -0.300928        -8.1887
 101   1.0000      -0.297928        -8.1070
 102   1.0000      -0.294338        -8.0093
 103   1.0000      -0.293323        -7.9817
 104   1.0000      -0.291563        -7.9338
 105   1.0000      -0.288807        -7.8588
 106   1.0000      -0.287906        -7.8343
 107   1.0000      -0.283408        -7.7119
 108   1.0000      -0.281914        -7.6713
 109   1.0000      -0.278787        -7.5862
 110   1.0000      -0.276099        -7.5130
 111   1.0000      -0.273402        -7.4397
 112   1.0000      -0.271948        -7.4001
 113   1.0000      -0.271644        -7.3918
 114   1.0000      -0.269439        -7.3318
 115   1.0000      -0.267875        -7.2893
 116   1.0000      -0.267380        -7.2758
 117   1.0000      -0.266463        -7.2508
 118   1.0000      -0.265140        -7.2148
 119   1.0000      -0.263582        -7.1724
 120   1.0000      -0.260423        -7.0865
 121   1.0000      -0.260196        -7.0803
 122   1.0000      -0.258981        -7.0472
 123   1.0000      -0.257856        -7.0166
 124   1.0000      -0.254074        -6.9137
 125   1.0000      -0.253773        -6.9055
 126   1.0000      -0.253460        -6.8970
 127   1.0000      -0.252847        -6.8803
 128   1.0000      -0.251814        -6.8522
 129   1.0000      -0.251081        -6.8323
 130   1.0000      -0.248898        -6.7729
 131   1.0000      -0.248121        -6.7517
 132   1.0000      -0.246934        -6.7194
 133   1.0000      -0.246256        -6.7010
 134   1.0000      -0.246010        -6.6943
 135   1.0000      -0.244909        -6.6643
 136   1.0000      -0.242324        -6.5940
 137   1.0000      -0.240238        -6.5372
 138   1.0000      -0.239952        -6.5294
 139   1.0000      -0.239454        -6.5159
 140   1.0000      -0.238774        -6.4974
 141   1.0000      -0.235727        -6.4144
 142   1.0000      -0.232619        -6.3299
 143   1.0000      -0.230965        -6.2849
 144   1.0000      -0.217583        -5.9207
 145   1.0000      -0.205583        -5.5942
 146   1.0000      -0.194948        -5.3048
 147   0.0000      -0.183209        -4.9854
 148   0.0000      -0.177618        -4.8332
 149   0.0000      -0.141538        -3.8515
 150   0.0000      -0.131989        -3.5916
 151   0.0000      -0.121319        -3.3012

                 SPIN DOWN ORBITALS
  NO   OCC          E(Eh)            E(eV)
   0   1.0000    -254.749997     -6932.0998
   1   1.0000     -29.531703      -803.5985
   2   1.0000     -25.484022      -693.4555
   3   1.0000     -25.483335      -693.4368
   4   1.0000     -25.475534      -693.2245
   5   1.0000      -4.035009      -109.7982
   6   1.0000      -4.034992      -109.7977
   7   1.0000      -4.032174      -109.7210
   8   1.0000      -4.028539      -109.6221
   9   1.0000      -4.028522      -109.6217
  10   1.0000      -4.026404      -109.5640
  11   1.0000      -4.024869      -109.5223
  12   1.0000      -4.023553      -109.4864
  13   1.0000      -4.023531      -109.4858
  14   1.0000      -4.022452      -109.4565
  15   1.0000      -4.022399      -109.4550
  16   1.0000      -4.016047      -109.2822
  17   1.0000      -4.012560      -109.1873
  18   1.0000      -4.012362      -109.1819
  19   1.0000      -3.238219       -88.1164
  20   1.0000      -2.250586       -61.2416
  21   1.0000      -2.250522       -61.2398
  22   1.0000      -2.250428       -61.2373
  23   1.0000      -2.248153       -61.1753
  24   1.0000      -2.248112       -61.1742
  25   1.0000      -2.245623       -61.1065
  26   1.0000      -2.245349       -61.0991
  27   1.0000      -2.245021       -61.0901
  28   1.0000      -2.243974       -61.0616
  29   1.0000      -2.243356       -61.0448
  30   1.0000      -2.242246       -61.0146
  31   1.0000      -2.242057       -61.0095
  32   1.0000      -2.241120       -60.9840
  33   1.0000      -2.240925       -60.9787
  34   1.0000      -2.240568       -60.9690
  35   1.0000      -2.240193       -60.9588
  36   1.0000      -2.240029       -60.9543
  37   1.0000      -2.239888       -60.9505
  38   1.0000      -2.239078       -60.9284
  39   1.0000      -2.238950       -60.9249
  40   1.0000      -2.238637       -60.9164
  41   1.0000      -2.238161       -60.9035
  42   1.0000      -2.237504       -60.8856
  43   1.0000      -2.236129       -60.8482
  44   1.0000      -2.235997       -60.8446
  45   1.0000      -2.235813       -60.8396
  46   1.0000      -2.235463       -60.8301
  47   1.0000      -2.235384       -60.8279
  48   1.0000      -2.234981       -60.8169
  49   1.0000      -2.234444       -60.8023
  50   1.0000      -2.234198       -60.7956
  51   1.0000      -2.231428       -60.7203
  52   1.0000      -2.230619       -60.6982
  53   1.0000      -2.229641       -60.6716
  54   1.0000      -2.229164       -60.6586
  55   1.0000      -2.228776       -60.6481
  56   1.0000      -2.227392       -60.6104
  57   1.0000      -2.227114       -60.6028
  58   1.0000      -2.224762       -60.5388
  59   1.0000      -2.223632       -60.5081
  60   1.0000      -2.223603       -60.5073
  61   1.0000      -2.222950       -60.4895
  62   1.0000      -2.059472       -56.0411
  63   1.0000      -2.058912       -56.0258
  64   1.0000      -2.045848       -55.6703
  65   1.0000      -0.428402       -11.6574
  66   1.0000      -0.392422       -10.6784
  67   1.0000      -0.384046       -10.4504
  68   1.0000      -0.381322       -10.3763
  69   1.0000      -0.369823       -10.0634
  70   1.0000      -0.364471        -9.9178
  71   1.0000      -0.362187        -9.8556
  72   1.0000      -0.362131        -9.8541
  73   1.0000      -0.358669        -9.7599
  74   1.0000      -0.354567        -9.6483
  75   1.0000      -0.352288        -9.5862
  76   1.0000      -0.351093        -9.5537
  77   1.0000      -0.350800        -9.5458
  78   1.0000      -0.348438        -9.4815
  79   1.0000      -0.347314        -9.4509
  80   1.0000      -0.345844        -9.4109
  81   1.0000      -0.342677        -9.3247
  82   1.0000      -0.342047        -9.3076
  83   1.0000      -0.338451        -9.2097
  84   1.0000      -0.333606        -9.0779
  85   1.0000      -0.328464        -8.9380
  86   1.0000      -0.327311        -8.9066
  87   1.0000      -0.326926        -8.8961
  88   1.0000      -0.324552        -8.8315
  89   1.0000      -0.323468        -8.8020
  90   1.0000      -0.322554        -8.7771
  91   1.0000      -0.318029        -8.6540
  92   1.0000      -0.315634        -8.5888
  93   1.0000      -0.314939        -8.5699
  94   1.0000      -0.312450        -8.5022
  95   1.0000      -0.311430        -8.4744
  96   1.0000      -0.309310        -8.4167
  97   1.0000      -0.303639        -8.2624
  98   1.0000      -0.298992        -8.1360
  99   1.0000      -0.297636        -8.0991
 100   1.0000      -0.296986        -8.0814
 101   1.0000      -0.294459        -8.0126
 102   1.0000      -0.292802        -7.9675
 103   1.0000      -0.289393        -7.8748
 104   1.0000      -0.287892        -7.8339
 105   1.0000      -0.287104        -7.8125
 106   1.0000      -0.286265        -7.7897
 107   1.0000      -0.283002        -7.7009
 108   1.0000      -0.281563        -7.6617
 109   1.0000      -0.278045        -7.5660
 110   1.0000      -0.276322        -7.5191
 111   1.0000      -0.274281        -7.4636
 112   1.0000      -0.272600        -7.4178
 113   1.0000      -0.272128        -7.4050
 114   1.0000      -0.270239        -7.3536
 115   1.0000      -0.268295        -7.3007
 116   1.0000      -0.267700        -7.2845
 117   1.0000      -0.267162        -7.2698
 118   1.0000      -0.265810        -7.2331
 119   1.0000      -0.262743        -7.1496
 120   1.0000      -0.260143        -7.0789
 121   1.0000      -0.259776        -7.0689
 122   1.0000      -0.259000        -7.0477
 123   1.0000      -0.257842        -7.0162
 124   1.0000      -0.254900        -6.9362
 125   1.0000      -0.254204        -6.9173
 126   1.0000      -0.253093        -6.8870
 127   1.0000      -0.252443        -6.8693
 128   1.0000      -0.251737        -6.8501
 129   1.0000      -0.251284        -6.8378
 130   1.0000      -0.249324        -6.7845
 131   1.0000      -0.249161        -6.7800
 132   1.0000      -0.247479        -6.7342
 133   1.0000      -0.241887        -6.5821
 134   1.0000      -0.241862        -6.5814
 135   1.0000      -0.240692        -6.5496
 136   1.0000      -0.239616        -6.5203
 137   1.0000      -0.236900        -6.4464
 138   1.0000      -0.232669        -6.3313
 139   1.0000      -0.223506        -6.0819
 140   1.0000      -0.212471        -5.7816
 141   1.0000      -0.204119        -5.5544
 142   1.0000      -0.201177        -5.4743
 143   1.0000      -0.195352        -5.3158
 144   1.0000      -0.177241        -4.8230
 145   0.0000      -0.158091        -4.3019
 146   0.0000      -0.156764        -4.2658
 147   0.0000      -0.145611        -3.9623
 148   0.0000      -0.145117        -3.9488
 149   0.0000      -0.138396        -3.7659

MULLIKEN ATOMIC CHARGES AND SPIN POPULATIONS
--------------------------------------------
   0 Au:   -0.332946   -0.112052
   1 Au:    0.521029   -0.074611
   2 Au:    0.331084   -0.021655
   3 Au:   -0.144999    0.005031
   4 Au:    0.024747   -0.094971
   5 Au:   -0.146117    0.006898
   6 Au:    0.269751   -0.130778
   7 Au:    0.290403   -0.008122
   8 Au:    0.021408   -0.095080
   9 Au:    0.328395    0.033657
  10 Au:    0.270859   -0.131213
  11 Au:    0.292164   -0.009508
  12 Au:    0.407477   -0.081480
  13 Au:    0.338841   -0.128027
  14 Fe:   -2.472094    2.841913
Sum of atomic charges         :   -0.0000000

LOEWDIN ATOMIC CHARGES AND SPIN POPULATIONS
-------------------------------------------
   0 Au:   -0.066553   -0.105703
   1 Au:    0.129367   -0.046390
   2 Au:    0.081857   -0.053776
   3 Au:   -0.085631   -0.033008
   4 Au:    0.030163   -0.067731
   5 Au:   -0.085761   -0.032124
   6 Au:    0.098896   -0.099766
   7 Au:    0.078332   -0.052228
   8 Au:    0.029477   -0.068032
   9 Au:    0.053579   -0.002642
  10 Au:    0.099726   -0.099680
  11 Au:    0.079118   -0.052504
  12 Au:    0.110138   -0.100444
  13 Au:    0.093301   -0.097028
  14 Fe:   -0.646009    2.911055

  Mayer bond orders larger than 0.100000
B(  0-Au,  1-Au) :   0.4265 B(  0-Au,  3-Au) :   0.3062 B(  0-Au,  5-Au) :   0.3064
B(  0-Au,  6-Au) :   0.2124 B(  0-Au, 10-Au) :   0.2128 B(  0-Au, 12-Au) :   0.3690
B(  0-Au, 14-Fe) :   0.3647 B(  1-Au,  3-Au) :   0.2837 B(  1-Au,  5-Au) :   0.2823
B(  2-Au,  3-Au) :   0.2510 B(  2-Au,  4-Au) :   0.2860 B(  2-Au,  5-Au) :   0.2505
B(  2-Au,  8-Au) :   0.2879 B(  2-Au, 14-Fe) :   0.1517 B(  3-Au,  5-Au) :   0.2230
B(  3-Au,  8-Au) :   0.3523 B(  3-Au, 10-Au) :   0.2842 B(  3-Au, 14-Fe) :   0.2152
B(  4-Au,  5-Au) :   0.3525 B(  4-Au,  6-Au) :   0.1112 B(  4-Au,  8-Au) :   0.1232
B(  4-Au, 11-Au) :   0.2101 B(  4-Au, 13-Au) :   0.1728 B(  4-Au, 14-Fe) :   0.5265
B(  5-Au,  6-Au) :   0.2857 B(  5-Au, 14-Fe) :   0.2152 B(  6-Au, 11-Au) :   0.1741
B(  6-Au, 14-Fe) :   0.5649 B(  7-Au,  8-Au) :   0.2145 B(  7-Au,  9-Au) :   0.2320
B(  7-Au, 10-Au) :   0.1742 B(  7-Au, 13-Au) :   0.1928 B(  7-Au, 14-Fe) :   0.4520
B(  8-Au, 10-Au) :   0.1104 B(  8-Au, 13-Au) :   0.1715 B(  8-Au, 14-Fe) :   0.5261
B(  9-Au, 11-Au) :   0.2296 B(  9-Au, 12-Au) :   0.2935 B(  9-Au, 14-Fe) :   0.4634
B( 10-Au, 14-Fe) :   0.5669 B( 11-Au, 13-Au) :   0.1942 B( 11-Au, 14-Fe) :   0.4563
B( 12-Au, 14-Fe) :   0.4852 B( 13-Au, 14-Fe) :   0.5210

FINAL SINGLE POINT ENERGY     -3165.061577723479

DIPOLE MOMENT
-------------
                                X             Y             Z
Electronic contribution:     -9.77168       6.81252     -31.38586
Nuclear contribution   :      9.78502      -6.86384      31.48100
                        -----------------------------------------
Total Dipole Moment    :      0.01334      -0.05132       0.09514
                        -----------------------------------------
Magnitude (a.u.)       :      0.10892
Magnitude (Debye)      :      0.27685

Rotational constants in cm-1:     0.001321     0.000915     0.000880
Rotational constants in MHz :    39.592212    27.432360    26.374260

                             ****ORCA TERMINATED NORMALLY****
TOTAL RUN TIME: 0 days 0 hours 35 minutes 2 seconds 909 msec
