                         Program Version 5.0.3 -  RELEASE  -
|  1> !R2SCAN def2-TZVP VERYSLOWCONV
|  2> !NOTRAH
|  3> %pal nprocs 6 end
|  4>
|  5> *xyzfile 0 5 pbe.xyz
|  6>
|  7> $new_job
|  8>
|  9> !R2SCAN def2-TZVP VERYSLOWCONV
| 10> !NOTRAH
| 11>
| 12> %pal nprocs 6 end
| 13>
| 14> *xyzfile 0 3 pbe.xyz
| 15>
| 16>
| 17>
| 18>
| 19>
| 20>                          ****END OF INPUT****
 Total Charge           Charge          ....    0
 Multiplicity           Mult            ....    5
 Number of Electrons    NEL             ....  292
FINAL SINGLE POINT ENERGY     -3165.557462809167

CARTESIAN COORDINATES (ANGSTROEM)
---------------------------------
  Au     7.735625   10.021001    6.320655
  Au     6.714205   10.099642    3.793133
  Au     5.353098    6.261140    5.126060
  Au     7.706315    7.684291    4.661576
  Au     4.758137    7.100000    7.725146
  Au     5.132316    8.972509    5.745763
  Au     5.770792    9.803221    8.356111
  Au     9.294783    5.924236    8.768414
  Au     7.710105    5.620544    6.480858
  Au     8.456922    7.759178   10.690639
  Au     9.569718    7.902554    6.759605
  Au     5.696273    7.735921   10.290891
  Au     8.689304    9.792140    8.876154
  Au     6.546088    5.334831    9.066909
  Fe     7.337272    7.678162    8.157562

 Multiplicity           Mult            ....    3
 Number of Electrons    NEL             ....  292
 Basis Dimension        Dim             ....  605

ORBITAL ENERGIES
----------------
                 SPIN UP ORBITALS
  NO   OCC          E(Eh)            E(eV)
   0   1.0000    -255.633239     -6956.1341
   1   1.0000     -29.930856      -814.4600
   2   1.0000     -25.766937      -701.1540
   3   1.0000     -25.765565      -701.1167
   4   1.0000     -25.751619      -700.7372
   5   1.0000      -4.126907      -112.2988
   6   1.0000      -4.126900      -112.2987
   7   1.0000      -4.122130      -112.1689
   8   1.0000      -4.119761      -112.1044
   9   1.0000      -4.119714      -112.1031
  10   1.0000      -4.118181      -112.0614
  11   1.0000      -4.115925      -112.0000
  12   1.0000      -4.114227      -111.9538
  13   1.0000      -4.114151      -111.9517
  14   1.0000      -4.111936      -111.8915
  15   1.0000      -4.111879      -111.8899
  16   1.0000      -4.105340      -111.7120
  17   1.0000      -4.103244      -111.6549
  18   1.0000      -4.102713      -111.6405
  19   1.0000      -3.509684       -95.5033
  20   1.0000      -2.315482       -63.0075
  21   1.0000      -2.315448       -63.0066
  22   1.0000      -2.313262       -62.9471
  23   1.0000      -2.313202       -62.9454
  24   1.0000      -2.312763       -62.9335
  25   1.0000      -2.310144       -62.8622
  26   1.0000      -2.309881       -62.8551
  27   1.0000      -2.309128       -62.8346
  28   1.0000      -2.308792       -62.8254
  29   1.0000      -2.307333       -62.7857
  30   1.0000      -2.307313       -62.7852
  31   1.0000      -2.305805       -62.7442
  32   1.0000      -2.305197       -62.7276
  33   1.0000      -2.304706       -62.7142
  34   1.0000      -2.304566       -62.7104
  35   1.0000      -2.304405       -62.7061
  36   1.0000      -2.303671       -62.6861
  37   1.0000      -2.303568       -62.6833
  38   1.0000      -2.302772       -62.6616
  39   1.0000      -2.301870       -62.6371
  40   1.0000      -2.301014       -62.6138
  41   1.0000      -2.300829       -62.6087
  42   1.0000      -2.300422       -62.5977
  43   1.0000      -2.299776       -62.5801
  44   1.0000      -2.299375       -62.5692
  45   1.0000      -2.299030       -62.5598
  46   1.0000      -2.298688       -62.5505
  47   1.0000      -2.298195       -62.5371
  48   1.0000      -2.297836       -62.5273
  49   1.0000      -2.297433       -62.5163
  50   1.0000      -2.297366       -62.5145
  51   1.0000      -2.294378       -62.4332
  52   1.0000      -2.293358       -62.4054
  53   1.0000      -2.292168       -62.3731
  54   1.0000      -2.291530       -62.3557
  55   1.0000      -2.290820       -62.3364
  56   1.0000      -2.290359       -62.3238
  57   1.0000      -2.289794       -62.3085
  58   1.0000      -2.287267       -62.2397
  59   1.0000      -2.287149       -62.2365
  60   1.0000      -2.286740       -62.2254
  61   1.0000      -2.286537       -62.2198
  62   1.0000      -2.286029       -62.2060
  63   1.0000      -2.283013       -62.1239
  64   1.0000      -2.254651       -61.3522
  65   1.0000      -0.437241       -11.8979
  66   1.0000      -0.399244       -10.8640
  67   1.0000      -0.393460       -10.7066
  68   1.0000      -0.389845       -10.6082
  69   1.0000      -0.382122       -10.3981
  70   1.0000      -0.380710       -10.3596
  71   1.0000      -0.378701       -10.3050
  72   1.0000      -0.372403       -10.1336
  73   1.0000      -0.371689       -10.1142
  74   1.0000      -0.369154       -10.0452
  75   1.0000      -0.366280        -9.9670
  76   1.0000      -0.363734        -9.8977
  77   1.0000      -0.359047        -9.7702
  78   1.0000      -0.357953        -9.7404
  79   1.0000      -0.357194        -9.7197
  80   1.0000      -0.356178        -9.6921
  81   1.0000      -0.353874        -9.6294
  82   1.0000      -0.350593        -9.5401
  83   1.0000      -0.347820        -9.4647
  84   1.0000      -0.342705        -9.3255
  85   1.0000      -0.342025        -9.3070
  86   1.0000      -0.336471        -9.1558
  87   1.0000      -0.336197        -9.1484
  88   1.0000      -0.333262        -9.0685
  89   1.0000      -0.331987        -9.0338
  90   1.0000      -0.330293        -8.9877
  91   1.0000      -0.328523        -8.9396
  92   1.0000      -0.325550        -8.8587
  93   1.0000      -0.323960        -8.8154
  94   1.0000      -0.321546        -8.7497
  95   1.0000      -0.319964        -8.7067
  96   1.0000      -0.319504        -8.6942
  97   1.0000      -0.316715        -8.6183
  98   1.0000      -0.316008        -8.5990
  99   1.0000      -0.314249        -8.5511
 100   1.0000      -0.312537        -8.5046
 101   1.0000      -0.308090        -8.3836
 102   1.0000      -0.303921        -8.2701
 103   1.0000      -0.303274        -8.2525
 104   1.0000      -0.300382        -8.1738
 105   1.0000      -0.297931        -8.1071
 106   1.0000      -0.296939        -8.0801
 107   1.0000      -0.292104        -7.9486
 108   1.0000      -0.290997        -7.9184
 109   1.0000      -0.287274        -7.8171
 110   1.0000      -0.284679        -7.7465
 111   1.0000      -0.281847        -7.6694
 112   1.0000      -0.280627        -7.6362
 113   1.0000      -0.279846        -7.6150
 114   1.0000      -0.277799        -7.5593
 115   1.0000      -0.276593        -7.5265
 116   1.0000      -0.275963        -7.5093
 117   1.0000      -0.274632        -7.4731
 118   1.0000      -0.273213        -7.4345
 119   1.0000      -0.272447        -7.4137
 120   1.0000      -0.269379        -7.3302
 121   1.0000      -0.269223        -7.3259
 122   1.0000      -0.267089        -7.2679
 123   1.0000      -0.266588        -7.2542
 124   1.0000      -0.265034        -7.2119
 125   1.0000      -0.264796        -7.2055
 126   1.0000      -0.261707        -7.1214
 127   1.0000      -0.261201        -7.1076
 128   1.0000      -0.260353        -7.0846
 129   1.0000      -0.259885        -7.0718
 130   1.0000      -0.259350        -7.0573
 131   1.0000      -0.257126        -6.9967
 132   1.0000      -0.256103        -6.9689
 133   1.0000      -0.255496        -6.9524
 134   1.0000      -0.255086        -6.9413
 135   1.0000      -0.254512        -6.9256
 136   1.0000      -0.253650        -6.9022
 137   1.0000      -0.250078        -6.8050
 138   1.0000      -0.246228        -6.7002
 139   1.0000      -0.245882        -6.6908
 140   1.0000      -0.244987        -6.6664
 141   1.0000      -0.244931        -6.6649
 142   1.0000      -0.240696        -6.5497
 143   1.0000      -0.237373        -6.4593
 144   1.0000      -0.221260        -6.0208
 145   1.0000      -0.207433        -5.6445
 146   1.0000      -0.196293        -5.3414
 147   0.0000      -0.181866        -4.9488
 148   0.0000      -0.175531        -4.7764
 149   0.0000      -0.137091        -3.7304
 150   0.0000      -0.127403        -3.4668
 151   0.0000      -0.117134        -3.1874

                 SPIN DOWN ORBITALS
  NO   OCC          E(Eh)            E(eV)
   0   1.0000    -255.632260     -6956.1074
   1   1.0000     -29.854401      -812.3795
   2   1.0000     -25.705743      -699.4888
   3   1.0000     -25.705293      -699.4766
   4   1.0000     -25.698123      -699.2815
   5   1.0000      -4.126606      -112.2907
   6   1.0000      -4.126597      -112.2904
   7   1.0000      -4.123281      -112.2002
   8   1.0000      -4.119853      -112.1069
   9   1.0000      -4.119818      -112.1059
  10   1.0000      -4.118271      -112.0638
  11   1.0000      -4.116200      -112.0075
  12   1.0000      -4.114502      -111.9613
  13   1.0000      -4.114443      -111.9597
  14   1.0000      -4.112708      -111.9125
  15   1.0000      -4.112649      -111.9109
  16   1.0000      -4.106390      -111.7406
  17   1.0000      -4.103444      -111.6604
  18   1.0000      -4.102838      -111.6439
  19   1.0000      -3.341090       -90.9157
  20   1.0000      -2.314654       -62.9849
  21   1.0000      -2.314603       -62.9836
  22   1.0000      -2.314223       -62.9732
  23   1.0000      -2.312465       -62.9254
  24   1.0000      -2.312424       -62.9243
  25   1.0000      -2.310071       -62.8602
  26   1.0000      -2.309782       -62.8524
  27   1.0000      -2.309053       -62.8325
  28   1.0000      -2.308085       -62.8062
  29   1.0000      -2.307336       -62.7858
  30   1.0000      -2.306701       -62.7685
  31   1.0000      -2.306078       -62.7516
  32   1.0000      -2.304899       -62.7195
  33   1.0000      -2.304841       -62.7179
  34   1.0000      -2.304572       -62.7106
  35   1.0000      -2.304503       -62.7087
  36   1.0000      -2.304194       -62.7003
  37   1.0000      -2.304009       -62.6953
  38   1.0000      -2.303008       -62.6680
  39   1.0000      -2.302007       -62.6408
  40   1.0000      -2.301840       -62.6362
  41   1.0000      -2.301607       -62.6299
  42   1.0000      -2.301215       -62.6192
  43   1.0000      -2.300099       -62.5889
  44   1.0000      -2.299831       -62.5816
  45   1.0000      -2.299110       -62.5620
  46   1.0000      -2.298965       -62.5580
  47   1.0000      -2.298778       -62.5529
  48   1.0000      -2.298602       -62.5481
  49   1.0000      -2.298121       -62.5351
  50   1.0000      -2.297984       -62.5313
  51   1.0000      -2.294818       -62.4452
  52   1.0000      -2.293869       -62.4193
  53   1.0000      -2.292698       -62.3875
  54   1.0000      -2.292519       -62.3826
  55   1.0000      -2.292283       -62.3762
  56   1.0000      -2.290547       -62.3290
  57   1.0000      -2.290148       -62.3181
  58   1.0000      -2.287658       -62.2503
  59   1.0000      -2.287384       -62.2429
  60   1.0000      -2.286841       -62.2281
  61   1.0000      -2.286657       -62.2231
  62   1.0000      -2.113978       -57.5243
  63   1.0000      -2.113299       -57.5058
  64   1.0000      -2.099378       -57.1270
  65   1.0000      -0.435280       -11.8446
  66   1.0000      -0.399153       -10.8615
  67   1.0000      -0.391414       -10.6509
  68   1.0000      -0.388507       -10.5718
  69   1.0000      -0.378479       -10.2989
  70   1.0000      -0.372855       -10.1459
  71   1.0000      -0.371178       -10.1003
  72   1.0000      -0.370991       -10.0952
  73   1.0000      -0.367838       -10.0094
  74   1.0000      -0.362909        -9.8753
  75   1.0000      -0.361367        -9.8333
  76   1.0000      -0.360884        -9.8201
  77   1.0000      -0.360011        -9.7964
  78   1.0000      -0.358368        -9.7517
  79   1.0000      -0.356797        -9.7089
  80   1.0000      -0.355249        -9.6668
  81   1.0000      -0.352118        -9.5816
  82   1.0000      -0.351559        -9.5664
  83   1.0000      -0.347212        -9.4481
  84   1.0000      -0.343193        -9.3388
  85   1.0000      -0.337658        -9.1882
  86   1.0000      -0.336990        -9.1700
  87   1.0000      -0.336217        -9.1489
  88   1.0000      -0.333903        -9.0860
  89   1.0000      -0.332584        -9.0501
  90   1.0000      -0.331862        -9.0304
  91   1.0000      -0.327121        -8.9014
  92   1.0000      -0.324988        -8.8434
  93   1.0000      -0.323694        -8.8082
  94   1.0000      -0.321708        -8.7541
  95   1.0000      -0.320677        -8.7261
  96   1.0000      -0.318471        -8.6660
  97   1.0000      -0.312620        -8.5068
  98   1.0000      -0.308077        -8.3832
  99   1.0000      -0.305960        -8.3256
 100   1.0000      -0.305636        -8.3168
 101   1.0000      -0.303182        -8.2500
 102   1.0000      -0.301861        -8.2140
 103   1.0000      -0.298236        -8.1154
 104   1.0000      -0.296540        -8.0693
 105   1.0000      -0.296036        -8.0555
 106   1.0000      -0.294499        -8.0137
 107   1.0000      -0.291498        -7.9321
 108   1.0000      -0.290427        -7.9029
 109   1.0000      -0.286122        -7.7858
 110   1.0000      -0.285095        -7.7578
 111   1.0000      -0.282985        -7.7004
 112   1.0000      -0.281196        -7.6517
 113   1.0000      -0.280781        -7.6404
 114   1.0000      -0.278746        -7.5851
 115   1.0000      -0.277296        -7.5456
 116   1.0000      -0.275918        -7.5081
 117   1.0000      -0.275524        -7.4974
 118   1.0000      -0.274166        -7.4604
 119   1.0000      -0.270937        -7.3726
 120   1.0000      -0.268438        -7.3046
 121   1.0000      -0.268163        -7.2971
 122   1.0000      -0.266556        -7.2534
 123   1.0000      -0.266149        -7.2423
 124   1.0000      -0.263053        -7.1580
 125   1.0000      -0.261853        -7.1254
 126   1.0000      -0.261193        -7.1074
 127   1.0000      -0.260441        -7.0870
 128   1.0000      -0.259731        -7.0676
 129   1.0000      -0.259085        -7.0501
 130   1.0000      -0.257089        -6.9957
 131   1.0000      -0.256714        -6.9855
 132   1.0000      -0.255212        -6.9447
 133   1.0000      -0.248952        -6.7743
 134   1.0000      -0.248485        -6.7616
 135   1.0000      -0.247849        -6.7443
 136   1.0000      -0.246259        -6.7010
 137   1.0000      -0.243942        -6.6380
 138   1.0000      -0.239154        -6.5077
 139   1.0000      -0.226898        -6.1742
 140   1.0000      -0.214224        -5.8293
 141   1.0000      -0.205257        -5.5853
 142   1.0000      -0.202276        -5.5042
 143   1.0000      -0.195687        -5.3249
 144   1.0000      -0.182057        -4.9540
 145   0.0000      -0.150625        -4.0987
 146   0.0000      -0.148304        -4.0356
 147   0.0000      -0.135548        -3.6884
 148   0.0000      -0.132635        -3.6092
 149   0.0000      -0.131511        -3.5786

MULLIKEN ATOMIC CHARGES AND SPIN POPULATIONS
--------------------------------------------
   0 Au:   -0.309981   -0.119909
   1 Au:    0.484127   -0.065336
   2 Au:    0.295047   -0.027520
   3 Au:   -0.135113    0.000939
   4 Au:    0.023843   -0.116464
   5 Au:   -0.136292    0.002784
   6 Au:    0.246102   -0.164217
   7 Au:    0.255841   -0.021108
   8 Au:    0.020734   -0.116724
   9 Au:    0.278599    0.033295
  10 Au:    0.247116   -0.164769
  11 Au:    0.257747   -0.022619
  12 Au:    0.381299   -0.093849
  13 Au:    0.306725   -0.159969
  14 Fe:   -2.215794    3.035467
Sum of atomic charges         :   -0.0000000

LOEWDIN ATOMIC CHARGES AND SPIN POPULATIONS
-------------------------------------------
   0 Au:   -0.068773   -0.113111
   1 Au:    0.130835   -0.035810
   2 Au:    0.076384   -0.065788
   3 Au:   -0.088566   -0.039522
   4 Au:    0.025979   -0.086072
   5 Au:   -0.088781   -0.038710
   6 Au:    0.092367   -0.122005
   7 Au:    0.069548   -0.065985
   8 Au:    0.025226   -0.086493
   9 Au:    0.042822   -0.008306
  10 Au:    0.093205   -0.121872
  11 Au:    0.070413   -0.066176
  12 Au:    0.104310   -0.112484
  13 Au:    0.086698   -0.112989
  14 Fe:   -0.571666    3.075324

  Mayer bond orders larger than 0.100000
B(  0-Au,  1-Au) :   0.4269 B(  0-Au,  3-Au) :   0.2761 B(  0-Au,  5-Au) :   0.2759
B(  0-Au,  6-Au) :   0.2022 B(  0-Au, 10-Au) :   0.2028 B(  0-Au, 12-Au) :   0.3662
B(  0-Au, 14-Fe) :   0.3439 B(  1-Au,  3-Au) :   0.2810 B(  1-Au,  5-Au) :   0.2798
B(  2-Au,  3-Au) :   0.2422 B(  2-Au,  4-Au) :   0.2814 B(  2-Au,  5-Au) :   0.2415
B(  2-Au,  8-Au) :   0.2833 B(  2-Au, 14-Fe) :   0.1393 B(  3-Au,  5-Au) :   0.1830
B(  3-Au,  8-Au) :   0.3433 B(  3-Au, 10-Au) :   0.2763 B(  3-Au, 14-Fe) :   0.1962
B(  4-Au,  5-Au) :   0.3437 B(  4-Au,  8-Au) :   0.1035 B(  4-Au, 11-Au) :   0.2055
B(  4-Au, 13-Au) :   0.1666 B(  4-Au, 14-Fe) :   0.5191 B(  5-Au,  6-Au) :   0.2780
B(  5-Au, 14-Fe) :   0.1958 B(  6-Au, 11-Au) :   0.1628 B(  6-Au, 14-Fe) :   0.5609
B(  7-Au,  8-Au) :   0.2101 B(  7-Au,  9-Au) :   0.2189 B(  7-Au, 10-Au) :   0.1629
B(  7-Au, 13-Au) :   0.1816 B(  7-Au, 14-Fe) :   0.4388 B(  8-Au, 13-Au) :   0.1652
B(  8-Au, 14-Fe) :   0.5185 B(  9-Au, 11-Au) :   0.2164 B(  9-Au, 12-Au) :   0.2973
B(  9-Au, 14-Fe) :   0.4344 B( 10-Au, 14-Fe) :   0.5632 B( 11-Au, 13-Au) :   0.1832
B( 11-Au, 14-Fe) :   0.4433 B( 12-Au, 14-Fe) :   0.4831 B( 13-Au, 14-Fe) :   0.5059

FINAL SINGLE POINT ENERGY     -3165.553260839789

DIPOLE MOMENT
-------------
                                X             Y             Z
Electronic contribution:     -9.77225       6.84097     -31.42096
Nuclear contribution   :      9.78502      -6.86384      31.48100
                        -----------------------------------------
Total Dipole Moment    :      0.01277      -0.02287       0.06005
                        -----------------------------------------
Magnitude (a.u.)       :      0.06551
Magnitude (Debye)      :      0.16652

Rotational constants in cm-1:     0.001321     0.000915     0.000880
Rotational constants in MHz :    39.592212    27.432360    26.374260

                             ****ORCA TERMINATED NORMALLY****
TOTAL RUN TIME: 0 days 0 hours 10 minutes 6 seconds 127 msec
