                         Program Version 5.0.3 -  RELEASE  -
|  1> %pal nprocs 1 end
|  2>
|  3> !PBE def2-TZVP OPT UNO
|  4> !SLOWCONV KDIIS
|  5>
|  6> %geom maxiter 300 end
|  7>
|  8> *xyzfile 0 5 4.xyz                           ****END OF INPUT****
 Total Charge           Charge          ....    0
 Multiplicity           Mult            ....    5
 Number of Electrons    NEL             ....  216
FINAL SINGLE POINT ENERGY     -2621.739246898479
FINAL SINGLE POINT ENERGY     -2621.739563076168
FINAL SINGLE POINT ENERGY     -2621.740782485669
FINAL SINGLE POINT ENERGY     -2621.740946156101
FINAL SINGLE POINT ENERGY     -2621.741484021995
FINAL SINGLE POINT ENERGY     -2621.741683063680
FINAL SINGLE POINT ENERGY     -2621.741904247936
FINAL SINGLE POINT ENERGY     -2621.741987992228
FINAL SINGLE POINT ENERGY     -2621.742111409040
FINAL SINGLE POINT ENERGY     -2621.742161541557
FINAL SINGLE POINT ENERGY     -2621.742205516379
FINAL SINGLE POINT ENERGY     -2621.742236237284
FINAL SINGLE POINT ENERGY     -2621.742259489946
FINAL SINGLE POINT ENERGY     -2621.742277853250
FINAL SINGLE POINT ENERGY     -2621.742289002258
FINAL SINGLE POINT ENERGY     -2621.742299312110
FINAL SINGLE POINT ENERGY     -2621.742308441578
FINAL SINGLE POINT ENERGY     -2621.742311655813
FINAL SINGLE POINT ENERGY     -2621.742312777344
                    ***********************HURRAY********************

CARTESIAN COORDINATES (ANGSTROEM)
---------------------------------
  Au     6.989877    6.828196    7.636510
  Au     8.527556    4.771606    8.084420
  Au    10.162749    2.638091    8.111101
  Au     8.353427    8.042387    5.220853
  Au     6.022225    9.061814    6.371986
  Au     8.334218    9.430548    7.747540
  Au    10.687750    6.821280    5.077246
  Au    11.184208    4.826437    7.053060
  Au    12.376678    7.184855    7.373716
  Au    10.783326    9.033607    8.632733
  Fe     9.616086    7.066753    7.400963

 Multiplicity           Mult            ....    5
 Number of Electrons    NEL             ....  216
 Basis Dimension        Dim             ....  445

ORBITAL ENERGIES
----------------
                 SPIN UP ORBITALS
  NO   OCC          E(Eh)            E(eV)
   0   1.0000    -254.773442     -6932.7378
   1   1.0000     -29.617283      -805.9272
   2   1.0000     -25.561864      -695.5737
   3   1.0000     -25.549271      -695.2310
   4   1.0000     -25.544600      -695.1039
   5   1.0000      -4.027582      -109.5961
   6   1.0000      -4.027439      -109.5922
   7   1.0000      -4.026161      -109.5574
   8   1.0000      -4.025279      -109.5334
   9   1.0000      -4.024866      -109.5222
  10   1.0000      -4.023089      -109.4738
  11   1.0000      -4.021781      -109.4382
  12   1.0000      -4.020999      -109.4169
  13   1.0000      -4.020344      -109.3991
  14   1.0000      -4.005919      -109.0066
  15   1.0000      -3.396953       -92.4358
  16   1.0000      -2.249296       -61.2065
  17   1.0000      -2.247467       -61.1567
  18   1.0000      -2.245755       -61.1101
  19   1.0000      -2.244199       -61.0678
  20   1.0000      -2.243428       -61.0468
  21   1.0000      -2.241633       -60.9979
  22   1.0000      -2.241401       -60.9916
  23   1.0000      -2.241053       -60.9822
  24   1.0000      -2.239612       -60.9429
  25   1.0000      -2.239344       -60.9357
  26   1.0000      -2.238803       -60.9209
  27   1.0000      -2.237886       -60.8960
  28   1.0000      -2.237407       -60.8829
  29   1.0000      -2.237369       -60.8819
  30   1.0000      -2.236291       -60.8526
  31   1.0000      -2.235889       -60.8416
  32   1.0000      -2.233801       -60.7848
  33   1.0000      -2.233200       -60.7685
  34   1.0000      -2.232403       -60.7468
  35   1.0000      -2.231994       -60.7356
  36   1.0000      -2.231700       -60.7277
  37   1.0000      -2.231231       -60.7149
  38   1.0000      -2.231151       -60.7127
  39   1.0000      -2.230134       -60.6850
  40   1.0000      -2.229436       -60.6660
  41   1.0000      -2.229413       -60.6654
  42   1.0000      -2.228413       -60.6382
  43   1.0000      -2.228046       -60.6282
  44   1.0000      -2.225141       -60.5492
  45   1.0000      -2.219382       -60.3925
  46   1.0000      -2.211688       -60.1831
  47   1.0000      -2.204543       -59.9887
  48   1.0000      -2.195204       -59.7345
  49   1.0000      -0.412075       -11.2131
  50   1.0000      -0.387078       -10.5329
  51   1.0000      -0.380657       -10.3582
  52   1.0000      -0.376219       -10.2374
  53   1.0000      -0.367644       -10.0041
  54   1.0000      -0.365542        -9.9469
  55   1.0000      -0.359587        -9.7849
  56   1.0000      -0.351690        -9.5700
  57   1.0000      -0.348936        -9.4950
  58   1.0000      -0.345419        -9.3993
  59   1.0000      -0.339994        -9.2517
  60   1.0000      -0.335848        -9.1389
  61   1.0000      -0.334650        -9.1063
  62   1.0000      -0.332036        -9.0352
  63   1.0000      -0.327035        -8.8991
  64   1.0000      -0.326025        -8.8716
  65   1.0000      -0.323589        -8.8053
  66   1.0000      -0.318828        -8.6757
  67   1.0000      -0.315852        -8.5948
  68   1.0000      -0.313334        -8.5262
  69   1.0000      -0.309893        -8.4326
  70   1.0000      -0.305944        -8.3252
  71   1.0000      -0.301105        -8.1935
  72   1.0000      -0.297990        -8.1087
  73   1.0000      -0.296574        -8.0702
  74   1.0000      -0.293657        -7.9908
  75   1.0000      -0.290181        -7.8962
  76   1.0000      -0.288623        -7.8538
  77   1.0000      -0.284739        -7.7481
  78   1.0000      -0.283668        -7.7190
  79   1.0000      -0.280384        -7.6296
  80   1.0000      -0.279733        -7.6119
  81   1.0000      -0.276404        -7.5213
  82   1.0000      -0.274890        -7.4801
  83   1.0000      -0.274089        -7.4583
  84   1.0000      -0.272482        -7.4146
  85   1.0000      -0.271057        -7.3758
  86   1.0000      -0.270514        -7.3611
  87   1.0000      -0.269744        -7.3401
  88   1.0000      -0.267440        -7.2774
  89   1.0000      -0.267110        -7.2684
  90   1.0000      -0.263708        -7.1759
  91   1.0000      -0.263329        -7.1655
  92   1.0000      -0.262102        -7.1322
  93   1.0000      -0.260091        -7.0774
  94   1.0000      -0.259501        -7.0614
  95   1.0000      -0.258258        -7.0276
  96   1.0000      -0.254777        -6.9328
  97   1.0000      -0.252696        -6.8762
  98   1.0000      -0.252049        -6.8586
  99   1.0000      -0.249370        -6.7857
 100   1.0000      -0.247098        -6.7239
 101   1.0000      -0.246260        -6.7011
 102   1.0000      -0.245715        -6.6862
 103   1.0000      -0.242936        -6.6106
 104   1.0000      -0.238324        -6.4851
 105   1.0000      -0.236483        -6.4350
 106   1.0000      -0.233395        -6.3510
 107   1.0000      -0.225672        -6.1408
 108   1.0000      -0.214168        -5.8278
 109   1.0000      -0.199525        -5.4294
 110   0.0000      -0.163674        -4.4538
 111   0.0000      -0.139089        -3.7848
 112   0.0000      -0.128867        -3.5067
 113   0.0000      -0.122592        -3.3359
 114   0.0000      -0.105567        -2.8726

                 SPIN DOWN ORBITALS
  NO   OCC          E(Eh)            E(eV)
   0   1.0000    -254.772645     -6932.7161
   1   1.0000     -29.554859      -804.2286
   2   1.0000     -25.510160      -694.1667
   3   1.0000     -25.503281      -693.9795
   4   1.0000     -25.500797      -693.9120
   5   1.0000      -4.026623      -109.5700
   6   1.0000      -4.025418      -109.5372
   7   1.0000      -4.025405      -109.5368
   8   1.0000      -4.023711      -109.4907
   9   1.0000      -4.023250      -109.4782
  10   1.0000      -4.021801      -109.4388
  11   1.0000      -4.020966      -109.4161
  12   1.0000      -4.020184      -109.3948
  13   1.0000      -4.019740      -109.3827
  14   1.0000      -4.005793      -109.0032
  15   1.0000      -3.255677       -88.5915
  16   1.0000      -2.246912       -61.1416
  17   1.0000      -2.246323       -61.1255
  18   1.0000      -2.244812       -61.0844
  19   1.0000      -2.242122       -61.0112
  20   1.0000      -2.240802       -60.9753
  21   1.0000      -2.239918       -60.9513
  22   1.0000      -2.239641       -60.9437
  23   1.0000      -2.239007       -60.9265
  24   1.0000      -2.237660       -60.8898
  25   1.0000      -2.237483       -60.8850
  26   1.0000      -2.236888       -60.8688
  27   1.0000      -2.236656       -60.8625
  28   1.0000      -2.236376       -60.8549
  29   1.0000      -2.236016       -60.8451
  30   1.0000      -2.235236       -60.8239
  31   1.0000      -2.235048       -60.8188
  32   1.0000      -2.233209       -60.7687
  33   1.0000      -2.232606       -60.7523
  34   1.0000      -2.231629       -60.7257
  35   1.0000      -2.231441       -60.7206
  36   1.0000      -2.231228       -60.7148
  37   1.0000      -2.230581       -60.6972
  38   1.0000      -2.229680       -60.6727
  39   1.0000      -2.229023       -60.6548
  40   1.0000      -2.228415       -60.6382
  41   1.0000      -2.227729       -60.6196
  42   1.0000      -2.226425       -60.5841
  43   1.0000      -2.224959       -60.5442
  44   1.0000      -2.219284       -60.3898
  45   1.0000      -2.211521       -60.1786
  46   1.0000      -2.077294       -56.5261
  47   1.0000      -2.070115       -56.3307
  48   1.0000      -2.067665       -56.2640
  49   1.0000      -0.407209       -11.0807
  50   1.0000      -0.385285       -10.4841
  51   1.0000      -0.376397       -10.2423
  52   1.0000      -0.369583       -10.0569
  53   1.0000      -0.361516        -9.8374
  54   1.0000      -0.356286        -9.6950
  55   1.0000      -0.348471        -9.4824
  56   1.0000      -0.340803        -9.2737
  57   1.0000      -0.337472        -9.1831
  58   1.0000      -0.335825        -9.1383
  59   1.0000      -0.332448        -9.0464
  60   1.0000      -0.330441        -8.9918
  61   1.0000      -0.326232        -8.8772
  62   1.0000      -0.320771        -8.7286
  63   1.0000      -0.319047        -8.6817
  64   1.0000      -0.318089        -8.6556
  65   1.0000      -0.313852        -8.5403
  66   1.0000      -0.313447        -8.5293
  67   1.0000      -0.310458        -8.4480
  68   1.0000      -0.309735        -8.4283
  69   1.0000      -0.306757        -8.3473
  70   1.0000      -0.298574        -8.1246
  71   1.0000      -0.296047        -8.0558
  72   1.0000      -0.293474        -7.9858
  73   1.0000      -0.292170        -7.9504
  74   1.0000      -0.289599        -7.8804
  75   1.0000      -0.288922        -7.8620
  76   1.0000      -0.286407        -7.7935
  77   1.0000      -0.281991        -7.6734
  78   1.0000      -0.277835        -7.5603
  79   1.0000      -0.275503        -7.4968
  80   1.0000      -0.273744        -7.4490
  81   1.0000      -0.272447        -7.4137
  82   1.0000      -0.271075        -7.3763
  83   1.0000      -0.270542        -7.3618
  84   1.0000      -0.269371        -7.3299
  85   1.0000      -0.268759        -7.3133
  86   1.0000      -0.267641        -7.2829
  87   1.0000      -0.264303        -7.1921
  88   1.0000      -0.262441        -7.1414
  89   1.0000      -0.261370        -7.1122
  90   1.0000      -0.258925        -7.0457
  91   1.0000      -0.257278        -7.0009
  92   1.0000      -0.256632        -6.9833
  93   1.0000      -0.254407        -6.9228
  94   1.0000      -0.253415        -6.8958
  95   1.0000      -0.251365        -6.8400
  96   1.0000      -0.248570        -6.7639
  97   1.0000      -0.245638        -6.6842
  98   1.0000      -0.242394        -6.5959
  99   1.0000      -0.238858        -6.4997
 100   1.0000      -0.236551        -6.4369
 101   1.0000      -0.232561        -6.3283
 102   1.0000      -0.229558        -6.2466
 103   1.0000      -0.220221        -5.9925
 104   1.0000      -0.208409        -5.6711
 105   1.0000      -0.192225        -5.2307
 106   0.0000      -0.177295        -4.8244
 107   0.0000      -0.172126        -4.6838
 108   0.0000      -0.169119        -4.6020
 109   0.0000      -0.158127        -4.3029
 110   0.0000      -0.153281        -4.1710

MULLIKEN ATOMIC CHARGES AND SPIN POPULATIONS
--------------------------------------------
   0 Au:    0.086895    0.106959
   1 Au:   -0.100188    0.099311
   2 Au:    0.292090    0.053011
   3 Au:   -0.000226    0.084497
   4 Au:    0.350041    0.059670
   5 Au:    0.058742    0.009825
   6 Au:    0.213996    0.088751
   7 Au:   -0.024238    0.034148
   8 Au:    0.188331    0.026643
   9 Au:    0.194271    0.071155
  10 Fe:   -1.259715    3.366030
Sum of atomic charges         :   -0.0000000

LOEWDIN ATOMIC CHARGES AND SPIN POPULATIONS
-------------------------------------------
   0 Au:    0.000658    0.093579
   1 Au:    0.011875    0.105833
   2 Au:    0.080199    0.042216
   3 Au:   -0.001406    0.083107
   4 Au:    0.089637    0.047079
   5 Au:   -0.026196    0.036753
   6 Au:    0.088020    0.084359
   7 Au:   -0.082248    0.047352
   8 Au:    0.044703    0.014525
   9 Au:    0.105717    0.048386
  10 Fe:   -0.310959    3.396812

  Mayer bond orders larger than 0.100000
B(  0-Au,  1-Au) :   0.5182 B(  0-Au,  3-Au) :   0.1123 B(  0-Au,  4-Au) :   0.3235
B(  0-Au,  5-Au) :   0.1326 B(  0-Au, 10-Fe) :   0.5889 B(  1-Au,  2-Au) :   0.4716
B(  1-Au,  7-Au) :   0.2642 B(  1-Au, 10-Fe) :   0.6794 B(  2-Au,  7-Au) :   0.5504
B(  3-Au,  4-Au) :   0.3212 B(  3-Au,  5-Au) :   0.2298 B(  3-Au,  6-Au) :   0.4881
B(  3-Au, 10-Fe) :   0.5843 B(  4-Au,  5-Au) :   0.3950 B(  5-Au,  9-Au) :   0.4736
B(  5-Au, 10-Fe) :   0.5241 B(  6-Au,  7-Au) :   0.1664 B(  6-Au,  8-Au) :   0.1374
B(  6-Au, 10-Fe) :   0.6406 B(  7-Au,  8-Au) :   0.4134 B(  7-Au, 10-Fe) :   0.3570
B(  8-Au,  9-Au) :   0.2162 B(  8-Au, 10-Fe) :   0.5457 B(  9-Au, 10-Fe) :   0.6485

FINAL SINGLE POINT ENERGY     -2621.742313314787

DIPOLE MOMENT
-------------
                                X             Y             Z
Electronic contribution:    -10.41043      -7.50098     -10.33385
Nuclear contribution   :     10.37419       7.68436      10.22883
                        -----------------------------------------
Total Dipole Moment    :     -0.03623       0.18338      -0.10501
                        -----------------------------------------
Magnitude (a.u.)       :      0.21440
Magnitude (Debye)      :      0.54497

Rotational constants in cm-1:     0.002153     0.001288     0.001054
Rotational constants in MHz :    64.540103    38.613376    31.598429

                             ****ORCA TERMINATED NORMALLY****
TOTAL RUN TIME: 0 days 1 hours 37 minutes 54 seconds 152 msec
