                         Program Version 5.0.3 -  RELEASE  -
|  1> %pal nprocs 1 end
|  2>
|  3> !PBE def2-TZVP OPT UNO
|  4> !SLOWCONV
|  5>
|  6> *xyzfile 0 3 4.xyz                           ****END OF INPUT****
 Total Charge           Charge          ....    0
 Multiplicity           Mult            ....    3
 Number of Electrons    NEL             ....  292
FINAL SINGLE POINT ENERGY     -3165.057591592386
FINAL SINGLE POINT ENERGY     -3165.059701547778
FINAL SINGLE POINT ENERGY     -3165.060077343214
FINAL SINGLE POINT ENERGY     -3165.060336754644
FINAL SINGLE POINT ENERGY     -3165.060420841693
FINAL SINGLE POINT ENERGY     -3165.060471037903
FINAL SINGLE POINT ENERGY     -3165.060491747761
FINAL SINGLE POINT ENERGY     -3165.060508624811
FINAL SINGLE POINT ENERGY     -3165.060526202002
FINAL SINGLE POINT ENERGY     -3165.060535067723
FINAL SINGLE POINT ENERGY     -3165.060544454883
FINAL SINGLE POINT ENERGY     -3165.060550594609
                    ***********************HURRAY********************

CARTESIAN COORDINATES (ANGSTROEM)
---------------------------------
  Au     5.432149    9.574964    7.698534
  Au     7.879968   10.296222    6.391134
  Au     6.447631    5.520224    6.137924
  Au     5.412947    7.057923    4.143556
  Au     7.934881    7.746597    5.086845
  Au     9.816904    8.473085    7.242856
  Au     3.675039    8.313172    5.939609
  Au     5.778354    9.746186    4.795740
  Au     8.017013    9.797123    9.133004
  Au     9.001699    7.148011    9.684351
  Au     4.671362    6.812904    7.980723
  Au     6.908859    5.341035    8.940612
  Au     9.094135    5.808591    7.147692
  Au     6.255395    7.890742   10.086381
  Fe     7.263747    7.686417    7.629002

 Multiplicity           Mult            ....    3
 Number of Electrons    NEL             ....  292
 Basis Dimension        Dim             ....  605

ORBITAL ENERGIES
----------------
                 SPIN UP ORBITALS
  NO   OCC          E(Eh)            E(eV)
   0   1.0000    -254.748631     -6932.0627
   1   1.0000     -29.584038      -805.0226
   2   1.0000     -25.524888      -694.5675
   3   1.0000     -25.524606      -694.5598
   4   1.0000     -25.510113      -694.1655
   5   1.0000      -4.033752      -109.7640
   6   1.0000      -4.033712      -109.7629
   7   1.0000      -4.031637      -109.7064
   8   1.0000      -4.031502      -109.7027
   9   1.0000      -4.031372      -109.6992
  10   1.0000      -4.031213      -109.6949
  11   1.0000      -4.031048      -109.6904
  12   1.0000      -4.030783      -109.6832
  13   1.0000      -4.030373      -109.6720
  14   1.0000      -4.030135      -109.6655
  15   1.0000      -4.020452      -109.4021
  16   1.0000      -4.012053      -109.1735
  17   1.0000      -4.011323      -109.1537
  18   1.0000      -4.011143      -109.1488
  19   1.0000      -3.360795       -91.4519
  20   1.0000      -2.249706       -61.2176
  21   1.0000      -2.249678       -61.2168
  22   1.0000      -2.247866       -61.1675
  23   1.0000      -2.247660       -61.1619
  24   1.0000      -2.247630       -61.1611
  25   1.0000      -2.247479       -61.1570
  26   1.0000      -2.247114       -61.1471
  27   1.0000      -2.246986       -61.1436
  28   1.0000      -2.246616       -61.1335
  29   1.0000      -2.245743       -61.1098
  30   1.0000      -2.245405       -61.1006
  31   1.0000      -2.245225       -61.0957
  32   1.0000      -2.245006       -61.0897
  33   1.0000      -2.244871       -61.0860
  34   1.0000      -2.244467       -61.0750
  35   1.0000      -2.244285       -61.0701
  36   1.0000      -2.243658       -61.0530
  37   1.0000      -2.243396       -61.0459
  38   1.0000      -2.243235       -61.0415
  39   1.0000      -2.242896       -61.0323
  40   1.0000      -2.242726       -61.0277
  41   1.0000      -2.242620       -61.0248
  42   1.0000      -2.242511       -61.0218
  43   1.0000      -2.242458       -61.0204
  44   1.0000      -2.241797       -61.0024
  45   1.0000      -2.241609       -60.9973
  46   1.0000      -2.241550       -60.9957
  47   1.0000      -2.241069       -60.9826
  48   1.0000      -2.240931       -60.9788
  49   1.0000      -2.239341       -60.9356
  50   1.0000      -2.233556       -60.7781
  51   1.0000      -2.233291       -60.7709
  52   1.0000      -2.233078       -60.7651
  53   1.0000      -2.228976       -60.6535
  54   1.0000      -2.226747       -60.5929
  55   1.0000      -2.226106       -60.5754
  56   1.0000      -2.225230       -60.5516
  57   1.0000      -2.224654       -60.5359
  58   1.0000      -2.223431       -60.5026
  59   1.0000      -2.222787       -60.4851
  60   1.0000      -2.221120       -60.4397
  61   1.0000      -2.220178       -60.4141
  62   1.0000      -2.184671       -59.4479
  63   1.0000      -2.184519       -59.4438
  64   1.0000      -2.155339       -58.6498
  65   1.0000      -0.439237       -11.9522
  66   1.0000      -0.388363       -10.5679
  67   1.0000      -0.384259       -10.4562
  68   1.0000      -0.384134       -10.4528
  69   1.0000      -0.377253       -10.2656
  70   1.0000      -0.377169       -10.2633
  71   1.0000      -0.371445       -10.1075
  72   1.0000      -0.369526       -10.0553
  73   1.0000      -0.367091        -9.9891
  74   1.0000      -0.360598        -9.8124
  75   1.0000      -0.357679        -9.7329
  76   1.0000      -0.354592        -9.6489
  77   1.0000      -0.350040        -9.5251
  78   1.0000      -0.349503        -9.5105
  79   1.0000      -0.347205        -9.4479
  80   1.0000      -0.345985        -9.4147
  81   1.0000      -0.345347        -9.3974
  82   1.0000      -0.342298        -9.3144
  83   1.0000      -0.340944        -9.2775
  84   1.0000      -0.338956        -9.2235
  85   1.0000      -0.338729        -9.2173
  86   1.0000      -0.338029        -9.1982
  87   1.0000      -0.333435        -9.0732
  88   1.0000      -0.333343        -9.0707
  89   1.0000      -0.326758        -8.8915
  90   1.0000      -0.325335        -8.8528
  91   1.0000      -0.322771        -8.7830
  92   1.0000      -0.318877        -8.6771
  93   1.0000      -0.318503        -8.6669
  94   1.0000      -0.317338        -8.6352
  95   1.0000      -0.316525        -8.6131
  96   1.0000      -0.310073        -8.4375
  97   1.0000      -0.306750        -8.3471
  98   1.0000      -0.305679        -8.3180
  99   1.0000      -0.301694        -8.2095
 100   1.0000      -0.301679        -8.2091
 101   1.0000      -0.299544        -8.1510
 102   1.0000      -0.298504        -8.1227
 103   1.0000      -0.296630        -8.0717
 104   1.0000      -0.295893        -8.0516
 105   1.0000      -0.293958        -7.9990
 106   1.0000      -0.291317        -7.9271
 107   1.0000      -0.284327        -7.7369
 108   1.0000      -0.282582        -7.6895
 109   1.0000      -0.280805        -7.6411
 110   1.0000      -0.279606        -7.6085
 111   1.0000      -0.277565        -7.5529
 112   1.0000      -0.276398        -7.5212
 113   1.0000      -0.274936        -7.4814
 114   1.0000      -0.273413        -7.4400
 115   1.0000      -0.272173        -7.4062
 116   1.0000      -0.267183        -7.2704
 117   1.0000      -0.265688        -7.2297
 118   1.0000      -0.264339        -7.1930
 119   1.0000      -0.263433        -7.1684
 120   1.0000      -0.262095        -7.1320
 121   1.0000      -0.261956        -7.1282
 122   1.0000      -0.259350        -7.0573
 123   1.0000      -0.258465        -7.0332
 124   1.0000      -0.256001        -6.9661
 125   1.0000      -0.254437        -6.9236
 126   1.0000      -0.254328        -6.9206
 127   1.0000      -0.253174        -6.8892
 128   1.0000      -0.252721        -6.8769
 129   1.0000      -0.251986        -6.8569
 130   1.0000      -0.251435        -6.8419
 131   1.0000      -0.250921        -6.8279
 132   1.0000      -0.248368        -6.7584
 133   1.0000      -0.247438        -6.7331
 134   1.0000      -0.247214        -6.7270
 135   1.0000      -0.243307        -6.6207
 136   1.0000      -0.242981        -6.6118
 137   1.0000      -0.242608        -6.6017
 138   1.0000      -0.241975        -6.5845
 139   1.0000      -0.237870        -6.4728
 140   1.0000      -0.237344        -6.4585
 141   1.0000      -0.235186        -6.3997
 142   1.0000      -0.232149        -6.3171
 143   1.0000      -0.231479        -6.2989
 144   1.0000      -0.207958        -5.6588
 145   1.0000      -0.202113        -5.4998
 146   1.0000      -0.200406        -5.4533
 147   0.0000      -0.184148        -5.0109
 148   0.0000      -0.183057        -4.9812
 149   0.0000      -0.141135        -3.8405
 150   0.0000      -0.128326        -3.4919
 151   0.0000      -0.127317        -3.4645

                 SPIN DOWN ORBITALS
  NO   OCC          E(Eh)            E(eV)
   0   1.0000    -254.748003     -6932.0456
   1   1.0000     -29.529409      -803.5361
   2   1.0000     -25.482328      -693.4094
   3   1.0000     -25.481619      -693.3901
   4   1.0000     -25.471931      -693.1265
   5   1.0000      -4.033567      -109.7589
   6   1.0000      -4.033497      -109.7570
   7   1.0000      -4.031757      -109.7097
   8   1.0000      -4.031589      -109.7051
   9   1.0000      -4.031482      -109.7022
  10   1.0000      -4.031286      -109.6969
  11   1.0000      -4.031033      -109.6900
  12   1.0000      -4.030775      -109.6830
  13   1.0000      -4.030564      -109.6772
  14   1.0000      -4.030354      -109.6715
  15   1.0000      -4.021197      -109.4223
  16   1.0000      -4.012545      -109.1869
  17   1.0000      -4.011783      -109.1662
  18   1.0000      -4.011608      -109.1614
  19   1.0000      -3.237022       -88.0839
  20   1.0000      -2.249126       -61.2018
  21   1.0000      -2.249089       -61.2008
  22   1.0000      -2.247949       -61.1698
  23   1.0000      -2.247575       -61.1596
  24   1.0000      -2.247334       -61.1531
  25   1.0000      -2.247157       -61.1482
  26   1.0000      -2.247060       -61.1456
  27   1.0000      -2.247018       -61.1445
  28   1.0000      -2.246755       -61.1373
  29   1.0000      -2.245404       -61.1006
  30   1.0000      -2.245312       -61.0980
  31   1.0000      -2.245145       -61.0935
  32   1.0000      -2.244899       -61.0868
  33   1.0000      -2.244748       -61.0827
  34   1.0000      -2.244416       -61.0737
  35   1.0000      -2.244289       -61.0702
  36   1.0000      -2.243831       -61.0578
  37   1.0000      -2.243361       -61.0450
  38   1.0000      -2.243240       -61.0417
  39   1.0000      -2.243038       -61.0362
  40   1.0000      -2.242842       -61.0308
  41   1.0000      -2.242764       -61.0287
  42   1.0000      -2.242699       -61.0269
  43   1.0000      -2.242565       -61.0233
  44   1.0000      -2.242212       -61.0137
  45   1.0000      -2.241844       -61.0037
  46   1.0000      -2.241752       -61.0012
  47   1.0000      -2.241381       -60.9911
  48   1.0000      -2.241233       -60.9870
  49   1.0000      -2.239736       -60.9463
  50   1.0000      -2.234327       -60.7991
  51   1.0000      -2.234214       -60.7961
  52   1.0000      -2.233747       -60.7834
  53   1.0000      -2.229429       -60.6658
  54   1.0000      -2.227383       -60.6102
  55   1.0000      -2.226649       -60.5902
  56   1.0000      -2.225911       -60.5701
  57   1.0000      -2.225211       -60.5511
  58   1.0000      -2.224010       -60.5184
  59   1.0000      -2.223248       -60.4976
  60   1.0000      -2.221522       -60.4507
  61   1.0000      -2.220539       -60.4239
  62   1.0000      -2.059800       -56.0500
  63   1.0000      -2.058812       -56.0231
  64   1.0000      -2.042485       -55.5788
  65   1.0000      -0.435757       -11.8576
  66   1.0000      -0.388614       -10.5747
  67   1.0000      -0.384791       -10.4707
  68   1.0000      -0.384131       -10.4527
  69   1.0000      -0.370216       -10.0741
  70   1.0000      -0.369450       -10.0532
  71   1.0000      -0.368659       -10.0317
  72   1.0000      -0.363992        -9.9047
  73   1.0000      -0.361422        -9.8348
  74   1.0000      -0.360092        -9.7986
  75   1.0000      -0.356755        -9.7078
  76   1.0000      -0.354919        -9.6578
  77   1.0000      -0.351391        -9.5618
  78   1.0000      -0.350505        -9.5377
  79   1.0000      -0.347530        -9.4568
  80   1.0000      -0.346085        -9.4175
  81   1.0000      -0.345555        -9.4030
  82   1.0000      -0.343708        -9.3528
  83   1.0000      -0.341868        -9.3027
  84   1.0000      -0.339528        -9.2390
  85   1.0000      -0.339007        -9.2249
  86   1.0000      -0.338317        -9.2061
  87   1.0000      -0.333607        -9.0779
  88   1.0000      -0.332946        -9.0599
  89   1.0000      -0.325522        -8.8579
  90   1.0000      -0.324552        -8.8315
  91   1.0000      -0.323188        -8.7944
  92   1.0000      -0.318900        -8.6777
  93   1.0000      -0.316737        -8.6188
  94   1.0000      -0.313375        -8.5274
  95   1.0000      -0.312926        -8.5152
  96   1.0000      -0.309593        -8.4245
  97   1.0000      -0.306016        -8.3271
  98   1.0000      -0.304415        -8.2836
  99   1.0000      -0.302391        -8.2285
 100   1.0000      -0.300485        -8.1766
 101   1.0000      -0.297425        -8.0934
 102   1.0000      -0.296272        -8.0620
 103   1.0000      -0.295006        -8.0275
 104   1.0000      -0.293518        -7.9870
 105   1.0000      -0.287119        -7.8129
 106   1.0000      -0.286139        -7.7862
 107   1.0000      -0.282629        -7.6907
 108   1.0000      -0.281498        -7.6599
 109   1.0000      -0.280743        -7.6394
 110   1.0000      -0.279874        -7.6158
 111   1.0000      -0.277068        -7.5394
 112   1.0000      -0.276188        -7.5155
 113   1.0000      -0.275291        -7.4910
 114   1.0000      -0.274080        -7.4581
 115   1.0000      -0.272548        -7.4164
 116   1.0000      -0.267809        -7.2875
 117   1.0000      -0.265731        -7.2309
 118   1.0000      -0.264524        -7.1981
 119   1.0000      -0.264388        -7.1944
 120   1.0000      -0.262877        -7.1533
 121   1.0000      -0.261573        -7.1178
 122   1.0000      -0.260015        -7.0754
 123   1.0000      -0.258794        -7.0421
 124   1.0000      -0.256681        -6.9846
 125   1.0000      -0.255106        -6.9418
 126   1.0000      -0.254585        -6.9276
 127   1.0000      -0.254528        -6.9260
 128   1.0000      -0.252893        -6.8816
 129   1.0000      -0.252221        -6.8633
 130   1.0000      -0.249977        -6.8022
 131   1.0000      -0.247488        -6.7345
 132   1.0000      -0.246913        -6.7188
 133   1.0000      -0.244077        -6.6417
 134   1.0000      -0.243381        -6.6227
 135   1.0000      -0.240958        -6.5568
 136   1.0000      -0.240514        -6.5447
 137   1.0000      -0.236698        -6.4409
 138   1.0000      -0.233110        -6.3432
 139   1.0000      -0.217597        -5.9211
 140   1.0000      -0.209363        -5.6971
 141   1.0000      -0.206736        -5.6256
 142   1.0000      -0.203223        -5.5300
 143   1.0000      -0.200967        -5.4686
 144   1.0000      -0.172800        -4.7021
 145   0.0000      -0.156835        -4.2677
 146   0.0000      -0.156250        -4.2518
 147   0.0000      -0.149731        -4.0744
 148   0.0000      -0.146728        -3.9927
 149   0.0000      -0.139022        -3.7830

MULLIKEN ATOMIC CHARGES AND SPIN POPULATIONS
--------------------------------------------
   0 Au:    0.042543   -0.105461
   1 Au:    0.110607   -0.063633
   2 Au:    0.098425   -0.085589
   3 Au:    0.192485   -0.011800
   4 Au:    0.050197   -0.103757
   5 Au:    0.313726   -0.065064
   6 Au:    0.201572   -0.014402
   7 Au:    0.103428    0.019539
   8 Au:    0.314989   -0.070514
   9 Au:    0.277066    0.002779
  10 Au:    0.086316   -0.081580
  11 Au:    0.346635   -0.015215
  12 Au:    0.342921   -0.104291
  13 Au:    0.345315   -0.103910
  14 Fe:   -2.826226    2.802899
Sum of atomic charges         :   -0.0000000

LOEWDIN ATOMIC CHARGES AND SPIN POPULATIONS
-------------------------------------------
   0 Au:    0.038184   -0.061245
   1 Au:    0.051253   -0.088035
   2 Au:    0.048971   -0.082512
   3 Au:    0.009600   -0.036077
   4 Au:    0.040245   -0.060332
   5 Au:    0.085905   -0.080918
   6 Au:    0.011273   -0.036456
   7 Au:   -0.033644   -0.018016
   8 Au:    0.085803   -0.083175
   9 Au:    0.045236   -0.030726
  10 Au:    0.047209   -0.081925
  11 Au:    0.081994   -0.056334
  12 Au:    0.096156   -0.084051
  13 Au:    0.097348   -0.084813
  14 Fe:   -0.705533    2.884615

  Mayer bond orders larger than 0.100000
B(  0-Au,  1-Au) :   0.1953 B(  0-Au,  6-Au) :   0.3192 B(  0-Au,  7-Au) :   0.2160
B(  0-Au,  8-Au) :   0.1332 B(  0-Au, 10-Au) :   0.1955 B(  0-Au, 13-Au) :   0.1055
B(  0-Au, 14-Fe) :   0.5250 B(  1-Au,  4-Au) :   0.1949 B(  1-Au,  5-Au) :   0.1954
B(  1-Au,  7-Au) :   0.3790 B(  1-Au,  8-Au) :   0.1966 B(  1-Au, 14-Fe) :   0.4313
B(  2-Au,  3-Au) :   0.3489 B(  2-Au,  4-Au) :   0.1947 B(  2-Au, 10-Au) :   0.1535
B(  2-Au, 11-Au) :   0.1725 B(  2-Au, 12-Au) :   0.1563 B(  2-Au, 14-Fe) :   0.5096
B(  3-Au,  4-Au) :   0.3268 B(  3-Au,  6-Au) :   0.2937 B(  3-Au,  7-Au) :   0.2849
B(  3-Au, 14-Fe) :   0.1094 B(  4-Au,  5-Au) :   0.1382 B(  4-Au,  7-Au) :   0.2034
B(  4-Au, 14-Fe) :   0.5282 B(  5-Au,  8-Au) :   0.1249 B(  5-Au,  9-Au) :   0.1678
B(  5-Au, 12-Au) :   0.2419 B(  5-Au, 14-Fe) :   0.4926 B(  6-Au,  7-Au) :   0.2825
B(  6-Au, 10-Au) :   0.3538 B(  6-Au, 14-Fe) :   0.1073 B(  7-Au, 14-Fe) :   0.1360
B(  8-Au,  9-Au) :   0.1759 B(  8-Au, 13-Au) :   0.2395 B(  8-Au, 14-Fe) :   0.4932
B(  9-Au, 11-Au) :   0.1909 B(  9-Au, 12-Au) :   0.1758 B(  9-Au, 13-Au) :   0.1740
B(  9-Au, 14-Fe) :   0.4022 B( 10-Au, 11-Au) :   0.1738 B( 10-Au, 13-Au) :   0.1561
B( 10-Au, 14-Fe) :   0.5096 B( 11-Au, 12-Au) :   0.1568 B( 11-Au, 13-Au) :   0.1525
B( 11-Au, 14-Fe) :   0.4699 B( 12-Au, 14-Fe) :   0.5110 B( 13-Au, 14-Fe) :   0.5117

FINAL SINGLE POINT ENERGY     -3165.060552837378

DIPOLE MOMENT
-------------
                                X             Y             Z
Electronic contribution:    -14.32183       5.08689     -17.04848
Nuclear contribution   :     14.63372      -5.22761      17.44515
                        -----------------------------------------
Total Dipole Moment    :      0.31189      -0.14072       0.39667
                        -----------------------------------------
Magnitude (a.u.)       :      0.52385
Magnitude (Debye)      :      1.33153

Rotational constants in cm-1:     0.001292     0.000977     0.000932
Rotational constants in MHz :    38.737745    29.275774    27.945946

                             ****ORCA TERMINATED NORMALLY****
TOTAL RUN TIME: 0 days 3 hours 58 minutes 31 seconds 404 msec
