                         Program Version 5.0.3 -  RELEASE  -
|  1> %pal nprocs 1 end
|  2>
|  3> !PBE def2-TZVP OPT UNO
|  4> !SLOWCONV KDIIS
|  5>
|  6> %geom maxiter 300 end
|  7>
|  8> *xyzfile 0 3 2.xyz                           ****END OF INPUT****
 Total Charge           Charge          ....    0
 Multiplicity           Mult            ....    3
 Number of Electrons    NEL             ....  328
FINAL SINGLE POINT ENERGY     -3217.495803946947
FINAL SINGLE POINT ENERGY     -3217.498227062759
FINAL SINGLE POINT ENERGY     -3217.499270070177
FINAL SINGLE POINT ENERGY     -3217.500253304870
FINAL SINGLE POINT ENERGY     -3217.500943172071
FINAL SINGLE POINT ENERGY     -3217.501320463858
FINAL SINGLE POINT ENERGY     -3217.501763764568
FINAL SINGLE POINT ENERGY     -3217.502456285284
FINAL SINGLE POINT ENERGY     -3217.502921881519
FINAL SINGLE POINT ENERGY     -3217.503096902291
FINAL SINGLE POINT ENERGY     -3217.503656971336
FINAL SINGLE POINT ENERGY     -3217.503730163568
FINAL SINGLE POINT ENERGY     -3217.503781545484
FINAL SINGLE POINT ENERGY     -3217.503817257911
FINAL SINGLE POINT ENERGY     -3217.503857910513
FINAL SINGLE POINT ENERGY     -3217.503889370660
FINAL SINGLE POINT ENERGY     -3217.503905425813
FINAL SINGLE POINT ENERGY     -3217.503912452747
FINAL SINGLE POINT ENERGY     -3217.503916657587
                    ***********************HURRAY********************

CARTESIAN COORDINATES (ANGSTROEM)
---------------------------------
  Au     4.706264    6.277886    8.543179
  Au     7.253466    6.820951    9.668588
  Au     6.948864    4.783985    7.656462
  Au     9.266552    6.292585    7.439617
  Au     7.736130    5.863181    5.120599
  Au     4.964496    5.826192    5.748648
  Au     4.208957    8.472524    6.458023
  Au     5.304684    8.953190    8.957899
  Au     9.159297   10.865312    6.838922
  Au    10.780331    8.558310    7.237158
  Au     8.774484    8.463478    5.382875
  Au     6.180687    8.170277    4.444116
  Au     6.502343   10.146302    6.511577
  Au     7.962078    9.509738    8.913016
  Au     9.865939    7.732555    9.805527
  Au    10.562413   10.461343    9.302699
  Cr     6.736383    7.488870    7.077138

 Multiplicity           Mult            ....    3
 Number of Electrons    NEL             ....  328
 Basis Dimension        Dim             ....  685

ORBITAL ENERGIES
----------------
                 SPIN UP ORBITALS
  NO   OCC          E(Eh)            E(eV)
   0   1.0000    -214.502484     -5836.9093
   1   1.0000     -24.303070      -661.3202
   2   1.0000     -20.669329      -562.4410
   3   1.0000     -20.668293      -562.4129
   4   1.0000     -20.662258      -562.2486
   5   1.0000      -4.034919      -109.7957
   6   1.0000      -4.034910      -109.7955
   7   1.0000      -4.033963      -109.7697
   8   1.0000      -4.032888      -109.7404
   9   1.0000      -4.031959      -109.7152
  10   1.0000      -4.031718      -109.7086
  11   1.0000      -4.031689      -109.7078
  12   1.0000      -4.029270      -109.6420
  13   1.0000      -4.029213      -109.6405
  14   1.0000      -4.028315      -109.6160
  15   1.0000      -4.028284      -109.6152
  16   1.0000      -4.023580      -109.4872
  17   1.0000      -4.021408      -109.4281
  18   1.0000      -4.021393      -109.4277
  19   1.0000      -4.019110      -109.3656
  20   1.0000      -4.009841      -109.1133
  21   1.0000      -2.804518       -76.3148
  22   1.0000      -2.251366       -61.2628
  23   1.0000      -2.250906       -61.2503
  24   1.0000      -2.250850       -61.2487
  25   1.0000      -2.249733       -61.2184
  26   1.0000      -2.249258       -61.2054
  27   1.0000      -2.248873       -61.1950
  28   1.0000      -2.248112       -61.1742
  29   1.0000      -2.247586       -61.1599
  30   1.0000      -2.247193       -61.1492
  31   1.0000      -2.247092       -61.1465
  32   1.0000      -2.245427       -61.1012
  33   1.0000      -2.245152       -61.0937
  34   1.0000      -2.245049       -61.0909
  35   1.0000      -2.244727       -61.0821
  36   1.0000      -2.244665       -61.0804
  37   1.0000      -2.243841       -61.0580
  38   1.0000      -2.243761       -61.0558
  39   1.0000      -2.243499       -61.0487
  40   1.0000      -2.243238       -61.0416
  41   1.0000      -2.243062       -61.0368
  42   1.0000      -2.243011       -61.0354
  43   1.0000      -2.242430       -61.0196
  44   1.0000      -2.242111       -61.0109
  45   1.0000      -2.241880       -61.0047
  46   1.0000      -2.241781       -61.0020
  47   1.0000      -2.241515       -60.9947
  48   1.0000      -2.241239       -60.9872
  49   1.0000      -2.240804       -60.9754
  50   1.0000      -2.240053       -60.9549
  51   1.0000      -2.240044       -60.9547
  52   1.0000      -2.239934       -60.9517
  53   1.0000      -2.239654       -60.9441
  54   1.0000      -2.239091       -60.9288
  55   1.0000      -2.237720       -60.8914
  56   1.0000      -2.236256       -60.8516
  57   1.0000      -2.236116       -60.8478
  58   1.0000      -2.235430       -60.8292
  59   1.0000      -2.235045       -60.8187
  60   1.0000      -2.234419       -60.8016
  61   1.0000      -2.234123       -60.7936
  62   1.0000      -2.233771       -60.7840
  63   1.0000      -2.233743       -60.7832
  64   1.0000      -2.233147       -60.7670
  65   1.0000      -2.232236       -60.7422
  66   1.0000      -2.227870       -60.6234
  67   1.0000      -2.223941       -60.5165
  68   1.0000      -2.222161       -60.4681
  69   1.0000      -2.221372       -60.4466
  70   1.0000      -1.797651       -48.9166
  71   1.0000      -1.796458       -48.8841
  72   1.0000      -1.788149       -48.6580
  73   1.0000      -0.437245       -11.8980
  74   1.0000      -0.399068       -10.8592
  75   1.0000      -0.390787       -10.6339
  76   1.0000      -0.389245       -10.5919
  77   1.0000      -0.379251       -10.3200
  78   1.0000      -0.376413       -10.2427
  79   1.0000      -0.371939       -10.1210
  80   1.0000      -0.370139       -10.0720
  81   1.0000      -0.368649       -10.0315
  82   1.0000      -0.366638        -9.9767
  83   1.0000      -0.362938        -9.8760
  84   1.0000      -0.360202        -9.8016
  85   1.0000      -0.357063        -9.7162
  86   1.0000      -0.354903        -9.6574
  87   1.0000      -0.353685        -9.6243
  88   1.0000      -0.351374        -9.5614
  89   1.0000      -0.350589        -9.5400
  90   1.0000      -0.348103        -9.4724
  91   1.0000      -0.346032        -9.4160
  92   1.0000      -0.345923        -9.4130
  93   1.0000      -0.342675        -9.3247
  94   1.0000      -0.341943        -9.3047
  95   1.0000      -0.338262        -9.2046
  96   1.0000      -0.336733        -9.1630
  97   1.0000      -0.336678        -9.1615
  98   1.0000      -0.333554        -9.0765
  99   1.0000      -0.330917        -9.0047
 100   1.0000      -0.330114        -8.9829
 101   1.0000      -0.327705        -8.9173
 102   1.0000      -0.324239        -8.8230
 103   1.0000      -0.323492        -8.8027
 104   1.0000      -0.322738        -8.7821
 105   1.0000      -0.319693        -8.6993
 106   1.0000      -0.315203        -8.5771
 107   1.0000      -0.312042        -8.4911
 108   1.0000      -0.311699        -8.4818
 109   1.0000      -0.308115        -8.3842
 110   1.0000      -0.305117        -8.3026
 111   1.0000      -0.305028        -8.3002
 112   1.0000      -0.299448        -8.1484
 113   1.0000      -0.298680        -8.1275
 114   1.0000      -0.296977        -8.0812
 115   1.0000      -0.295385        -8.0378
 116   1.0000      -0.292311        -7.9542
 117   1.0000      -0.291002        -7.9186
 118   1.0000      -0.288088        -7.8393
 119   1.0000      -0.287443        -7.8217
 120   1.0000      -0.285620        -7.7721
 121   1.0000      -0.282384        -7.6841
 122   1.0000      -0.279971        -7.6184
 123   1.0000      -0.279899        -7.6164
 124   1.0000      -0.277495        -7.5510
 125   1.0000      -0.275978        -7.5097
 126   1.0000      -0.275944        -7.5088
 127   1.0000      -0.275055        -7.4846
 128   1.0000      -0.273988        -7.4556
 129   1.0000      -0.273781        -7.4500
 130   1.0000      -0.270922        -7.3722
 131   1.0000      -0.268890        -7.3169
 132   1.0000      -0.267755        -7.2860
 133   1.0000      -0.266734        -7.2582
 134   1.0000      -0.266220        -7.2442
 135   1.0000      -0.263699        -7.1756
 136   1.0000      -0.262709        -7.1487
 137   1.0000      -0.262120        -7.1327
 138   1.0000      -0.261185        -7.1072
 139   1.0000      -0.260402        -7.0859
 140   1.0000      -0.259343        -7.0571
 141   1.0000      -0.258957        -7.0466
 142   1.0000      -0.257534        -7.0078
 143   1.0000      -0.255982        -6.9656
 144   1.0000      -0.255735        -6.9589
 145   1.0000      -0.253637        -6.9018
 146   1.0000      -0.249936        -6.8011
 147   1.0000      -0.249038        -6.7767
 148   1.0000      -0.248576        -6.7641
 149   1.0000      -0.246370        -6.7041
 150   1.0000      -0.245697        -6.6858
 151   1.0000      -0.244830        -6.6622
 152   1.0000      -0.243184        -6.6174
 153   1.0000      -0.241276        -6.5654
 154   1.0000      -0.240984        -6.5575
 155   1.0000      -0.239559        -6.5187
 156   1.0000      -0.234262        -6.3746
 157   1.0000      -0.228631        -6.2214
 158   1.0000      -0.222628        -6.0580
 159   1.0000      -0.220025        -5.9872
 160   1.0000      -0.218637        -5.9494
 161   1.0000      -0.215976        -5.8770
 162   1.0000      -0.204171        -5.5558
 163   1.0000      -0.198604        -5.4043
 164   1.0000      -0.193401        -5.2627
 165   0.0000      -0.181569        -4.9408
 166   0.0000      -0.179211        -4.8766
 167   0.0000      -0.161129        -4.3845
 168   0.0000      -0.143123        -3.8946
 169   0.0000      -0.138308        -3.7636

                 SPIN DOWN ORBITALS
  NO   OCC          E(Eh)            E(eV)
   0   1.0000    -214.502089     -5836.8986
   1   1.0000     -24.257966      -660.0928
   2   1.0000     -20.637064      -561.5631
   3   1.0000     -20.635305      -561.5152
   4   1.0000     -20.624145      -561.2115
   5   1.0000      -4.034490      -109.7841
   6   1.0000      -4.034455      -109.7831
   7   1.0000      -4.034364      -109.7806
   8   1.0000      -4.033015      -109.7439
   9   1.0000      -4.032298      -109.7244
  10   1.0000      -4.031167      -109.6936
  11   1.0000      -4.031136      -109.6928
  12   1.0000      -4.029209      -109.6404
  13   1.0000      -4.029150      -109.6387
  14   1.0000      -4.028211      -109.6132
  15   1.0000      -4.028179      -109.6123
  16   1.0000      -4.023717      -109.4909
  17   1.0000      -4.021782      -109.4382
  18   1.0000      -4.021764      -109.4378
  19   1.0000      -4.019529      -109.3769
  20   1.0000      -4.010128      -109.1211
  21   1.0000      -2.683125       -73.0116
  22   1.0000      -2.251957       -61.2789
  23   1.0000      -2.250405       -61.2366
  24   1.0000      -2.250295       -61.2336
  25   1.0000      -2.249352       -61.2080
  26   1.0000      -2.249320       -61.2071
  27   1.0000      -2.248387       -61.1817
  28   1.0000      -2.247539       -61.1587
  29   1.0000      -2.247264       -61.1512
  30   1.0000      -2.247095       -61.1466
  31   1.0000      -2.246894       -61.1411
  32   1.0000      -2.245706       -61.1088
  33   1.0000      -2.245453       -61.1019
  34   1.0000      -2.244961       -61.0885
  35   1.0000      -2.244690       -61.0811
  36   1.0000      -2.244529       -61.0767
  37   1.0000      -2.243616       -61.0519
  38   1.0000      -2.243343       -61.0445
  39   1.0000      -2.243102       -61.0379
  40   1.0000      -2.243070       -61.0370
  41   1.0000      -2.242981       -61.0346
  42   1.0000      -2.242688       -61.0267
  43   1.0000      -2.241740       -61.0008
  44   1.0000      -2.241736       -61.0007
  45   1.0000      -2.241628       -60.9978
  46   1.0000      -2.241449       -60.9929
  47   1.0000      -2.241376       -60.9909
  48   1.0000      -2.241189       -60.9858
  49   1.0000      -2.240863       -60.9770
  50   1.0000      -2.240126       -60.9569
  51   1.0000      -2.240112       -60.9566
  52   1.0000      -2.240011       -60.9538
  53   1.0000      -2.239708       -60.9455
  54   1.0000      -2.239131       -60.9299
  55   1.0000      -2.237351       -60.8814
  56   1.0000      -2.236659       -60.8626
  57   1.0000      -2.236550       -60.8596
  58   1.0000      -2.235798       -60.8392
  59   1.0000      -2.235403       -60.8284
  60   1.0000      -2.234785       -60.8116
  61   1.0000      -2.234759       -60.8109
  62   1.0000      -2.234287       -60.7980
  63   1.0000      -2.234257       -60.7972
  64   1.0000      -2.233442       -60.7750
  65   1.0000      -2.232513       -60.7498
  66   1.0000      -2.228100       -60.6297
  67   1.0000      -2.224171       -60.5228
  68   1.0000      -2.222519       -60.4778
  69   1.0000      -2.221666       -60.4546
  70   1.0000      -1.685277       -45.8587
  71   1.0000      -1.681626       -45.7594
  72   1.0000      -1.656494       -45.0755
  73   1.0000      -0.432344       -11.7647
  74   1.0000      -0.398375       -10.8403
  75   1.0000      -0.390656       -10.6303
  76   1.0000      -0.389237       -10.5917
  77   1.0000      -0.376334       -10.2406
  78   1.0000      -0.375251       -10.2111
  79   1.0000      -0.369087       -10.0434
  80   1.0000      -0.368286       -10.0216
  81   1.0000      -0.366121        -9.9627
  82   1.0000      -0.364208        -9.9106
  83   1.0000      -0.363129        -9.8812
  84   1.0000      -0.358480        -9.7547
  85   1.0000      -0.356271        -9.6946
  86   1.0000      -0.354499        -9.6464
  87   1.0000      -0.354296        -9.6409
  88   1.0000      -0.351995        -9.5783
  89   1.0000      -0.350531        -9.5384
  90   1.0000      -0.348611        -9.4862
  91   1.0000      -0.346345        -9.4245
  92   1.0000      -0.345855        -9.4112
  93   1.0000      -0.343475        -9.3464
  94   1.0000      -0.342663        -9.3243
  95   1.0000      -0.338454        -9.2098
  96   1.0000      -0.337936        -9.1957
  97   1.0000      -0.337481        -9.1833
  98   1.0000      -0.333408        -9.0725
  99   1.0000      -0.331549        -9.0219
 100   1.0000      -0.330812        -9.0019
 101   1.0000      -0.327706        -8.9173
 102   1.0000      -0.325084        -8.8460
 103   1.0000      -0.323582        -8.8051
 104   1.0000      -0.323449        -8.8015
 105   1.0000      -0.319984        -8.7072
 106   1.0000      -0.316119        -8.6020
 107   1.0000      -0.312093        -8.4925
 108   1.0000      -0.311673        -8.4811
 109   1.0000      -0.307775        -8.3750
 110   1.0000      -0.305039        -8.3005
 111   1.0000      -0.304045        -8.2735
 112   1.0000      -0.300177        -8.1682
 113   1.0000      -0.296785        -8.0759
 114   1.0000      -0.296225        -8.0607
 115   1.0000      -0.294096        -8.0027
 116   1.0000      -0.291100        -7.9212
 117   1.0000      -0.289534        -7.8786
 118   1.0000      -0.287269        -7.8170
 119   1.0000      -0.287104        -7.8125
 120   1.0000      -0.284777        -7.7492
 121   1.0000      -0.282491        -7.6870
 122   1.0000      -0.280551        -7.6342
 123   1.0000      -0.280225        -7.6253
 124   1.0000      -0.277146        -7.5415
 125   1.0000      -0.276803        -7.5322
 126   1.0000      -0.276396        -7.5211
 127   1.0000      -0.275539        -7.4978
 128   1.0000      -0.274339        -7.4651
 129   1.0000      -0.274192        -7.4611
 130   1.0000      -0.271979        -7.4009
 131   1.0000      -0.269931        -7.3452
 132   1.0000      -0.268464        -7.3053
 133   1.0000      -0.267675        -7.2838
 134   1.0000      -0.267005        -7.2656
 135   1.0000      -0.264739        -7.2039
 136   1.0000      -0.263668        -7.1748
 137   1.0000      -0.262970        -7.1558
 138   1.0000      -0.262068        -7.1312
 139   1.0000      -0.260973        -7.1014
 140   1.0000      -0.260357        -7.0847
 141   1.0000      -0.260159        -7.0793
 142   1.0000      -0.258033        -7.0214
 143   1.0000      -0.256942        -6.9917
 144   1.0000      -0.256510        -6.9800
 145   1.0000      -0.254763        -6.9324
 146   1.0000      -0.250824        -6.8253
 147   1.0000      -0.250035        -6.8038
 148   1.0000      -0.249820        -6.7979
 149   1.0000      -0.247562        -6.7365
 150   1.0000      -0.247045        -6.7224
 151   1.0000      -0.245827        -6.6893
 152   1.0000      -0.243415        -6.6236
 153   1.0000      -0.241432        -6.5697
 154   1.0000      -0.241023        -6.5586
 155   1.0000      -0.240836        -6.5535
 156   1.0000      -0.234305        -6.3758
 157   1.0000      -0.228722        -6.2238
 158   1.0000      -0.219861        -5.9827
 159   1.0000      -0.211681        -5.7601
 160   1.0000      -0.204551        -5.5661
 161   1.0000      -0.203598        -5.5402
 162   1.0000      -0.180527        -4.9124
 163   0.0000      -0.152327        -4.1450
 164   0.0000      -0.143372        -3.9013
 165   0.0000      -0.139646        -3.7999
 166   0.0000      -0.127722        -3.4755
 167   0.0000      -0.119080        -3.2403

MULLIKEN ATOMIC CHARGES AND SPIN POPULATIONS
--------------------------------------------
   0 Au:    0.607405   -0.019208
   1 Au:    0.384415   -0.017861
   2 Au:    0.658167   -0.031232
   3 Au:    0.091080   -0.016371
   4 Au:    0.627582   -0.059358
   5 Au:    0.560427   -0.125397
   6 Au:    0.607252   -0.019190
   7 Au:    0.678942   -0.054101
   8 Au:    0.346365    0.011237
   9 Au:    0.221161    0.060225
  10 Au:    0.091188   -0.016804
  11 Au:    0.657729   -0.031309
  12 Au:    0.384885   -0.017980
  13 Au:   -0.660077   -0.000851
  14 Au:    0.346040    0.010758
  15 Au:    0.424533   -0.215747
  16 Cr:   -6.027092    2.543191
Sum of atomic charges         :   -0.0000000

LOEWDIN ATOMIC CHARGES AND SPIN POPULATIONS
-------------------------------------------
   0 Au:    0.130639   -0.067692
   1 Au:    0.105427   -0.060382
   2 Au:    0.146551   -0.087882
   3 Au:    0.054209   -0.032804
   4 Au:    0.147913   -0.108962
   5 Au:    0.116190   -0.119603
   6 Au:    0.130493   -0.067730
   7 Au:    0.155437   -0.109824
   8 Au:    0.066100   -0.028400
   9 Au:    0.006319    0.000967
  10 Au:    0.054151   -0.032990
  11 Au:    0.146280   -0.087929
  12 Au:    0.105276   -0.060404
  13 Au:   -0.060023   -0.050467
  14 Au:    0.065789   -0.028893
  15 Au:    0.058510   -0.137594
  16 Cr:   -1.429260    3.080588

  Mayer bond orders larger than 0.100000
B(  0-Au,  1-Au) :   0.2328 B(  0-Au,  2-Au) :   0.1854 B(  0-Au,  5-Au) :   0.1885
B(  0-Au,  6-Au) :   0.1044 B(  0-Au,  7-Au) :   0.1981 B(  0-Au, 16-Cr) :   0.4505
B(  1-Au,  2-Au) :   0.1781 B(  1-Au,  3-Au) :   0.1180 B(  1-Au, 13-Au) :   0.2610
B(  1-Au, 14-Au) :   0.2699 B(  1-Au, 16-Cr) :   0.5604 B(  2-Au,  3-Au) :   0.2252
B(  2-Au,  4-Au) :   0.1570 B(  2-Au,  5-Au) :   0.1279 B(  2-Au, 16-Cr) :   0.5334
B(  3-Au,  4-Au) :   0.1823 B(  3-Au,  9-Au) :   0.2972 B(  3-Au, 10-Au) :   0.1548
B(  3-Au, 14-Au) :   0.2185 B(  3-Au, 16-Cr) :   0.5438 B(  4-Au,  5-Au) :   0.1739
B(  4-Au, 10-Au) :   0.1820 B(  4-Au, 11-Au) :   0.1579 B(  4-Au, 16-Cr) :   0.6325
B(  5-Au,  6-Au) :   0.1888 B(  5-Au, 11-Au) :   0.1271 B(  5-Au, 16-Cr) :   0.4868
B(  6-Au,  7-Au) :   0.1985 B(  6-Au, 11-Au) :   0.1863 B(  6-Au, 12-Au) :   0.2315
B(  6-Au, 16-Cr) :   0.4508 B(  7-Au, 13-Au) :   0.2875 B(  7-Au, 16-Cr) :   0.5598
B(  8-Au,  9-Au) :   0.1556 B(  8-Au, 10-Au) :   0.2189 B(  8-Au, 12-Au) :   0.2701
B(  8-Au, 13-Au) :   0.2869 B(  8-Au, 15-Au) :   0.1914 B(  8-Au, 16-Cr) :   0.3509
B(  9-Au, 10-Au) :   0.2972 B(  9-Au, 13-Au) :   0.1674 B(  9-Au, 14-Au) :   0.1552
B(  9-Au, 15-Au) :   0.2155 B(  9-Au, 16-Cr) :   0.2726 B( 10-Au, 11-Au) :   0.2249
B( 10-Au, 12-Au) :   0.1193 B( 10-Au, 16-Cr) :   0.5439 B( 11-Au, 12-Au) :   0.1784
B( 11-Au, 16-Cr) :   0.5325 B( 12-Au, 13-Au) :   0.2607 B( 12-Au, 16-Cr) :   0.5603
B( 13-Au, 14-Au) :   0.2862 B( 13-Au, 15-Au) :   0.4372 B( 13-Au, 16-Cr) :   0.3786
B( 14-Au, 15-Au) :   0.1928 B( 14-Au, 16-Cr) :   0.3511 B( 15-Au, 16-Cr) :   0.1414

FINAL SINGLE POINT ENERGY     -3217.503919951541

DIPOLE MOMENT
-------------
                                X             Y             Z
Electronic contribution:     26.91638      16.03698      10.43027
Nuclear contribution   :    -27.34003     -16.26939     -10.57593
                        -----------------------------------------
Total Dipole Moment    :     -0.42365      -0.23241      -0.14566
                        -----------------------------------------
Magnitude (a.u.)       :      0.50469
Magnitude (Debye)      :      1.28282

Rotational constants in cm-1:     0.001106     0.000719     0.000694
Rotational constants in MHz :    33.147803    21.553682    20.807187

                             ****ORCA TERMINATED NORMALLY****
TOTAL RUN TIME: 0 days 5 hours 33 minutes 52 seconds 914 msec
