                         Program Version 5.0.3 -  RELEASE  -
|  1> !SC-NEVPT2 def2-TZVP def2-TZVP/C
|  2> !MOREAD RIJCOSX def2/J
|  3> %maxcore 4000
|  4> %moinp "casscf.gbw"
|  5> %pal nprocs 2 end
|  6>
|  7> %casscf
|  8>  mult 5,3
|  9>  bweight 1,1
| 10>  nroots 5,45
| 11>  nel 6
| 12>  norb 5
| 13>  ptsettings
| 14>   d4tpre 1e-14 # default = 1e-10
| 15>   d3tpre 1e-14
| 16>  end
| 17>  rel
| 18>    dosoc true
| 19>    gtensor true
| 20>  end
| 21> end
| 22>
| 23>
| 24> *xyzfile 0 5 pbe.xyz
| 25>
| 26>
| 27>                          ****END OF INPUT****

CARTESIAN COORDINATES (ANGSTROEM)
---------------------------------
  Au     7.722206    9.747631    8.327318
  Au     4.837493    8.971830    8.873584
  Au     7.152397    5.990227    9.613166
  Au     4.735771    6.841996   10.647861
  Au     3.796102    8.012834    6.492862
  Au     6.869665    8.652049   10.737040
  Au     5.576466   10.329929    6.609694
  Au     4.812886    5.902193    8.056915
  Au     5.296595    5.912859    5.316292
  Au     5.709863    8.571842    4.407863
  Au     9.388266    7.617816    6.932962
  Au     8.084259    9.582362    5.541721
  Au     7.938822    6.767410    4.732386
  Au     9.315550    7.918423    9.688873
  Au     7.401721    5.120490    6.952643
  Au     9.631819    5.379527    8.548681
  Fe     6.539907    7.750953    6.935006

 Total Charge           Charge          ....    0
 Multiplicity           Mult            ....    5
 Number of Electrons    NEL             ....  330
 Basis Dimension        Dim             ....  685

ORBITAL ENERGIES
----------------

  NO   OCC          E(Eh)            E(eV)
   0   2.0000    -261.407222     -7113.2521
   1   2.0000     -31.967561      -869.8815
   2   2.0000     -27.448219      -746.9040
   3   2.0000     -27.447616      -746.8876
   4   2.0000     -27.447372      -746.8810
   5   2.0000      -4.723357      -128.5291
   6   2.0000      -4.721708      -128.4842
   7   2.0000      -4.718845      -128.4063
   8   2.0000      -4.718732      -128.4032
   9   2.0000      -4.718314      -128.3918
  10   2.0000      -4.718151      -128.3874
  11   2.0000      -4.716239      -128.3354
  12   2.0000      -4.714402      -128.2854
  13   2.0000      -4.714312      -128.2830
  14   2.0000      -4.714234      -128.2808
  15   2.0000      -4.713706      -128.2665
  16   2.0000      -4.713677      -128.2657
  17   2.0000      -4.711143      -128.1967
  18   2.0000      -4.710984      -128.1924
  19   2.0000      -4.709815      -128.1606
  20   2.0000      -4.709580      -128.1542
  21   2.0000      -4.201112      -114.3181
  22   2.0000      -2.780597       -75.6639
  23   2.0000      -2.780237       -75.6541
  24   2.0000      -2.779895       -75.6448
  25   2.0000      -2.762595       -75.1740
  26   2.0000      -2.760771       -75.1244
  27   2.0000      -2.760273       -75.1109
  28   2.0000      -2.760102       -75.1062
  29   2.0000      -2.757790       -75.0433
  30   2.0000      -2.757673       -75.0401
  31   2.0000      -2.757376       -75.0320
  32   2.0000      -2.757111       -75.0248
  33   2.0000      -2.756968       -75.0209
  34   2.0000      -2.756591       -75.0106
  35   2.0000      -2.755765       -74.9882
  36   2.0000      -2.755346       -74.9768
  37   2.0000      -2.755198       -74.9728
  38   2.0000      -2.754152       -74.9443
  39   2.0000      -2.753923       -74.9381
  40   2.0000      -2.753547       -74.9278
  41   2.0000      -2.753306       -74.9213
  42   2.0000      -2.752707       -74.9050
  43   2.0000      -2.752574       -74.9013
  44   2.0000      -2.752193       -74.8910
  45   2.0000      -2.751476       -74.8715
  46   2.0000      -2.751196       -74.8638
  47   2.0000      -2.750959       -74.8574
  48   2.0000      -2.750649       -74.8490
  49   2.0000      -2.750419       -74.8427
  50   2.0000      -2.750202       -74.8368
  51   2.0000      -2.749887       -74.8282
  52   2.0000      -2.749788       -74.8255
  53   2.0000      -2.748947       -74.8026
  54   2.0000      -2.748502       -74.7905
  55   2.0000      -2.748181       -74.7818
  56   2.0000      -2.748066       -74.7787
  57   2.0000      -2.748030       -74.7777
  58   2.0000      -2.747516       -74.7637
  59   2.0000      -2.747182       -74.7546
  60   2.0000      -2.746906       -74.7471
  61   2.0000      -2.746720       -74.7421
  62   2.0000      -2.746618       -74.7393
  63   2.0000      -2.746240       -74.7290
  64   2.0000      -2.746084       -74.7247
  65   2.0000      -2.745577       -74.7109
  66   2.0000      -2.744116       -74.6712
  67   2.0000      -2.744085       -74.6704
  68   2.0000      -2.743921       -74.6659
  69   2.0000      -2.743638       -74.6582
  70   2.0000      -2.743525       -74.6551
  71   2.0000      -2.743418       -74.6522
  72   2.0000      -2.742489       -74.6269
  73   2.0000      -0.595193       -16.1960
  74   2.0000      -0.561342       -15.2749
  75   2.0000      -0.559393       -15.2219
  76   2.0000      -0.559188       -15.2163
  77   2.0000      -0.555471       -15.1151
  78   2.0000      -0.554197       -15.0805
  79   2.0000      -0.553768       -15.0688
  80   2.0000      -0.552033       -15.0216
  81   2.0000      -0.551361       -15.0033
  82   2.0000      -0.549258       -14.9461
  83   2.0000      -0.549116       -14.9422
  84   2.0000      -0.546909       -14.8821
  85   2.0000      -0.544732       -14.8229
  86   2.0000      -0.544367       -14.8130
  87   2.0000      -0.542579       -14.7643
  88   2.0000      -0.541676       -14.7398
  89   2.0000      -0.540632       -14.7113
  90   2.0000      -0.539422       -14.6784
  91   2.0000      -0.536318       -14.5940
  92   2.0000      -0.536218       -14.5912
  93   2.0000      -0.532601       -14.4928
  94   2.0000      -0.530953       -14.4480
  95   2.0000      -0.530083       -14.4243
  96   2.0000      -0.529205       -14.4004
  97   2.0000      -0.525383       -14.2964
  98   2.0000      -0.522198       -14.2097
  99   2.0000      -0.521544       -14.1919
 100   2.0000      -0.520020       -14.1505
 101   2.0000      -0.516404       -14.0521
 102   2.0000      -0.511538       -13.9196
 103   2.0000      -0.510750       -13.8982
 104   2.0000      -0.504419       -13.7260
 105   2.0000      -0.499787       -13.5999
 106   2.0000      -0.498518       -13.5654
 107   2.0000      -0.498122       -13.5546
 108   2.0000      -0.495289       -13.4775
 109   2.0000      -0.491958       -13.3869
 110   2.0000      -0.486429       -13.2364
 111   2.0000      -0.485958       -13.2236
 112   2.0000      -0.482630       -13.1330
 113   2.0000      -0.475061       -12.9271
 114   2.0000      -0.472044       -12.8450
 115   2.0000      -0.470795       -12.8110
 116   2.0000      -0.468670       -12.7532
 117   2.0000      -0.467515       -12.7217
 118   2.0000      -0.465486       -12.6665
 119   2.0000      -0.463317       -12.6075
 120   2.0000      -0.462534       -12.5862
 121   2.0000      -0.459273       -12.4975
 122   2.0000      -0.456177       -12.4132
 123   2.0000      -0.454103       -12.3568
 124   2.0000      -0.453554       -12.3418
 125   2.0000      -0.452494       -12.3130
 126   2.0000      -0.450696       -12.2641
 127   2.0000      -0.450317       -12.2537
 128   2.0000      -0.449461       -12.2304
 129   2.0000      -0.448274       -12.1981
 130   2.0000      -0.447878       -12.1874
 131   2.0000      -0.446441       -12.1483
 132   2.0000      -0.444385       -12.0923
 133   2.0000      -0.443008       -12.0549
 134   2.0000      -0.441503       -12.0139
 135   2.0000      -0.439818       -11.9681
 136   2.0000      -0.439414       -11.9571
 137   2.0000      -0.438099       -11.9213
 138   2.0000      -0.433760       -11.8032
 139   2.0000      -0.430935       -11.7263
 140   2.0000      -0.429689       -11.6924
 141   2.0000      -0.428591       -11.6626
 142   2.0000      -0.427444       -11.6314
 143   2.0000      -0.426822       -11.6144
 144   2.0000      -0.425285       -11.5726
 145   2.0000      -0.423640       -11.5278
 146   2.0000      -0.421911       -11.4808
 147   2.0000      -0.417496       -11.3606
 148   2.0000      -0.409612       -11.1461
 149   2.0000      -0.407129       -11.0786
 150   2.0000      -0.406320       -11.0565
 151   2.0000      -0.404986       -11.0202
 152   2.0000      -0.400527       -10.8989
 153   2.0000      -0.386215       -10.5094
 154   2.0000      -0.384286       -10.4569
 155   2.0000      -0.373498       -10.1634
 156   2.0000      -0.362610        -9.8671
 157   2.0000      -0.274578        -7.4716
 158   2.0000      -0.253476        -6.8974
 159   2.0000      -0.244572        -6.6551
 160   2.0000      -0.230250        -6.2654
 161   2.0000      -0.228067        -6.2060
 162   1.2000      -0.279347        -7.6014
 163   1.2000      -0.275711        -7.5025
 164   1.2000      -0.282836        -7.6963
 165   1.2000      -0.279121        -7.5953
 166   1.2000      -0.274415        -7.4672
 167   0.0000      -0.034444        -0.9373
 168   0.0000      -0.015641        -0.4256
 169   0.0000      -0.010857        -0.2954
 170   0.0000      -0.008942        -0.2433
 171   0.0000      -0.006008        -0.1635

MULLIKEN ATOMIC CHARGES AND SPIN DENSITIES
------------------------------------------
   0 Au:   -0.148212    0.008101
   1 Au:   -0.313110    0.007585
   2 Au:   -0.698942    0.004083
   3 Au:    0.550235    0.003009
   4 Au:    0.332081    0.005514
   5 Au:    0.242299    0.003250
   6 Au:    0.358726    0.005506
   7 Au:   -0.062556    0.007773
   8 Au:    0.428283    0.004733
   9 Au:    0.174334    0.005537
  10 Au:   -0.311655    0.007615
  11 Au:    0.359467    0.005505
  12 Au:    0.332166    0.005552
  13 Au:    0.239425    0.003257
  14 Au:   -0.061790    0.007762
  15 Au:    0.549636    0.003028
  16 Fe:   -1.970390    2.912190
Sum of atomic charges       :    0.0000000

LOEWDIN ATOMIC CHARGES AND SPIN DENSITIES
-----------------------------------------
   0 Au:   -0.033336    0.010023
   1 Au:   -0.093513    0.008954
   2 Au:   -0.124148    0.005748
   3 Au:    0.138555    0.003894
   4 Au:    0.049349    0.007374
   5 Au:    0.028455    0.003923
   6 Au:    0.049800    0.007296
   7 Au:   -0.042088    0.009165
   8 Au:    0.058863    0.006793
   9 Au:    0.032457    0.007122
  10 Au:   -0.093318    0.008988
  11 Au:    0.050398    0.007299
  12 Au:    0.049655    0.007414
  13 Au:    0.027659    0.003931
  14 Au:   -0.042017    0.009161
  15 Au:    0.137517    0.003907
  16 Fe:   -0.194288    2.889007

  Mayer bond orders larger than 0.100000
B(  0-Au,  1-Au) :   0.1287 B(  0-Au,  5-Au) :   0.2881 B(  0-Au,  6-Au) :   0.1810
B(  0-Au, 10-Au) :   0.1272 B(  0-Au, 11-Au) :   0.1795 B(  0-Au, 13-Au) :   0.2883
B(  0-Au, 16-Fe) :   0.4662 B(  1-Au,  2-Au) :   0.1590 B(  1-Au,  3-Au) :   0.1811
B(  1-Au,  4-Au) :   0.2021 B(  1-Au,  5-Au) :   0.2658 B(  1-Au,  6-Au) :   0.2524
B(  1-Au,  7-Au) :   0.1445 B(  1-Au, 16-Fe) :   0.3898 B(  2-Au,  3-Au) :   0.3148
B(  2-Au,  5-Au) :   0.2360 B(  2-Au,  7-Au) :   0.2772 B(  2-Au, 10-Au) :   0.1579
B(  2-Au, 13-Au) :   0.2373 B(  2-Au, 14-Au) :   0.2772 B(  2-Au, 15-Au) :   0.3140
B(  2-Au, 16-Fe) :   0.1597 B(  3-Au,  5-Au) :   0.1256 B(  3-Au,  7-Au) :   0.2017
B(  4-Au,  7-Au) :   0.1568 B(  4-Au,  8-Au) :   0.1407 B(  4-Au,  9-Au) :   0.1253
B(  4-Au, 16-Fe) :   0.3317 B(  5-Au, 13-Au) :   0.2247 B(  6-Au,  9-Au) :   0.1734
B(  6-Au, 11-Au) :   0.1520 B(  6-Au, 16-Fe) :   0.3394 B(  7-Au,  8-Au) :   0.1849
B(  7-Au, 14-Au) :   0.1508 B(  7-Au, 16-Fe) :   0.4693 B(  8-Au,  9-Au) :   0.1502
B(  8-Au, 12-Au) :   0.1404 B(  8-Au, 14-Au) :   0.1845 B(  8-Au, 16-Fe) :   0.3305
B(  9-Au, 11-Au) :   0.1734 B(  9-Au, 12-Au) :   0.1240 B(  9-Au, 16-Fe) :   0.3737
B( 10-Au, 11-Au) :   0.2536 B( 10-Au, 12-Au) :   0.2012 B( 10-Au, 13-Au) :   0.2662
B( 10-Au, 14-Au) :   0.1442 B( 10-Au, 15-Au) :   0.1821 B( 10-Au, 16-Fe) :   0.3907
B( 11-Au, 16-Fe) :   0.3398 B( 12-Au, 14-Au) :   0.1567 B( 12-Au, 16-Fe) :   0.3331
B( 13-Au, 15-Au) :   0.1254 B( 14-Au, 15-Au) :   0.2019 B( 14-Au, 16-Fe) :   0.4685

FINAL SINGLE POINT ENERGY     -3427.459276126250

DIPOLE MOMENT
-------------
                                X             Y             Z
Electronic contribution:      8.65049      -6.64409      25.22377
Nuclear contribution   :     -8.68665       6.44872     -25.16442
                        -----------------------------------------
Total Dipole Moment    :     -0.03616      -0.19537       0.05935
                        -----------------------------------------
Magnitude (a.u.)       :      0.20737
Magnitude (Debye)      :      0.52708

Rotational constants in cm-1:     0.000949     0.000833     0.000742
Rotational constants in MHz :    28.443922    24.982853    22.258270

                             ****ORCA TERMINATED NORMALLY****
TOTAL RUN TIME: 0 days 18 hours 27 minutes 0 seconds 866 msec
