                         Program Version 5.0.3 -  RELEASE  -
|  1> !CASSCF def2-TZVP def2-TZVP/C
|  2> !MOREAD RIJCOSX
|  3> %maxcore 6000
|  4> %moinp "pbe.qro"
|  5> %pal nprocs 16 end
|  6>
|  7> %casscf
|  8>  mult 6,4
|  9>  bweight 1,1
| 10>  nroots 1,24
| 11>  nel 5
| 12>  norb 5
| 13> end
| 14>
| 15>
| 16> *xyzfile 0 6 pbe.xyz
| 17>
| 18>
| 19>                          ****END OF INPUT****

CARTESIAN COORDINATES (ANGSTROEM)
---------------------------------
  Au    10.200715    8.138489    9.190340
  Au     8.261743    6.085415    9.537576
  Au     5.295542    8.890203    8.582610
  Au     5.594931    6.133895    9.408376
  Au     7.591109    8.722978   10.114483
  Au     9.826736   10.274438    7.547157
  Au     7.181977   10.753991    8.182574
  Au     6.483745    5.945492    6.832938
  Au    10.796544    5.430926    8.833170
  Au     3.936644    6.957619    7.163133
  Au     9.179429    5.710294    6.702737
  Au     7.890487    7.353526    4.900787
  Au     5.623074    8.694726    5.786022
  Au     7.920481   10.136782    5.510692
  Mn     8.011285    8.190130    7.501888

 Total Charge           Charge          ....    0
 Multiplicity           Mult            ....    6
 Number of Electrons    NEL             ....  291
 Basis Dimension        Dim             ....  605

ORBITAL ENERGIES
----------------

  NO   OCC          E(Eh)            E(eV)
   0   2.0000    -240.560616     -6545.9871
   1   2.0000     -29.134844      -792.7994
   2   2.0000     -24.840271      -675.9381
   3   2.0000     -24.839607      -675.9201
   4   2.0000     -24.839389      -675.9141
   5   2.0000      -4.729620      -128.6995
   6   2.0000      -4.722993      -128.5192
   7   2.0000      -4.721371      -128.4750
   8   2.0000      -4.716729      -128.3487
   9   2.0000      -4.715823      -128.3241
  10   2.0000      -4.713975      -128.2738
  11   2.0000      -4.713936      -128.2727
  12   2.0000      -4.712825      -128.2425
  13   2.0000      -4.711367      -128.2028
  14   2.0000      -4.707714      -128.1034
  15   2.0000      -4.707592      -128.1001
  16   2.0000      -4.707579      -128.0997
  17   2.0000      -4.702405      -127.9589
  18   2.0000      -4.698304      -127.8473
  19   2.0000      -3.840233      -104.4981
  20   2.0000      -2.769973       -75.3748
  21   2.0000      -2.765859       -75.2628
  22   2.0000      -2.764668       -75.2304
  23   2.0000      -2.761918       -75.1556
  24   2.0000      -2.761218       -75.1366
  25   2.0000      -2.759207       -75.0818
  26   2.0000      -2.758169       -75.0536
  27   2.0000      -2.756846       -75.0176
  28   2.0000      -2.756670       -75.0128
  29   2.0000      -2.754876       -74.9640
  30   2.0000      -2.754285       -74.9479
  31   2.0000      -2.753521       -74.9271
  32   2.0000      -2.752326       -74.8946
  33   2.0000      -2.752101       -74.8885
  34   2.0000      -2.751180       -74.8634
  35   2.0000      -2.750597       -74.8475
  36   2.0000      -2.750241       -74.8379
  37   2.0000      -2.749822       -74.8265
  38   2.0000      -2.749342       -74.8134
  39   2.0000      -2.748985       -74.8037
  40   2.0000      -2.748638       -74.7942
  41   2.0000      -2.747781       -74.7709
  42   2.0000      -2.747468       -74.7624
  43   2.0000      -2.746868       -74.7461
  44   2.0000      -2.746353       -74.7321
  45   2.0000      -2.745610       -74.7118
  46   2.0000      -2.745300       -74.7034
  47   2.0000      -2.744623       -74.6850
  48   2.0000      -2.743806       -74.6628
  49   2.0000      -2.743690       -74.6596
  50   2.0000      -2.743194       -74.6461
  51   2.0000      -2.741715       -74.6059
  52   2.0000      -2.741510       -74.6003
  53   2.0000      -2.741093       -74.5889
  54   2.0000      -2.740557       -74.5743
  55   2.0000      -2.740100       -74.5619
  56   2.0000      -2.738464       -74.5174
  57   2.0000      -2.735470       -74.4359
  58   2.0000      -2.734721       -74.4155
  59   2.0000      -2.734233       -74.4023
  60   2.0000      -2.732531       -74.3559
  61   2.0000      -2.731390       -74.3249
  62   2.0000      -2.508611       -68.2628
  63   2.0000      -2.508328       -68.2551
  64   2.0000      -2.508268       -68.2534
  65   2.0000      -0.576715       -15.6932
  66   2.0000      -0.566669       -15.4198
  67   2.0000      -0.560726       -15.2581
  68   2.0000      -0.556669       -15.1477
  69   2.0000      -0.551363       -15.0034
  70   2.0000      -0.550862       -14.9897
  71   2.0000      -0.549383       -14.9495
  72   2.0000      -0.547597       -14.9009
  73   2.0000      -0.545630       -14.8473
  74   2.0000      -0.544960       -14.8291
  75   2.0000      -0.540435       -14.7060
  76   2.0000      -0.538053       -14.6412
  77   2.0000      -0.537278       -14.6201
  78   2.0000      -0.535880       -14.5820
  79   2.0000      -0.533849       -14.5268
  80   2.0000      -0.530349       -14.4315
  81   2.0000      -0.528226       -14.3738
  82   2.0000      -0.525943       -14.3116
  83   2.0000      -0.524221       -14.2648
  84   2.0000      -0.519804       -14.1446
  85   2.0000      -0.516995       -14.0682
  86   2.0000      -0.514579       -14.0024
  87   2.0000      -0.513393       -13.9701
  88   2.0000      -0.508295       -13.8314
  89   2.0000      -0.507483       -13.8093
  90   2.0000      -0.504229       -13.7208
  91   2.0000      -0.502448       -13.6723
  92   2.0000      -0.501294       -13.6409
  93   2.0000      -0.497190       -13.5292
  94   2.0000      -0.494376       -13.4527
  95   2.0000      -0.488060       -13.2808
  96   2.0000      -0.483965       -13.1694
  97   2.0000      -0.480040       -13.0626
  98   2.0000      -0.477974       -13.0063
  99   2.0000      -0.476182       -12.9576
 100   2.0000      -0.473693       -12.8898
 101   2.0000      -0.472042       -12.8449
 102   2.0000      -0.469633       -12.7794
 103   2.0000      -0.467018       -12.7082
 104   2.0000      -0.465790       -12.6748
 105   2.0000      -0.464123       -12.6294
 106   2.0000      -0.461315       -12.5530
 107   2.0000      -0.459309       -12.4984
 108   2.0000      -0.458411       -12.4740
 109   2.0000      -0.457803       -12.4574
 110   2.0000      -0.454279       -12.3616
 111   2.0000      -0.452791       -12.3211
 112   2.0000      -0.451215       -12.2782
 113   2.0000      -0.449256       -12.2249
 114   2.0000      -0.448653       -12.2085
 115   2.0000      -0.446091       -12.1388
 116   2.0000      -0.444741       -12.1020
 117   2.0000      -0.442935       -12.0529
 118   2.0000      -0.440737       -11.9931
 119   2.0000      -0.440354       -11.9826
 120   2.0000      -0.436376       -11.8744
 121   2.0000      -0.434628       -11.8268
 122   2.0000      -0.433750       -11.8029
 123   2.0000      -0.430693       -11.7198
 124   2.0000      -0.430456       -11.7133
 125   2.0000      -0.426463       -11.6047
 126   2.0000      -0.425124       -11.5682
 127   2.0000      -0.423453       -11.5227
 128   2.0000      -0.418645       -11.3919
 129   2.0000      -0.416190       -11.3251
 130   2.0000      -0.414454       -11.2779
 131   2.0000      -0.410441       -11.1687
 132   2.0000      -0.403872       -10.9899
 133   2.0000      -0.401895       -10.9361
 134   2.0000      -0.394395       -10.7320
 135   2.0000      -0.389078       -10.5874
 136   2.0000      -0.372476       -10.1356
 137   2.0000      -0.364897        -9.9293
 138   2.0000      -0.347980        -9.4690
 139   2.0000      -0.260758        -7.0956
 140   2.0000      -0.251435        -6.8419
 141   2.0000      -0.232986        -6.3399
 142   2.0000      -0.225230        -6.1288
 143   1.0000      -0.159847        -4.3497
 144   1.0000      -0.163445        -4.4476
 145   1.0000      -0.150565        -4.0971
 146   1.0000      -0.158141        -4.3032
 147   1.0000      -0.154083        -4.1928
 148   0.0000      -0.039561        -1.0765
 149   0.0000      -0.023952        -0.6518
 150   0.0000      -0.008045        -0.2189
 151   0.0000       0.000828         0.0225
 152   0.0000       0.012358         0.3363

MULLIKEN ATOMIC CHARGES AND SPIN DENSITIES
------------------------------------------
   0 Au:    0.085029    0.009616
   1 Au:   -0.458809    0.007513
   2 Au:   -0.205914    0.005670
   3 Au:    0.350034    0.004104
   4 Au:    0.288998    0.008591
   5 Au:    0.243983    0.009047
   6 Au:    0.267899    0.008229
   7 Au:   -0.196484    0.007682
   8 Au:    0.418112    0.003753
   9 Au:    0.413666    0.003480
  10 Au:    0.048300    0.009434
  11 Au:    0.368595    0.008248
  12 Au:   -0.054992    0.007090
  13 Au:    0.262493    0.009297
  14 Mn:   -1.830908    3.898246
Sum of atomic charges       :    0.0000000

LOEWDIN ATOMIC CHARGES AND SPIN DENSITIES
-----------------------------------------
   0 Au:   -0.024608    0.012576
   1 Au:   -0.149991    0.010859
   2 Au:   -0.047182    0.007719
   3 Au:    0.054166    0.005252
   4 Au:    0.045199    0.011707
   5 Au:    0.057064    0.012307
   6 Au:    0.006026    0.011255
   7 Au:   -0.077917    0.011809
   8 Au:    0.121382    0.004931
   9 Au:    0.155067    0.004026
  10 Au:   -0.004105    0.012567
  11 Au:    0.097422    0.012077
  12 Au:   -0.055062    0.009202
  13 Au:    0.011144    0.012876
  14 Mn:   -0.188606    3.860837

  Mayer bond orders larger than 0.100000
B(  0-Au,  1-Au) :   0.2464 B(  0-Au,  4-Au) :   0.2076 B(  0-Au,  5-Au) :   0.2012
B(  0-Au,  8-Au) :   0.1471 B(  0-Au, 14-Mn) :   0.4030 B(  1-Au,  3-Au) :   0.4670
B(  1-Au,  4-Au) :   0.2062 B(  1-Au,  8-Au) :   0.4388 B(  1-Au, 10-Au) :   0.2583
B(  1-Au, 14-Mn) :   0.3437 B(  2-Au,  3-Au) :   0.1069 B(  2-Au,  4-Au) :   0.2303
B(  2-Au,  6-Au) :   0.4186 B(  2-Au,  7-Au) :   0.1717 B(  2-Au,  9-Au) :   0.2733
B(  2-Au, 12-Au) :   0.2337 B(  2-Au, 14-Mn) :   0.2670 B(  3-Au,  7-Au) :   0.2987
B(  3-Au, 14-Mn) :   0.1042 B(  4-Au, 14-Mn) :   0.4413 B(  5-Au,  6-Au) :   0.1834
B(  5-Au, 13-Au) :   0.1855 B(  5-Au, 14-Mn) :   0.4375 B(  6-Au, 13-Au) :   0.1637
B(  6-Au, 14-Mn) :   0.3836 B(  7-Au,  9-Au) :   0.3037 B(  7-Au, 10-Au) :   0.3376
B(  7-Au, 11-Au) :   0.2045 B(  7-Au, 12-Au) :   0.1604 B(  7-Au, 14-Mn) :   0.4405
B(  8-Au, 10-Au) :   0.3471 B(  9-Au, 12-Au) :   0.2844 B( 10-Au, 11-Au) :   0.1594
B( 10-Au, 14-Mn) :   0.3199 B( 11-Au, 12-Au) :   0.2433 B( 11-Au, 13-Au) :   0.1050
B( 11-Au, 14-Mn) :   0.3971 B( 12-Au, 13-Au) :   0.3179 B( 12-Au, 14-Mn) :   0.3529
B( 13-Au, 14-Mn) :   0.3972

FINAL SINGLE POINT ENERGY     -3037.181040554050

DIPOLE MOMENT
-------------
                                X             Y             Z
Electronic contribution:    -16.91457     -14.31354       8.37877
Nuclear contribution   :     16.62055      14.16508      -8.51557
                        -----------------------------------------
Total Dipole Moment    :     -0.29402      -0.14845      -0.13680
                        -----------------------------------------
Magnitude (a.u.)       :      0.35665
Magnitude (Debye)      :      0.90654

Rotational constants in cm-1:     0.001136     0.000979     0.000853
Rotational constants in MHz :    34.058789    29.359073    25.584744

                             ****ORCA TERMINATED NORMALLY****
TOTAL RUN TIME: 0 days 0 hours 6 minutes 17 seconds 113 msec
