                         Program Version 5.0.3 -  RELEASE  -
|  1> !SC-NEVPT2 def2-TZVP def2-TZVP/C
|  2> !MOREAD RIJCOSX def2/J
|  3> %maxcore 4000
|  4> %moinp "casscf.gbw"
|  5> %pal nprocs 6 end
|  6>
|  7> %casscf
|  8>  mult 6,4
|  9>  bweight 1,1
| 10>  nroots 1,24
| 11>  nel 5
| 12>  norb 5
| 13>  ptsettings
| 14>   d4tpre 1e-14 # default = 1e-10
| 15>   d3tpre 1e-14
| 16>  end
| 17>  rel
| 18>    dosoc true
| 19>    gtensor true
| 20>  end
| 21> end
| 22>
| 23>
| 24> *xyzfile 0 6 pbe.xyz
| 25>
| 26>
| 27>                          ****END OF INPUT****

CARTESIAN COORDINATES (ANGSTROEM)
---------------------------------
  Au     7.861906    5.881458    9.814884
  Au     5.324278    4.679755    9.679840
  Au     9.714946    4.885973    7.830305
  Au     6.913016    4.902612    7.354493
  Au     5.960364    6.208704    5.116806
  Au     4.414771    6.187760    7.548932
  Au     5.762350   10.042913    9.790397
  Au     3.688737    8.678343    8.537416
  Au     9.490290    7.591013    8.404027
  Au     7.919679    9.850347    8.011409
  Au     9.721211    9.038723    6.044701
  Au     7.917474    8.557475   10.556023
  Au     8.612045    6.514659    5.862904
  Au     6.998486    8.803659    5.521910
  Au     4.288012    8.325276    5.784527
  Au     5.421780   10.531069    7.032682
  Mn     5.616470    7.341045    9.772739

 Total Charge           Charge          ....    0
 Multiplicity           Mult            ....    6
 Number of Electrons    NEL             ....  329
 Basis Dimension        Dim             ....  685

ORBITAL ENERGIES
----------------

  NO   OCC          E(Eh)            E(eV)
   0   2.0000    -240.562819     -6546.0471
   1   2.0000     -29.141260      -792.9740
   2   2.0000     -24.846119      -676.0973
   3   2.0000     -24.845394      -676.0775
   4   2.0000     -24.845189      -676.0720
   5   2.0000      -4.724503      -128.5603
   6   2.0000      -4.724227      -128.5528
   7   2.0000      -4.717714      -128.3755
   8   2.0000      -4.716800      -128.3507
   9   2.0000      -4.716400      -128.3398
  10   2.0000      -4.714548      -128.2894
  11   2.0000      -4.714111      -128.2775
  12   2.0000      -4.713654      -128.2650
  13   2.0000      -4.712645      -128.2376
  14   2.0000      -4.709681      -128.1569
  15   2.0000      -4.707048      -128.0853
  16   2.0000      -4.705923      -128.0547
  17   2.0000      -4.704415      -128.0136
  18   2.0000      -4.703535      -127.9897
  19   2.0000      -4.700422      -127.9050
  20   2.0000      -4.700034      -127.8944
  21   2.0000      -3.844920      -104.6256
  22   2.0000      -2.764589       -75.2283
  23   2.0000      -2.761958       -75.1567
  24   2.0000      -2.761414       -75.1419
  25   2.0000      -2.759669       -75.0944
  26   2.0000      -2.758426       -75.0606
  27   2.0000      -2.757600       -75.0381
  28   2.0000      -2.756550       -75.0095
  29   2.0000      -2.755155       -74.9716
  30   2.0000      -2.754590       -74.9562
  31   2.0000      -2.754213       -74.9459
  32   2.0000      -2.753556       -74.9281
  33   2.0000      -2.753237       -74.9194
  34   2.0000      -2.752470       -74.8985
  35   2.0000      -2.752080       -74.8879
  36   2.0000      -2.751555       -74.8736
  37   2.0000      -2.751326       -74.8674
  38   2.0000      -2.750901       -74.8558
  39   2.0000      -2.750853       -74.8545
  40   2.0000      -2.750157       -74.8356
  41   2.0000      -2.749945       -74.8298
  42   2.0000      -2.749052       -74.8055
  43   2.0000      -2.748450       -74.7891
  44   2.0000      -2.748050       -74.7782
  45   2.0000      -2.747640       -74.7671
  46   2.0000      -2.747370       -74.7597
  47   2.0000      -2.746987       -74.7493
  48   2.0000      -2.746607       -74.7390
  49   2.0000      -2.746256       -74.7294
  50   2.0000      -2.745804       -74.7171
  51   2.0000      -2.745547       -74.7101
  52   2.0000      -2.744285       -74.6758
  53   2.0000      -2.744046       -74.6693
  54   2.0000      -2.742630       -74.6307
  55   2.0000      -2.742470       -74.6264
  56   2.0000      -2.742028       -74.6144
  57   2.0000      -2.741548       -74.6013
  58   2.0000      -2.740546       -74.5740
  59   2.0000      -2.739718       -74.5515
  60   2.0000      -2.738759       -74.5254
  61   2.0000      -2.738210       -74.5105
  62   2.0000      -2.737521       -74.4917
  63   2.0000      -2.736415       -74.4616
  64   2.0000      -2.736091       -74.4528
  65   2.0000      -2.735398       -74.4340
  66   2.0000      -2.734945       -74.4216
  67   2.0000      -2.734538       -74.4106
  68   2.0000      -2.734341       -74.4052
  69   2.0000      -2.733989       -74.3956
  70   2.0000      -2.511676       -68.3462
  71   2.0000      -2.511183       -68.3328
  72   2.0000      -2.510412       -68.3118
  73   2.0000      -0.562398       -15.3036
  74   2.0000      -0.558790       -15.2054
  75   2.0000      -0.556700       -15.1486
  76   2.0000      -0.555009       -15.1026
  77   2.0000      -0.551125       -14.9969
  78   2.0000      -0.549061       -14.9407
  79   2.0000      -0.546585       -14.8733
  80   2.0000      -0.544374       -14.8132
  81   2.0000      -0.543687       -14.7945
  82   2.0000      -0.542463       -14.7612
  83   2.0000      -0.541601       -14.7377
  84   2.0000      -0.540984       -14.7209
  85   2.0000      -0.536295       -14.5933
  86   2.0000      -0.535123       -14.5614
  87   2.0000      -0.534097       -14.5335
  88   2.0000      -0.533109       -14.5066
  89   2.0000      -0.530974       -14.4485
  90   2.0000      -0.529761       -14.4155
  91   2.0000      -0.527580       -14.3562
  92   2.0000      -0.526669       -14.3314
  93   2.0000      -0.525179       -14.2909
  94   2.0000      -0.522823       -14.2267
  95   2.0000      -0.521645       -14.1947
  96   2.0000      -0.518751       -14.1159
  97   2.0000      -0.518206       -14.1011
  98   2.0000      -0.516816       -14.0633
  99   2.0000      -0.515621       -14.0308
 100   2.0000      -0.513356       -13.9691
 101   2.0000      -0.509409       -13.8617
 102   2.0000      -0.507478       -13.8092
 103   2.0000      -0.502275       -13.6676
 104   2.0000      -0.499484       -13.5917
 105   2.0000      -0.496957       -13.5229
 106   2.0000      -0.494045       -13.4436
 107   2.0000      -0.490771       -13.3546
 108   2.0000      -0.488513       -13.2931
 109   2.0000      -0.487848       -13.2750
 110   2.0000      -0.484129       -13.1738
 111   2.0000      -0.482850       -13.1390
 112   2.0000      -0.481654       -13.1065
 113   2.0000      -0.480416       -13.0728
 114   2.0000      -0.477215       -12.9857
 115   2.0000      -0.475082       -12.9276
 116   2.0000      -0.473393       -12.8817
 117   2.0000      -0.471806       -12.8385
 118   2.0000      -0.468377       -12.7452
 119   2.0000      -0.466031       -12.6813
 120   2.0000      -0.464008       -12.6263
 121   2.0000      -0.461875       -12.5683
 122   2.0000      -0.458016       -12.4632
 123   2.0000      -0.456003       -12.4085
 124   2.0000      -0.455604       -12.3976
 125   2.0000      -0.452067       -12.3014
 126   2.0000      -0.448749       -12.2111
 127   2.0000      -0.446233       -12.1426
 128   2.0000      -0.445142       -12.1129
 129   2.0000      -0.444309       -12.0903
 130   2.0000      -0.442700       -12.0465
 131   2.0000      -0.439810       -11.9678
 132   2.0000      -0.437315       -11.9000
 133   2.0000      -0.435933       -11.8623
 134   2.0000      -0.433489       -11.7958
 135   2.0000      -0.432660       -11.7733
 136   2.0000      -0.431524       -11.7424
 137   2.0000      -0.429965       -11.6999
 138   2.0000      -0.429165       -11.6782
 139   2.0000      -0.426977       -11.6186
 140   2.0000      -0.425120       -11.5681
 141   2.0000      -0.423805       -11.5323
 142   2.0000      -0.422391       -11.4938
 143   2.0000      -0.420891       -11.4530
 144   2.0000      -0.418076       -11.3764
 145   2.0000      -0.417072       -11.3491
 146   2.0000      -0.414046       -11.2668
 147   2.0000      -0.412993       -11.2381
 148   2.0000      -0.409829       -11.1520
 149   2.0000      -0.407888       -11.0992
 150   2.0000      -0.394106       -10.7242
 151   2.0000      -0.393174       -10.6988
 152   2.0000      -0.387927       -10.5560
 153   2.0000      -0.383627       -10.4390
 154   2.0000      -0.377100       -10.2614
 155   2.0000      -0.369298       -10.0491
 156   2.0000      -0.361651        -9.8410
 157   2.0000      -0.275988        -7.5100
 158   2.0000      -0.256008        -6.9663
 159   2.0000      -0.243130        -6.6159
 160   2.0000      -0.238940        -6.5019
 161   2.0000      -0.204753        -5.5716
 162   1.0000      -0.166786        -4.5385
 163   1.0000      -0.160042        -4.3550
 164   1.0000      -0.166065        -4.5189
 165   1.0000      -0.166093        -4.5196
 166   1.0000      -0.162162        -4.4126
 167   0.0000      -0.031349        -0.8531
 168   0.0000      -0.017579        -0.4783
 169   0.0000      -0.009681        -0.2634
 170   0.0000      -0.006553        -0.1783
 171   0.0000      -0.000428        -0.0116

MULLIKEN ATOMIC CHARGES AND SPIN DENSITIES
------------------------------------------
   0 Au:   -0.060714    0.006912
   1 Au:    0.437038    0.008302
   2 Au:    0.476392    0.000807
   3 Au:   -0.441261    0.002257
   4 Au:    0.192167    0.001537
   5 Au:   -0.329619    0.005896
   6 Au:    0.247233    0.007051
   7 Au:    0.186167    0.008506
   8 Au:   -0.366835    0.002197
   9 Au:   -0.583761    0.002187
  10 Au:    0.553988    0.000392
  11 Au:    0.276402    0.007392
  12 Au:   -0.171876    0.000470
  13 Au:   -0.507138    0.000770
  14 Au:    0.187919    0.002416
  15 Au:    0.174781    0.001602
  16 Mn:   -0.270883    3.941307
Sum of atomic charges       :    0.0000000

LOEWDIN ATOMIC CHARGES AND SPIN DENSITIES
-----------------------------------------
   0 Au:   -0.120365    0.011451
   1 Au:    0.126924    0.012806
   2 Au:    0.202588    0.001227
   3 Au:   -0.131720    0.002547
   4 Au:    0.034297    0.001653
   5 Au:   -0.122706    0.011561
   6 Au:   -0.024480    0.011896
   7 Au:   -0.018223    0.013011
   8 Au:   -0.115324    0.001920
   9 Au:   -0.138729    0.002618
  10 Au:    0.169915    0.000701
  11 Au:    0.013922    0.012199
  12 Au:   -0.105000    0.000647
  13 Au:   -0.123572    0.001103
  14 Au:    0.003902    0.002284
  15 Au:    0.011438    0.002195
  16 Mn:    0.337133    3.910181

  Mayer bond orders larger than 0.100000
B(  0-Au,  1-Au) :   0.1827 B(  0-Au,  2-Au) :   0.1908 B(  0-Au,  3-Au) :   0.2590
B(  0-Au,  8-Au) :   0.2744 B(  0-Au, 11-Au) :   0.1975 B(  0-Au, 16-Mn) :   0.4909
B(  1-Au,  3-Au) :   0.2160 B(  1-Au,  5-Au) :   0.2499 B(  1-Au, 16-Mn) :   0.3237
B(  2-Au,  3-Au) :   0.2710 B(  2-Au,  8-Au) :   0.2221 B(  2-Au, 12-Au) :   0.1705
B(  3-Au,  4-Au) :   0.3099 B(  3-Au,  5-Au) :   0.3879 B(  3-Au, 12-Au) :   0.3014
B(  4-Au,  5-Au) :   0.2354 B(  4-Au, 12-Au) :   0.2733 B(  4-Au, 13-Au) :   0.2305
B(  4-Au, 14-Au) :   0.1881 B(  5-Au,  7-Au) :   0.2557 B(  5-Au, 14-Au) :   0.3072
B(  5-Au, 16-Mn) :   0.3364 B(  6-Au,  7-Au) :   0.1824 B(  6-Au,  9-Au) :   0.2987
B(  6-Au, 11-Au) :   0.1617 B(  6-Au, 15-Au) :   0.1745 B(  6-Au, 16-Mn) :   0.4101
B(  7-Au, 14-Au) :   0.2094 B(  7-Au, 15-Au) :   0.1083 B(  7-Au, 16-Mn) :   0.4587
B(  8-Au,  9-Au) :   0.4359 B(  8-Au, 10-Au) :   0.1606 B(  8-Au, 11-Au) :   0.2622
B(  8-Au, 12-Au) :   0.3150 B(  9-Au, 10-Au) :   0.2577 B(  9-Au, 11-Au) :   0.2183
B(  9-Au, 13-Au) :   0.3044 B(  9-Au, 15-Au) :   0.3519 B( 10-Au, 12-Au) :   0.1704
B( 10-Au, 13-Au) :   0.2504 B( 11-Au, 16-Mn) :   0.3025 B( 12-Au, 13-Au) :   0.4490
B( 13-Au, 14-Au) :   0.3477 B( 13-Au, 15-Au) :   0.3281 B( 14-Au, 15-Au) :   0.2343

FINAL SINGLE POINT ENERGY     -3314.762925123163

DIPOLE MOMENT
-------------
                                X             Y             Z
Electronic contribution:     46.34810       6.75807     -76.02444
Nuclear contribution   :    -46.07140      -7.37069      76.54824
                        -----------------------------------------
Total Dipole Moment    :      0.27670      -0.61262       0.52380
                        -----------------------------------------
Magnitude (a.u.)       :      0.85219
Magnitude (Debye)      :      2.16609

Rotational constants in cm-1:     0.000888     0.000782     0.000733
Rotational constants in MHz :    26.629884    23.439977    21.983610

                             ****ORCA TERMINATED NORMALLY****
TOTAL RUN TIME: 0 days 2 hours 57 minutes 52 seconds 290 msec
