                         Program Version 5.0.3 -  RELEASE  -
|  1> !CASSCF def2-TZVP def2-TZVP/C
|  2> !MOREAD RIJCOSX
|  3> %maxcore 6000
|  4> %moinp "pbe.qro"
|  5> %pal nprocs 2 end
|  6>
|  7> %casscf
|  8>  mult 5,3
|  9>  bweight 1,1
| 10>  nroots 5,45
| 11>  nel 6
| 12>  norb 5
| 13> end
| 14>
| 15>
| 16> *xyzfile 0 5 pbe.xyz
| 17>
| 18>
| 19>                          ****END OF INPUT****

CARTESIAN COORDINATES (ANGSTROEM)
---------------------------------
  Au     9.028935   10.595957    5.983178
  Au    11.495132    7.997151    6.959634
  Au     6.151757   10.627535    5.861381
  Au    10.162649    8.596231    4.507448
  Au     7.354983    8.523824    4.546806
  Au     7.438273   10.577203    8.312559
  Au     6.129728    8.104077    7.088306
  Au     7.594631    5.866290    7.825779
  Au     7.600523    8.120461    9.525949
  Au    10.121894    7.020827    9.249551
  Au    10.200756    5.232472    7.166417
  Au    10.069224    9.760165    8.561309
  Au     8.518820    6.111357    5.079949
  Au    11.394727    6.154484    4.847112
  Cr     8.810124    8.070580    6.910861

 Total Charge           Charge          ....    0
 Multiplicity           Mult            ....    5
 Number of Electrons    NEL             ....  290
 Basis Dimension        Dim             ....  605

ORBITAL ENERGIES
----------------

  NO   OCC          E(Eh)            E(eV)
   0   2.0000    -220.604156     -6002.9443
   1   2.0000     -26.456858      -719.9277
   2   2.0000     -22.389311      -609.2441
   3   2.0000     -22.385790      -609.1483
   4   2.0000     -22.380434      -609.0026
   5   2.0000      -4.719383      -128.4209
   6   2.0000      -4.719367      -128.4205
   7   2.0000      -4.719127      -128.4140
   8   2.0000      -4.719085      -128.4128
   9   2.0000      -4.717219      -128.3621
  10   2.0000      -4.716900      -128.3534
  11   2.0000      -4.713632      -128.2644
  12   2.0000      -4.713395      -128.2580
  13   2.0000      -4.707783      -128.1053
  14   2.0000      -4.707555      -128.0991
  15   2.0000      -4.706124      -128.0601
  16   2.0000      -4.706085      -128.0591
  17   2.0000      -4.700987      -127.9204
  18   2.0000      -4.700938      -127.9190
  19   2.0000      -3.498821       -95.2078
  20   2.0000      -2.759669       -75.0944
  21   2.0000      -2.759585       -75.0921
  22   2.0000      -2.757541       -75.0365
  23   2.0000      -2.757517       -75.0359
  24   2.0000      -2.756635       -75.0119
  25   2.0000      -2.756619       -75.0114
  26   2.0000      -2.756540       -75.0093
  27   2.0000      -2.756178       -74.9994
  28   2.0000      -2.754871       -74.9638
  29   2.0000      -2.754701       -74.9592
  30   2.0000      -2.754105       -74.9430
  31   2.0000      -2.753922       -74.9380
  32   2.0000      -2.753438       -74.9249
  33   2.0000      -2.753150       -74.9170
  34   2.0000      -2.752097       -74.8884
  35   2.0000      -2.752001       -74.8858
  36   2.0000      -2.751367       -74.8685
  37   2.0000      -2.750575       -74.8470
  38   2.0000      -2.749808       -74.8261
  39   2.0000      -2.749079       -74.8062
  40   2.0000      -2.748902       -74.8014
  41   2.0000      -2.747877       -74.7735
  42   2.0000      -2.747440       -74.7617
  43   2.0000      -2.746697       -74.7414
  44   2.0000      -2.746032       -74.7233
  45   2.0000      -2.745497       -74.7088
  46   2.0000      -2.745438       -74.7072
  47   2.0000      -2.743515       -74.6548
  48   2.0000      -2.742919       -74.6386
  49   2.0000      -2.742468       -74.6263
  50   2.0000      -2.742258       -74.6206
  51   2.0000      -2.741819       -74.6087
  52   2.0000      -2.741709       -74.6057
  53   2.0000      -2.740093       -74.5617
  54   2.0000      -2.739216       -74.5378
  55   2.0000      -2.738875       -74.5286
  56   2.0000      -2.737239       -74.4841
  57   2.0000      -2.737164       -74.4820
  58   2.0000      -2.735628       -74.4402
  59   2.0000      -2.735559       -74.4383
  60   2.0000      -2.735379       -74.4334
  61   2.0000      -2.735341       -74.4324
  62   2.0000      -2.257107       -61.4190
  63   2.0000      -2.254383       -61.3449
  64   2.0000      -2.249669       -61.2166
  65   2.0000      -0.572063       -15.5666
  66   2.0000      -0.554854       -15.0984
  67   2.0000      -0.553013       -15.0483
  68   2.0000      -0.548358       -14.9216
  69   2.0000      -0.547488       -14.8979
  70   2.0000      -0.544866       -14.8265
  71   2.0000      -0.544064       -14.8047
  72   2.0000      -0.543844       -14.7988
  73   2.0000      -0.541591       -14.7374
  74   2.0000      -0.539873       -14.6907
  75   2.0000      -0.537622       -14.6294
  76   2.0000      -0.537297       -14.6206
  77   2.0000      -0.535903       -14.5827
  78   2.0000      -0.533642       -14.5211
  79   2.0000      -0.533375       -14.5139
  80   2.0000      -0.531239       -14.4557
  81   2.0000      -0.530392       -14.4327
  82   2.0000      -0.528603       -14.3840
  83   2.0000      -0.525994       -14.3130
  84   2.0000      -0.522298       -14.2124
  85   2.0000      -0.521111       -14.1802
  86   2.0000      -0.518255       -14.1024
  87   2.0000      -0.517553       -14.0833
  88   2.0000      -0.514984       -14.0134
  89   2.0000      -0.510542       -13.8925
  90   2.0000      -0.508518       -13.8375
  91   2.0000      -0.507139       -13.8000
  92   2.0000      -0.504047       -13.7158
  93   2.0000      -0.500335       -13.6148
  94   2.0000      -0.496098       -13.4995
  95   2.0000      -0.495623       -13.4866
  96   2.0000      -0.494155       -13.4466
  97   2.0000      -0.487664       -13.2700
  98   2.0000      -0.486004       -13.2248
  99   2.0000      -0.481471       -13.1015
 100   2.0000      -0.477611       -12.9965
 101   2.0000      -0.471446       -12.8287
 102   2.0000      -0.470942       -12.8150
 103   2.0000      -0.469159       -12.7665
 104   2.0000      -0.465532       -12.6678
 105   2.0000      -0.464898       -12.6505
 106   2.0000      -0.464561       -12.6414
 107   2.0000      -0.454113       -12.3571
 108   2.0000      -0.452984       -12.3263
 109   2.0000      -0.451035       -12.2733
 110   2.0000      -0.450233       -12.2515
 111   2.0000      -0.447491       -12.1769
 112   2.0000      -0.445238       -12.1156
 113   2.0000      -0.444033       -12.0827
 114   2.0000      -0.443260       -12.0617
 115   2.0000      -0.442589       -12.0435
 116   2.0000      -0.441740       -12.0203
 117   2.0000      -0.439471       -11.9586
 118   2.0000      -0.437334       -11.9005
 119   2.0000      -0.437268       -11.8987
 120   2.0000      -0.436160       -11.8685
 121   2.0000      -0.434784       -11.8311
 122   2.0000      -0.429663       -11.6917
 123   2.0000      -0.429371       -11.6838
 124   2.0000      -0.427904       -11.6439
 125   2.0000      -0.424929       -11.5629
 126   2.0000      -0.424290       -11.5455
 127   2.0000      -0.421833       -11.4787
 128   2.0000      -0.421225       -11.4621
 129   2.0000      -0.417120       -11.3504
 130   2.0000      -0.416029       -11.3207
 131   2.0000      -0.414670       -11.2837
 132   2.0000      -0.410836       -11.1794
 133   2.0000      -0.409797       -11.1511
 134   2.0000      -0.400404       -10.8955
 135   2.0000      -0.388280       -10.5656
 136   2.0000      -0.374469       -10.1898
 137   2.0000      -0.352187        -9.5835
 138   2.0000      -0.331571        -9.0225
 139   2.0000      -0.250027        -6.8036
 140   2.0000      -0.246509        -6.7078
 141   2.0000      -0.232365        -6.3230
 142   1.2000      -0.159789        -4.3481
 143   1.2000      -0.160808        -4.3758
 144   1.2000      -0.173848        -4.7307
 145   1.2000      -0.156398        -4.2558
 146   1.2000      -0.178121        -4.8469
 147   0.0000      -0.013355        -0.3634
 148   0.0000      -0.007887        -0.2146
 149   0.0000       0.003913         0.1065
 150   0.0000       0.009041         0.2460
 151   0.0000       0.023875         0.6497

MULLIKEN ATOMIC CHARGES AND SPIN DENSITIES
------------------------------------------
   0 Au:    0.491049    0.021241
   1 Au:    0.419589    0.012196
   2 Au:    0.325464    0.016543
   3 Au:    0.452939    0.037900
   4 Au:    0.453322    0.038090
   5 Au:    0.428921    0.015605
   6 Au:    0.413151    0.012310
   7 Au:    0.577279    0.024336
   8 Au:    0.539475    0.051127
   9 Au:    0.543169    0.050634
  10 Au:    0.430872    0.015611
  11 Au:    0.578194    0.023893
  12 Au:    0.500407    0.021181
  13 Au:    0.327380    0.016624
  14 Cr:   -6.481212    2.642709
Sum of atomic charges       :    0.0000000

LOEWDIN ATOMIC CHARGES AND SPIN DENSITIES
-----------------------------------------
   0 Au:    0.084056    0.060606
   1 Au:    0.076299    0.057963
   2 Au:    0.124943    0.025570
   3 Au:    0.079784    0.080876
   4 Au:    0.078940    0.080888
   5 Au:    0.063525    0.029437
   6 Au:    0.075131    0.058115
   7 Au:    0.117599    0.071364
   8 Au:    0.101465    0.082686
   9 Au:    0.101725    0.082413
  10 Au:    0.062945    0.029703
  11 Au:    0.117401    0.071066
  12 Au:    0.086905    0.061032
  13 Au:    0.125227    0.025780
  14 Cr:   -1.295945    2.182501

  Mayer bond orders larger than 0.100000
B(  0-Au,  2-Au) :   0.1071 B(  0-Au,  3-Au) :   0.1354 B(  0-Au,  5-Au) :   0.1894
B(  0-Au,  7-Au) :   0.1307 B(  0-Au, 11-Au) :   0.1255 B(  0-Au, 14-Cr) :   0.3223
B(  1-Au,  3-Au) :   0.1237 B(  1-Au,  6-Au) :   0.1151 B(  1-Au,  9-Au) :   0.1505
B(  1-Au, 10-Au) :   0.1109 B(  1-Au, 11-Au) :   0.1723 B(  1-Au, 13-Au) :   0.2432
B(  1-Au, 14-Cr) :   0.4160 B(  2-Au,  4-Au) :   0.1983 B(  2-Au,  5-Au) :   0.1577
B(  2-Au,  6-Au) :   0.2457 B(  2-Au, 14-Cr) :   0.4659 B(  3-Au,  4-Au) :   0.1665
B(  3-Au, 13-Au) :   0.1990 B(  3-Au, 14-Cr) :   0.3933 B(  4-Au,  6-Au) :   0.1253
B(  4-Au, 12-Au) :   0.1348 B(  4-Au, 14-Cr) :   0.3937 B(  5-Au,  6-Au) :   0.1120
B(  5-Au,  8-Au) :   0.1308 B(  5-Au, 11-Au) :   0.1335 B(  5-Au, 14-Cr) :   0.3632
B(  6-Au,  7-Au) :   0.1725 B(  6-Au,  8-Au) :   0.1495 B(  6-Au, 14-Cr) :   0.4179
B(  7-Au,  8-Au) :   0.1249 B(  7-Au, 10-Au) :   0.1350 B(  7-Au, 12-Au) :   0.1235
B(  7-Au, 14-Cr) :   0.3819 B(  8-Au,  9-Au) :   0.1395 B(  8-Au, 14-Cr) :   0.3424
B(  9-Au, 10-Au) :   0.1296 B(  9-Au, 11-Au) :   0.1257 B(  9-Au, 14-Cr) :   0.3398
B( 10-Au, 12-Au) :   0.1889 B( 10-Au, 13-Au) :   0.1581 B( 10-Au, 14-Cr) :   0.3610
B( 11-Au, 12-Au) :   0.1333 B( 11-Au, 14-Cr) :   0.3788 B( 12-Au, 13-Au) :   0.1058
B( 12-Au, 14-Cr) :   0.3170 B( 13-Au, 14-Cr) :   0.4652

FINAL SINGLE POINT ENERGY     -2930.482297822391

DIPOLE MOMENT
-------------
                                X             Y             Z
Electronic contribution:     -0.20199       0.76545      -3.18666
Nuclear contribution   :      0.20045      -0.75431       3.11028
                        -----------------------------------------
Total Dipole Moment    :     -0.00154       0.01115      -0.07638
                        -----------------------------------------
Magnitude (a.u.)       :      0.07720
Magnitude (Debye)      :      0.19623

Rotational constants in cm-1:     0.001286     0.000987     0.000882
Rotational constants in MHz :    38.566472    29.594202    26.454133

                             ****ORCA TERMINATED NORMALLY****
TOTAL RUN TIME: 0 days 1 hours 8 minutes 55 seconds 693 msec
