                         Program Version 5.0.3 -  RELEASE  -
|  1> %pal nprocs 1 end
|  2>
|  3> !PBE def2-TZVP OPT UNO
|  4> !SLOWCONV
|  5>
|  6> *xyzfile 0 3 5.xyz                           ****END OF INPUT****
 Total Charge           Charge          ....    0
 Multiplicity           Mult            ....    3
 Number of Electrons    NEL             ....  330
FINAL SINGLE POINT ENERGY     -3436.720731702387   (Wavefunction not fully converged!)
FINAL SINGLE POINT ENERGY     -3436.723682290987   (Wavefunction not fully converged!)
FINAL SINGLE POINT ENERGY     -3436.725732004086   (Wavefunction not fully converged!)
FINAL SINGLE POINT ENERGY     -3436.727108177601   (Wavefunction not fully converged!)
FINAL SINGLE POINT ENERGY     -3436.728056298279
FINAL SINGLE POINT ENERGY     -3436.728732569793
FINAL SINGLE POINT ENERGY     -3436.729260930114
FINAL SINGLE POINT ENERGY     -3436.729691498068
FINAL SINGLE POINT ENERGY     -3436.730030552904
FINAL SINGLE POINT ENERGY     -3436.730228983536
FINAL SINGLE POINT ENERGY     -3436.730462030597
FINAL SINGLE POINT ENERGY     -3436.730547468428
FINAL SINGLE POINT ENERGY     -3436.730595512488
FINAL SINGLE POINT ENERGY     -3436.730630458999
FINAL SINGLE POINT ENERGY     -3436.730654463049
FINAL SINGLE POINT ENERGY     -3436.730668907614
FINAL SINGLE POINT ENERGY     -3436.730681146106
FINAL SINGLE POINT ENERGY     -3436.730694221334
FINAL SINGLE POINT ENERGY     -3436.730705747033
                    ***********************HURRAY********************

CARTESIAN COORDINATES (ANGSTROEM)
---------------------------------
  Au     9.333145   10.793707    6.673820
  Au     7.760018    5.334774    7.079859
  Au     9.353804    7.916528    7.103730
  Au     5.426843    5.984503    8.523179
  Au     7.907753    6.995478    9.313570
  Au     8.643207    9.630636    9.138655
  Au     6.714626   11.020732    7.653510
  Au     4.559524    9.594267    6.703135
  Au     5.758053    8.786962    9.081485
  Au     7.560189    8.097144    3.205483
  Au     7.126545   10.003007    5.144445
  Au     9.815626    9.050737    4.585557
  Au     5.035708    8.384437    4.234636
  Au     9.021185    6.374820    4.864934
  Au     6.242590    5.919735    4.821859
  Au     3.987018    6.862124    6.329075
  Fe     6.533906    7.734321    6.756053

 Multiplicity           Mult            ....    3
 Number of Electrons    NEL             ....  330
 Basis Dimension        Dim             ....  685

ORBITAL ENERGIES
----------------
                 SPIN UP ORBITALS
  NO   OCC          E(Eh)            E(eV)
   0   1.0000    -254.739417     -6931.8119
   1   1.0000     -29.566065      -804.5335
   2   1.0000     -25.506133      -694.0572
   3   1.0000     -25.501810      -693.9395
   4   1.0000     -25.501492      -693.9309
   5   1.0000      -4.035029      -109.7987
   6   1.0000      -4.034944      -109.7964
   7   1.0000      -4.034686      -109.7894
   8   1.0000      -4.034484      -109.7839
   9   1.0000      -4.034047      -109.7720
  10   1.0000      -4.033970      -109.7699
  11   1.0000      -4.033788      -109.7649
  12   1.0000      -4.033749      -109.7639
  13   1.0000      -4.028593      -109.6236
  14   1.0000      -4.028570      -109.6230
  15   1.0000      -4.025963      -109.5520
  16   1.0000      -4.025799      -109.5476
  17   1.0000      -4.024145      -109.5025
  18   1.0000      -4.024118      -109.5018
  19   1.0000      -4.020681      -109.4083
  20   1.0000      -4.020536      -109.4043
  21   1.0000      -3.339680       -90.8773
  22   1.0000      -2.251839       -61.2757
  23   1.0000      -2.251662       -61.2708
  24   1.0000      -2.251317       -61.2614
  25   1.0000      -2.251200       -61.2583
  26   1.0000      -2.249812       -61.2205
  27   1.0000      -2.249668       -61.2166
  28   1.0000      -2.248695       -61.1901
  29   1.0000      -2.248653       -61.1890
  30   1.0000      -2.248489       -61.1845
  31   1.0000      -2.248451       -61.1835
  32   1.0000      -2.248228       -61.1774
  33   1.0000      -2.247932       -61.1693
  34   1.0000      -2.247292       -61.1519
  35   1.0000      -2.247119       -61.1472
  36   1.0000      -2.245786       -61.1109
  37   1.0000      -2.245746       -61.1099
  38   1.0000      -2.245534       -61.1041
  39   1.0000      -2.245203       -61.0951
  40   1.0000      -2.244698       -61.0813
  41   1.0000      -2.244571       -61.0779
  42   1.0000      -2.243867       -61.0587
  43   1.0000      -2.243815       -61.0573
  44   1.0000      -2.243666       -61.0533
  45   1.0000      -2.243423       -61.0466
  46   1.0000      -2.243373       -61.0453
  47   1.0000      -2.243339       -61.0444
  48   1.0000      -2.242042       -61.0091
  49   1.0000      -2.241969       -61.0071
  50   1.0000      -2.240909       -60.9782
  51   1.0000      -2.240045       -60.9547
  52   1.0000      -2.239849       -60.9494
  53   1.0000      -2.239578       -60.9420
  54   1.0000      -2.239469       -60.9391
  55   1.0000      -2.238015       -60.8995
  56   1.0000      -2.237764       -60.8927
  57   1.0000      -2.237669       -60.8901
  58   1.0000      -2.237655       -60.8897
  59   1.0000      -2.237224       -60.8780
  60   1.0000      -2.236820       -60.8670
  61   1.0000      -2.236479       -60.8577
  62   1.0000      -2.236353       -60.8542
  63   1.0000      -2.234342       -60.7995
  64   1.0000      -2.233679       -60.7815
  65   1.0000      -2.233645       -60.7806
  66   1.0000      -2.232975       -60.7623
  67   1.0000      -2.232918       -60.7608
  68   1.0000      -2.231024       -60.7092
  69   1.0000      -2.230516       -60.6954
  70   1.0000      -2.159666       -58.7675
  71   1.0000      -2.152201       -58.5644
  72   1.0000      -2.151490       -58.5450
  73   1.0000      -0.433724       -11.8022
  74   1.0000      -0.395178       -10.7533
  75   1.0000      -0.393062       -10.6958
  76   1.0000      -0.388559       -10.5732
  77   1.0000      -0.377577       -10.2744
  78   1.0000      -0.376807       -10.2535
  79   1.0000      -0.371412       -10.1066
  80   1.0000      -0.368540       -10.0285
  81   1.0000      -0.368355       -10.0235
  82   1.0000      -0.364972        -9.9314
  83   1.0000      -0.363140        -9.8815
  84   1.0000      -0.362100        -9.8532
  85   1.0000      -0.360519        -9.8102
  86   1.0000      -0.358892        -9.7659
  87   1.0000      -0.357016        -9.7149
  88   1.0000      -0.354947        -9.6586
  89   1.0000      -0.353403        -9.6166
  90   1.0000      -0.351932        -9.5765
  91   1.0000      -0.351596        -9.5674
  92   1.0000      -0.347888        -9.4665
  93   1.0000      -0.345791        -9.4095
  94   1.0000      -0.344866        -9.3843
  95   1.0000      -0.344266        -9.3680
  96   1.0000      -0.342224        -9.3124
  97   1.0000      -0.338517        -9.2115
  98   1.0000      -0.337883        -9.1943
  99   1.0000      -0.336648        -9.1607
 100   1.0000      -0.332567        -9.0496
 101   1.0000      -0.330450        -8.9920
 102   1.0000      -0.327479        -8.9112
 103   1.0000      -0.325810        -8.8657
 104   1.0000      -0.323849        -8.8124
 105   1.0000      -0.320264        -8.7148
 106   1.0000      -0.318003        -8.6533
 107   1.0000      -0.317266        -8.6332
 108   1.0000      -0.316775        -8.6199
 109   1.0000      -0.313937        -8.5426
 110   1.0000      -0.309904        -8.4329
 111   1.0000      -0.306573        -8.3423
 112   1.0000      -0.306483        -8.3398
 113   1.0000      -0.301439        -8.2026
 114   1.0000      -0.299907        -8.1609
 115   1.0000      -0.297975        -8.1083
 116   1.0000      -0.295879        -8.0513
 117   1.0000      -0.293489        -7.9863
 118   1.0000      -0.293115        -7.9761
 119   1.0000      -0.291300        -7.9267
 120   1.0000      -0.291008        -7.9187
 121   1.0000      -0.288030        -7.8377
 122   1.0000      -0.286152        -7.7866
 123   1.0000      -0.284127        -7.7315
 124   1.0000      -0.282010        -7.6739
 125   1.0000      -0.279620        -7.6088
 126   1.0000      -0.278306        -7.5731
 127   1.0000      -0.276300        -7.5185
 128   1.0000      -0.274464        -7.4685
 129   1.0000      -0.272446        -7.4136
 130   1.0000      -0.272195        -7.4068
 131   1.0000      -0.268890        -7.3169
 132   1.0000      -0.267196        -7.2708
 133   1.0000      -0.266365        -7.2482
 134   1.0000      -0.265294        -7.2190
 135   1.0000      -0.263655        -7.1744
 136   1.0000      -0.263333        -7.1657
 137   1.0000      -0.262704        -7.1485
 138   1.0000      -0.261817        -7.1244
 139   1.0000      -0.261714        -7.1216
 140   1.0000      -0.261011        -7.1025
 141   1.0000      -0.259976        -7.0743
 142   1.0000      -0.257511        -7.0072
 143   1.0000      -0.256942        -6.9917
 144   1.0000      -0.256356        -6.9758
 145   1.0000      -0.254627        -6.9287
 146   1.0000      -0.254216        -6.9176
 147   1.0000      -0.252992        -6.8843
 148   1.0000      -0.252289        -6.8651
 149   1.0000      -0.250733        -6.8228
 150   1.0000      -0.250330        -6.8118
 151   1.0000      -0.249824        -6.7981
 152   1.0000      -0.246796        -6.7157
 153   1.0000      -0.246632        -6.7112
 154   1.0000      -0.245541        -6.6815
 155   1.0000      -0.243320        -6.6211
 156   1.0000      -0.239503        -6.5172
 157   1.0000      -0.239418        -6.5149
 158   1.0000      -0.238557        -6.4915
 159   1.0000      -0.233974        -6.3668
 160   1.0000      -0.229943        -6.2571
 161   1.0000      -0.225400        -6.1334
 162   1.0000      -0.216673        -5.8960
 163   1.0000      -0.215697        -5.8694
 164   1.0000      -0.209140        -5.6910
 165   1.0000      -0.201978        -5.4961
 166   0.0000      -0.195371        -5.3163
 167   0.0000      -0.155089        -4.2202
 168   0.0000      -0.145638        -3.9630
 169   0.0000      -0.134943        -3.6720
 170   0.0000      -0.128261        -3.4902

                 SPIN DOWN ORBITALS
  NO   OCC          E(Eh)            E(eV)
   0   1.0000    -254.738917     -6931.7983
   1   1.0000     -29.520240      -803.2866
   2   1.0000     -25.472475      -693.1413
   3   1.0000     -25.469266      -693.0540
   4   1.0000     -25.463979      -692.9101
   5   1.0000      -4.034847      -109.7938
   6   1.0000      -4.034771      -109.7917
   7   1.0000      -4.034759      -109.7914
   8   1.0000      -4.034578      -109.7864
   9   1.0000      -4.034392      -109.7814
  10   1.0000      -4.034349      -109.7802
  11   1.0000      -4.033973      -109.7700
  12   1.0000      -4.033898      -109.7679
  13   1.0000      -4.028927      -109.6327
  14   1.0000      -4.028911      -109.6322
  15   1.0000      -4.025672      -109.5441
  16   1.0000      -4.025507      -109.5396
  17   1.0000      -4.024595      -109.5148
  18   1.0000      -4.024574      -109.5142
  19   1.0000      -4.020894      -109.4141
  20   1.0000      -4.020749      -109.4101
  21   1.0000      -3.234199       -88.0070
  22   1.0000      -2.251888       -61.2770
  23   1.0000      -2.251718       -61.2724
  24   1.0000      -2.251157       -61.2571
  25   1.0000      -2.251036       -61.2538
  26   1.0000      -2.249671       -61.2167
  27   1.0000      -2.249549       -61.2133
  28   1.0000      -2.249058       -61.2000
  29   1.0000      -2.248939       -61.1967
  30   1.0000      -2.248673       -61.1895
  31   1.0000      -2.248557       -61.1864
  32   1.0000      -2.248213       -61.1770
  33   1.0000      -2.247883       -61.1680
  34   1.0000      -2.247342       -61.1533
  35   1.0000      -2.247167       -61.1485
  36   1.0000      -2.246258       -61.1238
  37   1.0000      -2.246228       -61.1230
  38   1.0000      -2.245704       -61.1087
  39   1.0000      -2.245232       -61.0959
  40   1.0000      -2.244936       -61.0878
  41   1.0000      -2.244547       -61.0772
  42   1.0000      -2.244191       -61.0676
  43   1.0000      -2.244122       -61.0657
  44   1.0000      -2.243818       -61.0574
  45   1.0000      -2.243566       -61.0505
  46   1.0000      -2.243542       -61.0499
  47   1.0000      -2.243519       -61.0492
  48   1.0000      -2.242524       -61.0222
  49   1.0000      -2.242441       -61.0199
  50   1.0000      -2.240760       -60.9742
  51   1.0000      -2.239922       -60.9514
  52   1.0000      -2.239894       -60.9506
  53   1.0000      -2.239477       -60.9393
  54   1.0000      -2.239171       -60.9309
  55   1.0000      -2.238579       -60.9148
  56   1.0000      -2.238302       -60.9073
  57   1.0000      -2.238045       -60.9003
  58   1.0000      -2.238021       -60.8996
  59   1.0000      -2.237199       -60.8773
  60   1.0000      -2.236938       -60.8702
  61   1.0000      -2.236321       -60.8534
  62   1.0000      -2.236222       -60.8507
  63   1.0000      -2.234733       -60.8102
  64   1.0000      -2.234177       -60.7951
  65   1.0000      -2.234144       -60.7942
  66   1.0000      -2.233136       -60.7667
  67   1.0000      -2.233079       -60.7652
  68   1.0000      -2.231197       -60.7140
  69   1.0000      -2.230655       -60.6992
  70   1.0000      -2.057875       -55.9976
  71   1.0000      -2.054710       -55.9115
  72   1.0000      -2.040112       -55.5143
  73   1.0000      -0.431069       -11.7300
  74   1.0000      -0.395490       -10.7618
  75   1.0000      -0.392435       -10.6787
  76   1.0000      -0.388661       -10.5760
  77   1.0000      -0.375450       -10.2165
  78   1.0000      -0.373073       -10.1518
  79   1.0000      -0.370920       -10.0933
  80   1.0000      -0.368484       -10.0270
  81   1.0000      -0.367934       -10.0120
  82   1.0000      -0.363794        -9.8993
  83   1.0000      -0.363545        -9.8926
  84   1.0000      -0.361508        -9.8371
  85   1.0000      -0.360168        -9.8007
  86   1.0000      -0.357888        -9.7386
  87   1.0000      -0.354628        -9.6499
  88   1.0000      -0.354331        -9.6418
  89   1.0000      -0.352604        -9.5948
  90   1.0000      -0.352009        -9.5787
  91   1.0000      -0.350584        -9.5399
  92   1.0000      -0.347617        -9.4591
  93   1.0000      -0.346534        -9.4297
  94   1.0000      -0.345227        -9.3941
  95   1.0000      -0.344471        -9.3735
  96   1.0000      -0.342513        -9.3202
  97   1.0000      -0.338191        -9.2026
  98   1.0000      -0.337644        -9.1878
  99   1.0000      -0.336826        -9.1655
 100   1.0000      -0.333112        -9.0644
 101   1.0000      -0.328188        -8.9305
 102   1.0000      -0.327785        -8.9195
 103   1.0000      -0.325720        -8.8633
 104   1.0000      -0.322706        -8.7813
 105   1.0000      -0.320836        -8.7304
 106   1.0000      -0.317275        -8.6335
 107   1.0000      -0.317011        -8.6263
 108   1.0000      -0.316639        -8.6162
 109   1.0000      -0.311893        -8.4870
 110   1.0000      -0.310551        -8.4505
 111   1.0000      -0.305938        -8.3250
 112   1.0000      -0.305516        -8.3135
 113   1.0000      -0.298845        -8.1320
 114   1.0000      -0.296961        -8.0807
 115   1.0000      -0.296488        -8.0678
 116   1.0000      -0.295074        -8.0294
 117   1.0000      -0.293177        -7.9777
 118   1.0000      -0.291639        -7.9359
 119   1.0000      -0.290632        -7.9085
 120   1.0000      -0.290461        -7.9038
 121   1.0000      -0.287843        -7.8326
 122   1.0000      -0.285682        -7.7738
 123   1.0000      -0.282607        -7.6901
 124   1.0000      -0.280904        -7.6438
 125   1.0000      -0.279835        -7.6147
 126   1.0000      -0.277889        -7.5618
 127   1.0000      -0.276711        -7.5297
 128   1.0000      -0.274793        -7.4775
 129   1.0000      -0.272862        -7.4249
 130   1.0000      -0.271657        -7.3922
 131   1.0000      -0.269393        -7.3306
 132   1.0000      -0.267085        -7.2677
 133   1.0000      -0.266999        -7.2654
 134   1.0000      -0.265338        -7.2202
 135   1.0000      -0.263950        -7.1825
 136   1.0000      -0.263877        -7.1805
 137   1.0000      -0.262636        -7.1467
 138   1.0000      -0.261851        -7.1253
 139   1.0000      -0.261191        -7.1074
 140   1.0000      -0.259567        -7.0632
 141   1.0000      -0.259553        -7.0628
 142   1.0000      -0.257822        -7.0157
 143   1.0000      -0.255833        -6.9616
 144   1.0000      -0.255641        -6.9563
 145   1.0000      -0.253361        -6.8943
 146   1.0000      -0.252893        -6.8816
 147   1.0000      -0.252629        -6.8744
 148   1.0000      -0.251042        -6.8312
 149   1.0000      -0.249356        -6.7853
 150   1.0000      -0.248444        -6.7605
 151   1.0000      -0.247288        -6.7291
 152   1.0000      -0.245979        -6.6934
 153   1.0000      -0.243758        -6.6330
 154   1.0000      -0.240050        -6.5321
 155   1.0000      -0.240004        -6.5308
 156   1.0000      -0.234432        -6.3792
 157   1.0000      -0.224455        -6.1077
 158   1.0000      -0.221283        -6.0214
 159   1.0000      -0.220901        -6.0110
 160   1.0000      -0.216037        -5.8787
 161   1.0000      -0.209536        -5.7018
 162   1.0000      -0.180981        -4.9247
 163   1.0000      -0.173942        -4.7332
 164   0.0000      -0.152952        -4.1620
 165   0.0000      -0.151486        -4.1222
 166   0.0000      -0.148566        -4.0427
 167   0.0000      -0.144036        -3.9194
 168   0.0000      -0.143309        -3.8996

MULLIKEN ATOMIC CHARGES AND SPIN POPULATIONS
--------------------------------------------
   0 Au:    0.244714   -0.032493
   1 Au:    0.224913   -0.012171
   2 Au:   -0.522638   -0.017483
   3 Au:    0.325654    0.024910
   4 Au:    0.256732   -0.012585
   5 Au:    0.215918   -0.094409
   6 Au:    0.189265   -0.028387
   7 Au:    0.223111   -0.012139
   8 Au:    0.175784   -0.095651
   9 Au:    0.219332   -0.093398
  10 Au:   -0.533628   -0.018956
  11 Au:    0.244233   -0.032935
  12 Au:    0.256613   -0.012648
  13 Au:    0.183263   -0.028578
  14 Au:    0.173908   -0.095842
  15 Au:    0.326002    0.024288
  16 Fe:   -2.203177    2.538479
Sum of atomic charges         :   -0.0000000

LOEWDIN ATOMIC CHARGES AND SPIN POPULATIONS
-------------------------------------------
   0 Au:    0.018662   -0.036839
   1 Au:    0.062653   -0.019350
   2 Au:   -0.051900   -0.013632
   3 Au:    0.080553    0.001873
   4 Au:    0.045478   -0.022250
   5 Au:    0.028784   -0.072288
   6 Au:    0.018018   -0.051290
   7 Au:    0.062245   -0.019424
   8 Au:    0.054707   -0.072605
   9 Au:    0.029524   -0.072115
  10 Au:   -0.053020   -0.013853
  11 Au:    0.018475   -0.036869
  12 Au:    0.045364   -0.022574
  13 Au:    0.017111   -0.050924
  14 Au:    0.054210   -0.072525
  15 Au:    0.080221    0.001561
  16 Fe:   -0.511086    2.573104

  Mayer bond orders larger than 0.100000
B(  0-Au,  2-Au) :   0.2174 B(  0-Au,  5-Au) :   0.2426 B(  0-Au,  6-Au) :   0.2403
B(  0-Au, 10-Au) :   0.3324 B(  0-Au, 11-Au) :   0.3541 B(  1-Au,  2-Au) :   0.1303
B(  1-Au,  3-Au) :   0.1934 B(  1-Au,  4-Au) :   0.2255 B(  1-Au, 13-Au) :   0.2695
B(  1-Au, 14-Au) :   0.2051 B(  1-Au, 16-Fe) :   0.4424 B(  2-Au,  4-Au) :   0.2972
B(  2-Au,  5-Au) :   0.3950 B(  2-Au, 10-Au) :   0.1237 B(  2-Au, 11-Au) :   0.3299
B(  2-Au, 13-Au) :   0.3939 B(  2-Au, 16-Fe) :   0.3929 B(  3-Au,  4-Au) :   0.2108
B(  3-Au,  8-Au) :   0.1783 B(  3-Au, 15-Au) :   0.2427 B(  3-Au, 16-Fe) :   0.4085
B(  4-Au,  5-Au) :   0.3037 B(  4-Au,  8-Au) :   0.2065 B(  4-Au, 16-Fe) :   0.2912
B(  5-Au,  6-Au) :   0.2428 B(  5-Au,  8-Au) :   0.1723 B(  5-Au, 16-Fe) :   0.1214
B(  6-Au,  7-Au) :   0.2687 B(  6-Au,  8-Au) :   0.2165 B(  6-Au, 10-Au) :   0.3953
B(  6-Au, 16-Fe) :   0.1762 B(  7-Au,  8-Au) :   0.2049 B(  7-Au, 10-Au) :   0.1321
B(  7-Au, 12-Au) :   0.2248 B(  7-Au, 15-Au) :   0.1948 B(  7-Au, 16-Fe) :   0.4425
B(  8-Au, 16-Fe) :   0.4936 B(  9-Au, 10-Au) :   0.3977 B(  9-Au, 11-Au) :   0.2421
B(  9-Au, 12-Au) :   0.3036 B(  9-Au, 13-Au) :   0.2433 B(  9-Au, 14-Au) :   0.1697
B(  9-Au, 16-Fe) :   0.1197 B( 10-Au, 11-Au) :   0.2197 B( 10-Au, 12-Au) :   0.2990
B( 10-Au, 16-Fe) :   0.3925 B( 11-Au, 13-Au) :   0.2410 B( 12-Au, 14-Au) :   0.2086
B( 12-Au, 15-Au) :   0.2109 B( 12-Au, 16-Fe) :   0.2881 B( 13-Au, 14-Au) :   0.2177
B( 13-Au, 16-Fe) :   0.1778 B( 14-Au, 15-Au) :   0.1804 B( 14-Au, 16-Fe) :   0.4929
B( 15-Au, 16-Fe) :   0.4059

FINAL SINGLE POINT ENERGY     -3436.730713569149

DIPOLE MOMENT
-------------
                                X             Y             Z
Electronic contribution:     22.86602      16.49975      -8.58010
Nuclear contribution   :    -23.21146     -16.74584       8.70709
                        -----------------------------------------
Total Dipole Moment    :     -0.34544      -0.24609       0.12700
                        -----------------------------------------
Magnitude (a.u.)       :      0.44274
Magnitude (Debye)      :      1.12536

Rotational constants in cm-1:     0.000887     0.000873     0.000760
Rotational constants in MHz :    26.595397    26.169594    22.780533

                             ****ORCA TERMINATED NORMALLY****
TOTAL RUN TIME: 1 days 9 hours 8 minutes 54 seconds 242 msec
