                         Program Version 5.0.3 -  RELEASE  -
|  1> !RI-B2PLYP def2-TZVP def2-TZVP/C
|  2> !RIJCOSX VERYSLOWCONV
|  3>
|  4> %scf
|  5>   AutoTRAHIter 200
|  6>   maxiter 400
|  7> end
|  8>
|  9>
| 10> %pal nprocs 6 end
| 11>
| 12> *xyzfile 0 5 pbe.xyz
| 13>
| 14> $new_job
| 15>
| 16> !RI-B2PLYP def2-TZVP def2-TZVP/C
| 17> !RIJCOSX VERYSLOWCONV
| 18>
| 19> %scf
| 20>   AutoTRAHIter 200
| 21>   maxiter 400
| 22> end
| 23>
| 24>
| 25> %pal nprocs 6 end
| 26>
| 27> *xyzfile 0 3 pbe.xyz
| 28>
| 29>
| 30>
| 31>
| 32>
| 33>                          ****END OF INPUT****
 Total Charge           Charge          ....    0
 Multiplicity           Mult            ....    5
 Number of Electrons    NEL             ....  254
MP2 TOTAL ENERGY:    -2890.515845509 Eh
FINAL SINGLE POINT ENERGY     -2890.515845508723

CARTESIAN COORDINATES (ANGSTROEM)
---------------------------------
  Au     6.532512    6.405381    6.890279
  Au    11.607878    8.610893    9.980761
  Au    10.433786    9.399555    7.514908
  Au     9.334519    5.715692    6.394103
  Au     8.298968    8.411692    6.122154
  Au    11.493906    6.655332    8.019445
  Au     9.696021    6.808715   10.858695
  Au     8.927005    9.537049    9.893466
  Au     7.477943    3.920055    7.620997
  Au     9.762147    4.693896    9.020897
  Au     6.708784    8.563154    8.631304
  Au     7.260380    5.902414    9.678157
  Fe     9.019057    7.345470    8.407268

 Multiplicity           Mult            ....    3
 Number of Electrons    NEL             ....  254
 Basis Dimension        Dim             ....  525

ORBITAL ENERGIES
----------------
                 SPIN UP ORBITALS
  NO   OCC          E(Eh)            E(eV)
   0   1.0000    -258.337866     -7029.7307
   1   1.0000     -30.899184      -840.8095
   2   1.0000     -26.617343      -724.2947
   3   1.0000     -26.587562      -723.4843
   4   1.0000     -26.586960      -723.4680
   5   1.0000      -4.408993      -119.9748
   6   1.0000      -4.405324      -119.8750
   7   1.0000      -4.405111      -119.8692
   8   1.0000      -4.403352      -119.8213
   9   1.0000      -4.403342      -119.8210
  10   1.0000      -4.403200      -119.8172
  11   1.0000      -4.403171      -119.8164
  12   1.0000      -4.390716      -119.4775
  13   1.0000      -4.390485      -119.4712
  14   1.0000      -4.390045      -119.4592
  15   1.0000      -4.381467      -119.2258
  16   1.0000      -4.380262      -119.1930
  17   1.0000      -3.911772      -106.4447
  18   1.0000      -2.661597       -72.4257
  19   1.0000      -2.600399       -70.7605
  20   1.0000      -2.598790       -70.7167
  21   1.0000      -2.529717       -68.8371
  22   1.0000      -2.527523       -68.7774
  23   1.0000      -2.526885       -68.7600
  24   1.0000      -2.526316       -68.7446
  25   1.0000      -2.525675       -68.7271
  26   1.0000      -2.525462       -68.7213
  27   1.0000      -2.524618       -68.6983
  28   1.0000      -2.524464       -68.6942
  29   1.0000      -2.524219       -68.6875
  30   1.0000      -2.522043       -68.6283
  31   1.0000      -2.521828       -68.6224
  32   1.0000      -2.521706       -68.6191
  33   1.0000      -2.521580       -68.6157
  34   1.0000      -2.520504       -68.5864
  35   1.0000      -2.519661       -68.5635
  36   1.0000      -2.519130       -68.5490
  37   1.0000      -2.518934       -68.5437
  38   1.0000      -2.518368       -68.5283
  39   1.0000      -2.517607       -68.5076
  40   1.0000      -2.517320       -68.4998
  41   1.0000      -2.517105       -68.4939
  42   1.0000      -2.511736       -68.3478
  43   1.0000      -2.509945       -68.2991
  44   1.0000      -2.508450       -68.2584
  45   1.0000      -2.507672       -68.2372
  46   1.0000      -2.506759       -68.2124
  47   1.0000      -2.506392       -68.2024
  48   1.0000      -2.505661       -68.1825
  49   1.0000      -2.504814       -68.1594
  50   1.0000      -2.503697       -68.1291
  51   1.0000      -2.498533       -67.9886
  52   1.0000      -2.497985       -67.9736
  53   1.0000      -2.497572       -67.9624
  54   1.0000      -2.497381       -67.9572
  55   1.0000      -2.497103       -67.9496
  56   1.0000      -2.495597       -67.9087
  57   1.0000      -0.565064       -15.3762
  58   1.0000      -0.559244       -15.2178
  59   1.0000      -0.558413       -15.1952
  60   1.0000      -0.537712       -14.6319
  61   1.0000      -0.518295       -14.1035
  62   1.0000      -0.509484       -13.8638
  63   1.0000      -0.469220       -12.7681
  64   1.0000      -0.463567       -12.6143
  65   1.0000      -0.459327       -12.4989
  66   1.0000      -0.457914       -12.4605
  67   1.0000      -0.450641       -12.2626
  68   1.0000      -0.449882       -12.2419
  69   1.0000      -0.449248       -12.2247
  70   1.0000      -0.447696       -12.1824
  71   1.0000      -0.447455       -12.1759
  72   1.0000      -0.444999       -12.1090
  73   1.0000      -0.444450       -12.0941
  74   1.0000      -0.441688       -12.0189
  75   1.0000      -0.438257       -11.9256
  76   1.0000      -0.436398       -11.8750
  77   1.0000      -0.433863       -11.8060
  78   1.0000      -0.433006       -11.7827
  79   1.0000      -0.431957       -11.7542
  80   1.0000      -0.429765       -11.6945
  81   1.0000      -0.425441       -11.5768
  82   1.0000      -0.423977       -11.5370
  83   1.0000      -0.417614       -11.3639
  84   1.0000      -0.415353       -11.3023
  85   1.0000      -0.412918       -11.2361
  86   1.0000      -0.409214       -11.1353
  87   1.0000      -0.407337       -11.0842
  88   1.0000      -0.403107       -10.9691
  89   1.0000      -0.401977       -10.9383
  90   1.0000      -0.400820       -10.9069
  91   1.0000      -0.400335       -10.8937
  92   1.0000      -0.394636       -10.7386
  93   1.0000      -0.391878       -10.6635
  94   1.0000      -0.391417       -10.6510
  95   1.0000      -0.381605       -10.3840
  96   1.0000      -0.378706       -10.3051
  97   1.0000      -0.376720       -10.2511
  98   1.0000      -0.373995       -10.1769
  99   1.0000      -0.372968       -10.1490
 100   1.0000      -0.369756       -10.0616
 101   1.0000      -0.367420        -9.9980
 102   1.0000      -0.363723        -9.8974
 103   1.0000      -0.363487        -9.8910
 104   1.0000      -0.362143        -9.8544
 105   1.0000      -0.359480        -9.7819
 106   1.0000      -0.358435        -9.7535
 107   1.0000      -0.357566        -9.7299
 108   1.0000      -0.356825        -9.7097
 109   1.0000      -0.355711        -9.6794
 110   1.0000      -0.354177        -9.6376
 111   1.0000      -0.353407        -9.6167
 112   1.0000      -0.352281        -9.5861
 113   1.0000      -0.350796        -9.5456
 114   1.0000      -0.348317        -9.4782
 115   1.0000      -0.347249        -9.4491
 116   1.0000      -0.341279        -9.2867
 117   1.0000      -0.340365        -9.2618
 118   1.0000      -0.338894        -9.2218
 119   1.0000      -0.337163        -9.1747
 120   1.0000      -0.332106        -9.0371
 121   1.0000      -0.330567        -8.9952
 122   1.0000      -0.319448        -8.6926
 123   1.0000      -0.315852        -8.5948
 124   1.0000      -0.297822        -8.1042
 125   1.0000      -0.271644        -7.3918
 126   1.0000      -0.224402        -6.1063
 127   1.0000      -0.204906        -5.5758
 128   0.0000      -0.117458        -3.1962
 129   0.0000      -0.111877        -3.0443
 130   0.0000      -0.097624        -2.6565
 131   0.0000      -0.062612        -1.7037
 132   0.0000      -0.054812        -1.4915

                 SPIN DOWN ORBITALS
  NO   OCC          E(Eh)            E(eV)
   0   1.0000    -258.335801     -7029.6745
   1   1.0000     -30.807901      -838.3256
   2   1.0000     -26.519095      -721.6213
   3   1.0000     -26.511777      -721.4221
   4   1.0000     -26.510969      -721.4001
   5   1.0000      -4.409021      -119.9756
   6   1.0000      -4.405760      -119.8868
   7   1.0000      -4.405538      -119.8808
   8   1.0000      -4.403685      -119.8304
   9   1.0000      -4.403526      -119.8260
  10   1.0000      -4.403235      -119.8181
  11   1.0000      -4.403051      -119.8131
  12   1.0000      -4.392161      -119.5168
  13   1.0000      -4.391909      -119.5099
  14   1.0000      -4.390169      -119.4626
  15   1.0000      -4.382189      -119.2454
  16   1.0000      -4.381061      -119.2147
  17   1.0000      -3.671005       -99.8931
  18   1.0000      -2.529005       -68.8177
  19   1.0000      -2.527558       -68.7783
  20   1.0000      -2.526587       -68.7519
  21   1.0000      -2.525204       -68.7143
  22   1.0000      -2.525014       -68.7091
  23   1.0000      -2.524038       -68.6826
  24   1.0000      -2.523390       -68.6649
  25   1.0000      -2.522746       -68.6474
  26   1.0000      -2.522595       -68.6433
  27   1.0000      -2.521953       -68.6258
  28   1.0000      -2.521748       -68.6203
  29   1.0000      -2.521409       -68.6110
  30   1.0000      -2.521152       -68.6040
  31   1.0000      -2.520829       -68.5952
  32   1.0000      -2.520088       -68.5751
  33   1.0000      -2.519086       -68.5478
  34   1.0000      -2.518893       -68.5426
  35   1.0000      -2.518502       -68.5319
  36   1.0000      -2.517305       -68.4993
  37   1.0000      -2.517155       -68.4953
  38   1.0000      -2.516927       -68.4891
  39   1.0000      -2.511724       -68.3475
  40   1.0000      -2.509797       -68.2951
  41   1.0000      -2.509431       -68.2851
  42   1.0000      -2.508284       -68.2539
  43   1.0000      -2.507864       -68.2424
  44   1.0000      -2.506953       -68.2177
  45   1.0000      -2.506354       -68.2014
  46   1.0000      -2.505802       -68.1863
  47   1.0000      -2.505336       -68.1736
  48   1.0000      -2.500008       -68.0287
  49   1.0000      -2.499348       -68.0107
  50   1.0000      -2.499304       -68.0095
  51   1.0000      -2.497621       -67.9637
  52   1.0000      -2.497611       -67.9634
  53   1.0000      -2.497113       -67.9499
  54   1.0000      -2.350900       -63.9712
  55   1.0000      -2.349432       -63.9313
  56   1.0000      -2.335667       -63.5567
  57   1.0000      -0.515305       -14.0222
  58   1.0000      -0.475328       -12.9343
  59   1.0000      -0.473281       -12.8786
  60   1.0000      -0.471334       -12.8257
  61   1.0000      -0.465265       -12.6605
  62   1.0000      -0.461191       -12.5497
  63   1.0000      -0.459642       -12.5075
  64   1.0000      -0.455193       -12.3864
  65   1.0000      -0.453456       -12.3392
  66   1.0000      -0.450795       -12.2668
  67   1.0000      -0.450204       -12.2507
  68   1.0000      -0.449906       -12.2426
  69   1.0000      -0.448020       -12.1912
  70   1.0000      -0.447491       -12.1768
  71   1.0000      -0.446875       -12.1601
  72   1.0000      -0.444659       -12.0998
  73   1.0000      -0.439879       -11.9697
  74   1.0000      -0.436655       -11.8820
  75   1.0000      -0.435819       -11.8592
  76   1.0000      -0.431611       -11.7447
  77   1.0000      -0.430166       -11.7054
  78   1.0000      -0.423918       -11.5354
  79   1.0000      -0.419912       -11.4264
  80   1.0000      -0.419834       -11.4243
  81   1.0000      -0.417111       -11.3502
  82   1.0000      -0.413247       -11.2450
  83   1.0000      -0.412846       -11.2341
  84   1.0000      -0.409105       -11.1323
  85   1.0000      -0.406437       -11.0597
  86   1.0000      -0.404601       -11.0098
  87   1.0000      -0.403688       -10.9849
  88   1.0000      -0.396130       -10.7792
  89   1.0000      -0.394121       -10.7246
  90   1.0000      -0.393283       -10.7018
  91   1.0000      -0.392484       -10.6800
  92   1.0000      -0.387721       -10.5504
  93   1.0000      -0.384667       -10.4673
  94   1.0000      -0.377237       -10.2651
  95   1.0000      -0.374116       -10.1802
  96   1.0000      -0.372203       -10.1281
  97   1.0000      -0.369815       -10.0632
  98   1.0000      -0.366637        -9.9767
  99   1.0000      -0.364364        -9.9148
 100   1.0000      -0.362017        -9.8510
 101   1.0000      -0.361493        -9.8367
 102   1.0000      -0.358978        -9.7683
 103   1.0000      -0.358345        -9.7511
 104   1.0000      -0.357852        -9.7376
 105   1.0000      -0.356817        -9.7095
 106   1.0000      -0.355425        -9.6716
 107   1.0000      -0.355242        -9.6666
 108   1.0000      -0.353575        -9.6213
 109   1.0000      -0.352621        -9.5953
 110   1.0000      -0.349419        -9.5082
 111   1.0000      -0.347454        -9.4547
 112   1.0000      -0.343051        -9.3349
 113   1.0000      -0.341610        -9.2957
 114   1.0000      -0.338123        -9.2008
 115   1.0000      -0.337976        -9.1968
 116   1.0000      -0.332490        -9.0475
 117   1.0000      -0.324797        -8.8382
 118   1.0000      -0.320733        -8.7276
 119   1.0000      -0.318510        -8.6671
 120   1.0000      -0.308286        -8.3889
 121   1.0000      -0.295935        -8.0528
 122   1.0000      -0.231790        -6.3073
 123   1.0000      -0.222326        -6.0498
 124   1.0000      -0.218400        -5.9430
 125   1.0000      -0.196975        -5.3600
 126   0.0000      -0.107134        -2.9153
 127   0.0000      -0.069992        -1.9046
 128   0.0000      -0.057127        -1.5545
 129   0.0000      -0.045807        -1.2465
 130   0.0000      -0.043438        -1.1820

MULLIKEN ATOMIC CHARGES AND SPIN POPULATIONS
--------------------------------------------
   0 Au:    0.080813    0.041472
   1 Au:    0.228403    0.023418
   2 Au:    0.163457   -0.239235
   3 Au:    0.189871   -0.222929
   4 Au:    0.254832   -0.209589
   5 Au:    0.159193   -0.193896
   6 Au:    0.158126   -0.190561
   7 Au:    0.161804   -0.230045
   8 Au:    0.140867    0.088848
   9 Au:    0.222747   -0.010545
  10 Au:    0.254721   -0.210467
  11 Au:    0.188558   -0.229565
  12 Fe:   -2.203390    3.583096
Sum of atomic charges         :   -0.0000000

LOEWDIN ATOMIC CHARGES AND SPIN POPULATIONS
-------------------------------------------
   0 Au:   -0.045039   -0.045309
   1 Au:    0.009768   -0.072820
   2 Au:    0.014948   -0.197074
   3 Au:    0.030575   -0.146318
   4 Au:    0.087227   -0.157855
   5 Au:    0.056816   -0.131315
   6 Au:    0.056751   -0.129486
   7 Au:    0.014449   -0.191995
   8 Au:    0.030612   -0.014849
   9 Au:    0.037412   -0.065630
  10 Au:    0.086605   -0.157037
  11 Au:    0.031250   -0.149757
  12 Fe:   -0.411375    3.459445

  Mayer bond orders larger than 0.100000
B(  0-Au,  1-Au) :   0.1373 B(  0-Au,  3-Au) :   0.1488 B(  0-Au,  4-Au) :   0.2103
B(  0-Au,  8-Au) :   0.2755 B(  0-Au, 10-Au) :   0.2108 B(  0-Au, 11-Au) :   0.1502
B(  0-Au, 12-Fe) :   0.3479 B(  1-Au,  2-Au) :   0.1759 B(  1-Au,  5-Au) :   0.2683
B(  1-Au,  6-Au) :   0.2704 B(  1-Au,  7-Au) :   0.1783 B(  1-Au, 12-Fe) :   0.2468
B(  2-Au,  4-Au) :   0.2119 B(  2-Au,  7-Au) :   0.2096 B(  2-Au, 12-Fe) :   0.4587
B(  3-Au,  4-Au) :   0.1401 B(  3-Au,  5-Au) :   0.1337 B(  3-Au,  8-Au) :   0.2619
B(  3-Au,  9-Au) :   0.2026 B(  3-Au, 12-Fe) :   0.4107 B(  4-Au, 12-Fe) :   0.5520
B(  5-Au,  9-Au) :   0.1680 B(  5-Au, 12-Fe) :   0.5443 B(  6-Au,  9-Au) :   0.1668
B(  6-Au, 11-Au) :   0.1375 B(  6-Au, 12-Fe) :   0.5438 B(  7-Au, 10-Au) :   0.2162
B(  7-Au, 12-Fe) :   0.4604 B(  8-Au,  9-Au) :   0.2544 B(  8-Au, 11-Au) :   0.2581
B(  8-Au, 12-Fe) :   0.1396 B(  9-Au, 11-Au) :   0.1979 B(  9-Au, 12-Fe) :   0.4243
B( 10-Au, 11-Au) :   0.1349 B( 10-Au, 12-Fe) :   0.5542 B( 11-Au, 12-Fe) :   0.4128

MP2 TOTAL ENERGY:    -2890.506125653 Eh
FINAL SINGLE POINT ENERGY     -2890.506125653033

DIPOLE MOMENT
-------------
                                X             Y             Z
Electronic contribution:     -2.15976     -11.28204      -0.80255
Nuclear contribution   :      2.20336      11.16792       0.83097
                        -----------------------------------------
Total Dipole Moment    :      0.04360      -0.11412       0.02842
                        -----------------------------------------
Magnitude (a.u.)       :      0.12543
Magnitude (Debye)      :      0.31882

Rotational constants in cm-1:     0.001699     0.001260     0.001140
Rotational constants in MHz :    50.940282    37.778322    34.186589

                             ****ORCA TERMINATED NORMALLY****
TOTAL RUN TIME: 0 days 1 hours 12 minutes 12 seconds 291 msec
