                         Program Version 5.0.3 -  RELEASE  -
|  1> !PBE def2-TZVP VERYSLOWCONV
|  2>
|  3> %scf
|  4>   AutoTRAHIter 200
|  5>   maxiter 400
|  6> end
|  7>
|  8>
|  9> %pal nprocs 6 end
| 10>
| 11> *xyzfile 0 5 pbe.xyz
| 12>
| 13> $new_job
| 14>
| 15> !PBE def2-TZVP VERYSLOWCONV
| 16>
| 17> %scf
| 18>   AutoTRAHIter 200
| 19>   maxiter 400
| 20> end
| 21>
| 22>
| 23> %pal nprocs 6 end
| 24>
| 25> *xyzfile 0 3 pbe.xyz
| 26>
| 27>
| 28>
| 29>
| 30>
| 31>                          ****END OF INPUT****
 Total Charge           Charge          ....    0
 Multiplicity           Mult            ....    5
 Number of Electrons    NEL             ....  254
FINAL SINGLE POINT ENERGY     -2893.383557109839

CARTESIAN COORDINATES (ANGSTROEM)
---------------------------------
  Au     6.532512    6.405381    6.890279
  Au    11.607878    8.610893    9.980761
  Au    10.433786    9.399555    7.514908
  Au     9.334519    5.715692    6.394103
  Au     8.298968    8.411692    6.122154
  Au    11.493906    6.655332    8.019445
  Au     9.696021    6.808715   10.858695
  Au     8.927005    9.537049    9.893466
  Au     7.477943    3.920055    7.620997
  Au     9.762147    4.693896    9.020897
  Au     6.708784    8.563154    8.631304
  Au     7.260380    5.902414    9.678157
  Fe     9.019057    7.345470    8.407268

 Multiplicity           Mult            ....    3
 Number of Electrons    NEL             ....  254
 Basis Dimension        Dim             ....  525

ORBITAL ENERGIES
----------------
                 SPIN UP ORBITALS
  NO   OCC          E(Eh)            E(eV)
   0   1.0000    -254.757601     -6932.3067
   1   1.0000     -29.596844      -805.3711
   2   1.0000     -25.540584      -694.9946
   3   1.0000     -25.528508      -694.6660
   4   1.0000     -25.528266      -694.6594
   5   1.0000      -4.029120      -109.6379
   6   1.0000      -4.029067      -109.6365
   7   1.0000      -4.028460      -109.6200
   8   1.0000      -4.024650      -109.5163
   9   1.0000      -4.024583      -109.5145
  10   1.0000      -4.022722      -109.4638
  11   1.0000      -4.022590      -109.4602
  12   1.0000      -4.020247      -109.3965
  13   1.0000      -4.020063      -109.3915
  14   1.0000      -4.019173      -109.3672
  15   1.0000      -4.012500      -109.1857
  16   1.0000      -4.011855      -109.1681
  17   1.0000      -3.371193       -91.7348
  18   1.0000      -2.245931       -61.1149
  19   1.0000      -2.245803       -61.1114
  20   1.0000      -2.243617       -61.0519
  21   1.0000      -2.242273       -61.0154
  22   1.0000      -2.242196       -61.0133
  23   1.0000      -2.241357       -60.9904
  24   1.0000      -2.241185       -60.9858
  25   1.0000      -2.240521       -60.9677
  26   1.0000      -2.240469       -60.9662
  27   1.0000      -2.240156       -60.9578
  28   1.0000      -2.239544       -60.9411
  29   1.0000      -2.239487       -60.9395
  30   1.0000      -2.238973       -60.9256
  31   1.0000      -2.238223       -60.9051
  32   1.0000      -2.237899       -60.8963
  33   1.0000      -2.237694       -60.8907
  34   1.0000      -2.237236       -60.8783
  35   1.0000      -2.236677       -60.8631
  36   1.0000      -2.235138       -60.8212
  37   1.0000      -2.234153       -60.7944
  38   1.0000      -2.233681       -60.7815
  39   1.0000      -2.233495       -60.7765
  40   1.0000      -2.232848       -60.7589
  41   1.0000      -2.232774       -60.7569
  42   1.0000      -2.232149       -60.7399
  43   1.0000      -2.231190       -60.7138
  44   1.0000      -2.230500       -60.6950
  45   1.0000      -2.230460       -60.6939
  46   1.0000      -2.229624       -60.6712
  47   1.0000      -2.228337       -60.6361
  48   1.0000      -2.225882       -60.5693
  49   1.0000      -2.225095       -60.5479
  50   1.0000      -2.224932       -60.5435
  51   1.0000      -2.224768       -60.5390
  52   1.0000      -2.224086       -60.5205
  53   1.0000      -2.224038       -60.5192
  54   1.0000      -2.201889       -59.9165
  55   1.0000      -2.176636       -59.2293
  56   1.0000      -2.175567       -59.2002
  57   1.0000      -0.429079       -11.6758
  58   1.0000      -0.381903       -10.3921
  59   1.0000      -0.379580       -10.3289
  60   1.0000      -0.372463       -10.1352
  61   1.0000      -0.370452       -10.0805
  62   1.0000      -0.363381        -9.8881
  63   1.0000      -0.360164        -9.8006
  64   1.0000      -0.355693        -9.6789
  65   1.0000      -0.354685        -9.6515
  66   1.0000      -0.353601        -9.6220
  67   1.0000      -0.345825        -9.4104
  68   1.0000      -0.343589        -9.3495
  69   1.0000      -0.342154        -9.3105
  70   1.0000      -0.340012        -9.2522
  71   1.0000      -0.339366        -9.2346
  72   1.0000      -0.336748        -9.1634
  73   1.0000      -0.332607        -9.0507
  74   1.0000      -0.330985        -9.0066
  75   1.0000      -0.329850        -8.9757
  76   1.0000      -0.325826        -8.8662
  77   1.0000      -0.324646        -8.8341
  78   1.0000      -0.320939        -8.7332
  79   1.0000      -0.320784        -8.7290
  80   1.0000      -0.319043        -8.6816
  81   1.0000      -0.318873        -8.6770
  82   1.0000      -0.309429        -8.4200
  83   1.0000      -0.308188        -8.3862
  84   1.0000      -0.306498        -8.3402
  85   1.0000      -0.302621        -8.2347
  86   1.0000      -0.301003        -8.1907
  87   1.0000      -0.300686        -8.1821
  88   1.0000      -0.296975        -8.0811
  89   1.0000      -0.291187        -7.9236
  90   1.0000      -0.289841        -7.8870
  91   1.0000      -0.287606        -7.8262
  92   1.0000      -0.287167        -7.8142
  93   1.0000      -0.286666        -7.8006
  94   1.0000      -0.279664        -7.6100
  95   1.0000      -0.277451        -7.5498
  96   1.0000      -0.274089        -7.4583
  97   1.0000      -0.270541        -7.3618
  98   1.0000      -0.269861        -7.3433
  99   1.0000      -0.269059        -7.3215
 100   1.0000      -0.266711        -7.2576
 101   1.0000      -0.263654        -7.1744
 102   1.0000      -0.262816        -7.1516
 103   1.0000      -0.259786        -7.0691
 104   1.0000      -0.258449        -7.0327
 105   1.0000      -0.258434        -7.0324
 106   1.0000      -0.257820        -7.0156
 107   1.0000      -0.257211        -6.9991
 108   1.0000      -0.256135        -6.9698
 109   1.0000      -0.256090        -6.9686
 110   1.0000      -0.254484        -6.9249
 111   1.0000      -0.253041        -6.8856
 112   1.0000      -0.250982        -6.8296
 113   1.0000      -0.250882        -6.8269
 114   1.0000      -0.247984        -6.7480
 115   1.0000      -0.247670        -6.7394
 116   1.0000      -0.245159        -6.6711
 117   1.0000      -0.243376        -6.6226
 118   1.0000      -0.242826        -6.6076
 119   1.0000      -0.242571        -6.6007
 120   1.0000      -0.239157        -6.5078
 121   1.0000      -0.237774        -6.4702
 122   1.0000      -0.235275        -6.4022
 123   1.0000      -0.235029        -6.3955
 124   1.0000      -0.232212        -6.3188
 125   1.0000      -0.227436        -6.1888
 126   1.0000      -0.203185        -5.5289
 127   1.0000      -0.190862        -5.1936
 128   0.0000      -0.177407        -4.8275
 129   0.0000      -0.175133        -4.7656
 130   0.0000      -0.156782        -4.2662
 131   0.0000      -0.125154        -3.4056
 132   0.0000      -0.120153        -3.2695

                 SPIN DOWN ORBITALS
  NO   OCC          E(Eh)            E(eV)
   0   1.0000    -254.756925     -6932.2883
   1   1.0000     -29.541591      -803.8676
   2   1.0000     -25.493948      -693.7256
   3   1.0000     -25.489893      -693.6153
   4   1.0000     -25.488306      -693.5721
   5   1.0000      -4.028944      -109.6332
   6   1.0000      -4.028864      -109.6310
   7   1.0000      -4.028796      -109.6291
   8   1.0000      -4.024564      -109.5139
   9   1.0000      -4.024495      -109.5121
  10   1.0000      -4.023092      -109.4739
  11   1.0000      -4.022948      -109.4700
  12   1.0000      -4.020552      -109.4048
  13   1.0000      -4.020363      -109.3997
  14   1.0000      -4.019531      -109.3770
  15   1.0000      -4.013325      -109.2081
  16   1.0000      -4.012775      -109.1932
  17   1.0000      -3.247021       -88.3559
  18   1.0000      -2.245245       -61.0962
  19   1.0000      -2.245087       -61.0919
  20   1.0000      -2.243662       -61.0532
  21   1.0000      -2.242499       -61.0215
  22   1.0000      -2.242303       -61.0162
  23   1.0000      -2.241205       -60.9863
  24   1.0000      -2.240842       -60.9764
  25   1.0000      -2.240411       -60.9647
  26   1.0000      -2.240066       -60.9553
  27   1.0000      -2.239890       -60.9505
  28   1.0000      -2.239628       -60.9434
  29   1.0000      -2.239216       -60.9322
  30   1.0000      -2.238773       -60.9201
  31   1.0000      -2.238609       -60.9157
  32   1.0000      -2.237991       -60.8988
  33   1.0000      -2.237778       -60.8930
  34   1.0000      -2.237675       -60.8902
  35   1.0000      -2.236270       -60.8520
  36   1.0000      -2.234706       -60.8095
  37   1.0000      -2.234648       -60.8079
  38   1.0000      -2.233973       -60.7895
  39   1.0000      -2.233774       -60.7841
  40   1.0000      -2.233481       -60.7761
  41   1.0000      -2.233323       -60.7718
  42   1.0000      -2.232945       -60.7615
  43   1.0000      -2.231966       -60.7349
  44   1.0000      -2.231228       -60.7148
  45   1.0000      -2.230579       -60.6971
  46   1.0000      -2.230361       -60.6912
  47   1.0000      -2.229096       -60.6568
  48   1.0000      -2.227101       -60.6025
  49   1.0000      -2.226184       -60.5775
  50   1.0000      -2.225956       -60.5713
  51   1.0000      -2.225421       -60.5568
  52   1.0000      -2.225367       -60.5553
  53   1.0000      -2.224435       -60.5300
  54   1.0000      -2.066082       -56.2210
  55   1.0000      -2.063076       -56.1392
  56   1.0000      -2.060811       -56.0775
  57   1.0000      -0.425383       -11.5753
  58   1.0000      -0.381209       -10.3732
  59   1.0000      -0.375903       -10.2288
  60   1.0000      -0.366967        -9.9857
  61   1.0000      -0.365162        -9.9366
  62   1.0000      -0.356744        -9.7075
  63   1.0000      -0.354838        -9.6556
  64   1.0000      -0.352892        -9.6027
  65   1.0000      -0.349547        -9.5117
  66   1.0000      -0.346528        -9.4295
  67   1.0000      -0.345244        -9.3946
  68   1.0000      -0.343037        -9.3345
  69   1.0000      -0.342752        -9.3268
  70   1.0000      -0.340741        -9.2720
  71   1.0000      -0.339656        -9.2425
  72   1.0000      -0.337839        -9.1931
  73   1.0000      -0.333860        -9.0848
  74   1.0000      -0.331129        -9.0105
  75   1.0000      -0.329514        -8.9665
  76   1.0000      -0.325183        -8.8487
  77   1.0000      -0.321299        -8.7430
  78   1.0000      -0.320202        -8.7131
  79   1.0000      -0.317849        -8.6491
  80   1.0000      -0.312177        -8.4948
  81   1.0000      -0.310253        -8.4424
  82   1.0000      -0.309597        -8.4246
  83   1.0000      -0.308970        -8.4075
  84   1.0000      -0.306851        -8.3498
  85   1.0000      -0.303014        -8.2454
  86   1.0000      -0.301940        -8.2162
  87   1.0000      -0.299350        -8.1457
  88   1.0000      -0.294969        -8.0265
  89   1.0000      -0.289868        -7.8877
  90   1.0000      -0.288915        -7.8618
  91   1.0000      -0.288440        -7.8489
  92   1.0000      -0.285076        -7.7573
  93   1.0000      -0.284326        -7.7369
  94   1.0000      -0.279058        -7.5936
  95   1.0000      -0.274331        -7.4649
  96   1.0000      -0.273370        -7.4388
  97   1.0000      -0.270019        -7.3476
  98   1.0000      -0.269696        -7.3388
  99   1.0000      -0.267527        -7.2798
 100   1.0000      -0.265106        -7.2139
 101   1.0000      -0.263295        -7.1646
 102   1.0000      -0.260480        -7.0880
 103   1.0000      -0.259682        -7.0663
 104   1.0000      -0.259508        -7.0616
 105   1.0000      -0.259133        -7.0514
 106   1.0000      -0.258298        -7.0286
 107   1.0000      -0.257274        -7.0008
 108   1.0000      -0.256564        -6.9814
 109   1.0000      -0.255339        -6.9481
 110   1.0000      -0.254087        -6.9141
 111   1.0000      -0.251743        -6.8503
 112   1.0000      -0.249403        -6.7866
 113   1.0000      -0.248133        -6.7520
 114   1.0000      -0.247553        -6.7363
 115   1.0000      -0.244149        -6.6436
 116   1.0000      -0.243970        -6.6388
 117   1.0000      -0.243053        -6.6138
 118   1.0000      -0.237754        -6.4696
 119   1.0000      -0.235595        -6.4109
 120   1.0000      -0.229739        -6.2515
 121   1.0000      -0.209441        -5.6992
 122   1.0000      -0.200631        -5.4594
 123   1.0000      -0.199593        -5.4312
 124   1.0000      -0.196545        -5.3483
 125   1.0000      -0.183458        -4.9921
 126   0.0000      -0.162150        -4.4123
 127   0.0000      -0.157859        -4.2956
 128   0.0000      -0.153899        -4.1878
 129   0.0000      -0.148250        -4.0341
 130   0.0000      -0.142868        -3.8876

MULLIKEN ATOMIC CHARGES AND SPIN POPULATIONS
--------------------------------------------
   0 Au:    0.129692    0.055413
   1 Au:    0.270507    0.009138
   2 Au:    0.227876   -0.072411
   3 Au:    0.224904   -0.102530
   4 Au:    0.286706   -0.138844
   5 Au:    0.217547   -0.096199
   6 Au:    0.217448   -0.095060
   7 Au:    0.226130   -0.068540
   8 Au:    0.173741    0.035336
   9 Au:    0.196491   -0.060445
  10 Au:    0.286164   -0.138722
  11 Au:    0.225699   -0.103748
  12 Fe:   -2.682905    2.776613
Sum of atomic charges         :   -0.0000000

LOEWDIN ATOMIC CHARGES AND SPIN POPULATIONS
-------------------------------------------
   0 Au:   -0.015736   -0.007640
   1 Au:    0.028127   -0.040073
   2 Au:    0.062871   -0.085056
   3 Au:    0.065702   -0.075298
   4 Au:    0.100135   -0.118728
   5 Au:    0.082418   -0.081659
   6 Au:    0.082357   -0.081108
   7 Au:    0.062188   -0.083048
   8 Au:    0.045958   -0.009191
   9 Au:    0.041342   -0.069909
  10 Au:    0.099749   -0.117884
  11 Au:    0.067026   -0.075978
  12 Fe:   -0.722138    2.845573

  Mayer bond orders larger than 0.100000
B(  0-Au,  1-Au) :   0.1379 B(  0-Au,  3-Au) :   0.1536 B(  0-Au,  4-Au) :   0.2334
B(  0-Au,  8-Au) :   0.3188 B(  0-Au, 10-Au) :   0.2351 B(  0-Au, 11-Au) :   0.1548
B(  0-Au, 12-Fe) :   0.3841 B(  1-Au,  2-Au) :   0.2069 B(  1-Au,  5-Au) :   0.2931
B(  1-Au,  6-Au) :   0.2948 B(  1-Au,  7-Au) :   0.2097 B(  1-Au, 12-Fe) :   0.2686
B(  2-Au,  4-Au) :   0.2391 B(  2-Au,  7-Au) :   0.2695 B(  2-Au, 12-Fe) :   0.5596
B(  3-Au,  4-Au) :   0.1562 B(  3-Au,  5-Au) :   0.1641 B(  3-Au,  8-Au) :   0.2732
B(  3-Au,  9-Au) :   0.1774 B(  3-Au, 12-Fe) :   0.5952 B(  4-Au, 10-Au) :   0.1062
B(  4-Au, 12-Fe) :   0.5994 B(  5-Au,  9-Au) :   0.1930 B(  5-Au, 12-Fe) :   0.5958
B(  6-Au,  9-Au) :   0.1925 B(  6-Au, 11-Au) :   0.1673 B(  6-Au, 12-Fe) :   0.5948
B(  7-Au, 10-Au) :   0.2416 B(  7-Au, 12-Fe) :   0.5589 B(  8-Au,  9-Au) :   0.3092
B(  8-Au, 11-Au) :   0.2696 B(  8-Au, 12-Fe) :   0.1777 B(  9-Au, 11-Au) :   0.1752
B(  9-Au, 12-Fe) :   0.5144 B( 10-Au, 11-Au) :   0.1516 B( 10-Au, 12-Fe) :   0.6010
B( 11-Au, 12-Fe) :   0.5982

FINAL SINGLE POINT ENERGY     -2893.386518134659

DIPOLE MOMENT
-------------
                                X             Y             Z
Electronic contribution:     -2.14918     -11.23514      -0.79658
Nuclear contribution   :      2.20336      11.16792       0.83097
                        -----------------------------------------
Total Dipole Moment    :      0.05418      -0.06722       0.03439
                        -----------------------------------------
Magnitude (a.u.)       :      0.09294
Magnitude (Debye)      :      0.23623

Rotational constants in cm-1:     0.001699     0.001260     0.001140
Rotational constants in MHz :    50.940282    37.778322    34.186589

                             ****ORCA TERMINATED NORMALLY****
TOTAL RUN TIME: 0 days 0 hours 29 minutes 18 seconds 362 msec
