                         Program Version 5.0.3 -  RELEASE  -
|  1> !R2SCAN def2-TZVP VERYSLOWCONV
|  2> !KDIIS
|  3> %scf
|  4>   AutoTRAHIter 200
|  5>   maxiter 400
|  6> end
|  7>
|  8> %pal nprocs 6 end
|  9>
| 10> *xyzfile 0 5 pbe.xyz
| 11>
| 12> $new_job
| 13>
| 14> !R2SCAN def2-TZVP VERYSLOWCONV
| 15> !KDIIS
| 16> %scf
| 17>   AutoTRAHIter 200
| 18>   maxiter 400
| 19> end
| 20>
| 21>
| 22> %pal nprocs 6 end
| 23>
| 24> *xyzfile 0 3 pbe.xyz
| 25>
| 26>
| 27>
| 28>
| 29>
| 30>                          ****END OF INPUT****
 Total Charge           Charge          ....    0
 Multiplicity           Mult            ....    5
 Number of Electrons    NEL             ....  254
FINAL SINGLE POINT ENERGY     -2893.813218200558

CARTESIAN COORDINATES (ANGSTROEM)
---------------------------------
  Au     6.532512    6.405381    6.890279
  Au    11.607878    8.610893    9.980761
  Au    10.433786    9.399555    7.514908
  Au     9.334519    5.715692    6.394103
  Au     8.298968    8.411692    6.122154
  Au    11.493906    6.655332    8.019445
  Au     9.696021    6.808715   10.858695
  Au     8.927005    9.537049    9.893466
  Au     7.477943    3.920055    7.620997
  Au     9.762147    4.693896    9.020897
  Au     6.708784    8.563154    8.631304
  Au     7.260380    5.902414    9.678157
  Fe     9.019057    7.345470    8.407268

 Multiplicity           Mult            ....    3
 Number of Electrons    NEL             ....  254
 Basis Dimension        Dim             ....  525

ORBITAL ENERGIES
----------------
                 SPIN UP ORBITALS
  NO   OCC          E(Eh)            E(eV)
   0   1.0000    -255.643408     -6956.4108
   1   1.0000     -29.944818      -814.8399
   2   1.0000     -25.784009      -701.6186
   3   1.0000     -25.771608      -701.2811
   4   1.0000     -25.769793      -701.2317
   5   1.0000      -4.121264      -112.1453
   6   1.0000      -4.121204      -112.1437
   7   1.0000      -4.120298      -112.1190
   8   1.0000      -4.116244      -112.0087
   9   1.0000      -4.116153      -112.0062
  10   1.0000      -4.114251      -111.9545
  11   1.0000      -4.114102      -111.9504
  12   1.0000      -4.111809      -111.8880
  13   1.0000      -4.111596      -111.8822
  14   1.0000      -4.109176      -111.8164
  15   1.0000      -4.102605      -111.6376
  16   1.0000      -4.101802      -111.6157
  17   1.0000      -3.521812       -95.8334
  18   1.0000      -2.311861       -62.9089
  19   1.0000      -2.311297       -62.8936
  20   1.0000      -2.308706       -62.8231
  21   1.0000      -2.307286       -62.7844
  22   1.0000      -2.307025       -62.7773
  23   1.0000      -2.306897       -62.7738
  24   1.0000      -2.306069       -62.7513
  25   1.0000      -2.305634       -62.7395
  26   1.0000      -2.305302       -62.7305
  27   1.0000      -2.304993       -62.7220
  28   1.0000      -2.304477       -62.7080
  29   1.0000      -2.304226       -62.7012
  30   1.0000      -2.304166       -62.6995
  31   1.0000      -2.303609       -62.6844
  32   1.0000      -2.302088       -62.6430
  33   1.0000      -2.301944       -62.6391
  34   1.0000      -2.301885       -62.6375
  35   1.0000      -2.301500       -62.6270
  36   1.0000      -2.300531       -62.6006
  37   1.0000      -2.299538       -62.5736
  38   1.0000      -2.298215       -62.5376
  39   1.0000      -2.298008       -62.5320
  40   1.0000      -2.297707       -62.5238
  41   1.0000      -2.296693       -62.4962
  42   1.0000      -2.296676       -62.4957
  43   1.0000      -2.295887       -62.4743
  44   1.0000      -2.295669       -62.4683
  45   1.0000      -2.294036       -62.4239
  46   1.0000      -2.293294       -62.4037
  47   1.0000      -2.293138       -62.3995
  48   1.0000      -2.292700       -62.3875
  49   1.0000      -2.288499       -62.2732
  50   1.0000      -2.287883       -62.2565
  51   1.0000      -2.287574       -62.2481
  52   1.0000      -2.287273       -62.2399
  53   1.0000      -2.286873       -62.2290
  54   1.0000      -2.286570       -62.2207
  55   1.0000      -2.277767       -61.9812
  56   1.0000      -2.275652       -61.9237
  57   1.0000      -0.435620       -11.8538
  58   1.0000      -0.392499       -10.6804
  59   1.0000      -0.388160       -10.5624
  60   1.0000      -0.384396       -10.4599
  61   1.0000      -0.384318       -10.4578
  62   1.0000      -0.375276       -10.2118
  63   1.0000      -0.374870       -10.2007
  64   1.0000      -0.368139       -10.0176
  65   1.0000      -0.365122        -9.9355
  66   1.0000      -0.362681        -9.8690
  67   1.0000      -0.356445        -9.6994
  68   1.0000      -0.352732        -9.5983
  69   1.0000      -0.351381        -9.5616
  70   1.0000      -0.349684        -9.5154
  71   1.0000      -0.348946        -9.4953
  72   1.0000      -0.346372        -9.4253
  73   1.0000      -0.343720        -9.3531
  74   1.0000      -0.342364        -9.3162
  75   1.0000      -0.339420        -9.2361
  76   1.0000      -0.336176        -9.1478
  77   1.0000      -0.335359        -9.1256
  78   1.0000      -0.332562        -9.0495
  79   1.0000      -0.332027        -9.0349
  80   1.0000      -0.328401        -8.9362
  81   1.0000      -0.328056        -8.9269
  82   1.0000      -0.318764        -8.6740
  83   1.0000      -0.317563        -8.6413
  84   1.0000      -0.316302        -8.6070
  85   1.0000      -0.312676        -8.5083
  86   1.0000      -0.310473        -8.4484
  87   1.0000      -0.310031        -8.4364
  88   1.0000      -0.306011        -8.3270
  89   1.0000      -0.304913        -8.2971
  90   1.0000      -0.301589        -8.2067
  91   1.0000      -0.297493        -8.0952
  92   1.0000      -0.296691        -8.0734
  93   1.0000      -0.296004        -8.0547
  94   1.0000      -0.293705        -7.9921
  95   1.0000      -0.287409        -7.8208
  96   1.0000      -0.282730        -7.6935
  97   1.0000      -0.282006        -7.6738
  98   1.0000      -0.278960        -7.5909
  99   1.0000      -0.277914        -7.5624
 100   1.0000      -0.275341        -7.4924
 101   1.0000      -0.272739        -7.4216
 102   1.0000      -0.271507        -7.3881
 103   1.0000      -0.270475        -7.3600
 104   1.0000      -0.267707        -7.2847
 105   1.0000      -0.267286        -7.2732
 106   1.0000      -0.266331        -7.2472
 107   1.0000      -0.265893        -7.2353
 108   1.0000      -0.265071        -7.2129
 109   1.0000      -0.264417        -7.1951
 110   1.0000      -0.263315        -7.1652
 111   1.0000      -0.262873        -7.1531
 112   1.0000      -0.261153        -7.1063
 113   1.0000      -0.259278        -7.0553
 114   1.0000      -0.258950        -7.0464
 115   1.0000      -0.257302        -7.0015
 116   1.0000      -0.255515        -6.9529
 117   1.0000      -0.252775        -6.8784
 118   1.0000      -0.251580        -6.8459
 119   1.0000      -0.251241        -6.8366
 120   1.0000      -0.250484        -6.8160
 121   1.0000      -0.248752        -6.7689
 122   1.0000      -0.246497        -6.7075
 123   1.0000      -0.242016        -6.5856
 124   1.0000      -0.236446        -6.4340
 125   1.0000      -0.233540        -6.3550
 126   1.0000      -0.204746        -5.5714
 127   1.0000      -0.191688        -5.2161
 128   0.0000      -0.176616        -4.8060
 129   0.0000      -0.173822        -4.7299
 130   0.0000      -0.154217        -4.1965
 131   0.0000      -0.120054        -3.2668
 132   0.0000      -0.115232        -3.1356

                 SPIN DOWN ORBITALS
  NO   OCC          E(Eh)            E(eV)
   0   1.0000    -255.642394     -6956.3832
   1   1.0000     -29.867023      -812.7230
   2   1.0000     -25.718807      -699.8443
   3   1.0000     -25.715343      -699.7501
   4   1.0000     -25.713265      -699.6935
   5   1.0000      -4.121207      -112.1438
   6   1.0000      -4.121131      -112.1417
   7   1.0000      -4.120893      -112.1352
   8   1.0000      -4.116320      -112.0108
   9   1.0000      -4.116225      -112.0082
  10   1.0000      -4.114899      -111.9721
  11   1.0000      -4.114737      -111.9677
  12   1.0000      -4.112361      -111.9030
  13   1.0000      -4.112141      -111.8970
  14   1.0000      -4.109711      -111.8309
  15   1.0000      -4.103623      -111.6653
  16   1.0000      -4.102879      -111.6450
  17   1.0000      -3.354591       -91.2831
  18   1.0000      -2.310330       -62.8673
  19   1.0000      -2.310162       -62.8627
  20   1.0000      -2.308456       -62.8163
  21   1.0000      -2.307523       -62.7909
  22   1.0000      -2.307276       -62.7842
  23   1.0000      -2.306105       -62.7523
  24   1.0000      -2.305744       -62.7425
  25   1.0000      -2.305263       -62.7294
  26   1.0000      -2.304911       -62.7198
  27   1.0000      -2.304409       -62.7062
  28   1.0000      -2.304225       -62.7012
  29   1.0000      -2.303750       -62.6882
  30   1.0000      -2.303248       -62.6746
  31   1.0000      -2.302849       -62.6637
  32   1.0000      -2.302251       -62.6474
  33   1.0000      -2.302026       -62.6413
  34   1.0000      -2.301982       -62.6401
  35   1.0000      -2.300838       -62.6090
  36   1.0000      -2.299062       -62.5607
  37   1.0000      -2.298672       -62.5501
  38   1.0000      -2.298476       -62.5447
  39   1.0000      -2.298432       -62.5435
  40   1.0000      -2.297782       -62.5258
  41   1.0000      -2.297537       -62.5192
  42   1.0000      -2.296758       -62.4980
  43   1.0000      -2.296520       -62.4915
  44   1.0000      -2.295048       -62.4514
  45   1.0000      -2.294243       -62.4295
  46   1.0000      -2.293830       -62.4183
  47   1.0000      -2.293559       -62.4109
  48   1.0000      -2.290109       -62.3170
  49   1.0000      -2.289306       -62.2952
  50   1.0000      -2.288888       -62.2838
  51   1.0000      -2.288302       -62.2679
  52   1.0000      -2.288110       -62.2626
  53   1.0000      -2.287366       -62.2424
  54   1.0000      -2.123321       -57.7785
  55   1.0000      -2.121533       -57.7299
  56   1.0000      -2.118743       -57.6539
  57   1.0000      -0.433400       -11.7934
  58   1.0000      -0.387915       -10.5557
  59   1.0000      -0.383808       -10.4440
  60   1.0000      -0.375776       -10.2254
  61   1.0000      -0.373835       -10.1726
  62   1.0000      -0.366150        -9.9634
  63   1.0000      -0.363744        -9.8980
  64   1.0000      -0.362422        -9.8620
  65   1.0000      -0.359492        -9.7823
  66   1.0000      -0.355400        -9.6709
  67   1.0000      -0.355111        -9.6631
  68   1.0000      -0.353244        -9.6123
  69   1.0000      -0.352400        -9.5893
  70   1.0000      -0.350836        -9.5467
  71   1.0000      -0.349937        -9.5223
  72   1.0000      -0.348223        -9.4756
  73   1.0000      -0.343828        -9.3560
  74   1.0000      -0.341313        -9.2876
  75   1.0000      -0.339601        -9.2410
  76   1.0000      -0.334820        -9.1109
  77   1.0000      -0.331240        -9.0135
  78   1.0000      -0.329567        -8.9680
  79   1.0000      -0.326978        -8.8975
  80   1.0000      -0.321904        -8.7595
  81   1.0000      -0.320138        -8.7114
  82   1.0000      -0.319102        -8.6832
  83   1.0000      -0.318836        -8.6760
  84   1.0000      -0.316953        -8.6247
  85   1.0000      -0.312611        -8.5066
  86   1.0000      -0.311721        -8.4824
  87   1.0000      -0.308969        -8.4075
  88   1.0000      -0.303969        -8.2714
  89   1.0000      -0.299656        -8.1541
  90   1.0000      -0.298488        -8.1223
  91   1.0000      -0.298266        -8.1162
  92   1.0000      -0.293901        -7.9974
  93   1.0000      -0.293399        -7.9838
  94   1.0000      -0.287251        -7.8165
  95   1.0000      -0.283308        -7.7092
  96   1.0000      -0.282006        -7.6738
  97   1.0000      -0.278720        -7.5844
  98   1.0000      -0.278002        -7.5648
  99   1.0000      -0.276731        -7.5302
 100   1.0000      -0.273544        -7.4435
 101   1.0000      -0.271834        -7.3970
 102   1.0000      -0.269197        -7.3252
 103   1.0000      -0.268686        -7.3113
 104   1.0000      -0.268178        -7.2975
 105   1.0000      -0.268062        -7.2943
 106   1.0000      -0.266919        -7.2632
 107   1.0000      -0.266364        -7.2481
 108   1.0000      -0.265293        -7.2190
 109   1.0000      -0.264148        -7.1878
 110   1.0000      -0.262585        -7.1453
 111   1.0000      -0.260023        -7.0756
 112   1.0000      -0.257103        -6.9961
 113   1.0000      -0.256316        -6.9747
 114   1.0000      -0.255395        -6.9497
 115   1.0000      -0.252358        -6.8670
 116   1.0000      -0.251176        -6.8348
 117   1.0000      -0.250265        -6.8101
 118   1.0000      -0.244220        -6.6456
 119   1.0000      -0.241994        -6.5850
 120   1.0000      -0.237301        -6.4573
 121   1.0000      -0.211327        -5.7505
 122   1.0000      -0.201491        -5.4829
 123   1.0000      -0.201307        -5.4778
 124   1.0000      -0.197880        -5.3846
 125   1.0000      -0.186063        -5.0630
 126   0.0000      -0.151925        -4.1341
 127   0.0000      -0.149440        -4.0665
 128   0.0000      -0.149257        -4.0615
 129   0.0000      -0.143801        -3.9130
 130   0.0000      -0.127477        -3.4688

MULLIKEN ATOMIC CHARGES AND SPIN POPULATIONS
--------------------------------------------
   0 Au:    0.096046    0.043020
   1 Au:    0.226551    0.003569
   2 Au:    0.203578   -0.099853
   3 Au:    0.220276   -0.114565
   4 Au:    0.263325   -0.173914
   5 Au:    0.193537   -0.127767
   6 Au:    0.193238   -0.126406
   7 Au:    0.201479   -0.094564
   8 Au:    0.137475    0.038266
   9 Au:    0.195551   -0.062476
  10 Au:    0.262828   -0.173901
  11 Au:    0.220524   -0.116818
  12 Fe:   -2.414408    3.005410
Sum of atomic charges         :    0.0000000

LOEWDIN ATOMIC CHARGES AND SPIN POPULATIONS
-------------------------------------------
   0 Au:   -0.026720   -0.021698
   1 Au:    0.017939   -0.051890
   2 Au:    0.055556   -0.108361
   3 Au:    0.063580   -0.087425
   4 Au:    0.093877   -0.142396
   5 Au:    0.075218   -0.100669
   6 Au:    0.075102   -0.100006
   7 Au:    0.054728   -0.105805
   8 Au:    0.036840   -0.013684
   9 Au:    0.039773   -0.078594
  10 Au:    0.093415   -0.141446
  11 Au:    0.064856   -0.088483
  12 Fe:   -0.644166    3.040459

  Mayer bond orders larger than 0.100000
B(  0-Au,  1-Au) :   0.1439 B(  0-Au,  3-Au) :   0.1323 B(  0-Au,  4-Au) :   0.2220
B(  0-Au,  8-Au) :   0.3030 B(  0-Au, 10-Au) :   0.2237 B(  0-Au, 11-Au) :   0.1335
B(  0-Au, 12-Fe) :   0.3527 B(  1-Au,  2-Au) :   0.1865 B(  1-Au,  5-Au) :   0.2838
B(  1-Au,  6-Au) :   0.2855 B(  1-Au,  7-Au) :   0.1890 B(  1-Au, 12-Fe) :   0.2438
B(  2-Au,  4-Au) :   0.2399 B(  2-Au,  7-Au) :   0.2648 B(  2-Au, 12-Fe) :   0.5490
B(  3-Au,  4-Au) :   0.1481 B(  3-Au,  5-Au) :   0.1648 B(  3-Au,  8-Au) :   0.2572
B(  3-Au,  9-Au) :   0.1708 B(  3-Au, 12-Fe) :   0.5954 B(  4-Au, 12-Fe) :   0.5907
B(  5-Au,  9-Au) :   0.1837 B(  5-Au, 12-Fe) :   0.5907 B(  6-Au,  9-Au) :   0.1832
B(  6-Au, 11-Au) :   0.1683 B(  6-Au, 12-Fe) :   0.5894 B(  7-Au, 10-Au) :   0.2428
B(  7-Au, 12-Fe) :   0.5484 B(  8-Au,  9-Au) :   0.2964 B(  8-Au, 11-Au) :   0.2531
B(  8-Au, 12-Fe) :   0.1613 B(  9-Au, 11-Au) :   0.1683 B(  9-Au, 12-Fe) :   0.4979
B( 10-Au, 11-Au) :   0.1435 B( 10-Au, 12-Fe) :   0.5923 B( 11-Au, 12-Fe) :   0.5987

FINAL SINGLE POINT ENERGY     -2893.829889219161

DIPOLE MOMENT
-------------
                                X             Y             Z
Electronic contribution:     -2.13878     -11.24452      -0.79062
Nuclear contribution   :      2.20336      11.16792       0.83097
                        -----------------------------------------
Total Dipole Moment    :      0.06458      -0.07660       0.04035
                        -----------------------------------------
Magnitude (a.u.)       :      0.10801
Magnitude (Debye)      :      0.27454

Rotational constants in cm-1:     0.001699     0.001260     0.001140
Rotational constants in MHz :    50.940282    37.778322    34.186589

                             ****ORCA TERMINATED NORMALLY****
TOTAL RUN TIME: 0 days 0 hours 13 minutes 37 seconds 926 msec
