                         Program Version 5.0.3 -  RELEASE  -
|  1> %pal nprocs 1 end
|  2>
|  3> !PBE def2-TZVP OPT UNO
|  4> !SLOWCONV
|  5>
|  6> *xyzfile 0 3 3.xyz                           ****END OF INPUT****
 Total Charge           Charge          ....    0
 Multiplicity           Mult            ....    3
 Number of Electrons    NEL             ....  292
FINAL SINGLE POINT ENERGY     -3165.045536926608
FINAL SINGLE POINT ENERGY     -3165.047443077029
FINAL SINGLE POINT ENERGY     -3165.048852494598
FINAL SINGLE POINT ENERGY     -3165.049998598310
FINAL SINGLE POINT ENERGY     -3165.051010342416
FINAL SINGLE POINT ENERGY     -3165.052061920058
FINAL SINGLE POINT ENERGY     -3165.053118557546
FINAL SINGLE POINT ENERGY     -3165.054081974874
FINAL SINGLE POINT ENERGY     -3165.054923124673
FINAL SINGLE POINT ENERGY     -3165.055644041611
FINAL SINGLE POINT ENERGY     -3165.061394579143
FINAL SINGLE POINT ENERGY     -3165.061467859380
FINAL SINGLE POINT ENERGY     -3165.061501512436
FINAL SINGLE POINT ENERGY     -3165.061509338708
FINAL SINGLE POINT ENERGY     -3165.061527282627
FINAL SINGLE POINT ENERGY     -3165.061541807563
FINAL SINGLE POINT ENERGY     -3165.061555632525
FINAL SINGLE POINT ENERGY     -3165.061565874603
FINAL SINGLE POINT ENERGY     -3165.061573474632
                    ***********************HURRAY********************

CARTESIAN COORDINATES (ANGSTROEM)
---------------------------------
  Au     7.735625   10.021001    6.320655
  Au     6.714205   10.099642    3.793133
  Au     5.353098    6.261140    5.126060
  Au     7.706315    7.684291    4.661576
  Au     4.758137    7.100000    7.725146
  Au     5.132316    8.972509    5.745763
  Au     5.770792    9.803221    8.356111
  Au     9.294783    5.924236    8.768414
  Au     7.710105    5.620544    6.480858
  Au     8.456922    7.759178   10.690639
  Au     9.569718    7.902554    6.759605
  Au     5.696273    7.735921   10.290891
  Au     8.689304    9.792140    8.876154
  Au     6.546088    5.334831    9.066909
  Fe     7.337272    7.678162    8.157562

 Multiplicity           Mult            ....    3
 Number of Electrons    NEL             ....  292
 Basis Dimension        Dim             ....  605

ORBITAL ENERGIES
----------------
                 SPIN UP ORBITALS
  NO   OCC          E(Eh)            E(eV)
   0   1.0000    -254.750656     -6932.1178
   1   1.0000     -29.587078      -805.1053
   2   1.0000     -25.527502      -694.6386
   3   1.0000     -25.526208      -694.6034
   4   1.0000     -25.514632      -694.2884
   5   1.0000      -4.035400      -109.8088
   6   1.0000      -4.035386      -109.8084
   7   1.0000      -4.031273      -109.6965
   8   1.0000      -4.028660      -109.6254
   9   1.0000      -4.028636      -109.6247
  10   1.0000      -4.026370      -109.5631
  11   1.0000      -4.024789      -109.5201
  12   1.0000      -4.023428      -109.4830
  13   1.0000      -4.023392      -109.4820
  14   1.0000      -4.021791      -109.4385
  15   1.0000      -4.021739      -109.4371
  16   1.0000      -4.015188      -109.2588
  17   1.0000      -4.012577      -109.1878
  18   1.0000      -4.012184      -109.1771
  19   1.0000      -3.363468       -91.5246
  20   1.0000      -2.251146       -61.2568
  21   1.0000      -2.251101       -61.2556
  22   1.0000      -2.249140       -61.2022
  23   1.0000      -2.248794       -61.1928
  24   1.0000      -2.248757       -61.1918
  25   1.0000      -2.245762       -61.1103
  26   1.0000      -2.245520       -61.1037
  27   1.0000      -2.244921       -61.0874
  28   1.0000      -2.244564       -61.0777
  29   1.0000      -2.243491       -61.0485
  30   1.0000      -2.242514       -61.0219
  31   1.0000      -2.241846       -61.0037
  32   1.0000      -2.241040       -60.9818
  33   1.0000      -2.240944       -60.9792
  34   1.0000      -2.240503       -60.9672
  35   1.0000      -2.240228       -60.9597
  36   1.0000      -2.239761       -60.9470
  37   1.0000      -2.239632       -60.9435
  38   1.0000      -2.238942       -60.9247
  39   1.0000      -2.238225       -60.9052
  40   1.0000      -2.237970       -60.8983
  41   1.0000      -2.237672       -60.8902
  42   1.0000      -2.237293       -60.8798
  43   1.0000      -2.235752       -60.8379
  44   1.0000      -2.235588       -60.8334
  45   1.0000      -2.235403       -60.8284
  46   1.0000      -2.235211       -60.8232
  47   1.0000      -2.234985       -60.8170
  48   1.0000      -2.234974       -60.8167
  49   1.0000      -2.233975       -60.7895
  50   1.0000      -2.233779       -60.7842
  51   1.0000      -2.231089       -60.7110
  52   1.0000      -2.230187       -60.6865
  53   1.0000      -2.228811       -60.6490
  54   1.0000      -2.228535       -60.6415
  55   1.0000      -2.227935       -60.6252
  56   1.0000      -2.227447       -60.6119
  57   1.0000      -2.226809       -60.5946
  58   1.0000      -2.224502       -60.5318
  59   1.0000      -2.223655       -60.5087
  60   1.0000      -2.223359       -60.5007
  61   1.0000      -2.222817       -60.4859
  62   1.0000      -2.186888       -59.5083
  63   1.0000      -2.184125       -59.4331
  64   1.0000      -2.160965       -58.8028
  65   1.0000      -0.431426       -11.7397
  66   1.0000      -0.392808       -10.6889
  67   1.0000      -0.384782       -10.4704
  68   1.0000      -0.381728       -10.3874
  69   1.0000      -0.371539       -10.1101
  70   1.0000      -0.369997       -10.0681
  71   1.0000      -0.367470        -9.9994
  72   1.0000      -0.362320        -9.8592
  73   1.0000      -0.361800        -9.8451
  74   1.0000      -0.356947        -9.7130
  75   1.0000      -0.356932        -9.7126
  76   1.0000      -0.354131        -9.6364
  77   1.0000      -0.349971        -9.5232
  78   1.0000      -0.348269        -9.4769
  79   1.0000      -0.348156        -9.4738
  80   1.0000      -0.346457        -9.4276
  81   1.0000      -0.344505        -9.3745
  82   1.0000      -0.341795        -9.3007
  83   1.0000      -0.338921        -9.2225
  84   1.0000      -0.333302        -9.0696
  85   1.0000      -0.330835        -9.0025
  86   1.0000      -0.327561        -8.9134
  87   1.0000      -0.326718        -8.8904
  88   1.0000      -0.324102        -8.8193
  89   1.0000      -0.323053        -8.7907
  90   1.0000      -0.321391        -8.7455
  91   1.0000      -0.318676        -8.6716
  92   1.0000      -0.315900        -8.5961
  93   1.0000      -0.314286        -8.5522
  94   1.0000      -0.311535        -8.4773
  95   1.0000      -0.310309        -8.4439
  96   1.0000      -0.310035        -8.4365
  97   1.0000      -0.307653        -8.3717
  98   1.0000      -0.305836        -8.3222
  99   1.0000      -0.302801        -8.2396
 100   1.0000      -0.300928        -8.1887
 101   1.0000      -0.297929        -8.1071
 102   1.0000      -0.294338        -8.0094
 103   1.0000      -0.293324        -7.9817
 104   1.0000      -0.291564        -7.9339
 105   1.0000      -0.288808        -7.8589
 106   1.0000      -0.287907        -7.8343
 107   1.0000      -0.283408        -7.7119
 108   1.0000      -0.281914        -7.6713
 109   1.0000      -0.278787        -7.5862
 110   1.0000      -0.276099        -7.5130
 111   1.0000      -0.273403        -7.4397
 112   1.0000      -0.271948        -7.4001
 113   1.0000      -0.271645        -7.3918
 114   1.0000      -0.269440        -7.3318
 115   1.0000      -0.267876        -7.2893
 116   1.0000      -0.267381        -7.2758
 117   1.0000      -0.266464        -7.2508
 118   1.0000      -0.265140        -7.2148
 119   1.0000      -0.263583        -7.1725
 120   1.0000      -0.260424        -7.0865
 121   1.0000      -0.260196        -7.0803
 122   1.0000      -0.258981        -7.0472
 123   1.0000      -0.257857        -7.0167
 124   1.0000      -0.254075        -6.9137
 125   1.0000      -0.253774        -6.9055
 126   1.0000      -0.253460        -6.8970
 127   1.0000      -0.252847        -6.8803
 128   1.0000      -0.251815        -6.8522
 129   1.0000      -0.251082        -6.8323
 130   1.0000      -0.248898        -6.7729
 131   1.0000      -0.248122        -6.7517
 132   1.0000      -0.246935        -6.7194
 133   1.0000      -0.246257        -6.7010
 134   1.0000      -0.246011        -6.6943
 135   1.0000      -0.244909        -6.6643
 136   1.0000      -0.242325        -6.5940
 137   1.0000      -0.240239        -6.5372
 138   1.0000      -0.239952        -6.5294
 139   1.0000      -0.239455        -6.5159
 140   1.0000      -0.238775        -6.4974
 141   1.0000      -0.235727        -6.4145
 142   1.0000      -0.232620        -6.3299
 143   1.0000      -0.230965        -6.2849
 144   1.0000      -0.217584        -5.9208
 145   1.0000      -0.205584        -5.5942
 146   1.0000      -0.194948        -5.3048
 147   0.0000      -0.183210        -4.9854
 148   0.0000      -0.177618        -4.8332
 149   0.0000      -0.141539        -3.8515
 150   0.0000      -0.131990        -3.5916
 151   0.0000      -0.121319        -3.3013

                 SPIN DOWN ORBITALS
  NO   OCC          E(Eh)            E(eV)
   0   1.0000    -254.749998     -6932.0999
   1   1.0000     -29.531704      -803.5985
   2   1.0000     -25.484024      -693.4556
   3   1.0000     -25.483336      -693.4368
   4   1.0000     -25.475535      -693.2245
   5   1.0000      -4.035008      -109.7982
   6   1.0000      -4.034993      -109.7977
   7   1.0000      -4.032175      -109.7211
   8   1.0000      -4.028538      -109.6221
   9   1.0000      -4.028523      -109.6217
  10   1.0000      -4.026405      -109.5641
  11   1.0000      -4.024869      -109.5223
  12   1.0000      -4.023554      -109.4865
  13   1.0000      -4.023531      -109.4858
  14   1.0000      -4.022451      -109.4565
  15   1.0000      -4.022400      -109.4551
  16   1.0000      -4.016049      -109.2822
  17   1.0000      -4.012563      -109.1874
  18   1.0000      -4.012362      -109.1819
  19   1.0000      -3.238220       -88.1164
  20   1.0000      -2.250586       -61.2416
  21   1.0000      -2.250522       -61.2398
  22   1.0000      -2.250429       -61.2373
  23   1.0000      -2.248153       -61.1754
  24   1.0000      -2.248113       -61.1743
  25   1.0000      -2.245623       -61.1065
  26   1.0000      -2.245350       -61.0991
  27   1.0000      -2.245022       -61.0901
  28   1.0000      -2.243974       -61.0616
  29   1.0000      -2.243356       -61.0448
  30   1.0000      -2.242247       -61.0146
  31   1.0000      -2.242057       -61.0095
  32   1.0000      -2.241120       -60.9840
  33   1.0000      -2.240925       -60.9787
  34   1.0000      -2.240568       -60.9690
  35   1.0000      -2.240194       -60.9588
  36   1.0000      -2.240030       -60.9543
  37   1.0000      -2.239888       -60.9505
  38   1.0000      -2.239078       -60.9284
  39   1.0000      -2.238951       -60.9249
  40   1.0000      -2.238637       -60.9164
  41   1.0000      -2.238161       -60.9035
  42   1.0000      -2.237504       -60.8856
  43   1.0000      -2.236129       -60.8482
  44   1.0000      -2.235997       -60.8446
  45   1.0000      -2.235814       -60.8396
  46   1.0000      -2.235464       -60.8301
  47   1.0000      -2.235385       -60.8279
  48   1.0000      -2.234981       -60.8169
  49   1.0000      -2.234445       -60.8023
  50   1.0000      -2.234199       -60.7956
  51   1.0000      -2.231429       -60.7203
  52   1.0000      -2.230620       -60.6983
  53   1.0000      -2.229643       -60.6717
  54   1.0000      -2.229166       -60.6587
  55   1.0000      -2.228777       -60.6481
  56   1.0000      -2.227393       -60.6105
  57   1.0000      -2.227116       -60.6029
  58   1.0000      -2.224764       -60.5389
  59   1.0000      -2.223634       -60.5082
  60   1.0000      -2.223603       -60.5073
  61   1.0000      -2.222951       -60.4896
  62   1.0000      -2.059473       -56.0411
  63   1.0000      -2.058912       -56.0259
  64   1.0000      -2.045849       -55.6704
  65   1.0000      -0.428403       -11.6574
  66   1.0000      -0.392423       -10.6784
  67   1.0000      -0.384046       -10.4504
  68   1.0000      -0.381323       -10.3763
  69   1.0000      -0.369824       -10.0634
  70   1.0000      -0.364471        -9.9178
  71   1.0000      -0.362188        -9.8556
  72   1.0000      -0.362132        -9.8541
  73   1.0000      -0.358670        -9.7599
  74   1.0000      -0.354568        -9.6483
  75   1.0000      -0.352288        -9.5862
  76   1.0000      -0.351094        -9.5537
  77   1.0000      -0.350801        -9.5458
  78   1.0000      -0.348438        -9.4815
  79   1.0000      -0.347314        -9.4509
  80   1.0000      -0.345845        -9.4109
  81   1.0000      -0.342678        -9.3247
  82   1.0000      -0.342047        -9.3076
  83   1.0000      -0.338452        -9.2097
  84   1.0000      -0.333607        -9.0779
  85   1.0000      -0.328465        -8.9380
  86   1.0000      -0.327311        -8.9066
  87   1.0000      -0.326926        -8.8961
  88   1.0000      -0.324553        -8.8315
  89   1.0000      -0.323469        -8.8020
  90   1.0000      -0.322554        -8.7771
  91   1.0000      -0.318030        -8.6540
  92   1.0000      -0.315634        -8.5888
  93   1.0000      -0.314939        -8.5699
  94   1.0000      -0.312451        -8.5022
  95   1.0000      -0.311430        -8.4744
  96   1.0000      -0.309310        -8.4168
  97   1.0000      -0.303640        -8.2625
  98   1.0000      -0.298992        -8.1360
  99   1.0000      -0.297636        -8.0991
 100   1.0000      -0.296986        -8.0814
 101   1.0000      -0.294459        -8.0126
 102   1.0000      -0.292802        -7.9676
 103   1.0000      -0.289394        -7.8748
 104   1.0000      -0.287892        -7.8340
 105   1.0000      -0.287105        -7.8125
 106   1.0000      -0.286266        -7.7897
 107   1.0000      -0.283002        -7.7009
 108   1.0000      -0.281564        -7.6617
 109   1.0000      -0.278045        -7.5660
 110   1.0000      -0.276322        -7.5191
 111   1.0000      -0.274282        -7.4636
 112   1.0000      -0.272600        -7.4178
 113   1.0000      -0.272128        -7.4050
 114   1.0000      -0.270239        -7.3536
 115   1.0000      -0.268295        -7.3007
 116   1.0000      -0.267700        -7.2845
 117   1.0000      -0.267162        -7.2699
 118   1.0000      -0.265811        -7.2331
 119   1.0000      -0.262743        -7.1496
 120   1.0000      -0.260143        -7.0789
 121   1.0000      -0.259777        -7.0689
 122   1.0000      -0.259000        -7.0478
 123   1.0000      -0.257843        -7.0163
 124   1.0000      -0.254900        -6.9362
 125   1.0000      -0.254205        -6.9173
 126   1.0000      -0.253094        -6.8870
 127   1.0000      -0.252443        -6.8693
 128   1.0000      -0.251737        -6.8501
 129   1.0000      -0.251284        -6.8378
 130   1.0000      -0.249325        -6.7845
 131   1.0000      -0.249162        -6.7800
 132   1.0000      -0.247479        -6.7342
 133   1.0000      -0.241888        -6.5821
 134   1.0000      -0.241862        -6.5814
 135   1.0000      -0.240692        -6.5496
 136   1.0000      -0.239617        -6.5203
 137   1.0000      -0.236901        -6.4464
 138   1.0000      -0.232670        -6.3313
 139   1.0000      -0.223506        -6.0819
 140   1.0000      -0.212472        -5.7816
 141   1.0000      -0.204119        -5.5544
 142   1.0000      -0.201178        -5.4743
 143   1.0000      -0.195353        -5.3158
 144   1.0000      -0.177241        -4.8230
 145   0.0000      -0.158091        -4.3019
 146   0.0000      -0.156767        -4.2658
 147   0.0000      -0.145611        -3.9623
 148   0.0000      -0.145118        -3.9489
 149   0.0000      -0.138396        -3.7660

MULLIKEN ATOMIC CHARGES AND SPIN POPULATIONS
--------------------------------------------
   0 Au:   -0.332931   -0.112059
   1 Au:    0.521046   -0.074605
   2 Au:    0.331077   -0.021666
   3 Au:   -0.145017    0.005020
   4 Au:    0.024731   -0.094999
   5 Au:   -0.146134    0.006874
   6 Au:    0.269724   -0.130764
   7 Au:    0.290388   -0.008127
   8 Au:    0.021396   -0.095107
   9 Au:    0.328386    0.033647
  10 Au:    0.270828   -0.131196
  11 Au:    0.292152   -0.009503
  12 Au:    0.407475   -0.081480
  13 Au:    0.338856   -0.128025
  14 Fe:   -2.471977    2.841990
Sum of atomic charges         :    0.0000000

LOEWDIN ATOMIC CHARGES AND SPIN POPULATIONS
-------------------------------------------
   0 Au:   -0.066558   -0.105693
   1 Au:    0.129367   -0.046388
   2 Au:    0.081866   -0.053820
   3 Au:   -0.085629   -0.033020
   4 Au:    0.030163   -0.067745
   5 Au:   -0.085757   -0.032140
   6 Au:    0.098892   -0.099762
   7 Au:    0.078331   -0.052227
   8 Au:    0.029476   -0.068046
   9 Au:    0.053583   -0.002645
  10 Au:    0.099721   -0.099676
  11 Au:    0.079117   -0.052498
  12 Au:    0.110136   -0.100442
  13 Au:    0.093296   -0.097013
  14 Fe:   -0.646004    2.911114

  Mayer bond orders larger than 0.100000
B(  0-Au,  1-Au) :   0.4265 B(  0-Au,  3-Au) :   0.3062 B(  0-Au,  5-Au) :   0.3064
B(  0-Au,  6-Au) :   0.2124 B(  0-Au, 10-Au) :   0.2128 B(  0-Au, 12-Au) :   0.3690
B(  0-Au, 14-Fe) :   0.3647 B(  1-Au,  3-Au) :   0.2837 B(  1-Au,  5-Au) :   0.2823
B(  2-Au,  3-Au) :   0.2510 B(  2-Au,  4-Au) :   0.2860 B(  2-Au,  5-Au) :   0.2505
B(  2-Au,  8-Au) :   0.2879 B(  2-Au, 14-Fe) :   0.1517 B(  3-Au,  5-Au) :   0.2230
B(  3-Au,  8-Au) :   0.3523 B(  3-Au, 10-Au) :   0.2842 B(  3-Au, 14-Fe) :   0.2152
B(  4-Au,  5-Au) :   0.3524 B(  4-Au,  6-Au) :   0.1112 B(  4-Au,  8-Au) :   0.1232
B(  4-Au, 11-Au) :   0.2101 B(  4-Au, 13-Au) :   0.1728 B(  4-Au, 14-Fe) :   0.5265
B(  5-Au,  6-Au) :   0.2857 B(  5-Au, 14-Fe) :   0.2152 B(  6-Au, 11-Au) :   0.1740
B(  6-Au, 14-Fe) :   0.5649 B(  7-Au,  8-Au) :   0.2145 B(  7-Au,  9-Au) :   0.2320
B(  7-Au, 10-Au) :   0.1742 B(  7-Au, 13-Au) :   0.1928 B(  7-Au, 14-Fe) :   0.4520
B(  8-Au, 10-Au) :   0.1104 B(  8-Au, 13-Au) :   0.1715 B(  8-Au, 14-Fe) :   0.5261
B(  9-Au, 11-Au) :   0.2296 B(  9-Au, 12-Au) :   0.2935 B(  9-Au, 14-Fe) :   0.4634
B( 10-Au, 14-Fe) :   0.5669 B( 11-Au, 13-Au) :   0.1942 B( 11-Au, 14-Fe) :   0.4563
B( 12-Au, 14-Fe) :   0.4852 B( 13-Au, 14-Fe) :   0.5210

FINAL SINGLE POINT ENERGY     -3165.061577694667

DIPOLE MOMENT
-------------
                                X             Y             Z
Electronic contribution:     -9.77173       6.81249     -31.38591
Nuclear contribution   :      9.78502      -6.86384      31.48100
                        -----------------------------------------
Total Dipole Moment    :      0.01329      -0.05135       0.09509
                        -----------------------------------------
Magnitude (a.u.)       :      0.10888
Magnitude (Debye)      :      0.27676

Rotational constants in cm-1:     0.001321     0.000915     0.000880
Rotational constants in MHz :    39.592212    27.432360    26.374260

                             ****ORCA TERMINATED NORMALLY****
TOTAL RUN TIME: 0 days 7 hours 51 minutes 50 seconds 232 msec
