                         Program Version 5.0.3 -  RELEASE  -
|  1> %pal nprocs 1 end
|  2>
|  3> !PBE def2-TZVP OPT UNO
|  4> !SLOWCONV KDIIS
|  5>
|  6> %geom maxiter 300 end
|  7>
|  8> *xyzfile 0 3 8.xyz                           ****END OF INPUT****
 Total Charge           Charge          ....    0
 Multiplicity           Mult            ....    3
 Number of Electrons    NEL             ....  216
FINAL SINGLE POINT ENERGY     -2621.716203989534
FINAL SINGLE POINT ENERGY     -2621.718225184348
FINAL SINGLE POINT ENERGY     -2621.718880177819
FINAL SINGLE POINT ENERGY     -2621.719609446299
FINAL SINGLE POINT ENERGY     -2621.719811790470
FINAL SINGLE POINT ENERGY     -2621.720001800414
FINAL SINGLE POINT ENERGY     -2621.720247337310
FINAL SINGLE POINT ENERGY     -2621.720483107993
FINAL SINGLE POINT ENERGY     -2621.720874013346
FINAL SINGLE POINT ENERGY     -2621.721460578016
FINAL SINGLE POINT ENERGY     -2621.730112676233
FINAL SINGLE POINT ENERGY     -2621.730116231329
FINAL SINGLE POINT ENERGY     -2621.730120355761
FINAL SINGLE POINT ENERGY     -2621.730123956130
FINAL SINGLE POINT ENERGY     -2621.730128069568
FINAL SINGLE POINT ENERGY     -2621.730132356926
FINAL SINGLE POINT ENERGY     -2621.730137108950
FINAL SINGLE POINT ENERGY     -2621.730141726670
FINAL SINGLE POINT ENERGY     -2621.730144601014
                    ***********************HURRAY********************

CARTESIAN COORDINATES (ANGSTROEM)
---------------------------------
  Au     8.752846    8.334801    7.050833
  Au     8.186725   10.923633    7.110142
  Au     4.230845   10.254419    9.234713
  Au     6.103669    8.768337   10.655794
  Au     7.384139    6.935605    9.156376
  Au     4.527074    7.449775    8.596924
  Au     4.461812    9.254779    6.376445
  Au     8.378963    5.616595    6.978596
  Au     6.161319    7.136461    6.315019
  Au     5.560142   11.674911    7.352874
  Fe     6.458483    9.227825    8.067940

 Multiplicity           Mult            ....    3
 Number of Electrons    NEL             ....  216
 Basis Dimension        Dim             ....  445

ORBITAL ENERGIES
----------------
                 SPIN UP ORBITALS
  NO   OCC          E(Eh)            E(eV)
   0   1.0000    -254.746614     -6932.0078
   1   1.0000     -29.584259      -805.0286
   2   1.0000     -25.523552      -694.5311
   3   1.0000     -25.519572      -694.4229
   4   1.0000     -25.516482      -694.3388
   5   1.0000      -4.026055      -109.5545
   6   1.0000      -4.023699      -109.4904
   7   1.0000      -4.023154      -109.4756
   8   1.0000      -4.021672      -109.4353
   9   1.0000      -4.018771      -109.3563
  10   1.0000      -4.018310      -109.3438
  11   1.0000      -4.017632      -109.3253
  12   1.0000      -4.015847      -109.2767
  13   1.0000      -4.015385      -109.2642
  14   1.0000      -4.012409      -109.1832
  15   1.0000      -3.360313       -91.4388
  16   1.0000      -2.244264       -61.0695
  17   1.0000      -2.242041       -61.0090
  18   1.0000      -2.241121       -60.9840
  19   1.0000      -2.240328       -60.9624
  20   1.0000      -2.238095       -60.9017
  21   1.0000      -2.237843       -60.8948
  22   1.0000      -2.236215       -60.8505
  23   1.0000      -2.235166       -60.8220
  24   1.0000      -2.234915       -60.8151
  25   1.0000      -2.234119       -60.7935
  26   1.0000      -2.234081       -60.7924
  27   1.0000      -2.233664       -60.7811
  28   1.0000      -2.233222       -60.7691
  29   1.0000      -2.232689       -60.7546
  30   1.0000      -2.232351       -60.7454
  31   1.0000      -2.231965       -60.7348
  32   1.0000      -2.231624       -60.7256
  33   1.0000      -2.230689       -60.7001
  34   1.0000      -2.230475       -60.6943
  35   1.0000      -2.229863       -60.6777
  36   1.0000      -2.229516       -60.6682
  37   1.0000      -2.228797       -60.6487
  38   1.0000      -2.228379       -60.6373
  39   1.0000      -2.227961       -60.6259
  40   1.0000      -2.227713       -60.6192
  41   1.0000      -2.227133       -60.6034
  42   1.0000      -2.225352       -60.5549
  43   1.0000      -2.225249       -60.5521
  44   1.0000      -2.224412       -60.5293
  45   1.0000      -2.219051       -60.3835
  46   1.0000      -2.181748       -59.3684
  47   1.0000      -2.173367       -59.1403
  48   1.0000      -2.167110       -58.9701
  49   1.0000      -0.416952       -11.3458
  50   1.0000      -0.382415       -10.4060
  51   1.0000      -0.374058       -10.1786
  52   1.0000      -0.367672       -10.0049
  53   1.0000      -0.361842        -9.8462
  54   1.0000      -0.356546        -9.7021
  55   1.0000      -0.352188        -9.5835
  56   1.0000      -0.345232        -9.3942
  57   1.0000      -0.342632        -9.3235
  58   1.0000      -0.336153        -9.1472
  59   1.0000      -0.334429        -9.1003
  60   1.0000      -0.331819        -9.0292
  61   1.0000      -0.327924        -8.9233
  62   1.0000      -0.326586        -8.8869
  63   1.0000      -0.324213        -8.8223
  64   1.0000      -0.323680        -8.8078
  65   1.0000      -0.320820        -8.7300
  66   1.0000      -0.318389        -8.6638
  67   1.0000      -0.315822        -8.5940
  68   1.0000      -0.310710        -8.4548
  69   1.0000      -0.305135        -8.3032
  70   1.0000      -0.304174        -8.2770
  71   1.0000      -0.301651        -8.2084
  72   1.0000      -0.299200        -8.1416
  73   1.0000      -0.295457        -8.0398
  74   1.0000      -0.292000        -7.9457
  75   1.0000      -0.287613        -7.8264
  76   1.0000      -0.285198        -7.7606
  77   1.0000      -0.284152        -7.7322
  78   1.0000      -0.280471        -7.6320
  79   1.0000      -0.277923        -7.5627
  80   1.0000      -0.277820        -7.5599
  81   1.0000      -0.274421        -7.4674
  82   1.0000      -0.272061        -7.4032
  83   1.0000      -0.270830        -7.3697
  84   1.0000      -0.268818        -7.3149
  85   1.0000      -0.266556        -7.2533
  86   1.0000      -0.264991        -7.2108
  87   1.0000      -0.262418        -7.1407
  88   1.0000      -0.261896        -7.1266
  89   1.0000      -0.260216        -7.0808
  90   1.0000      -0.258722        -7.0402
  91   1.0000      -0.257279        -7.0009
  92   1.0000      -0.255511        -6.9528
  93   1.0000      -0.254074        -6.9137
  94   1.0000      -0.253159        -6.8888
  95   1.0000      -0.251277        -6.8376
  96   1.0000      -0.248116        -6.7516
  97   1.0000      -0.247548        -6.7361
  98   1.0000      -0.243334        -6.6215
  99   1.0000      -0.241525        -6.5722
 100   1.0000      -0.240102        -6.5335
 101   1.0000      -0.239184        -6.5085
 102   1.0000      -0.235787        -6.4161
 103   1.0000      -0.234211        -6.3732
 104   1.0000      -0.233498        -6.3538
 105   1.0000      -0.231243        -6.2924
 106   1.0000      -0.229161        -6.2358
 107   1.0000      -0.224049        -6.0967
 108   1.0000      -0.200172        -5.4470
 109   0.0000      -0.171282        -4.6608
 110   0.0000      -0.156900        -4.2695
 111   0.0000      -0.150691        -4.1005
 112   0.0000      -0.132007        -3.5921
 113   0.0000      -0.107266        -2.9189

                 SPIN DOWN ORBITALS
  NO   OCC          E(Eh)            E(eV)
   0   1.0000    -254.745939     -6931.9894
   1   1.0000     -29.528511      -803.5116
   2   1.0000     -25.480127      -693.3495
   3   1.0000     -25.477610      -693.2810
   4   1.0000     -25.475545      -693.2248
   5   1.0000      -4.026087      -109.5554
   6   1.0000      -4.023777      -109.4925
   7   1.0000      -4.023176      -109.4762
   8   1.0000      -4.022232      -109.4505
   9   1.0000      -4.018906      -109.3600
  10   1.0000      -4.018643      -109.3528
  11   1.0000      -4.018591      -109.3514
  12   1.0000      -4.016201      -109.2864
  13   1.0000      -4.015620      -109.2706
  14   1.0000      -4.011921      -109.1699
  15   1.0000      -3.234274       -88.0091
  16   1.0000      -2.244118       -61.0656
  17   1.0000      -2.242078       -61.0101
  18   1.0000      -2.240937       -60.9790
  19   1.0000      -2.239950       -60.9521
  20   1.0000      -2.238040       -60.9002
  21   1.0000      -2.237544       -60.8867
  22   1.0000      -2.236178       -60.8495
  23   1.0000      -2.235507       -60.8312
  24   1.0000      -2.234956       -60.8162
  25   1.0000      -2.234753       -60.8107
  26   1.0000      -2.234513       -60.8042
  27   1.0000      -2.234045       -60.7914
  28   1.0000      -2.233735       -60.7830
  29   1.0000      -2.233244       -60.7697
  30   1.0000      -2.232850       -60.7589
  31   1.0000      -2.232383       -60.7462
  32   1.0000      -2.231817       -60.7308
  33   1.0000      -2.230936       -60.7069
  34   1.0000      -2.230192       -60.6866
  35   1.0000      -2.229864       -60.6777
  36   1.0000      -2.229689       -60.6729
  37   1.0000      -2.229067       -60.6560
  38   1.0000      -2.228907       -60.6516
  39   1.0000      -2.228579       -60.6427
  40   1.0000      -2.228429       -60.6386
  41   1.0000      -2.227498       -60.6133
  42   1.0000      -2.226053       -60.5740
  43   1.0000      -2.225300       -60.5535
  44   1.0000      -2.224873       -60.5419
  45   1.0000      -2.218353       -60.3645
  46   1.0000      -2.054115       -55.8953
  47   1.0000      -2.050847       -55.8064
  48   1.0000      -2.047079       -55.7039
  49   1.0000      -0.413847       -11.2614
  50   1.0000      -0.382366       -10.4047
  51   1.0000      -0.369967       -10.0673
  52   1.0000      -0.364122        -9.9083
  53   1.0000      -0.355480        -9.6731
  54   1.0000      -0.354769        -9.6538
  55   1.0000      -0.350214        -9.5298
  56   1.0000      -0.341969        -9.3055
  57   1.0000      -0.340377        -9.2621
  58   1.0000      -0.335117        -9.1190
  59   1.0000      -0.334590        -9.1046
  60   1.0000      -0.329877        -8.9764
  61   1.0000      -0.328884        -8.9494
  62   1.0000      -0.326150        -8.8750
  63   1.0000      -0.324355        -8.8261
  64   1.0000      -0.321438        -8.7468
  65   1.0000      -0.319044        -8.6816
  66   1.0000      -0.317187        -8.6311
  67   1.0000      -0.311668        -8.4809
  68   1.0000      -0.308626        -8.3981
  69   1.0000      -0.304572        -8.2878
  70   1.0000      -0.300268        -8.1707
  71   1.0000      -0.297443        -8.0938
  72   1.0000      -0.296225        -8.0607
  73   1.0000      -0.292365        -7.9557
  74   1.0000      -0.291823        -7.9409
  75   1.0000      -0.286150        -7.7865
  76   1.0000      -0.283575        -7.7165
  77   1.0000      -0.282246        -7.6803
  78   1.0000      -0.280431        -7.6309
  79   1.0000      -0.277597        -7.5538
  80   1.0000      -0.275328        -7.4921
  81   1.0000      -0.272388        -7.4121
  82   1.0000      -0.271739        -7.3944
  83   1.0000      -0.271082        -7.3765
  84   1.0000      -0.268492        -7.3060
  85   1.0000      -0.265548        -7.2259
  86   1.0000      -0.264911        -7.2086
  87   1.0000      -0.262427        -7.1410
  88   1.0000      -0.261608        -7.1187
  89   1.0000      -0.261186        -7.1072
  90   1.0000      -0.258599        -7.0368
  91   1.0000      -0.257890        -7.0176
  92   1.0000      -0.256314        -6.9747
  93   1.0000      -0.254022        -6.9123
  94   1.0000      -0.249760        -6.7963
  95   1.0000      -0.249097        -6.7783
  96   1.0000      -0.247857        -6.7445
  97   1.0000      -0.243729        -6.6322
  98   1.0000      -0.241277        -6.5655
  99   1.0000      -0.237196        -6.4544
 100   1.0000      -0.236684        -6.4405
 101   1.0000      -0.235774        -6.4157
 102   1.0000      -0.230601        -6.2750
 103   1.0000      -0.209242        -5.6938
 104   1.0000      -0.193043        -5.2530
 105   1.0000      -0.182056        -4.9540
 106   1.0000      -0.177774        -4.8375
 107   0.0000      -0.154013        -4.1909
 108   0.0000      -0.146905        -3.9975
 109   0.0000      -0.144559        -3.9336
 110   0.0000      -0.144155        -3.9227
 111   0.0000      -0.141865        -3.8603

MULLIKEN ATOMIC CHARGES AND SPIN POPULATIONS
--------------------------------------------
   0 Au:    0.049549   -0.140312
   1 Au:    0.182922   -0.016525
   2 Au:    0.182096   -0.137343
   3 Au:    0.321935   -0.081481
   4 Au:   -0.020290   -0.148689
   5 Au:    0.198857   -0.145704
   6 Au:    0.270891   -0.078365
   7 Au:    0.359879   -0.007406
   8 Au:   -0.015288   -0.058815
   9 Au:    0.210179   -0.107143
  10 Fe:   -1.740730    2.921783
Sum of atomic charges         :   -0.0000000

LOEWDIN ATOMIC CHARGES AND SPIN POPULATIONS
-------------------------------------------
   0 Au:    0.004210   -0.088409
   1 Au:    0.109765   -0.065959
   2 Au:    0.019194   -0.119564
   3 Au:    0.129568   -0.128020
   4 Au:   -0.017469   -0.098663
   5 Au:    0.047171   -0.123820
   6 Au:    0.077367   -0.081199
   7 Au:    0.096976   -0.055343
   8 Au:    0.001167   -0.057906
   9 Au:    0.042207   -0.111411
  10 Fe:   -0.510156    2.930293

  Mayer bond orders larger than 0.100000
B(  0-Au,  1-Au) :   0.4020 B(  0-Au,  4-Au) :   0.1884 B(  0-Au,  7-Au) :   0.3501
B(  0-Au,  8-Au) :   0.1735 B(  0-Au, 10-Fe) :   0.5884 B(  1-Au,  9-Au) :   0.2213
B(  1-Au, 10-Fe) :   0.6315 B(  2-Au,  3-Au) :   0.2252 B(  2-Au,  5-Au) :   0.1684
B(  2-Au,  9-Au) :   0.3496 B(  2-Au, 10-Fe) :   0.5199 B(  3-Au,  4-Au) :   0.3915
B(  3-Au,  5-Au) :   0.1105 B(  3-Au, 10-Fe) :   0.5629 B(  4-Au,  5-Au) :   0.1363
B(  4-Au,  7-Au) :   0.3889 B(  4-Au,  8-Au) :   0.1388 B(  4-Au, 10-Fe) :   0.5918
B(  5-Au,  6-Au) :   0.1809 B(  5-Au,  8-Au) :   0.2354 B(  5-Au, 10-Fe) :   0.6136
B(  6-Au,  8-Au) :   0.3727 B(  6-Au,  9-Au) :   0.1963 B(  6-Au, 10-Fe) :   0.5469
B(  7-Au,  8-Au) :   0.3450 B(  7-Au, 10-Fe) :   0.1069 B(  8-Au, 10-Fe) :   0.5087
B(  9-Au, 10-Fe) :   0.5353

FINAL SINGLE POINT ENERGY     -2621.730145955410

DIPOLE MOMENT
-------------
                                X             Y             Z
Electronic contribution:     -3.22693     -22.72383      -7.03482
Nuclear contribution   :      3.17151      22.45763       7.01381
                        -----------------------------------------
Total Dipole Moment    :     -0.05543      -0.26620      -0.02101
                        -----------------------------------------
Magnitude (a.u.)       :      0.27272
Magnitude (Debye)      :      0.69321

Rotational constants in cm-1:     0.002225     0.001549     0.001351
Rotational constants in MHz :    66.717405    46.425881    40.497475

                             ****ORCA TERMINATED NORMALLY****
TOTAL RUN TIME: 0 days 6 hours 41 minutes 8 seconds 270 msec
