                         Program Version 5.0.3 -  RELEASE  -
|  1> !CASSCF def2-TZVP def2-TZVP/C
|  2> !MOREAD RIJCOSX
|  3> %maxcore 6000
|  4> %moinp "pbe.qro"
|  5> %pal nprocs 16 end
|  6>
|  7> %casscf
|  8>  mult 6,4
|  9>  bweight 1,1
| 10>  nroots 1,24
| 11>  nel 5
| 12>  norb 5
| 13> end
| 14>
| 15>
| 16> *xyzfile 0 6 pbe.xyz
| 17>
| 18>
| 19>                          ****END OF INPUT****

CARTESIAN COORDINATES (ANGSTROEM)
---------------------------------
  Au     8.944901    7.927900    9.955291
  Au     8.177269    6.019780    8.157838
  Au     8.855513    8.210784    5.042152
  Au     6.939903    6.376923    5.736588
  Au    10.082349    7.857294    7.470571
  Au     5.438034    6.720913    8.084176
  Au     7.828762    9.768866   11.695050
  Au     6.118568    8.560026    9.970382
  Au     6.617763   11.257988    7.102890
  Au     4.762110    9.477276    7.774173
  Au     8.308788   10.648413    9.173682
  Au     9.323976   10.457069    6.659466
  Mn     7.368725    8.601751    7.374443

 Total Charge           Charge          ....    0
 Multiplicity           Mult            ....    6
 Number of Electrons    NEL             ....  253
 Basis Dimension        Dim             ....  525

ORBITAL ENERGIES
----------------

  NO   OCC          E(Eh)            E(eV)
   0   2.0000    -240.557639     -6545.9061
   1   2.0000     -29.131841      -792.7177
   2   2.0000     -24.837516      -675.8632
   3   2.0000     -24.836460      -675.8344
   4   2.0000     -24.836401      -675.8328
   5   2.0000      -4.724056      -128.5481
   6   2.0000      -4.721332      -128.4740
   7   2.0000      -4.719235      -128.4169
   8   2.0000      -4.719123      -128.4139
   9   2.0000      -4.715413      -128.3129
  10   2.0000      -4.715145      -128.3056
  11   2.0000      -4.707115      -128.0871
  12   2.0000      -4.706972      -128.0832
  13   2.0000      -4.704146      -128.0063
  14   2.0000      -4.703884      -127.9992
  15   2.0000      -4.703169      -127.9797
  16   2.0000      -4.702758      -127.9685
  17   2.0000      -3.836842      -104.4058
  18   2.0000      -2.765413       -75.2507
  19   2.0000      -2.762683       -75.1764
  20   2.0000      -2.760724       -75.1231
  21   2.0000      -2.760138       -75.1072
  22   2.0000      -2.759543       -75.0910
  23   2.0000      -2.756217       -75.0005
  24   2.0000      -2.755387       -74.9779
  25   2.0000      -2.754986       -74.9670
  26   2.0000      -2.754478       -74.9531
  27   2.0000      -2.753573       -74.9285
  28   2.0000      -2.753467       -74.9256
  29   2.0000      -2.752807       -74.9077
  30   2.0000      -2.752737       -74.9058
  31   2.0000      -2.752438       -74.8977
  32   2.0000      -2.752249       -74.8925
  33   2.0000      -2.750600       -74.8476
  34   2.0000      -2.749869       -74.8277
  35   2.0000      -2.747451       -74.7619
  36   2.0000      -2.744027       -74.6688
  37   2.0000      -2.743835       -74.6635
  38   2.0000      -2.743614       -74.6575
  39   2.0000      -2.742790       -74.6351
  40   2.0000      -2.742303       -74.6219
  41   2.0000      -2.742126       -74.6170
  42   2.0000      -2.740982       -74.5859
  43   2.0000      -2.740740       -74.5793
  44   2.0000      -2.739228       -74.5382
  45   2.0000      -2.738836       -74.5275
  46   2.0000      -2.738352       -74.5143
  47   2.0000      -2.737894       -74.5019
  48   2.0000      -2.736836       -74.4731
  49   2.0000      -2.736743       -74.4706
  50   2.0000      -2.736151       -74.4545
  51   2.0000      -2.735671       -74.4414
  52   2.0000      -2.734706       -74.4151
  53   2.0000      -2.733007       -74.3689
  54   2.0000      -2.505625       -68.1815
  55   2.0000      -2.504792       -68.1589
  56   2.0000      -2.504639       -68.1547
  57   2.0000      -0.573514       -15.6061
  58   2.0000      -0.565032       -15.3753
  59   2.0000      -0.559896       -15.2356
  60   2.0000      -0.555655       -15.1201
  61   2.0000      -0.551568       -15.0089
  62   2.0000      -0.547690       -14.9034
  63   2.0000      -0.544006       -14.8031
  64   2.0000      -0.539064       -14.6687
  65   2.0000      -0.535142       -14.5620
  66   2.0000      -0.534209       -14.5366
  67   2.0000      -0.532538       -14.4911
  68   2.0000      -0.529455       -14.4072
  69   2.0000      -0.526880       -14.3371
  70   2.0000      -0.520665       -14.1680
  71   2.0000      -0.518740       -14.1156
  72   2.0000      -0.518546       -14.1104
  73   2.0000      -0.515375       -14.0241
  74   2.0000      -0.511590       -13.9211
  75   2.0000      -0.507945       -13.8219
  76   2.0000      -0.505654       -13.7596
  77   2.0000      -0.504112       -13.7176
  78   2.0000      -0.503509       -13.7012
  79   2.0000      -0.500225       -13.6118
  80   2.0000      -0.498526       -13.5656
  81   2.0000      -0.497040       -13.5251
  82   2.0000      -0.490954       -13.3595
  83   2.0000      -0.487390       -13.2626
  84   2.0000      -0.486629       -13.2418
  85   2.0000      -0.481111       -13.0917
  86   2.0000      -0.477698       -12.9988
  87   2.0000      -0.475663       -12.9435
  88   2.0000      -0.474894       -12.9225
  89   2.0000      -0.470170       -12.7940
  90   2.0000      -0.468892       -12.7592
  91   2.0000      -0.466312       -12.6890
  92   2.0000      -0.462162       -12.5761
  93   2.0000      -0.461661       -12.5624
  94   2.0000      -0.458847       -12.4859
  95   2.0000      -0.457359       -12.4454
  96   2.0000      -0.452018       -12.3000
  97   2.0000      -0.451362       -12.2822
  98   2.0000      -0.449741       -12.2381
  99   2.0000      -0.447917       -12.1884
 100   2.0000      -0.446956       -12.1623
 101   2.0000      -0.443484       -12.0678
 102   2.0000      -0.441796       -12.0219
 103   2.0000      -0.438814       -11.9407
 104   2.0000      -0.436040       -11.8653
 105   2.0000      -0.434807       -11.8317
 106   2.0000      -0.430248       -11.7076
 107   2.0000      -0.429971       -11.7001
 108   2.0000      -0.422794       -11.5048
 109   2.0000      -0.422104       -11.4860
 110   2.0000      -0.420119       -11.4320
 111   2.0000      -0.419053       -11.4030
 112   2.0000      -0.417876       -11.3710
 113   2.0000      -0.411620       -11.2007
 114   2.0000      -0.410746       -11.1770
 115   2.0000      -0.406010       -11.0481
 116   2.0000      -0.404902       -11.0180
 117   2.0000      -0.382015       -10.3952
 118   2.0000      -0.363484        -9.8909
 119   2.0000      -0.343901        -9.3580
 120   2.0000      -0.333455        -9.0738
 121   2.0000      -0.259704        -7.0669
 122   2.0000      -0.234873        -6.3912
 123   2.0000      -0.214833        -5.8459
 124   1.0000      -0.151149        -4.1130
 125   1.0000      -0.157060        -4.2738
 126   1.0000      -0.146711        -3.9922
 127   1.0000      -0.156171        -4.2496
 128   1.0000      -0.159522        -4.3408
 129   0.0000      -0.030286        -0.8241
 130   0.0000      -0.023262        -0.6330
 131   0.0000      -0.017973        -0.4891
 132   0.0000       0.003255         0.0886
 133   0.0000       0.025465         0.6929

MULLIKEN ATOMIC CHARGES AND SPIN DENSITIES
------------------------------------------
   0 Au:   -0.096702    0.004827
   1 Au:    0.197036    0.007721
   2 Au:    0.171961    0.009462
   3 Au:    0.173518    0.009417
   4 Au:    0.196444    0.007741
   5 Au:    0.234540    0.010090
   6 Au:    0.479038    0.002675
   7 Au:   -0.241004    0.008482
   8 Au:    0.242577    0.010275
   9 Au:    0.247642    0.010148
  10 Au:   -0.242896    0.008494
  11 Au:    0.239299    0.010032
  12 Mn:   -1.601452    3.900633
Sum of atomic charges       :    0.0000000

LOEWDIN ATOMIC CHARGES AND SPIN DENSITIES
-----------------------------------------
   0 Au:   -0.017330    0.007155
   1 Au:   -0.007874    0.011057
   2 Au:    0.047185    0.012588
   3 Au:    0.048033    0.012529
   4 Au:   -0.007502    0.011068
   5 Au:    0.002356    0.013802
   6 Au:    0.221228    0.003659
   7 Au:   -0.087470    0.011032
   8 Au:    0.026630    0.014037
   9 Au:    0.027484    0.013908
  10 Au:   -0.087153    0.011015
  11 Au:    0.003130    0.013770
  12 Mn:   -0.168716    3.864379

  Mayer bond orders larger than 0.100000
B(  0-Au,  1-Au) :   0.3586 B(  0-Au,  4-Au) :   0.3573 B(  0-Au,  6-Au) :   0.2644
B(  0-Au,  7-Au) :   0.2351 B(  0-Au, 10-Au) :   0.2345 B(  0-Au, 12-Mn) :   0.1856
B(  1-Au,  3-Au) :   0.2519 B(  1-Au,  4-Au) :   0.2154 B(  1-Au,  5-Au) :   0.1588
B(  1-Au, 12-Mn) :   0.3950 B(  2-Au,  3-Au) :   0.2242 B(  2-Au,  4-Au) :   0.2513
B(  2-Au, 11-Au) :   0.1612 B(  2-Au, 12-Mn) :   0.4233 B(  3-Au,  5-Au) :   0.1611
B(  3-Au, 12-Mn) :   0.4213 B(  4-Au, 11-Au) :   0.1600 B(  4-Au, 12-Mn) :   0.3951
B(  5-Au,  7-Au) :   0.4012 B(  5-Au, 12-Mn) :   0.3860 B(  6-Au,  7-Au) :   0.3453
B(  6-Au, 10-Au) :   0.3451 B(  7-Au,  9-Au) :   0.2491 B(  7-Au, 10-Au) :   0.2240
B(  7-Au, 12-Mn) :   0.4052 B(  8-Au,  9-Au) :   0.3903 B(  8-Au, 10-Au) :   0.2458
B(  8-Au, 12-Mn) :   0.4327 B(  9-Au, 12-Mn) :   0.4282 B( 10-Au, 11-Au) :   0.4044
B( 10-Au, 12-Mn) :   0.4056 B( 11-Au, 12-Mn) :   0.3829

FINAL SINGLE POINT ENERGY     -2767.541732988489

DIPOLE MOMENT
-------------
                                X             Y             Z
Electronic contribution:      9.25321       0.22852      26.01035
Nuclear contribution   :     -9.01450      -0.18865     -25.25233
                        -----------------------------------------
Total Dipole Moment    :      0.23871       0.03987       0.75802
                        -----------------------------------------
Magnitude (a.u.)       :      0.79572
Magnitude (Debye)      :      2.02255

Rotational constants in cm-1:     0.001458     0.001205     0.001137
Rotational constants in MHz :    43.696158    36.110969    34.085989

                             ****ORCA TERMINATED NORMALLY****
TOTAL RUN TIME: 0 days 0 hours 17 minutes 53 seconds 48 msec
