                         Program Version 5.0.3 -  RELEASE  -
|  1> %pal nprocs 16 end
|  2>
|  3> !PBE def2-TZVP OPT UNO
|  4> !SLOWCONV KDIIS
|  5>
|  6> %geom maxiter 300 end
|  7>
|  8> *xyzfile 0 3 7.xyz                           ****END OF INPUT****
 Total Charge           Charge          ....    0
 Multiplicity           Mult            ....    3
 Number of Electrons    NEL             ....  254
FINAL SINGLE POINT ENERGY     -2893.386299611107
FINAL SINGLE POINT ENERGY     -2893.386581498469
FINAL SINGLE POINT ENERGY     -2893.387644592362
FINAL SINGLE POINT ENERGY     -2893.387865241352
FINAL SINGLE POINT ENERGY     -2893.388201924694
FINAL SINGLE POINT ENERGY     -2893.388382926310
FINAL SINGLE POINT ENERGY     -2893.388520619558
FINAL SINGLE POINT ENERGY     -2893.388684609742
FINAL SINGLE POINT ENERGY     -2893.388734466093
FINAL SINGLE POINT ENERGY     -2893.388751140229
FINAL SINGLE POINT ENERGY     -2893.388761984061
FINAL SINGLE POINT ENERGY     -2893.388768434275
FINAL SINGLE POINT ENERGY     -2893.388772290240
                    ***********************HURRAY********************

CARTESIAN COORDINATES (ANGSTROEM)
---------------------------------
  Au     6.790811    8.690598    9.156539
  Au     9.713572    5.505381    6.987070
  Au     7.321200    7.131319    6.918833
  Au    10.071488    5.540494    9.845448
  Au     8.448595    7.471182   11.264361
  Au     7.218755    4.383116    7.129330
  Au     7.229827    5.794638    9.477548
  Au    11.110610    8.272353   10.558289
  Au    11.690454    7.092610    8.015944
  Au    10.950647    9.827132    8.207033
  Au     9.724081    8.342605    6.215234
  Au     8.946898   10.058650   10.230054
  Fe     9.204639    7.769228    8.719750

 Multiplicity           Mult            ....    3
 Number of Electrons    NEL             ....  254
 Basis Dimension        Dim             ....  525

ORBITAL ENERGIES
----------------
                 SPIN UP ORBITALS
  NO   OCC          E(Eh)            E(eV)
   0   1.0000    -254.755021     -6932.2365
   1   1.0000     -29.592782      -805.2605
   2   1.0000     -25.534387      -694.8260
   3   1.0000     -25.526709      -694.6171
   4   1.0000     -25.524076      -694.5454
   5   1.0000      -4.031402      -109.7000
   6   1.0000      -4.029232      -109.6410
   7   1.0000      -4.029219      -109.6406
   8   1.0000      -4.025330      -109.5348
   9   1.0000      -4.022769      -109.4651
  10   1.0000      -4.022639      -109.4616
  11   1.0000      -4.022557      -109.4593
  12   1.0000      -4.021465      -109.4296
  13   1.0000      -4.021409      -109.4281
  14   1.0000      -4.016767      -109.3018
  15   1.0000      -4.016649      -109.2986
  16   1.0000      -4.010583      -109.1335
  17   1.0000      -3.368079       -91.6501
  18   1.0000      -2.247224       -61.1501
  19   1.0000      -2.244986       -61.0892
  20   1.0000      -2.244975       -61.0889
  21   1.0000      -2.243815       -61.0573
  22   1.0000      -2.243302       -61.0434
  23   1.0000      -2.243139       -61.0389
  24   1.0000      -2.243070       -61.0370
  25   1.0000      -2.241072       -60.9827
  26   1.0000      -2.240413       -60.9647
  27   1.0000      -2.240351       -60.9631
  28   1.0000      -2.238695       -60.9180
  29   1.0000      -2.238482       -60.9122
  30   1.0000      -2.238379       -60.9094
  31   1.0000      -2.238031       -60.8999
  32   1.0000      -2.237920       -60.8969
  33   1.0000      -2.237131       -60.8754
  34   1.0000      -2.236951       -60.8705
  35   1.0000      -2.235313       -60.8260
  36   1.0000      -2.235152       -60.8216
  37   1.0000      -2.234867       -60.8138
  38   1.0000      -2.234676       -60.8086
  39   1.0000      -2.234565       -60.8056
  40   1.0000      -2.234257       -60.7972
  41   1.0000      -2.232328       -60.7447
  42   1.0000      -2.232074       -60.7378
  43   1.0000      -2.231892       -60.7329
  44   1.0000      -2.231403       -60.7196
  45   1.0000      -2.230622       -60.6983
  46   1.0000      -2.230517       -60.6954
  47   1.0000      -2.229653       -60.6719
  48   1.0000      -2.228532       -60.6414
  49   1.0000      -2.227442       -60.6118
  50   1.0000      -2.226499       -60.5861
  51   1.0000      -2.226121       -60.5758
  52   1.0000      -2.222949       -60.4895
  53   1.0000      -2.220977       -60.4358
  54   1.0000      -2.194290       -59.7097
  55   1.0000      -2.178981       -59.2931
  56   1.0000      -2.171945       -59.1016
  57   1.0000      -0.432523       -11.7695
  58   1.0000      -0.383152       -10.4261
  59   1.0000      -0.381571       -10.3831
  60   1.0000      -0.374737       -10.1971
  61   1.0000      -0.373159       -10.1542
  62   1.0000      -0.370388       -10.0788
  63   1.0000      -0.364483        -9.9181
  64   1.0000      -0.363878        -9.9016
  65   1.0000      -0.355664        -9.6781
  66   1.0000      -0.348806        -9.4915
  67   1.0000      -0.348609        -9.4861
  68   1.0000      -0.348043        -9.4707
  69   1.0000      -0.343828        -9.3560
  70   1.0000      -0.341670        -9.2973
  71   1.0000      -0.336360        -9.1528
  72   1.0000      -0.336197        -9.1484
  73   1.0000      -0.331578        -9.0227
  74   1.0000      -0.330792        -9.0013
  75   1.0000      -0.328393        -8.9360
  76   1.0000      -0.326028        -8.8717
  77   1.0000      -0.320800        -8.7294
  78   1.0000      -0.320774        -8.7287
  79   1.0000      -0.318289        -8.6611
  80   1.0000      -0.316341        -8.6081
  81   1.0000      -0.315163        -8.5760
  82   1.0000      -0.314007        -8.5446
  83   1.0000      -0.308689        -8.3998
  84   1.0000      -0.306436        -8.3386
  85   1.0000      -0.306339        -8.3359
  86   1.0000      -0.299686        -8.1549
  87   1.0000      -0.295837        -8.0501
  88   1.0000      -0.294632        -8.0173
  89   1.0000      -0.292570        -7.9612
  90   1.0000      -0.290146        -7.8953
  91   1.0000      -0.287762        -7.8304
  92   1.0000      -0.284432        -7.7398
  93   1.0000      -0.281196        -7.6517
  94   1.0000      -0.280134        -7.6228
  95   1.0000      -0.279479        -7.6050
  96   1.0000      -0.272671        -7.4198
  97   1.0000      -0.272531        -7.4159
  98   1.0000      -0.270010        -7.3473
  99   1.0000      -0.268242        -7.2992
 100   1.0000      -0.267782        -7.2867
 101   1.0000      -0.266678        -7.2567
 102   1.0000      -0.264268        -7.1911
 103   1.0000      -0.260966        -7.1012
 104   1.0000      -0.259640        -7.0652
 105   1.0000      -0.258877        -7.0444
 106   1.0000      -0.257454        -7.0057
 107   1.0000      -0.257411        -7.0045
 108   1.0000      -0.253716        -6.9040
 109   1.0000      -0.252089        -6.8597
 110   1.0000      -0.251181        -6.8350
 111   1.0000      -0.250536        -6.8174
 112   1.0000      -0.250375        -6.8130
 113   1.0000      -0.249093        -6.7782
 114   1.0000      -0.248700        -6.7675
 115   1.0000      -0.247254        -6.7281
 116   1.0000      -0.246808        -6.7160
 117   1.0000      -0.244535        -6.6541
 118   1.0000      -0.243696        -6.6313
 119   1.0000      -0.241626        -6.5750
 120   1.0000      -0.241561        -6.5732
 121   1.0000      -0.239881        -6.5275
 122   1.0000      -0.236818        -6.4441
 123   1.0000      -0.235840        -6.4175
 124   1.0000      -0.233178        -6.3451
 125   1.0000      -0.229693        -6.2503
 126   1.0000      -0.207678        -5.6512
 127   1.0000      -0.186470        -5.0741
 128   0.0000      -0.175509        -4.7758
 129   0.0000      -0.174207        -4.7404
 130   0.0000      -0.155139        -4.2216
 131   0.0000      -0.132202        -3.5974
 132   0.0000      -0.115107        -3.1322

                 SPIN DOWN ORBITALS
  NO   OCC          E(Eh)            E(eV)
   0   1.0000    -254.754355     -6932.2184
   1   1.0000     -29.536950      -803.7413
   2   1.0000     -25.489127      -693.5944
   3   1.0000     -25.485301      -693.4903
   4   1.0000     -25.484230      -693.4612
   5   1.0000      -4.031286      -109.6969
   6   1.0000      -4.029552      -109.6497
   7   1.0000      -4.029535      -109.6492
   8   1.0000      -4.025599      -109.5421
   9   1.0000      -4.023174      -109.4761
  10   1.0000      -4.022995      -109.4713
  11   1.0000      -4.022794      -109.4658
  12   1.0000      -4.021672      -109.4353
  13   1.0000      -4.021613      -109.4337
  14   1.0000      -4.017063      -109.3098
  15   1.0000      -4.016950      -109.3068
  16   1.0000      -4.010961      -109.1438
  17   1.0000      -3.242565       -88.2347
  18   1.0000      -2.246701       -61.1358
  19   1.0000      -2.244894       -61.0867
  20   1.0000      -2.244882       -61.0864
  21   1.0000      -2.243773       -61.0562
  22   1.0000      -2.243508       -61.0490
  23   1.0000      -2.243406       -61.0462
  24   1.0000      -2.243229       -61.0414
  25   1.0000      -2.241181       -60.9856
  26   1.0000      -2.241073       -60.9827
  27   1.0000      -2.240548       -60.9684
  28   1.0000      -2.238853       -60.9223
  29   1.0000      -2.238724       -60.9188
  30   1.0000      -2.238478       -60.9121
  31   1.0000      -2.238021       -60.8997
  32   1.0000      -2.237916       -60.8968
  33   1.0000      -2.237651       -60.8896
  34   1.0000      -2.237507       -60.8857
  35   1.0000      -2.235691       -60.8362
  36   1.0000      -2.235491       -60.8308
  37   1.0000      -2.235176       -60.8222
  38   1.0000      -2.234907       -60.8149
  39   1.0000      -2.234725       -60.8099
  40   1.0000      -2.234625       -60.8072
  41   1.0000      -2.232828       -60.7583
  42   1.0000      -2.232473       -60.7487
  43   1.0000      -2.231652       -60.7263
  44   1.0000      -2.231389       -60.7192
  45   1.0000      -2.231115       -60.7117
  46   1.0000      -2.230971       -60.7078
  47   1.0000      -2.230250       -60.6882
  48   1.0000      -2.229092       -60.6567
  49   1.0000      -2.227987       -60.6266
  50   1.0000      -2.226928       -60.5978
  51   1.0000      -2.226788       -60.5940
  52   1.0000      -2.223282       -60.4986
  53   1.0000      -2.221261       -60.4436
  54   1.0000      -2.062661       -56.1279
  55   1.0000      -2.058809       -56.0230
  56   1.0000      -2.055425       -55.9310
  57   1.0000      -0.428940       -11.6720
  58   1.0000      -0.382928       -10.4200
  59   1.0000      -0.381288       -10.3754
  60   1.0000      -0.368312       -10.0223
  61   1.0000      -0.366227        -9.9655
  62   1.0000      -0.365290        -9.9401
  63   1.0000      -0.359908        -9.7936
  64   1.0000      -0.358593        -9.7578
  65   1.0000      -0.351222        -9.5572
  66   1.0000      -0.348166        -9.4741
  67   1.0000      -0.347858        -9.4657
  68   1.0000      -0.347569        -9.4578
  69   1.0000      -0.345303        -9.3962
  70   1.0000      -0.342204        -9.3118
  71   1.0000      -0.338042        -9.1986
  72   1.0000      -0.336494        -9.1565
  73   1.0000      -0.333219        -9.0674
  74   1.0000      -0.330872        -9.0035
  75   1.0000      -0.329596        -8.9688
  76   1.0000      -0.325276        -8.8512
  77   1.0000      -0.320095        -8.7102
  78   1.0000      -0.318975        -8.6798
  79   1.0000      -0.318496        -8.6667
  80   1.0000      -0.314341        -8.5537
  81   1.0000      -0.313909        -8.5419
  82   1.0000      -0.311145        -8.4667
  83   1.0000      -0.308129        -8.3846
  84   1.0000      -0.302552        -8.2329
  85   1.0000      -0.301268        -8.1979
  86   1.0000      -0.299129        -8.1397
  87   1.0000      -0.294115        -8.0033
  88   1.0000      -0.292309        -7.9541
  89   1.0000      -0.290826        -7.9138
  90   1.0000      -0.288514        -7.8509
  91   1.0000      -0.280971        -7.6456
  92   1.0000      -0.280195        -7.6245
  93   1.0000      -0.279486        -7.6052
  94   1.0000      -0.279031        -7.5928
  95   1.0000      -0.276865        -7.5339
  96   1.0000      -0.272631        -7.4187
  97   1.0000      -0.271465        -7.3869
  98   1.0000      -0.270365        -7.3570
  99   1.0000      -0.268180        -7.2976
 100   1.0000      -0.267984        -7.2922
 101   1.0000      -0.266880        -7.2622
 102   1.0000      -0.264691        -7.2026
 103   1.0000      -0.261586        -7.1181
 104   1.0000      -0.260197        -7.0803
 105   1.0000      -0.260119        -7.0782
 106   1.0000      -0.258283        -7.0282
 107   1.0000      -0.258041        -7.0216
 108   1.0000      -0.253241        -6.8910
 109   1.0000      -0.252708        -6.8765
 110   1.0000      -0.252691        -6.8761
 111   1.0000      -0.250430        -6.8145
 112   1.0000      -0.249594        -6.7918
 113   1.0000      -0.249157        -6.7799
 114   1.0000      -0.245919        -6.6918
 115   1.0000      -0.245893        -6.6911
 116   1.0000      -0.242043        -6.5863
 117   1.0000      -0.241829        -6.5805
 118   1.0000      -0.237642        -6.4666
 119   1.0000      -0.236201        -6.4274
 120   1.0000      -0.234990        -6.3944
 121   1.0000      -0.215415        -5.8617
 122   1.0000      -0.198824        -5.4103
 123   1.0000      -0.196726        -5.3532
 124   1.0000      -0.194880        -5.3030
 125   1.0000      -0.181749        -4.9457
 126   0.0000      -0.160070        -4.3557
 127   0.0000      -0.153658        -4.1813
 128   0.0000      -0.152462        -4.1487
 129   0.0000      -0.146878        -3.9968
 130   0.0000      -0.143033        -3.8921

MULLIKEN ATOMIC CHARGES AND SPIN POPULATIONS
--------------------------------------------
   0 Au:    0.318510   -0.137194
   1 Au:   -0.058967    0.020152
   2 Au:    0.217801   -0.129638
   3 Au:    0.283050   -0.082277
   4 Au:    0.322891   -0.141676
   5 Au:    0.289474    0.043152
   6 Au:   -0.058156    0.016234
   7 Au:    0.268108   -0.106284
   8 Au:    0.323855   -0.142588
   9 Au:    0.227896    0.004547
  10 Au:    0.319310   -0.137780
  11 Au:    0.226851    0.007110
  12 Fe:   -2.680622    2.786242
Sum of atomic charges         :   -0.0000000

LOEWDIN ATOMIC CHARGES AND SPIN POPULATIONS
-------------------------------------------
   0 Au:    0.121022   -0.125360
   1 Au:   -0.025410   -0.029597
   2 Au:    0.013918   -0.097650
   3 Au:    0.111802   -0.101578
   4 Au:    0.066374   -0.103675
   5 Au:    0.085784    0.022035
   6 Au:   -0.024566   -0.031526
   7 Au:    0.058193   -0.091863
   8 Au:    0.066844   -0.104168
   9 Au:    0.059019   -0.047850
  10 Au:    0.121016   -0.125947
  11 Au:    0.057672   -0.046305
  12 Fe:   -0.711667    2.883482

  Mayer bond orders larger than 0.100000
B(  0-Au,  2-Au) :   0.2084 B(  0-Au,  4-Au) :   0.1042 B(  0-Au,  6-Au) :   0.1294
B(  0-Au, 11-Au) :   0.2149 B(  0-Au, 12-Fe) :   0.5846 B(  1-Au,  2-Au) :   0.1803
B(  1-Au,  3-Au) :   0.1710 B(  1-Au,  5-Au) :   0.3879 B(  1-Au,  6-Au) :   0.1330
B(  1-Au,  8-Au) :   0.2759 B(  1-Au, 10-Au) :   0.1313 B(  1-Au, 12-Fe) :   0.4866
B(  2-Au,  5-Au) :   0.3420 B(  2-Au,  6-Au) :   0.1832 B(  2-Au, 10-Au) :   0.2067
B(  2-Au, 12-Fe) :   0.5029 B(  3-Au,  4-Au) :   0.1626 B(  3-Au,  6-Au) :   0.1728
B(  3-Au,  7-Au) :   0.1243 B(  3-Au,  8-Au) :   0.1621 B(  3-Au, 12-Fe) :   0.5367
B(  4-Au,  6-Au) :   0.2752 B(  4-Au,  7-Au) :   0.1642 B(  4-Au, 11-Au) :   0.1937
B(  4-Au, 12-Fe) :   0.5483 B(  5-Au,  6-Au) :   0.3873 B(  5-Au, 12-Fe) :   0.1130
B(  6-Au, 12-Fe) :   0.4882 B(  7-Au,  8-Au) :   0.1673 B(  7-Au,  9-Au) :   0.2189
B(  7-Au, 11-Au) :   0.2170 B(  7-Au, 12-Fe) :   0.5293 B(  8-Au,  9-Au) :   0.1878
B(  8-Au, 10-Au) :   0.1044 B(  8-Au, 12-Fe) :   0.5489 B(  9-Au, 10-Au) :   0.2134
B(  9-Au, 11-Au) :   0.1508 B(  9-Au, 12-Fe) :   0.5147 B( 10-Au, 12-Fe) :   0.5842
B( 11-Au, 12-Fe) :   0.5108

FINAL SINGLE POINT ENERGY     -2893.388774165779

DIPOLE MOMENT
-------------
                                X             Y             Z
Electronic contribution:     -3.85584     -16.35002      -1.91787
Nuclear contribution   :      3.92810      16.23797       2.00197
                        -----------------------------------------
Total Dipole Moment    :      0.07225      -0.11205       0.08410
                        -----------------------------------------
Magnitude (a.u.)       :      0.15763
Magnitude (Debye)      :      0.40067

Rotational constants in cm-1:     0.001674     0.001270     0.001134
Rotational constants in MHz :    50.172102    38.069835    34.004537

                             ****ORCA TERMINATED NORMALLY****
TOTAL RUN TIME: 0 days 0 hours 26 minutes 20 seconds 473 msec
