                         Program Version 5.0.3 -  RELEASE  -
|  1> !CASSCF def2-TZVP def2-TZVP/C
|  2> !MOREAD RIJCOSX
|  3> %maxcore 6000
|  4> %moinp "pbe.qro"
|  5> %pal nprocs 2 end
|  6>
|  7> %casscf
|  8>  mult 5,3
|  9>  bweight 1,1
| 10>  nroots 5,45
| 11>  nel 6
| 12>  norb 5
| 13> end
| 14>
| 15>
| 16> *xyzfile 0 5 pbe.xyz
| 17>
| 18>
| 19>                          ****END OF INPUT****

CARTESIAN COORDINATES (ANGSTROEM)
---------------------------------
  Au     7.869494    7.748588    5.274060
  Au    10.520025    6.465044    5.450092
  Au     6.003454    9.618160    6.308971
  Au     6.110440    6.746900    7.275676
  Au     8.432692   10.591225    5.843691
  Au    10.433049    9.069563    4.589608
  Au    11.092165   10.839533    6.669445
  Au     4.305095    8.582530    8.170673
  Au     8.612063    5.863013    7.421071
  Au    11.266017    6.350917    8.155977
  Au     6.961470    8.913843    8.869135
  Au     9.250475    7.682329    9.630383
  Au    11.666471    9.052456    8.735896
  Au     9.140030   10.512746    8.689760
  Cr     9.671370    8.430422    7.100756

 Total Charge           Charge          ....    0
 Multiplicity           Mult            ....    5
 Number of Electrons    NEL             ....  290
 Basis Dimension        Dim             ....  605

ORBITAL ENERGIES
----------------

  NO   OCC          E(Eh)            E(eV)
   0   2.0000    -220.579693     -6002.2786
   1   2.0000     -26.429898      -719.1941
   2   2.0000     -22.362723      -608.5206
   3   2.0000     -22.358754      -608.4126
   4   2.0000     -22.353610      -608.2727
   5   2.0000      -4.718594      -128.3995
   6   2.0000      -4.718410      -128.3945
   7   2.0000      -4.717642      -128.3736
   8   2.0000      -4.716279      -128.3365
   9   2.0000      -4.712064      -128.2218
  10   2.0000      -4.711808      -128.2148
  11   2.0000      -4.709164      -128.1429
  12   2.0000      -4.709154      -128.1426
  13   2.0000      -4.708220      -128.1172
  14   2.0000      -4.708136      -128.1149
  15   2.0000      -4.701700      -127.9398
  16   2.0000      -4.699934      -127.8917
  17   2.0000      -4.697800      -127.8336
  18   2.0000      -4.697744      -127.8321
  19   2.0000      -3.474281       -94.5400
  20   2.0000      -2.758507       -75.0628
  21   2.0000      -2.757184       -75.0268
  22   2.0000      -2.756837       -75.0173
  23   2.0000      -2.756748       -75.0149
  24   2.0000      -2.755204       -74.9729
  25   2.0000      -2.755007       -74.9675
  26   2.0000      -2.753617       -74.9297
  27   2.0000      -2.753354       -74.9226
  28   2.0000      -2.752795       -74.9074
  29   2.0000      -2.752625       -74.9027
  30   2.0000      -2.751786       -74.8799
  31   2.0000      -2.751524       -74.8728
  32   2.0000      -2.751261       -74.8656
  33   2.0000      -2.751039       -74.8596
  34   2.0000      -2.749290       -74.8120
  35   2.0000      -2.747760       -74.7704
  36   2.0000      -2.747302       -74.7579
  37   2.0000      -2.746535       -74.7370
  38   2.0000      -2.746511       -74.7364
  39   2.0000      -2.745167       -74.6998
  40   2.0000      -2.745111       -74.6983
  41   2.0000      -2.744418       -74.6794
  42   2.0000      -2.743873       -74.6646
  43   2.0000      -2.743497       -74.6543
  44   2.0000      -2.743041       -74.6419
  45   2.0000      -2.742449       -74.6258
  46   2.0000      -2.742395       -74.6244
  47   2.0000      -2.741749       -74.6068
  48   2.0000      -2.741729       -74.6063
  49   2.0000      -2.740911       -74.5840
  50   2.0000      -2.740650       -74.5769
  51   2.0000      -2.738048       -74.5061
  52   2.0000      -2.737217       -74.4835
  53   2.0000      -2.736261       -74.4574
  54   2.0000      -2.735894       -74.4475
  55   2.0000      -2.733313       -74.3772
  56   2.0000      -2.732899       -74.3660
  57   2.0000      -2.732187       -74.3466
  58   2.0000      -2.731577       -74.3300
  59   2.0000      -2.731304       -74.3226
  60   2.0000      -2.731006       -74.3144
  61   2.0000      -2.730936       -74.3126
  62   2.0000      -2.234959       -60.8163
  63   2.0000      -2.231208       -60.7142
  64   2.0000      -2.225591       -60.5614
  65   2.0000      -0.568454       -15.4684
  66   2.0000      -0.556478       -15.1425
  67   2.0000      -0.551930       -15.0188
  68   2.0000      -0.549059       -14.9407
  69   2.0000      -0.546692       -14.8762
  70   2.0000      -0.544260       -14.8101
  71   2.0000      -0.541295       -14.7294
  72   2.0000      -0.541034       -14.7223
  73   2.0000      -0.538509       -14.6536
  74   2.0000      -0.538347       -14.6492
  75   2.0000      -0.536529       -14.5997
  76   2.0000      -0.533416       -14.5150
  77   2.0000      -0.533163       -14.5081
  78   2.0000      -0.532952       -14.5024
  79   2.0000      -0.528217       -14.3735
  80   2.0000      -0.528109       -14.3706
  81   2.0000      -0.525540       -14.3007
  82   2.0000      -0.519947       -14.1485
  83   2.0000      -0.517251       -14.0751
  84   2.0000      -0.516430       -14.0528
  85   2.0000      -0.512727       -13.9520
  86   2.0000      -0.512647       -13.9498
  87   2.0000      -0.506804       -13.7908
  88   2.0000      -0.506060       -13.7706
  89   2.0000      -0.501444       -13.6450
  90   2.0000      -0.499961       -13.6046
  91   2.0000      -0.498556       -13.5664
  92   2.0000      -0.493931       -13.4405
  93   2.0000      -0.492576       -13.4037
  94   2.0000      -0.488704       -13.2983
  95   2.0000      -0.488630       -13.2963
  96   2.0000      -0.486762       -13.2455
  97   2.0000      -0.483785       -13.1645
  98   2.0000      -0.479282       -13.0419
  99   2.0000      -0.478499       -13.0206
 100   2.0000      -0.476938       -12.9782
 101   2.0000      -0.469900       -12.7866
 102   2.0000      -0.468871       -12.7586
 103   2.0000      -0.467846       -12.7307
 104   2.0000      -0.465507       -12.6671
 105   2.0000      -0.461043       -12.5456
 106   2.0000      -0.459378       -12.5003
 107   2.0000      -0.457313       -12.4441
 108   2.0000      -0.453861       -12.3502
 109   2.0000      -0.450980       -12.2718
 110   2.0000      -0.449991       -12.2449
 111   2.0000      -0.446634       -12.1535
 112   2.0000      -0.446480       -12.1493
 113   2.0000      -0.444678       -12.1003
 114   2.0000      -0.443948       -12.0804
 115   2.0000      -0.443449       -12.0669
 116   2.0000      -0.441634       -12.0175
 117   2.0000      -0.438836       -11.9413
 118   2.0000      -0.437339       -11.9006
 119   2.0000      -0.436468       -11.8769
 120   2.0000      -0.434192       -11.8150
 121   2.0000      -0.432233       -11.7617
 122   2.0000      -0.427598       -11.6355
 123   2.0000      -0.426258       -11.5991
 124   2.0000      -0.425816       -11.5870
 125   2.0000      -0.421057       -11.4576
 126   2.0000      -0.420296       -11.4368
 127   2.0000      -0.419495       -11.4150
 128   2.0000      -0.419100       -11.4043
 129   2.0000      -0.415718       -11.3123
 130   2.0000      -0.412778       -11.2323
 131   2.0000      -0.409385       -11.1399
 132   2.0000      -0.405685       -11.0393
 133   2.0000      -0.400300       -10.8927
 134   2.0000      -0.389885       -10.6093
 135   2.0000      -0.379019       -10.3136
 136   2.0000      -0.371597       -10.1117
 137   2.0000      -0.346635        -9.4324
 138   2.0000      -0.337870        -9.1939
 139   2.0000      -0.259827        -7.0703
 140   2.0000      -0.240227        -6.5369
 141   2.0000      -0.234404        -6.3785
 142   1.2000      -0.163544        -4.4503
 143   1.2000      -0.160493        -4.3672
 144   1.2000      -0.140335        -3.8187
 145   1.2000      -0.141358        -3.8466
 146   1.2000      -0.158773        -4.3204
 147   0.0000      -0.005883        -0.1601
 148   0.0000      -0.000591        -0.0161
 149   0.0000       0.005019         0.1366
 150   0.0000       0.016315         0.4440
 151   0.0000       0.022552         0.6137

MULLIKEN ATOMIC CHARGES AND SPIN DENSITIES
------------------------------------------
   0 Au:    0.370633    0.013462
   1 Au:    0.512173    0.021631
   2 Au:    0.101180    0.013571
   3 Au:    0.100921    0.013706
   4 Au:    0.261933    0.032191
   5 Au:    0.512885    0.021365
   6 Au:    0.551984    0.040650
   7 Au:    0.483196    0.003602
   8 Au:    0.257466    0.032328
   9 Au:    0.552777    0.040140
  10 Au:   -0.517448    0.011407
  11 Au:    0.704211    0.016617
  12 Au:    0.490506    0.038820
  13 Au:    0.702651    0.016827
  14 Cr:   -5.085068    2.683682
Sum of atomic charges       :    0.0000000

LOEWDIN ATOMIC CHARGES AND SPIN DENSITIES
-----------------------------------------
   0 Au:    0.051318    0.048651
   1 Au:    0.135418    0.059096
   2 Au:   -0.015712    0.019612
   3 Au:   -0.015242    0.019587
   4 Au:    0.035172    0.073068
   5 Au:    0.136224    0.059023
   6 Au:    0.138882    0.084303
   7 Au:    0.184789    0.006832
   8 Au:    0.034823    0.072932
   9 Au:    0.138683    0.083876
  10 Au:   -0.098765    0.023624
  11 Au:    0.118483    0.061942
  12 Au:    0.135093    0.075532
  13 Au:    0.118212    0.062122
  14 Cr:   -1.097378    2.249800

  Mayer bond orders larger than 0.100000
B(  0-Au,  2-Au) :   0.1572 B(  0-Au,  3-Au) :   0.1530 B(  0-Au,  4-Au) :   0.1676
B(  0-Au,  8-Au) :   0.1688 B(  0-Au, 12-Au) :   0.1707 B(  0-Au, 14-Cr) :   0.3356
B(  1-Au,  5-Au) :   0.2196 B(  1-Au,  9-Au) :   0.1492 B(  1-Au, 13-Au) :   0.1515
B(  1-Au, 14-Cr) :   0.4007 B(  2-Au,  3-Au) :   0.1474 B(  2-Au,  4-Au) :   0.2947
B(  2-Au,  7-Au) :   0.2687 B(  2-Au, 10-Au) :   0.2791 B(  2-Au, 14-Cr) :   0.4103
B(  3-Au,  7-Au) :   0.2686 B(  3-Au,  8-Au) :   0.2985 B(  3-Au, 10-Au) :   0.2801
B(  3-Au, 14-Cr) :   0.4073 B(  4-Au,  6-Au) :   0.1472 B(  4-Au,  9-Au) :   0.1369
B(  4-Au, 13-Au) :   0.1350 B(  4-Au, 14-Cr) :   0.4085 B(  5-Au,  6-Au) :   0.1497
B(  5-Au, 11-Au) :   0.1520 B(  5-Au, 14-Cr) :   0.3993 B(  6-Au,  8-Au) :   0.1341
B(  6-Au, 12-Au) :   0.1656 B(  6-Au, 13-Au) :   0.1066 B(  6-Au, 14-Cr) :   0.3593
B(  7-Au, 10-Au) :   0.4045 B(  8-Au,  9-Au) :   0.1453 B(  8-Au, 11-Au) :   0.1354
B(  8-Au, 14-Cr) :   0.4095 B(  9-Au, 11-Au) :   0.1060 B(  9-Au, 12-Au) :   0.1663
B(  9-Au, 14-Cr) :   0.3599 B( 10-Au, 11-Au) :   0.1758 B( 10-Au, 13-Au) :   0.1780
B( 10-Au, 14-Cr) :   0.5565 B( 11-Au, 14-Cr) :   0.2232 B( 12-Au, 14-Cr) :   0.3979
B( 13-Au, 14-Cr) :   0.2234

FINAL SINGLE POINT ENERGY     -2930.496951918733

DIPOLE MOMENT
-------------
                                X             Y             Z
Electronic contribution:    -34.06166       0.10097       4.36267
Nuclear contribution   :     34.54706      -0.02752      -4.20980
                        -----------------------------------------
Total Dipole Moment    :      0.48540       0.07346       0.15287
                        -----------------------------------------
Magnitude (a.u.)       :      0.51417
Magnitude (Debye)      :      1.30693

Rotational constants in cm-1:     0.001271     0.000888     0.000839
Rotational constants in MHz :    38.115682    26.617965    25.162090

                             ****ORCA TERMINATED NORMALLY****
TOTAL RUN TIME: 0 days 0 hours 58 minutes 48 seconds 937 msec
