                         Program Version 5.0.3 -  RELEASE  -
|  1> !SC-NEVPT2 def2-TZVP def2-TZVP/C
|  2> !MOREAD RIJCOSX def2/J
|  3> %maxcore 4000
|  4> %moinp "casscf.gbw"
|  5> %pal nprocs 8 end
|  6>
|  7> %casscf
|  8>  mult 5,3
|  9>  bweight 1,1
| 10>  nroots 5,45
| 11>  nel 6
| 12>  norb 5
| 13>  ptsettings
| 14>   d4tpre 1e-14 # default = 1e-10
| 15>   d3tpre 1e-14
| 16>  end
| 17>  rel
| 18>    dosoc true
| 19>    gtensor true
| 20>  end
| 21> end
| 22>
| 23>
| 24> *xyzfile 0 5 pbe.xyz
| 25>
| 26>
| 27>                          ****END OF INPUT****

CARTESIAN COORDINATES (ANGSTROEM)
---------------------------------
  Au     6.306002    9.597163    7.790382
  Au    10.150131    7.480303    6.837522
  Au     8.038368    5.591456    6.531521
  Au     9.136330    9.822454    7.597557
  Au     5.878180    7.093630    6.973569
  Au     7.694604   11.157672    9.625667
  Au     9.334677    9.008829   10.436538
  Au     6.100856    6.231500    9.944000
  Au    10.371657    6.676603    9.675774
  Au     8.256341    4.817886    9.259542
  Au    10.476260    4.776562    7.588093
  Au     6.496317    8.808820   10.512517
  Cr     8.061433    7.534013    8.557181

 Total Charge           Charge          ....    0
 Multiplicity           Mult            ....    5
 Number of Electrons    NEL             ....  252
 Basis Dimension        Dim             ....  525

ORBITAL ENERGIES
----------------

  NO   OCC          E(Eh)            E(eV)
   0   2.0000    -220.547492     -6001.4024
   1   2.0000     -26.394392      -718.2279
   2   2.0000     -22.330442      -607.6422
   3   2.0000     -22.323436      -607.4516
   4   2.0000     -22.314932      -607.2202
   5   2.0000      -4.715956      -128.3277
   6   2.0000      -4.715836      -128.3244
   7   2.0000      -4.715723      -128.3213
   8   2.0000      -4.715605      -128.3181
   9   2.0000      -4.714373      -128.2846
  10   2.0000      -4.714313      -128.2830
  11   2.0000      -4.702706      -127.9671
  12   2.0000      -4.702629      -127.9650
  13   2.0000      -4.702266      -127.9552
  14   2.0000      -4.702189      -127.9531
  15   2.0000      -4.698729      -127.8589
  16   2.0000      -4.698633      -127.8563
  17   2.0000      -3.441029       -93.6351
  18   2.0000      -2.757222       -75.0278
  19   2.0000      -2.756868       -75.0182
  20   2.0000      -2.755634       -74.9846
  21   2.0000      -2.755139       -74.9711
  22   2.0000      -2.754924       -74.9653
  23   2.0000      -2.754795       -74.9618
  24   2.0000      -2.753091       -74.9154
  25   2.0000      -2.752944       -74.9114
  26   2.0000      -2.751816       -74.8807
  27   2.0000      -2.751594       -74.8747
  28   2.0000      -2.750494       -74.8448
  29   2.0000      -2.750280       -74.8389
  30   2.0000      -2.749371       -74.8142
  31   2.0000      -2.749307       -74.8124
  32   2.0000      -2.748785       -74.7983
  33   2.0000      -2.748644       -74.7944
  34   2.0000      -2.748488       -74.7901
  35   2.0000      -2.748389       -74.7875
  36   2.0000      -2.743830       -74.6634
  37   2.0000      -2.743736       -74.6609
  38   2.0000      -2.739171       -74.5366
  39   2.0000      -2.739072       -74.5339
  40   2.0000      -2.738270       -74.5121
  41   2.0000      -2.738054       -74.5063
  42   2.0000      -2.736068       -74.4522
  43   2.0000      -2.735363       -74.4330
  44   2.0000      -2.735269       -74.4304
  45   2.0000      -2.734903       -74.4205
  46   2.0000      -2.734589       -74.4119
  47   2.0000      -2.734407       -74.4070
  48   2.0000      -2.734243       -74.4025
  49   2.0000      -2.733487       -74.3820
  50   2.0000      -2.733342       -74.3780
  51   2.0000      -2.733277       -74.3762
  52   2.0000      -2.730305       -74.2954
  53   2.0000      -2.728971       -74.2591
  54   2.0000      -2.203048       -59.9480
  55   2.0000      -2.199389       -59.8484
  56   2.0000      -2.192673       -59.6657
  57   2.0000      -0.558223       -15.1900
  58   2.0000      -0.554166       -15.0796
  59   2.0000      -0.547689       -14.9034
  60   2.0000      -0.546910       -14.8822
  61   2.0000      -0.539832       -14.6896
  62   2.0000      -0.538599       -14.6560
  63   2.0000      -0.536309       -14.5937
  64   2.0000      -0.532662       -14.4945
  65   2.0000      -0.529901       -14.4193
  66   2.0000      -0.528558       -14.3828
  67   2.0000      -0.527115       -14.3435
  68   2.0000      -0.527007       -14.3406
  69   2.0000      -0.526838       -14.3360
  70   2.0000      -0.525077       -14.2881
  71   2.0000      -0.519498       -14.1363
  72   2.0000      -0.518977       -14.1221
  73   2.0000      -0.514198       -13.9920
  74   2.0000      -0.509895       -13.8750
  75   2.0000      -0.503911       -13.7121
  76   2.0000      -0.501820       -13.6552
  77   2.0000      -0.497507       -13.5378
  78   2.0000      -0.492944       -13.4137
  79   2.0000      -0.489712       -13.3257
  80   2.0000      -0.487227       -13.2581
  81   2.0000      -0.485259       -13.2046
  82   2.0000      -0.484966       -13.1966
  83   2.0000      -0.482365       -13.1258
  84   2.0000      -0.481049       -13.0900
  85   2.0000      -0.478519       -13.0212
  86   2.0000      -0.477824       -13.0022
  87   2.0000      -0.476930       -12.9779
  88   2.0000      -0.473489       -12.8843
  89   2.0000      -0.470510       -12.8032
  90   2.0000      -0.469802       -12.7840
  91   2.0000      -0.469462       -12.7747
  92   2.0000      -0.462821       -12.5940
  93   2.0000      -0.461534       -12.5590
  94   2.0000      -0.457126       -12.4390
  95   2.0000      -0.455857       -12.4045
  96   2.0000      -0.453676       -12.3451
  97   2.0000      -0.448848       -12.2138
  98   2.0000      -0.443760       -12.0753
  99   2.0000      -0.443563       -12.0700
 100   2.0000      -0.443192       -12.0599
 101   2.0000      -0.438223       -11.9247
 102   2.0000      -0.436295       -11.8722
 103   2.0000      -0.435218       -11.8429
 104   2.0000      -0.433888       -11.8067
 105   2.0000      -0.432903       -11.7799
 106   2.0000      -0.431130       -11.7316
 107   2.0000      -0.428084       -11.6487
 108   2.0000      -0.424184       -11.5426
 109   2.0000      -0.423005       -11.5105
 110   2.0000      -0.422016       -11.4836
 111   2.0000      -0.421257       -11.4630
 112   2.0000      -0.420354       -11.4384
 113   2.0000      -0.413417       -11.2496
 114   2.0000      -0.400227       -10.8907
 115   2.0000      -0.399180       -10.8622
 116   2.0000      -0.395661       -10.7665
 117   2.0000      -0.386163       -10.5080
 118   2.0000      -0.365304        -9.9404
 119   2.0000      -0.327207        -8.9038
 120   2.0000      -0.293805        -7.9948
 121   2.0000      -0.253264        -6.8917
 122   2.0000      -0.219498        -5.9728
 123   1.2000      -0.119146        -3.2421
 124   1.2000      -0.121155        -3.2968
 125   1.2000      -0.144499        -3.9320
 126   1.2000      -0.167846        -4.5673
 127   1.2000      -0.110496        -3.0068
 128   0.0000      -0.008805        -0.2396
 129   0.0000      -0.003883        -0.1057
 130   0.0000      -0.002405        -0.0654
 131   0.0000       0.016311         0.4438
 132   0.0000       0.016691         0.4542

MULLIKEN ATOMIC CHARGES AND SPIN DENSITIES
------------------------------------------
   0 Au:    0.369580    0.061265
   1 Au:    0.316584    0.020084
   2 Au:    0.364754    0.061123
   3 Au:    0.311091    0.020297
   4 Au:    0.355415    0.028005
   5 Au:    0.341979    0.052902
   6 Au:    0.315331    0.020143
   7 Au:    0.357376    0.027853
   8 Au:    0.313567    0.020206
   9 Au:    0.370224    0.060926
  10 Au:    0.341942    0.052578
  11 Au:    0.365700    0.061717
  12 Cr:   -4.123542    2.512899
Sum of atomic charges       :    0.0000000

LOEWDIN ATOMIC CHARGES AND SPIN DENSITIES
-----------------------------------------
   0 Au:    0.080815    0.074828
   1 Au:    0.056951    0.040838
   2 Au:    0.078931    0.074639
   3 Au:    0.055092    0.041157
   4 Au:    0.108900    0.075814
   5 Au:    0.166273    0.062978
   6 Au:    0.055961    0.040839
   7 Au:    0.108722    0.075809
   8 Au:    0.055948    0.041050
   9 Au:    0.080462    0.074490
  10 Au:    0.166438    0.062800
  11 Au:    0.079530    0.074878
  12 Cr:   -1.094022    2.259881

  Mayer bond orders larger than 0.100000
B(  0-Au,  3-Au) :   0.1136 B(  0-Au,  4-Au) :   0.2442 B(  0-Au,  5-Au) :   0.1945
B(  0-Au, 11-Au) :   0.1348 B(  0-Au, 12-Cr) :   0.3257 B(  1-Au,  2-Au) :   0.1119
B(  1-Au,  3-Au) :   0.3880 B(  1-Au, 10-Au) :   0.1426 B(  1-Au, 12-Cr) :   0.4919
B(  2-Au,  4-Au) :   0.2498 B(  2-Au,  9-Au) :   0.1326 B(  2-Au, 10-Au) :   0.1943
B(  2-Au, 11-Au) :   0.1017 B(  2-Au, 12-Cr) :   0.3306 B(  3-Au,  5-Au) :   0.1449
B(  3-Au, 12-Cr) :   0.4930 B(  4-Au, 12-Cr) :   0.5889 B(  5-Au,  6-Au) :   0.1424
B(  5-Au, 11-Au) :   0.1931 B(  5-Au, 12-Cr) :   0.4099 B(  6-Au,  8-Au) :   0.3873
B(  6-Au, 11-Au) :   0.1121 B(  6-Au, 12-Cr) :   0.4931 B(  7-Au,  9-Au) :   0.2458
B(  7-Au, 11-Au) :   0.2468 B(  7-Au, 12-Cr) :   0.5895 B(  8-Au,  9-Au) :   0.1139
B(  8-Au, 10-Au) :   0.1447 B(  8-Au, 12-Cr) :   0.4913 B(  9-Au, 10-Au) :   0.1939
B(  9-Au, 12-Cr) :   0.3266 B( 10-Au, 12-Cr) :   0.4092 B( 11-Au, 12-Cr) :   0.3294

FINAL SINGLE POINT ENERGY     -2667.456255676588

DIPOLE MOMENT
-------------
                                X             Y             Z
Electronic contribution:      4.25361       1.85655       0.24816
Nuclear contribution   :     -4.39517      -1.91518      -0.25305
                        -----------------------------------------
Total Dipole Moment    :     -0.14156      -0.05863      -0.00489
                        -----------------------------------------
Magnitude (a.u.)       :      0.15330
Magnitude (Debye)      :      0.38966

Rotational constants in cm-1:     0.001699     0.001131     0.001034
Rotational constants in MHz :    50.926379    33.916632    31.006987

                             ****ORCA TERMINATED NORMALLY****
TOTAL RUN TIME: 0 days 0 hours 45 minutes 24 seconds 505 msec
