                         Program Version 5.0.3 -  RELEASE  -
|  1> !SC-NEVPT2 def2-TZVP def2-TZVP/C
|  2> !MOREAD RIJCOSX def2/J
|  3> %maxcore 4000
|  4> %moinp "casscf.gbw"
|  5> %pal nprocs 8 end
|  6>
|  7> %casscf
|  8>  mult 5,3
|  9>  bweight 1,1
| 10>  nroots 5,45
| 11>  nel 6
| 12>  norb 5
| 13>  ptsettings
| 14>   d4tpre 1e-14 # default = 1e-10
| 15>   d3tpre 1e-14
| 16>  end
| 17>  rel
| 18>    dosoc true
| 19>    gtensor true
| 20>  end
| 21> end
| 22>
| 23>
| 24> *xyzfile 0 5 pbe.xyz
| 25>
| 26>
| 27>                          ****END OF INPUT****

CARTESIAN COORDINATES (ANGSTROEM)
---------------------------------
  Au     7.638730    4.821765    8.094755
  Au    10.323856    5.676245    8.099027
  Au     9.118204    7.780623    9.212727
  Au     7.594280    9.451161    7.761217
  Au     6.795274    5.941520    4.822461
  Au     9.229742    9.061005    5.422401
  Au    11.650139    4.402472    6.075279
  Au     8.958144    4.596186    5.616001
  Au    10.753887    6.919368    5.485708
  Au     6.410251    8.515380    5.487515
  Cr     8.271005    7.003054    6.791664

 Total Charge           Charge          ....    0
 Multiplicity           Mult            ....    5
 Number of Electrons    NEL             ....  214
 Basis Dimension        Dim             ....  445

ORBITAL ENERGIES
----------------

  NO   OCC          E(Eh)            E(eV)
   0   2.0000    -220.565064     -6001.8805
   1   2.0000     -26.416899      -718.8404
   2   2.0000     -22.350234      -608.1808
   3   2.0000     -22.346490      -608.0789
   4   2.0000     -22.338961      -607.8740
   5   2.0000      -4.714538      -128.2891
   6   2.0000      -4.714246      -128.2812
   7   2.0000      -4.712941      -128.2456
   8   2.0000      -4.704583      -128.0182
   9   2.0000      -4.703939      -128.0007
  10   2.0000      -4.698815      -127.8612
  11   2.0000      -4.698309      -127.8475
  12   2.0000      -4.698011      -127.8394
  13   2.0000      -4.695377      -127.7677
  14   2.0000      -4.694467      -127.7429
  15   2.0000      -3.459306       -94.1325
  16   2.0000      -2.755423       -74.9789
  17   2.0000      -2.754020       -74.9407
  18   2.0000      -2.753725       -74.9327
  19   2.0000      -2.751435       -74.8704
  20   2.0000      -2.749953       -74.8300
  21   2.0000      -2.749589       -74.8201
  22   2.0000      -2.749226       -74.8102
  23   2.0000      -2.746523       -74.7367
  24   2.0000      -2.746091       -74.7249
  25   2.0000      -2.743962       -74.6670
  26   2.0000      -2.743375       -74.6510
  27   2.0000      -2.741485       -74.5996
  28   2.0000      -2.740765       -74.5800
  29   2.0000      -2.738968       -74.5311
  30   2.0000      -2.738575       -74.5204
  31   2.0000      -2.736884       -74.4744
  32   2.0000      -2.736210       -74.4560
  33   2.0000      -2.735268       -74.4304
  34   2.0000      -2.734295       -74.4040
  35   2.0000      -2.733475       -74.3816
  36   2.0000      -2.733234       -74.3751
  37   2.0000      -2.732345       -74.3509
  38   2.0000      -2.732280       -74.3491
  39   2.0000      -2.731418       -74.3257
  40   2.0000      -2.730657       -74.3050
  41   2.0000      -2.729936       -74.2853
  42   2.0000      -2.729574       -74.2755
  43   2.0000      -2.727604       -74.2219
  44   2.0000      -2.726846       -74.2012
  45   2.0000      -2.726166       -74.1827
  46   2.0000      -2.218775       -60.3759
  47   2.0000      -2.217369       -60.3377
  48   2.0000      -2.208801       -60.1045
  49   2.0000      -0.554320       -15.0838
  50   2.0000      -0.548106       -14.9147
  51   2.0000      -0.539872       -14.6907
  52   2.0000      -0.538641       -14.6572
  53   2.0000      -0.531725       -14.4690
  54   2.0000      -0.530111       -14.4251
  55   2.0000      -0.528173       -14.3723
  56   2.0000      -0.525012       -14.2863
  57   2.0000      -0.522616       -14.2211
  58   2.0000      -0.519312       -14.1312
  59   2.0000      -0.515099       -14.0165
  60   2.0000      -0.511687       -13.9237
  61   2.0000      -0.509105       -13.8535
  62   2.0000      -0.505736       -13.7618
  63   2.0000      -0.503489       -13.7006
  64   2.0000      -0.495579       -13.4854
  65   2.0000      -0.495081       -13.4719
  66   2.0000      -0.491885       -13.3849
  67   2.0000      -0.489575       -13.3220
  68   2.0000      -0.487602       -13.2683
  69   2.0000      -0.483241       -13.1496
  70   2.0000      -0.477837       -13.0026
  71   2.0000      -0.474529       -12.9126
  72   2.0000      -0.472070       -12.8457
  73   2.0000      -0.469372       -12.7723
  74   2.0000      -0.464409       -12.6372
  75   2.0000      -0.463383       -12.6093
  76   2.0000      -0.461529       -12.5589
  77   2.0000      -0.459906       -12.5147
  78   2.0000      -0.453488       -12.3400
  79   2.0000      -0.451490       -12.2857
  80   2.0000      -0.447481       -12.1766
  81   2.0000      -0.445979       -12.1357
  82   2.0000      -0.443307       -12.0630
  83   2.0000      -0.442823       -12.0498
  84   2.0000      -0.441304       -12.0085
  85   2.0000      -0.440302       -11.9812
  86   2.0000      -0.439397       -11.9566
  87   2.0000      -0.436593       -11.8803
  88   2.0000      -0.432660       -11.7733
  89   2.0000      -0.431431       -11.7398
  90   2.0000      -0.429757       -11.6943
  91   2.0000      -0.427373       -11.6294
  92   2.0000      -0.423689       -11.5292
  93   2.0000      -0.421081       -11.4582
  94   2.0000      -0.417498       -11.3607
  95   2.0000      -0.412788       -11.2325
  96   2.0000      -0.409359       -11.1392
  97   2.0000      -0.397878       -10.8268
  98   2.0000      -0.394986       -10.7481
  99   2.0000      -0.388966       -10.5843
 100   2.0000      -0.346760        -9.4358
 101   2.0000      -0.299593        -8.1523
 102   2.0000      -0.289864        -7.8876
 103   2.0000      -0.229333        -6.2405
 104   1.2000      -0.153068        -4.1652
 105   1.2000      -0.148819        -4.0496
 106   1.2000      -0.139326        -3.7913
 107   1.2000      -0.130203        -3.5430
 108   1.2000      -0.135340        -3.6828
 109   0.0000      -0.005353        -0.1457
 110   0.0000       0.002185         0.0595
 111   0.0000       0.022091         0.6011
 112   0.0000       0.025943         0.7059
 113   0.0000       0.034922         0.9503

MULLIKEN ATOMIC CHARGES AND SPIN DENSITIES
------------------------------------------
   0 Au:    0.526799    0.063946
   1 Au:    0.169567    0.057052
   2 Au:    0.338553    0.055707
   3 Au:    0.288204    0.067674
   4 Au:    0.324000    0.054337
   5 Au:    0.288535    0.015881
   6 Au:    0.363013    0.012129
   7 Au:    0.181578    0.057080
   8 Au:   -0.071566    0.012703
   9 Au:    0.293667    0.067886
  10 Cr:   -2.702351    2.535605
Sum of atomic charges       :    0.0000000

LOEWDIN ATOMIC CHARGES AND SPIN DENSITIES
-----------------------------------------
   0 Au:    0.210892    0.083999
   1 Au:   -0.038288    0.070312
   2 Au:    0.135428    0.091934
   3 Au:    0.064553    0.091493
   4 Au:    0.135683    0.090278
   5 Au:    0.064496    0.039928
   6 Au:    0.152408    0.022672
   7 Au:   -0.039462    0.070910
   8 Au:   -0.011753    0.028471
   9 Au:    0.065779    0.090961
  10 Cr:   -0.739736    2.319040

  Mayer bond orders larger than 0.100000
B(  0-Au,  1-Au) :   0.1041 B(  0-Au,  5-Au) :   0.1073 B(  0-Au,  7-Au) :   0.1010
B(  0-Au, 10-Cr) :   0.4612 B(  1-Au,  2-Au) :   0.2777 B(  1-Au,  6-Au) :   0.3225
B(  1-Au,  7-Au) :   0.1473 B(  1-Au,  8-Au) :   0.2099 B(  1-Au, 10-Cr) :   0.4668
B(  2-Au,  3-Au) :   0.2448 B(  2-Au, 10-Cr) :   0.4819 B(  3-Au,  9-Au) :   0.2548
B(  3-Au, 10-Cr) :   0.4568 B(  4-Au,  7-Au) :   0.2880 B(  4-Au,  9-Au) :   0.2435
B(  4-Au, 10-Cr) :   0.4859 B(  5-Au,  8-Au) :   0.5326 B(  5-Au, 10-Cr) :   0.4615
B(  6-Au,  7-Au) :   0.3120 B(  6-Au,  8-Au) :   0.3001 B(  6-Au, 10-Cr) :   0.1882
B(  7-Au,  8-Au) :   0.1993 B(  7-Au, 10-Cr) :   0.4682 B(  8-Au, 10-Cr) :   0.4311
B(  9-Au, 10-Cr) :   0.4480

FINAL SINGLE POINT ENERGY     -2396.426413534897

DIPOLE MOMENT
-------------
                                X             Y             Z
Electronic contribution:     19.92550     -10.50670      -6.09594
Nuclear contribution   :    -20.14076      10.01300       6.42954
                        -----------------------------------------
Total Dipole Moment    :     -0.21526      -0.49369       0.33360
                        -----------------------------------------
Magnitude (a.u.)       :      0.63353
Magnitude (Debye)      :      1.61030

Rotational constants in cm-1:     0.002151     0.001469     0.001354
Rotational constants in MHz :    64.480668    44.026810    40.602947

                             ****ORCA TERMINATED NORMALLY****
TOTAL RUN TIME: 0 days 0 hours 25 minutes 33 seconds 453 msec
