                         Program Version 5.0.3 -  RELEASE  -
|  1> !RI-B2PLYP def2-TZVP def2-TZVP/C
|  2> !RIJCOSX VERYSLOWCONV
|  3>
|  4> %scf
|  5>   AutoTRAHIter 200
|  6>   maxiter 400
|  7> end
|  8>
|  9>
| 10> %pal nprocs 6 end
| 11>
| 12> *xyzfile 0 5 pbe.xyz
| 13>
| 14> $new_job
| 15>
| 16> !RI-B2PLYP def2-TZVP def2-TZVP/C
| 17> !RIJCOSX VERYSLOWCONV
| 18>
| 19> %scf
| 20>   AutoTRAHIter 200
| 21>   maxiter 400
| 22> end
| 23>
| 24>
| 25> %pal nprocs 6 end
| 26>
| 27> *xyzfile 0 3 pbe.xyz
| 28>
| 29>
| 30>
| 31>
| 32>
| 33>                          ****END OF INPUT****
 Total Charge           Charge          ....    0
 Multiplicity           Mult            ....    5
 Number of Electrons    NEL             ....  290
MP2 TOTAL ENERGY:    -2942.511422992 Eh
FINAL SINGLE POINT ENERGY     -2942.511422991630

CARTESIAN COORDINATES (ANGSTROEM)
---------------------------------
  Au     5.723739    9.711842    5.624374
  Au     6.877820   11.069235    7.734958
  Au     6.592071    7.929789    7.660662
  Au     7.301171    9.466338    9.945309
  Au     8.689548    7.173842    9.341445
  Au     9.460643   10.176891    8.329743
  Au     8.437302   10.341853    5.532006
  Au    11.099851    9.767958    6.112818
  Au    11.257956    8.052449    8.461215
  Au     9.162686    5.668897    5.114955
  Au    11.587964    7.039506    5.780494
  Au     9.643062    8.308694    4.057440
  Au     7.084830    7.417730    4.960884
  Au    10.093365    5.520294    7.700469
  Cr     9.112415    7.923639    6.735275

 Multiplicity           Mult            ....    3
 Number of Electrons    NEL             ....  290
 Basis Dimension        Dim             ....  605

ORBITAL ENERGIES
----------------
                 SPIN UP ORBITALS
  NO   OCC          E(Eh)            E(eV)
   0   1.0000    -217.747377     -5925.2074
   1   1.0000     -25.432109      -692.0429
   2   1.0000     -21.571542      -586.9915
   3   1.0000     -21.570840      -586.9724
   4   1.0000     -21.566431      -586.8524
   5   1.0000      -4.400438      -119.7420
   6   1.0000      -4.400231      -119.7364
   7   1.0000      -4.400087      -119.7325
   8   1.0000      -4.397185      -119.6535
   9   1.0000      -4.397053      -119.6499
  10   1.0000      -4.396784      -119.6426
  11   1.0000      -4.396234      -119.6276
  12   1.0000      -4.394786      -119.5882
  13   1.0000      -4.394782      -119.5881
  14   1.0000      -4.392586      -119.5283
  15   1.0000      -4.392248      -119.5192
  16   1.0000      -4.391304      -119.4934
  17   1.0000      -4.391023      -119.4858
  18   1.0000      -4.388602      -119.4199
  19   1.0000      -3.222171       -87.6797
  20   1.0000      -2.522861       -68.6505
  21   1.0000      -2.521559       -68.6151
  22   1.0000      -2.519684       -68.5641
  23   1.0000      -2.518888       -68.5424
  24   1.0000      -2.518645       -68.5358
  25   1.0000      -2.518266       -68.5255
  26   1.0000      -2.518010       -68.5185
  27   1.0000      -2.517894       -68.5154
  28   1.0000      -2.517779       -68.5123
  29   1.0000      -2.517222       -68.4971
  30   1.0000      -2.516718       -68.4834
  31   1.0000      -2.516255       -68.4708
  32   1.0000      -2.515984       -68.4634
  33   1.0000      -2.515559       -68.4519
  34   1.0000      -2.514542       -68.4242
  35   1.0000      -2.514453       -68.4218
  36   1.0000      -2.514144       -68.4133
  37   1.0000      -2.513549       -68.3971
  38   1.0000      -2.513493       -68.3956
  39   1.0000      -2.513116       -68.3854
  40   1.0000      -2.511961       -68.3539
  41   1.0000      -2.511916       -68.3527
  42   1.0000      -2.511628       -68.3449
  43   1.0000      -2.511525       -68.3421
  44   1.0000      -2.511176       -68.3326
  45   1.0000      -2.510998       -68.3277
  46   1.0000      -2.510621       -68.3175
  47   1.0000      -2.510065       -68.3023
  48   1.0000      -2.509927       -68.2986
  49   1.0000      -2.509486       -68.2866
  50   1.0000      -2.509030       -68.2742
  51   1.0000      -2.508908       -68.2708
  52   1.0000      -2.508387       -68.2567
  53   1.0000      -2.507874       -68.2427
  54   1.0000      -2.507389       -68.2295
  55   1.0000      -2.506807       -68.2137
  56   1.0000      -2.506438       -68.2036
  57   1.0000      -2.506186       -68.1968
  58   1.0000      -2.505807       -68.1865
  59   1.0000      -2.505283       -68.1722
  60   1.0000      -2.505184       -68.1695
  61   1.0000      -2.503223       -68.1162
  62   1.0000      -2.114337       -57.5340
  63   1.0000      -2.105445       -57.2921
  64   1.0000      -2.104279       -57.2604
  65   1.0000      -0.498733       -13.5712
  66   1.0000      -0.478154       -13.0112
  67   1.0000      -0.474822       -12.9206
  68   1.0000      -0.473389       -12.8816
  69   1.0000      -0.468239       -12.7414
  70   1.0000      -0.467971       -12.7341
  71   1.0000      -0.465341       -12.6626
  72   1.0000      -0.461365       -12.5544
  73   1.0000      -0.458607       -12.4793
  74   1.0000      -0.454271       -12.3614
  75   1.0000      -0.452622       -12.3165
  76   1.0000      -0.451635       -12.2896
  77   1.0000      -0.449439       -12.2299
  78   1.0000      -0.449035       -12.2189
  79   1.0000      -0.446352       -12.1459
  80   1.0000      -0.444229       -12.0881
  81   1.0000      -0.443475       -12.0676
  82   1.0000      -0.440447       -11.9852
  83   1.0000      -0.439573       -11.9614
  84   1.0000      -0.437678       -11.9098
  85   1.0000      -0.434390       -11.8203
  86   1.0000      -0.432493       -11.7687
  87   1.0000      -0.431503       -11.7418
  88   1.0000      -0.428790       -11.6680
  89   1.0000      -0.427810       -11.6413
  90   1.0000      -0.424699       -11.5567
  91   1.0000      -0.423340       -11.5197
  92   1.0000      -0.419784       -11.4229
  93   1.0000      -0.418129       -11.3779
  94   1.0000      -0.415701       -11.3118
  95   1.0000      -0.407838       -11.0978
  96   1.0000      -0.405321       -11.0293
  97   1.0000      -0.404694       -11.0123
  98   1.0000      -0.400195       -10.8899
  99   1.0000      -0.397314       -10.8115
 100   1.0000      -0.395997       -10.7756
 101   1.0000      -0.394490       -10.7346
 102   1.0000      -0.390896       -10.6368
 103   1.0000      -0.384063       -10.4509
 104   1.0000      -0.382731       -10.4146
 105   1.0000      -0.379696       -10.3321
 106   1.0000      -0.378717       -10.3054
 107   1.0000      -0.377188       -10.2638
 108   1.0000      -0.374260       -10.1841
 109   1.0000      -0.373104       -10.1527
 110   1.0000      -0.372774       -10.1437
 111   1.0000      -0.370363       -10.0781
 112   1.0000      -0.368608       -10.0303
 113   1.0000      -0.366742        -9.9796
 114   1.0000      -0.365063        -9.9339
 115   1.0000      -0.364374        -9.9151
 116   1.0000      -0.360735        -9.8161
 117   1.0000      -0.360284        -9.8038
 118   1.0000      -0.359883        -9.7929
 119   1.0000      -0.358428        -9.7533
 120   1.0000      -0.358094        -9.7442
 121   1.0000      -0.355068        -9.6619
 122   1.0000      -0.354049        -9.6342
 123   1.0000      -0.352915        -9.6033
 124   1.0000      -0.351336        -9.5603
 125   1.0000      -0.349645        -9.5143
 126   1.0000      -0.348318        -9.4782
 127   1.0000      -0.346341        -9.4244
 128   1.0000      -0.344550        -9.3757
 129   1.0000      -0.342198        -9.3117
 130   1.0000      -0.342146        -9.3103
 131   1.0000      -0.337510        -9.1841
 132   1.0000      -0.336620        -9.1599
 133   1.0000      -0.334026        -9.0893
 134   1.0000      -0.328168        -8.9299
 135   1.0000      -0.326359        -8.8807
 136   1.0000      -0.325159        -8.8480
 137   1.0000      -0.323811        -8.8113
 138   1.0000      -0.322302        -8.7703
 139   1.0000      -0.310529        -8.4499
 140   1.0000      -0.308339        -8.3903
 141   1.0000      -0.307067        -8.3557
 142   1.0000      -0.286456        -7.7949
 143   1.0000      -0.235765        -6.4155
 144   1.0000      -0.231806        -6.3078
 145   1.0000      -0.226621        -6.1667
 146   0.0000      -0.125557        -3.4166
 147   0.0000      -0.104727        -2.8498
 148   0.0000      -0.079465        -2.1624
 149   0.0000      -0.068442        -1.8624
 150   0.0000      -0.066695        -1.8149

                 SPIN DOWN ORBITALS
  NO   OCC          E(Eh)            E(eV)
   0   1.0000    -217.746134     -5925.1735
   1   1.0000     -25.361654      -690.1257
   2   1.0000     -21.510981      -585.3435
   3   1.0000     -21.509498      -585.3032
   4   1.0000     -21.493153      -584.8584
   5   1.0000      -4.400359      -119.7399
   6   1.0000      -4.400147      -119.7341
   7   1.0000      -4.399951      -119.7288
   8   1.0000      -4.396915      -119.6461
   9   1.0000      -4.396908      -119.6459
  10   1.0000      -4.396783      -119.6425
  11   1.0000      -4.396644      -119.6388
  12   1.0000      -4.395269      -119.6014
  13   1.0000      -4.395254      -119.6009
  14   1.0000      -4.392651      -119.5301
  15   1.0000      -4.392432      -119.5241
  16   1.0000      -4.392296      -119.5204
  17   1.0000      -4.392107      -119.5153
  18   1.0000      -4.389397      -119.4416
  19   1.0000      -3.005264       -81.7774
  20   1.0000      -2.522094       -68.6297
  21   1.0000      -2.520825       -68.5951
  22   1.0000      -2.518745       -68.5385
  23   1.0000      -2.518378       -68.5285
  24   1.0000      -2.518258       -68.5253
  25   1.0000      -2.517688       -68.5098
  26   1.0000      -2.516969       -68.4902
  27   1.0000      -2.516824       -68.4863
  28   1.0000      -2.516410       -68.4750
  29   1.0000      -2.516262       -68.4710
  30   1.0000      -2.516143       -68.4677
  31   1.0000      -2.515808       -68.4586
  32   1.0000      -2.515785       -68.4580
  33   1.0000      -2.515149       -68.4407
  34   1.0000      -2.514296       -68.4175
  35   1.0000      -2.513706       -68.4014
  36   1.0000      -2.513452       -68.3945
  37   1.0000      -2.513177       -68.3870
  38   1.0000      -2.513113       -68.3853
  39   1.0000      -2.512836       -68.3777
  40   1.0000      -2.511801       -68.3496
  41   1.0000      -2.511662       -68.3458
  42   1.0000      -2.511548       -68.3427
  43   1.0000      -2.511523       -68.3420
  44   1.0000      -2.511410       -68.3389
  45   1.0000      -2.511315       -68.3364
  46   1.0000      -2.510608       -68.3171
  47   1.0000      -2.510118       -68.3038
  48   1.0000      -2.509767       -68.2942
  49   1.0000      -2.509701       -68.2924
  50   1.0000      -2.509513       -68.2873
  51   1.0000      -2.509001       -68.2734
  52   1.0000      -2.508485       -68.2593
  53   1.0000      -2.508113       -68.2492
  54   1.0000      -2.507926       -68.2441
  55   1.0000      -2.507470       -68.2317
  56   1.0000      -2.507212       -68.2247
  57   1.0000      -2.506840       -68.2146
  58   1.0000      -2.506711       -68.2111
  59   1.0000      -2.505926       -68.1897
  60   1.0000      -2.505689       -68.1833
  61   1.0000      -2.504144       -68.1412
  62   1.0000      -1.872132       -50.9433
  63   1.0000      -1.870179       -50.8902
  64   1.0000      -1.833131       -49.8820
  65   1.0000      -0.495698       -13.4886
  66   1.0000      -0.471710       -12.8359
  67   1.0000      -0.469346       -12.7715
  68   1.0000      -0.467553       -12.7228
  69   1.0000      -0.461061       -12.5461
  70   1.0000      -0.460829       -12.5398
  71   1.0000      -0.460164       -12.5217
  72   1.0000      -0.459389       -12.5006
  73   1.0000      -0.457790       -12.4571
  74   1.0000      -0.454791       -12.3755
  75   1.0000      -0.452928       -12.3248
  76   1.0000      -0.451869       -12.2960
  77   1.0000      -0.449662       -12.2359
  78   1.0000      -0.449531       -12.2324
  79   1.0000      -0.447293       -12.1715
  80   1.0000      -0.443589       -12.0707
  81   1.0000      -0.442195       -12.0327
  82   1.0000      -0.441854       -12.0234
  83   1.0000      -0.440289       -11.9809
  84   1.0000      -0.438101       -11.9213
  85   1.0000      -0.434935       -11.8352
  86   1.0000      -0.433771       -11.8035
  87   1.0000      -0.433223       -11.7886
  88   1.0000      -0.429200       -11.6791
  89   1.0000      -0.428794       -11.6681
  90   1.0000      -0.426674       -11.6104
  91   1.0000      -0.421325       -11.4648
  92   1.0000      -0.418468       -11.3871
  93   1.0000      -0.417457       -11.3596
  94   1.0000      -0.412535       -11.2257
  95   1.0000      -0.404366       -11.0034
  96   1.0000      -0.403595       -10.9824
  97   1.0000      -0.401811       -10.9338
  98   1.0000      -0.399547       -10.8722
  99   1.0000      -0.397174       -10.8077
 100   1.0000      -0.393639       -10.7115
 101   1.0000      -0.384618       -10.4660
 102   1.0000      -0.381845       -10.3905
 103   1.0000      -0.380991       -10.3673
 104   1.0000      -0.379653       -10.3309
 105   1.0000      -0.378038       -10.2869
 106   1.0000      -0.376480       -10.2445
 107   1.0000      -0.374229       -10.1833
 108   1.0000      -0.373116       -10.1530
 109   1.0000      -0.372679       -10.1411
 110   1.0000      -0.371216       -10.1013
 111   1.0000      -0.370614       -10.0849
 112   1.0000      -0.368524       -10.0281
 113   1.0000      -0.367541       -10.0013
 114   1.0000      -0.366284        -9.9671
 115   1.0000      -0.365300        -9.9403
 116   1.0000      -0.362696        -9.8695
 117   1.0000      -0.361285        -9.8311
 118   1.0000      -0.360838        -9.8189
 119   1.0000      -0.359187        -9.7740
 120   1.0000      -0.358419        -9.7531
 121   1.0000      -0.355673        -9.6783
 122   1.0000      -0.354145        -9.6368
 123   1.0000      -0.353844        -9.6286
 124   1.0000      -0.352710        -9.5977
 125   1.0000      -0.351722        -9.5709
 126   1.0000      -0.349882        -9.5208
 127   1.0000      -0.345733        -9.4079
 128   1.0000      -0.343663        -9.3516
 129   1.0000      -0.343550        -9.3485
 130   1.0000      -0.337910        -9.1950
 131   1.0000      -0.336320        -9.1517
 132   1.0000      -0.335005        -9.1159
 133   1.0000      -0.330944        -9.0055
 134   1.0000      -0.330058        -8.9813
 135   1.0000      -0.325802        -8.8655
 136   1.0000      -0.317280        -8.6336
 137   1.0000      -0.311023        -8.4634
 138   1.0000      -0.305082        -8.3017
 139   1.0000      -0.250920        -6.8279
 140   1.0000      -0.238104        -6.4791
 141   1.0000      -0.225498        -6.1361
 142   1.0000      -0.216053        -5.8791
 143   1.0000      -0.197165        -5.3651
 144   0.0000      -0.079416        -2.1610
 145   0.0000      -0.075623        -2.0578
 146   0.0000      -0.072605        -1.9757
 147   0.0000      -0.058259        -1.5853
 148   0.0000      -0.055343        -1.5060

MULLIKEN ATOMIC CHARGES AND SPIN POPULATIONS
--------------------------------------------
   0 Au:    0.310577   -0.075779
   1 Au:    0.128165    0.058327
   2 Au:    0.051479   -0.219892
   3 Au:    0.310119   -0.075175
   4 Au:    0.304346   -0.070770
   5 Au:    0.136974   -0.115456
   6 Au:    0.138812   -0.108864
   7 Au:    0.492249   -0.125710
   8 Au:    0.622856   -0.110996
   9 Au:    0.456678   -0.055873
  10 Au:    0.565936   -0.152223
  11 Au:    0.621217   -0.111972
  12 Au:    0.303183   -0.071551
  13 Au:    0.453432   -0.051647
  14 Cr:   -4.896023    3.287580
Sum of atomic charges         :   -0.0000000

LOEWDIN ATOMIC CHARGES AND SPIN POPULATIONS
-------------------------------------------
   0 Au:    0.121701   -0.094135
   1 Au:    0.042534   -0.021111
   2 Au:    0.040499   -0.135107
   3 Au:    0.123282   -0.095228
   4 Au:    0.072231   -0.120225
   5 Au:    0.025781   -0.100704
   6 Au:    0.025516   -0.098708
   7 Au:    0.131582   -0.150975
   8 Au:    0.112505   -0.144336
   9 Au:    0.126839   -0.110327
  10 Au:    0.100229   -0.141610
  11 Au:    0.112617   -0.145207
  12 Au:    0.073530   -0.121637
  13 Au:    0.126192   -0.106951
  14 Cr:   -1.235040    3.586262

  Mayer bond orders larger than 0.100000
B(  0-Au,  1-Au) :   0.2305 B(  0-Au,  2-Au) :   0.1721 B(  0-Au,  6-Au) :   0.2279
B(  0-Au, 12-Au) :   0.1629 B(  0-Au, 14-Cr) :   0.3948 B(  1-Au,  3-Au) :   0.2288
B(  1-Au,  5-Au) :   0.2158 B(  1-Au,  6-Au) :   0.2168 B(  1-Au, 14-Cr) :   0.4258
B(  2-Au,  3-Au) :   0.1725 B(  2-Au,  4-Au) :   0.2282 B(  2-Au, 10-Au) :   0.1056
B(  2-Au, 12-Au) :   0.2303 B(  2-Au, 14-Cr) :   0.4378 B(  3-Au,  4-Au) :   0.1651
B(  3-Au,  5-Au) :   0.2303 B(  3-Au, 14-Cr) :   0.3932 B(  4-Au,  8-Au) :   0.1585
B(  4-Au, 13-Au) :   0.2819 B(  4-Au, 14-Cr) :   0.6059 B(  5-Au,  7-Au) :   0.2345
B(  5-Au,  8-Au) :   0.1898 B(  5-Au, 14-Cr) :   0.5924 B(  6-Au,  7-Au) :   0.2340
B(  6-Au, 11-Au) :   0.1901 B(  6-Au, 14-Cr) :   0.6014 B(  7-Au, 10-Au) :   0.1211
B(  7-Au, 14-Cr) :   0.5024 B(  8-Au, 10-Au) :   0.1162 B(  8-Au, 13-Au) :   0.1181
B(  8-Au, 14-Cr) :   0.4868 B(  9-Au, 10-Au) :   0.1420 B(  9-Au, 11-Au) :   0.1193
B(  9-Au, 12-Au) :   0.2803 B(  9-Au, 13-Au) :   0.2255 B(  9-Au, 14-Cr) :   0.4178
B( 10-Au, 11-Au) :   0.1145 B( 10-Au, 13-Au) :   0.1404 B( 10-Au, 14-Cr) :   0.3641
B( 11-Au, 12-Au) :   0.1579 B( 11-Au, 14-Cr) :   0.4847 B( 12-Au, 14-Cr) :   0.6063
B( 13-Au, 14-Cr) :   0.4253

MP2 TOTAL ENERGY:    -2942.511596368 Eh
FINAL SINGLE POINT ENERGY     -2942.511596368060

DIPOLE MOMENT
-------------
                                X             Y             Z
Electronic contribution:    -11.48172      16.91390       5.19129
Nuclear contribution   :     11.47306     -16.88686      -5.18832
                        -----------------------------------------
Total Dipole Moment    :     -0.00865       0.02705       0.00297
                        -----------------------------------------
Magnitude (a.u.)       :      0.02855
Magnitude (Debye)      :      0.07257

Rotational constants in cm-1:     0.001247     0.000996     0.000865
Rotational constants in MHz :    37.384559    29.852951    25.943672

                             ****ORCA TERMINATED NORMALLY****
TOTAL RUN TIME: 0 days 1 hours 45 minutes 2 seconds 446 msec
