                         Program Version 5.0.3 -  RELEASE  -
|  1> !PBE def2-TZVP VERYSLOWCONV
|  2>
|  3> %scf
|  4>   AutoTRAHIter 200
|  5>   maxiter 400
|  6> end
|  7>
|  8>
|  9> %pal nprocs 6 end
| 10>
| 11> *xyzfile 0 5 pbe.xyz
| 12>
| 13> $new_job
| 14>
| 15> !PBE def2-TZVP VERYSLOWCONV
| 16>
| 17> %scf
| 18>   AutoTRAHIter 200
| 19>   maxiter 400
| 20> end
| 21>
| 22>
| 23> %pal nprocs 6 end
| 24>
| 25> *xyzfile 0 3 pbe.xyz
| 26>
| 27>
| 28>
| 29>
| 30>
| 31>                          ****END OF INPUT****
 Total Charge           Charge          ....    0
 Multiplicity           Mult            ....    5
 Number of Electrons    NEL             ....  290
FINAL SINGLE POINT ENERGY     -2945.823807764356

CARTESIAN COORDINATES (ANGSTROEM)
---------------------------------
  Au     5.723739    9.711842    5.624374
  Au     6.877820   11.069235    7.734958
  Au     6.592071    7.929789    7.660662
  Au     7.301171    9.466338    9.945309
  Au     8.689548    7.173842    9.341445
  Au     9.460643   10.176891    8.329743
  Au     8.437302   10.341853    5.532006
  Au    11.099851    9.767958    6.112818
  Au    11.257956    8.052449    8.461215
  Au     9.162686    5.668897    5.114955
  Au    11.587964    7.039506    5.780494
  Au     9.643062    8.308694    4.057440
  Au     7.084830    7.417730    4.960884
  Au    10.093365    5.520294    7.700469
  Cr     9.112415    7.923639    6.735275

 Multiplicity           Mult            ....    3
 Number of Electrons    NEL             ....  290
 Basis Dimension        Dim             ....  605

ORBITAL ENERGIES
----------------
                 SPIN UP ORBITALS
  NO   OCC          E(Eh)            E(eV)
   0   1.0000    -214.503945     -5836.9491
   1   1.0000     -24.305010      -661.3729
   2   1.0000     -20.671088      -562.4889
   3   1.0000     -20.667283      -562.3854
   4   1.0000     -20.667171      -562.3823
   5   1.0000      -4.031738      -109.7092
   6   1.0000      -4.031692      -109.7079
   7   1.0000      -4.029516      -109.6487
   8   1.0000      -4.029482      -109.6478
   9   1.0000      -4.028854      -109.6307
  10   1.0000      -4.028517      -109.6215
  11   1.0000      -4.025750      -109.5462
  12   1.0000      -4.025684      -109.5444
  13   1.0000      -4.024000      -109.4986
  14   1.0000      -4.023206      -109.4770
  15   1.0000      -4.023052      -109.4728
  16   1.0000      -4.019036      -109.3635
  17   1.0000      -4.018982      -109.3621
  18   1.0000      -4.016537      -109.2955
  19   1.0000      -2.805243       -76.3346
  20   1.0000      -2.248945       -61.1969
  21   1.0000      -2.248418       -61.1826
  22   1.0000      -2.246632       -61.1340
  23   1.0000      -2.246544       -61.1316
  24   1.0000      -2.245382       -61.1000
  25   1.0000      -2.244974       -61.0888
  26   1.0000      -2.244190       -61.0675
  27   1.0000      -2.243392       -61.0458
  28   1.0000      -2.243293       -61.0431
  29   1.0000      -2.242855       -61.0312
  30   1.0000      -2.242715       -61.0274
  31   1.0000      -2.242166       -61.0124
  32   1.0000      -2.241689       -60.9995
  33   1.0000      -2.241549       -60.9957
  34   1.0000      -2.241164       -60.9852
  35   1.0000      -2.240731       -60.9734
  36   1.0000      -2.240233       -60.9598
  37   1.0000      -2.239702       -60.9454
  38   1.0000      -2.238680       -60.9176
  39   1.0000      -2.238505       -60.9128
  40   1.0000      -2.238094       -60.9016
  41   1.0000      -2.237881       -60.8958
  42   1.0000      -2.237858       -60.8952
  43   1.0000      -2.237292       -60.8798
  44   1.0000      -2.237134       -60.8755
  45   1.0000      -2.236527       -60.8590
  46   1.0000      -2.236449       -60.8569
  47   1.0000      -2.236113       -60.8477
  48   1.0000      -2.235854       -60.8407
  49   1.0000      -2.235689       -60.8362
  50   1.0000      -2.234913       -60.8151
  51   1.0000      -2.234495       -60.8037
  52   1.0000      -2.233648       -60.7806
  53   1.0000      -2.232630       -60.7530
  54   1.0000      -2.232395       -60.7466
  55   1.0000      -2.232167       -60.7403
  56   1.0000      -2.231848       -60.7317
  57   1.0000      -2.230939       -60.7069
  58   1.0000      -2.229937       -60.6797
  59   1.0000      -2.229626       -60.6712
  60   1.0000      -2.229546       -60.6690
  61   1.0000      -2.225799       -60.5671
  62   1.0000      -1.797342       -48.9082
  63   1.0000      -1.793351       -48.7996
  64   1.0000      -1.793228       -48.7962
  65   1.0000      -0.428802       -11.6683
  66   1.0000      -0.387548       -10.5457
  67   1.0000      -0.383427       -10.4336
  68   1.0000      -0.383081       -10.4242
  69   1.0000      -0.371447       -10.1076
  70   1.0000      -0.368053       -10.0152
  71   1.0000      -0.367797       -10.0083
  72   1.0000      -0.363725        -9.8975
  73   1.0000      -0.361833        -9.8460
  74   1.0000      -0.360587        -9.8121
  75   1.0000      -0.352390        -9.5890
  76   1.0000      -0.349463        -9.5094
  77   1.0000      -0.348541        -9.4843
  78   1.0000      -0.345090        -9.3904
  79   1.0000      -0.344469        -9.3735
  80   1.0000      -0.344287        -9.3685
  81   1.0000      -0.342637        -9.3236
  82   1.0000      -0.338423        -9.2090
  83   1.0000      -0.337908        -9.1950
  84   1.0000      -0.335772        -9.1368
  85   1.0000      -0.335500        -9.1294
  86   1.0000      -0.333592        -9.0775
  87   1.0000      -0.330146        -8.9837
  88   1.0000      -0.328255        -8.9323
  89   1.0000      -0.327046        -8.8994
  90   1.0000      -0.326734        -8.8909
  91   1.0000      -0.321581        -8.7507
  92   1.0000      -0.320141        -8.7115
  93   1.0000      -0.318176        -8.6580
  94   1.0000      -0.315957        -8.5976
  95   1.0000      -0.308408        -8.3922
  96   1.0000      -0.307675        -8.3723
  97   1.0000      -0.305905        -8.3241
  98   1.0000      -0.300821        -8.1857
  99   1.0000      -0.299398        -8.1470
 100   1.0000      -0.294146        -8.0041
 101   1.0000      -0.292468        -7.9585
 102   1.0000      -0.289948        -7.8899
 103   1.0000      -0.285094        -7.7578
 104   1.0000      -0.284998        -7.7552
 105   1.0000      -0.283073        -7.7028
 106   1.0000      -0.283018        -7.7013
 107   1.0000      -0.280678        -7.6376
 108   1.0000      -0.279833        -7.6147
 109   1.0000      -0.278693        -7.5836
 110   1.0000      -0.276315        -7.5189
 111   1.0000      -0.276096        -7.5130
 112   1.0000      -0.273009        -7.4289
 113   1.0000      -0.272113        -7.4046
 114   1.0000      -0.270717        -7.3666
 115   1.0000      -0.270579        -7.3628
 116   1.0000      -0.269270        -7.3272
 117   1.0000      -0.267088        -7.2678
 118   1.0000      -0.266511        -7.2521
 119   1.0000      -0.264066        -7.1856
 120   1.0000      -0.263262        -7.1637
 121   1.0000      -0.261865        -7.1257
 122   1.0000      -0.260489        -7.0883
 123   1.0000      -0.259726        -7.0675
 124   1.0000      -0.258167        -7.0251
 125   1.0000      -0.257841        -7.0162
 126   1.0000      -0.255484        -6.9521
 127   1.0000      -0.253373        -6.8946
 128   1.0000      -0.252497        -6.8708
 129   1.0000      -0.250877        -6.8267
 130   1.0000      -0.250745        -6.8231
 131   1.0000      -0.247241        -6.7278
 132   1.0000      -0.246869        -6.7176
 133   1.0000      -0.245456        -6.6792
 134   1.0000      -0.243453        -6.6247
 135   1.0000      -0.242049        -6.5865
 136   1.0000      -0.239038        -6.5046
 137   1.0000      -0.237756        -6.4697
 138   1.0000      -0.230922        -6.2837
 139   1.0000      -0.221928        -6.0390
 140   1.0000      -0.220594        -6.0027
 141   1.0000      -0.215102        -5.8532
 142   1.0000      -0.214015        -5.8236
 143   1.0000      -0.211984        -5.7684
 144   1.0000      -0.197296        -5.3687
 145   1.0000      -0.196291        -5.3413
 146   0.0000      -0.178118        -4.8468
 147   0.0000      -0.173729        -4.7274
 148   0.0000      -0.167253        -4.5512
 149   0.0000      -0.136937        -3.7263
 150   0.0000      -0.132226        -3.5981

                 SPIN DOWN ORBITALS
  NO   OCC          E(Eh)            E(eV)
   0   1.0000    -214.503548     -5836.9383
   1   1.0000     -24.260433      -660.1599
   2   1.0000     -20.639182      -561.6207
   3   1.0000     -20.633139      -561.4563
   4   1.0000     -20.631050      -561.3994
   5   1.0000      -4.031469      -109.7018
   6   1.0000      -4.031422      -109.7006
   7   1.0000      -4.029345      -109.6440
   8   1.0000      -4.029306      -109.6430
   9   1.0000      -4.028616      -109.6242
  10   1.0000      -4.028332      -109.6165
  11   1.0000      -4.025744      -109.5461
  12   1.0000      -4.025672      -109.5441
  13   1.0000      -4.024215      -109.5044
  14   1.0000      -4.023015      -109.4718
  15   1.0000      -4.022861      -109.4676
  16   1.0000      -4.019694      -109.3814
  17   1.0000      -4.019645      -109.3801
  18   1.0000      -4.016967      -109.3072
  19   1.0000      -2.685381       -73.0729
  20   1.0000      -2.248517       -61.1853
  21   1.0000      -2.248016       -61.1716
  22   1.0000      -2.246473       -61.1296
  23   1.0000      -2.246305       -61.1251
  24   1.0000      -2.244904       -61.0869
  25   1.0000      -2.244866       -61.0859
  26   1.0000      -2.244129       -61.0659
  27   1.0000      -2.242957       -61.0340
  28   1.0000      -2.242649       -61.0256
  29   1.0000      -2.242442       -61.0199
  30   1.0000      -2.242267       -61.0152
  31   1.0000      -2.242207       -61.0135
  32   1.0000      -2.241678       -60.9992
  33   1.0000      -2.241521       -60.9949
  34   1.0000      -2.240883       -60.9775
  35   1.0000      -2.240318       -60.9622
  36   1.0000      -2.240000       -60.9535
  37   1.0000      -2.239466       -60.9390
  38   1.0000      -2.238733       -60.9190
  39   1.0000      -2.238582       -60.9149
  40   1.0000      -2.238025       -60.8998
  41   1.0000      -2.237851       -60.8950
  42   1.0000      -2.237509       -60.8857
  43   1.0000      -2.237182       -60.8768
  44   1.0000      -2.237111       -60.8749
  45   1.0000      -2.236681       -60.8632
  46   1.0000      -2.236435       -60.8565
  47   1.0000      -2.236301       -60.8529
  48   1.0000      -2.235840       -60.8403
  49   1.0000      -2.235484       -60.8306
  50   1.0000      -2.235310       -60.8259
  51   1.0000      -2.234767       -60.8111
  52   1.0000      -2.234027       -60.7910
  53   1.0000      -2.233119       -60.7663
  54   1.0000      -2.232929       -60.7611
  55   1.0000      -2.232536       -60.7504
  56   1.0000      -2.231736       -60.7286
  57   1.0000      -2.231566       -60.7240
  58   1.0000      -2.230706       -60.7006
  59   1.0000      -2.230381       -60.6918
  60   1.0000      -2.230340       -60.6906
  61   1.0000      -2.226095       -60.5751
  62   1.0000      -1.686469       -45.8911
  63   1.0000      -1.674647       -45.5695
  64   1.0000      -1.668735       -45.4086
  65   1.0000      -0.423845       -11.5334
  66   1.0000      -0.386870       -10.5273
  67   1.0000      -0.383374       -10.4321
  68   1.0000      -0.382489       -10.4081
  69   1.0000      -0.369639       -10.0584
  70   1.0000      -0.364485        -9.9181
  71   1.0000      -0.364210        -9.9107
  72   1.0000      -0.362499        -9.8641
  73   1.0000      -0.360677        -9.8145
  74   1.0000      -0.358709        -9.7610
  75   1.0000      -0.350963        -9.5502
  76   1.0000      -0.349964        -9.5230
  77   1.0000      -0.349282        -9.5044
  78   1.0000      -0.345524        -9.4022
  79   1.0000      -0.344348        -9.3702
  80   1.0000      -0.343559        -9.3487
  81   1.0000      -0.342395        -9.3171
  82   1.0000      -0.339148        -9.2287
  83   1.0000      -0.337378        -9.1805
  84   1.0000      -0.336752        -9.1635
  85   1.0000      -0.336311        -9.1515
  86   1.0000      -0.333525        -9.0757
  87   1.0000      -0.330928        -9.0050
  88   1.0000      -0.329177        -8.9574
  89   1.0000      -0.327723        -8.9178
  90   1.0000      -0.327161        -8.9025
  91   1.0000      -0.321573        -8.7504
  92   1.0000      -0.320250        -8.7144
  93   1.0000      -0.317904        -8.6506
  94   1.0000      -0.313758        -8.5378
  95   1.0000      -0.308229        -8.3873
  96   1.0000      -0.306615        -8.3434
  97   1.0000      -0.305404        -8.3105
  98   1.0000      -0.301866        -8.2142
  99   1.0000      -0.299794        -8.1578
 100   1.0000      -0.294766        -8.0210
 101   1.0000      -0.289792        -7.8856
 102   1.0000      -0.287705        -7.8289
 103   1.0000      -0.283944        -7.7265
 104   1.0000      -0.283802        -7.7226
 105   1.0000      -0.283290        -7.7087
 106   1.0000      -0.283137        -7.7045
 107   1.0000      -0.280394        -7.6299
 108   1.0000      -0.279782        -7.6132
 109   1.0000      -0.279587        -7.6079
 110   1.0000      -0.277299        -7.5457
 111   1.0000      -0.276208        -7.5160
 112   1.0000      -0.273951        -7.4546
 113   1.0000      -0.272599        -7.4178
 114   1.0000      -0.271571        -7.3898
 115   1.0000      -0.271479        -7.3873
 116   1.0000      -0.270304        -7.3553
 117   1.0000      -0.268080        -7.2948
 118   1.0000      -0.267455        -7.2778
 119   1.0000      -0.265121        -7.2143
 120   1.0000      -0.263923        -7.1817
 121   1.0000      -0.262350        -7.1389
 122   1.0000      -0.261108        -7.1051
 123   1.0000      -0.260745        -7.0952
 124   1.0000      -0.259035        -7.0487
 125   1.0000      -0.258850        -7.0437
 126   1.0000      -0.256473        -6.9790
 127   1.0000      -0.254268        -6.9190
 128   1.0000      -0.253468        -6.8972
 129   1.0000      -0.251927        -6.8553
 130   1.0000      -0.251538        -6.8447
 131   1.0000      -0.248143        -6.7523
 132   1.0000      -0.247896        -6.7456
 133   1.0000      -0.246423        -6.7055
 134   1.0000      -0.244214        -6.6454
 135   1.0000      -0.242998        -6.6123
 136   1.0000      -0.240132        -6.5343
 137   1.0000      -0.238453        -6.4886
 138   1.0000      -0.230372        -6.2687
 139   1.0000      -0.219843        -5.9822
 140   1.0000      -0.214642        -5.8407
 141   1.0000      -0.202930        -5.5220
 142   1.0000      -0.200156        -5.4465
 143   1.0000      -0.185064        -5.0359
 144   0.0000      -0.142423        -3.8755
 145   0.0000      -0.140488        -3.8229
 146   0.0000      -0.137874        -3.7517
 147   0.0000      -0.126227        -3.4348
 148   0.0000      -0.123994        -3.3741

MULLIKEN ATOMIC CHARGES AND SPIN POPULATIONS
--------------------------------------------
   0 Au:    0.321454   -0.052908
   1 Au:    0.160942    0.033750
   2 Au:    0.047118   -0.111148
   3 Au:    0.321883   -0.051404
   4 Au:    0.328950   -0.053776
   5 Au:    0.165194   -0.087135
   6 Au:    0.169082   -0.086862
   7 Au:    0.500596   -0.074814
   8 Au:    0.626425   -0.072661
   9 Au:    0.475659   -0.022354
  10 Au:    0.588817   -0.049673
  11 Au:    0.625229   -0.072580
  12 Au:    0.327905   -0.052809
  13 Au:    0.472949   -0.021856
  14 Cr:   -5.132204    2.776229
Sum of atomic charges         :   -0.0000000

LOEWDIN ATOMIC CHARGES AND SPIN POPULATIONS
-------------------------------------------
   0 Au:    0.100373   -0.075150
   1 Au:    0.031008   -0.007891
   2 Au:    0.070571   -0.083593
   3 Au:    0.100863   -0.074069
   4 Au:    0.091395   -0.087348
   5 Au:    0.050648   -0.066747
   6 Au:    0.050771   -0.067105
   7 Au:    0.135619   -0.092839
   8 Au:    0.125743   -0.103200
   9 Au:    0.134831   -0.064483
  10 Au:    0.100132   -0.066418
  11 Au:    0.125618   -0.102892
  12 Au:    0.092303   -0.086989
  13 Au:    0.135705   -0.064574
  14 Cr:   -1.345578    3.043300

  Mayer bond orders larger than 0.100000
B(  0-Au,  1-Au) :   0.2659 B(  0-Au,  2-Au) :   0.2082 B(  0-Au,  6-Au) :   0.2538
B(  0-Au, 12-Au) :   0.2169 B(  0-Au, 14-Cr) :   0.3728 B(  1-Au,  3-Au) :   0.2647
B(  1-Au,  5-Au) :   0.2392 B(  1-Au,  6-Au) :   0.2400 B(  1-Au, 14-Cr) :   0.4066
B(  2-Au,  3-Au) :   0.2083 B(  2-Au,  4-Au) :   0.2478 B(  2-Au, 10-Au) :   0.1091
B(  2-Au, 12-Au) :   0.2488 B(  2-Au, 14-Cr) :   0.5600 B(  3-Au,  4-Au) :   0.2199
B(  3-Au,  5-Au) :   0.2535 B(  3-Au, 14-Cr) :   0.3717 B(  4-Au,  8-Au) :   0.1837
B(  4-Au, 13-Au) :   0.3251 B(  4-Au, 14-Cr) :   0.6456 B(  5-Au,  6-Au) :   0.1361
B(  5-Au,  7-Au) :   0.2653 B(  5-Au,  8-Au) :   0.2192 B(  5-Au, 14-Cr) :   0.6212
B(  6-Au,  7-Au) :   0.2655 B(  6-Au, 11-Au) :   0.2193 B(  6-Au, 14-Cr) :   0.6213
B(  7-Au,  8-Au) :   0.1216 B(  7-Au, 10-Au) :   0.1725 B(  7-Au, 11-Au) :   0.1225
B(  7-Au, 14-Cr) :   0.5553 B(  8-Au, 10-Au) :   0.1668 B(  8-Au, 13-Au) :   0.1501
B(  8-Au, 14-Cr) :   0.5836 B(  9-Au, 10-Au) :   0.1784 B(  9-Au, 11-Au) :   0.1521
B(  9-Au, 12-Au) :   0.3245 B(  9-Au, 13-Au) :   0.2743 B(  9-Au, 14-Cr) :   0.4726
B( 10-Au, 11-Au) :   0.1643 B( 10-Au, 13-Au) :   0.1761 B( 10-Au, 14-Cr) :   0.4710
B( 11-Au, 12-Au) :   0.1823 B( 11-Au, 14-Cr) :   0.5828 B( 12-Au, 14-Cr) :   0.6481
B( 13-Au, 14-Cr) :   0.4784

FINAL SINGLE POINT ENERGY     -2945.830777005466

DIPOLE MOMENT
-------------
                                X             Y             Z
Electronic contribution:    -11.45280      16.86757       5.18116
Nuclear contribution   :     11.47306     -16.88686      -5.18832
                        -----------------------------------------
Total Dipole Moment    :      0.02027      -0.01928      -0.00716
                        -----------------------------------------
Magnitude (a.u.)       :      0.02888
Magnitude (Debye)      :      0.07340

Rotational constants in cm-1:     0.001247     0.000996     0.000865
Rotational constants in MHz :    37.384559    29.852951    25.943672

                             ****ORCA TERMINATED NORMALLY****
TOTAL RUN TIME: 0 days 1 hours 23 minutes 23 seconds 850 msec
