                         Program Version 5.0.3 -  RELEASE  -
|  1> !R2SCAN def2-TZVP VERYSLOWCONV
|  2> !KDIIS
|  3> %scf
|  4>   AutoTRAHIter 200
|  5>   maxiter 400
|  6> end
|  7>
|  8> %pal nprocs 6 end
|  9>
| 10> *xyzfile 0 5 pbe.xyz
| 11>
| 12> $new_job
| 13>
| 14> !R2SCAN def2-TZVP VERYSLOWCONV
| 15> !KDIIS
| 16> %scf
| 17>   AutoTRAHIter 200
| 18>   maxiter 400
| 19> end
| 20>
| 21>
| 22> %pal nprocs 6 end
| 23>
| 24> *xyzfile 0 3 pbe.xyz
| 25>
| 26>
| 27>
| 28>
| 29>
| 30>                          ****END OF INPUT****
 Total Charge           Charge          ....    0
 Multiplicity           Mult            ....    5
 Number of Electrons    NEL             ....  290
FINAL SINGLE POINT ENERGY     -2946.307085356430

CARTESIAN COORDINATES (ANGSTROEM)
---------------------------------
  Au     5.723739    9.711842    5.624374
  Au     6.877820   11.069235    7.734958
  Au     6.592071    7.929789    7.660662
  Au     7.301171    9.466338    9.945309
  Au     8.689548    7.173842    9.341445
  Au     9.460643   10.176891    8.329743
  Au     8.437302   10.341853    5.532006
  Au    11.099851    9.767958    6.112818
  Au    11.257956    8.052449    8.461215
  Au     9.162686    5.668897    5.114955
  Au    11.587964    7.039506    5.780494
  Au     9.643062    8.308694    4.057440
  Au     7.084830    7.417730    4.960884
  Au    10.093365    5.520294    7.700469
  Cr     9.112415    7.923639    6.735275

 Multiplicity           Mult            ....    3
 Number of Electrons    NEL             ....  290
 Basis Dimension        Dim             ....  605

ORBITAL ENERGIES
----------------
                 SPIN UP ORBITALS
  NO   OCC          E(Eh)            E(eV)
   0   1.0000    -215.298439     -5858.5684
   1   1.0000     -24.599423      -669.3843
   2   1.0000     -20.867687      -567.8386
   3   1.0000     -20.864928      -567.7635
   4   1.0000     -20.864331      -567.7473
   5   1.0000      -4.122281      -112.1730
   6   1.0000      -4.122229      -112.1715
   7   1.0000      -4.119772      -112.1047
   8   1.0000      -4.119747      -112.1040
   9   1.0000      -4.119429      -112.0954
  10   1.0000      -4.118806      -112.0784
  11   1.0000      -4.115868      -111.9985
  12   1.0000      -4.115792      -111.9964
  13   1.0000      -4.114441      -111.9596
  14   1.0000      -4.113679      -111.9389
  15   1.0000      -4.113510      -111.9343
  16   1.0000      -4.109670      -111.8298
  17   1.0000      -4.109612      -111.8282
  18   1.0000      -4.106998      -111.7571
  19   1.0000      -2.917970       -79.4020
  20   1.0000      -2.312357       -62.9224
  21   1.0000      -2.311767       -62.9064
  22   1.0000      -2.309696       -62.8500
  23   1.0000      -2.309598       -62.8474
  24   1.0000      -2.308428       -62.8155
  25   1.0000      -2.308050       -62.8052
  26   1.0000      -2.307745       -62.7969
  27   1.0000      -2.306914       -62.7743
  28   1.0000      -2.306801       -62.7713
  29   1.0000      -2.306345       -62.7588
  30   1.0000      -2.305697       -62.7412
  31   1.0000      -2.305617       -62.7390
  32   1.0000      -2.304956       -62.7210
  33   1.0000      -2.304640       -62.7124
  34   1.0000      -2.304416       -62.7064
  35   1.0000      -2.303790       -62.6893
  36   1.0000      -2.303419       -62.6792
  37   1.0000      -2.302987       -62.6675
  38   1.0000      -2.301893       -62.6377
  39   1.0000      -2.301704       -62.6325
  40   1.0000      -2.301416       -62.6247
  41   1.0000      -2.301208       -62.6190
  42   1.0000      -2.301141       -62.6172
  43   1.0000      -2.300422       -62.5977
  44   1.0000      -2.300211       -62.5919
  45   1.0000      -2.299722       -62.5786
  46   1.0000      -2.299654       -62.5768
  47   1.0000      -2.299336       -62.5681
  48   1.0000      -2.299089       -62.5614
  49   1.0000      -2.298975       -62.5583
  50   1.0000      -2.298186       -62.5368
  51   1.0000      -2.297673       -62.5229
  52   1.0000      -2.296933       -62.5027
  53   1.0000      -2.296089       -62.4798
  54   1.0000      -2.295738       -62.4702
  55   1.0000      -2.295546       -62.4650
  56   1.0000      -2.295291       -62.4580
  57   1.0000      -2.293996       -62.4228
  58   1.0000      -2.293257       -62.4027
  59   1.0000      -2.292938       -62.3940
  60   1.0000      -2.292912       -62.3933
  61   1.0000      -2.289143       -62.2907
  62   1.0000      -1.865716       -50.7687
  63   1.0000      -1.864057       -50.7236
  64   1.0000      -1.864001       -50.7220
  65   1.0000      -0.433283       -11.7902
  66   1.0000      -0.392252       -10.6737
  67   1.0000      -0.389733       -10.6052
  68   1.0000      -0.388762       -10.5788
  69   1.0000      -0.379407       -10.3242
  70   1.0000      -0.376068       -10.2333
  71   1.0000      -0.375764       -10.2251
  72   1.0000      -0.371641       -10.1129
  73   1.0000      -0.369875       -10.0648
  74   1.0000      -0.369114       -10.0441
  75   1.0000      -0.361049        -9.8246
  76   1.0000      -0.357672        -9.7327
  77   1.0000      -0.357573        -9.7301
  78   1.0000      -0.353979        -9.6323
  79   1.0000      -0.353340        -9.6149
  80   1.0000      -0.353307        -9.6140
  81   1.0000      -0.351589        -9.5672
  82   1.0000      -0.347240        -9.4489
  83   1.0000      -0.346588        -9.4311
  84   1.0000      -0.344733        -9.3807
  85   1.0000      -0.344164        -9.3652
  86   1.0000      -0.342006        -9.3064
  87   1.0000      -0.339084        -9.2270
  88   1.0000      -0.336900        -9.1675
  89   1.0000      -0.335648        -9.1334
  90   1.0000      -0.335314        -9.1244
  91   1.0000      -0.330181        -8.9847
  92   1.0000      -0.328626        -8.9424
  93   1.0000      -0.326856        -8.8942
  94   1.0000      -0.324442        -8.8285
  95   1.0000      -0.316651        -8.6165
  96   1.0000      -0.315942        -8.5972
  97   1.0000      -0.314338        -8.5536
  98   1.0000      -0.309007        -8.4085
  99   1.0000      -0.307724        -8.3736
 100   1.0000      -0.302631        -8.2350
 101   1.0000      -0.300886        -8.1875
 102   1.0000      -0.298010        -8.1093
 103   1.0000      -0.293236        -7.9794
 104   1.0000      -0.292858        -7.9691
 105   1.0000      -0.291242        -7.9251
 106   1.0000      -0.291079        -7.9206
 107   1.0000      -0.288482        -7.8500
 108   1.0000      -0.287379        -7.8200
 109   1.0000      -0.286177        -7.7873
 110   1.0000      -0.284311        -7.7365
 111   1.0000      -0.284195        -7.7333
 112   1.0000      -0.280739        -7.6393
 113   1.0000      -0.280172        -7.6239
 114   1.0000      -0.278503        -7.5784
 115   1.0000      -0.278086        -7.5671
 116   1.0000      -0.276296        -7.5184
 117   1.0000      -0.274770        -7.4769
 118   1.0000      -0.274138        -7.4597
 119   1.0000      -0.271684        -7.3929
 120   1.0000      -0.271020        -7.3748
 121   1.0000      -0.269288        -7.3277
 122   1.0000      -0.268420        -7.3041
 123   1.0000      -0.267250        -7.2722
 124   1.0000      -0.265687        -7.2297
 125   1.0000      -0.265188        -7.2161
 126   1.0000      -0.262836        -7.1521
 127   1.0000      -0.260834        -7.0977
 128   1.0000      -0.259542        -7.0625
 129   1.0000      -0.258153        -7.0247
 130   1.0000      -0.257802        -7.0152
 131   1.0000      -0.253945        -6.9102
 132   1.0000      -0.253551        -6.8995
 133   1.0000      -0.252413        -6.8685
 134   1.0000      -0.249980        -6.8023
 135   1.0000      -0.247878        -6.7451
 136   1.0000      -0.244242        -6.6462
 137   1.0000      -0.244185        -6.6446
 138   1.0000      -0.237037        -6.4501
 139   1.0000      -0.229518        -6.2455
 140   1.0000      -0.227607        -6.1935
 141   1.0000      -0.222705        -6.0601
 142   1.0000      -0.217956        -5.9309
 143   1.0000      -0.213975        -5.8226
 144   1.0000      -0.203557        -5.5391
 145   1.0000      -0.200919        -5.4673
 146   0.0000      -0.175993        -4.7890
 147   0.0000      -0.172170        -4.6850
 148   0.0000      -0.164547        -4.4776
 149   0.0000      -0.131170        -3.5693
 150   0.0000      -0.127730        -3.4757

                 SPIN DOWN ORBITALS
  NO   OCC          E(Eh)            E(eV)
   0   1.0000    -215.297859     -5858.5526
   1   1.0000     -24.538356      -667.7226
   2   1.0000     -20.823131      -566.6262
   3   1.0000     -20.816833      -566.4548
   4   1.0000     -20.815934      -566.4303
   5   1.0000      -4.122173      -112.1700
   6   1.0000      -4.122120      -112.1686
   7   1.0000      -4.119675      -112.1021
   8   1.0000      -4.119644      -112.1012
   9   1.0000      -4.119303      -112.0919
  10   1.0000      -4.119027      -112.0844
  11   1.0000      -4.116036      -112.0030
  12   1.0000      -4.115954      -112.0008
  13   1.0000      -4.114912      -111.9725
  14   1.0000      -4.113615      -111.9372
  15   1.0000      -4.113443      -111.9325
  16   1.0000      -4.110486      -111.8520
  17   1.0000      -4.110434      -111.8506
  18   1.0000      -4.107455      -111.7695
  19   1.0000      -2.758316       -75.0576
  20   1.0000      -2.311926       -62.9107
  21   1.0000      -2.311355       -62.8952
  22   1.0000      -2.309411       -62.8423
  23   1.0000      -2.309177       -62.8359
  24   1.0000      -2.308192       -62.8091
  25   1.0000      -2.308103       -62.8067
  26   1.0000      -2.307664       -62.7947
  27   1.0000      -2.306506       -62.7632
  28   1.0000      -2.306208       -62.7551
  29   1.0000      -2.305745       -62.7425
  30   1.0000      -2.305743       -62.7425
  31   1.0000      -2.305483       -62.7354
  32   1.0000      -2.304865       -62.7186
  33   1.0000      -2.304691       -62.7138
  34   1.0000      -2.304222       -62.7011
  35   1.0000      -2.303485       -62.6810
  36   1.0000      -2.303168       -62.6724
  37   1.0000      -2.302819       -62.6629
  38   1.0000      -2.301893       -62.6377
  39   1.0000      -2.301770       -62.6343
  40   1.0000      -2.301343       -62.6227
  41   1.0000      -2.301157       -62.6177
  42   1.0000      -2.300888       -62.6104
  43   1.0000      -2.300322       -62.5949
  44   1.0000      -2.300200       -62.5916
  45   1.0000      -2.299941       -62.5846
  46   1.0000      -2.299668       -62.5772
  47   1.0000      -2.299490       -62.5723
  48   1.0000      -2.299027       -62.5597
  49   1.0000      -2.298998       -62.5589
  50   1.0000      -2.298679       -62.5502
  51   1.0000      -2.297968       -62.5309
  52   1.0000      -2.297448       -62.5167
  53   1.0000      -2.296597       -62.4936
  54   1.0000      -2.296459       -62.4898
  55   1.0000      -2.296014       -62.4777
  56   1.0000      -2.295171       -62.4548
  57   1.0000      -2.294876       -62.4468
  58   1.0000      -2.294248       -62.4297
  59   1.0000      -2.293793       -62.4173
  60   1.0000      -2.293643       -62.4132
  61   1.0000      -2.289510       -62.3007
  62   1.0000      -1.714540       -46.6550
  63   1.0000      -1.702127       -46.3172
  64   1.0000      -1.699138       -46.2359
  65   1.0000      -0.428420       -11.6579
  66   1.0000      -0.392195       -10.6722
  67   1.0000      -0.389372       -10.5954
  68   1.0000      -0.389298       -10.5933
  69   1.0000      -0.377538       -10.2733
  70   1.0000      -0.371826       -10.1179
  71   1.0000      -0.371720       -10.1150
  72   1.0000      -0.370560       -10.0835
  73   1.0000      -0.369176       -10.0458
  74   1.0000      -0.367163        -9.9910
  75   1.0000      -0.359712        -9.7883
  76   1.0000      -0.358751        -9.7621
  77   1.0000      -0.358582        -9.7575
  78   1.0000      -0.354658        -9.6507
  79   1.0000      -0.353440        -9.6176
  80   1.0000      -0.352402        -9.5893
  81   1.0000      -0.351317        -9.5598
  82   1.0000      -0.348305        -9.4779
  83   1.0000      -0.346509        -9.4290
  84   1.0000      -0.346015        -9.4155
  85   1.0000      -0.345255        -9.3949
  86   1.0000      -0.342458        -9.3188
  87   1.0000      -0.340155        -9.2561
  88   1.0000      -0.338337        -9.2066
  89   1.0000      -0.336527        -9.1574
  90   1.0000      -0.336283        -9.1507
  91   1.0000      -0.330465        -8.9924
  92   1.0000      -0.329302        -8.9608
  93   1.0000      -0.326615        -8.8876
  94   1.0000      -0.322465        -8.7747
  95   1.0000      -0.316804        -8.6207
  96   1.0000      -0.315086        -8.5739
  97   1.0000      -0.313763        -8.5379
  98   1.0000      -0.310499        -8.4491
  99   1.0000      -0.308227        -8.3873
 100   1.0000      -0.303664        -8.2631
 101   1.0000      -0.297822        -8.1042
 102   1.0000      -0.295913        -8.0522
 103   1.0000      -0.292350        -7.9553
 104   1.0000      -0.291970        -7.9449
 105   1.0000      -0.291552        -7.9335
 106   1.0000      -0.291277        -7.9261
 107   1.0000      -0.288378        -7.8472
 108   1.0000      -0.287794        -7.8313
 109   1.0000      -0.287504        -7.8234
 110   1.0000      -0.285757        -7.7759
 111   1.0000      -0.284550        -7.7430
 112   1.0000      -0.282110        -7.6766
 113   1.0000      -0.281043        -7.6476
 114   1.0000      -0.279909        -7.6167
 115   1.0000      -0.279720        -7.6116
 116   1.0000      -0.278067        -7.5666
 117   1.0000      -0.276289        -7.5182
 118   1.0000      -0.275572        -7.4987
 119   1.0000      -0.273281        -7.4364
 120   1.0000      -0.271968        -7.4006
 121   1.0000      -0.270038        -7.3481
 122   1.0000      -0.269291        -7.3278
 123   1.0000      -0.268709        -7.3120
 124   1.0000      -0.267033        -7.2663
 125   1.0000      -0.266775        -7.2593
 126   1.0000      -0.264337        -7.1930
 127   1.0000      -0.262103        -7.1322
 128   1.0000      -0.260994        -7.1020
 129   1.0000      -0.259797        -7.0694
 130   1.0000      -0.258964        -7.0468
 131   1.0000      -0.255248        -6.9456
 132   1.0000      -0.255018        -6.9394
 133   1.0000      -0.253776        -6.9056
 134   1.0000      -0.251150        -6.8341
 135   1.0000      -0.249865        -6.7992
 136   1.0000      -0.246476        -6.7070
 137   1.0000      -0.245254        -6.6737
 138   1.0000      -0.236179        -6.4268
 139   1.0000      -0.223110        -6.0711
 140   1.0000      -0.216489        -5.8910
 141   1.0000      -0.204284        -5.5589
 142   1.0000      -0.201184        -5.4745
 143   1.0000      -0.184880        -5.0308
 144   0.0000      -0.137457        -3.7404
 145   0.0000      -0.135709        -3.6928
 146   0.0000      -0.133409        -3.6302
 147   0.0000      -0.121205        -3.2981
 148   0.0000      -0.116969        -3.1829

MULLIKEN ATOMIC CHARGES AND SPIN POPULATIONS
--------------------------------------------
   0 Au:    0.292686   -0.065882
   1 Au:    0.135317    0.045430
   2 Au:    0.054069   -0.149448
   3 Au:    0.293145   -0.064191
   4 Au:    0.290097   -0.076808
   5 Au:    0.155302   -0.116820
   6 Au:    0.159087   -0.116448
   7 Au:    0.459898   -0.097270
   8 Au:    0.567140   -0.105366
   9 Au:    0.434479   -0.044542
  10 Au:    0.525732   -0.079246
  11 Au:    0.565549   -0.105343
  12 Au:    0.289496   -0.075993
  13 Au:    0.432109   -0.044583
  14 Cr:   -4.654107    3.096509
Sum of atomic charges         :   -0.0000000

LOEWDIN ATOMIC CHARGES AND SPIN POPULATIONS
-------------------------------------------
   0 Au:    0.099211   -0.086312
   1 Au:    0.028665   -0.009428
   2 Au:    0.066207   -0.107186
   3 Au:    0.099706   -0.085108
   4 Au:    0.086787   -0.104135
   5 Au:    0.048341   -0.085523
   6 Au:    0.048472   -0.085936
   7 Au:    0.132316   -0.112034
   8 Au:    0.120697   -0.121873
   9 Au:    0.130730   -0.081306
  10 Au:    0.095895   -0.082609
  11 Au:    0.120521   -0.121480
  12 Au:    0.087676   -0.103853
  13 Au:    0.131518   -0.081619
  14 Cr:   -1.296741    3.268404

  Mayer bond orders larger than 0.100000
B(  0-Au,  1-Au) :   0.2558 B(  0-Au,  2-Au) :   0.1950 B(  0-Au,  6-Au) :   0.2424
B(  0-Au, 12-Au) :   0.2120 B(  0-Au, 14-Cr) :   0.3531 B(  1-Au,  3-Au) :   0.2546
B(  1-Au,  5-Au) :   0.2309 B(  1-Au,  6-Au) :   0.2316 B(  1-Au, 14-Cr) :   0.3857
B(  2-Au,  3-Au) :   0.1951 B(  2-Au,  4-Au) :   0.2377 B(  2-Au, 12-Au) :   0.2387
B(  2-Au, 14-Cr) :   0.5711 B(  3-Au,  4-Au) :   0.2149 B(  3-Au,  5-Au) :   0.2422
B(  3-Au, 14-Cr) :   0.3519 B(  4-Au,  8-Au) :   0.1807 B(  4-Au, 13-Au) :   0.3177
B(  4-Au, 14-Cr) :   0.6514 B(  5-Au,  6-Au) :   0.1222 B(  5-Au,  7-Au) :   0.2628
B(  5-Au,  8-Au) :   0.2197 B(  5-Au, 14-Cr) :   0.6064 B(  6-Au,  7-Au) :   0.2631
B(  6-Au, 11-Au) :   0.2199 B(  6-Au, 14-Cr) :   0.6065 B(  7-Au,  8-Au) :   0.1125
B(  7-Au, 10-Au) :   0.1649 B(  7-Au, 11-Au) :   0.1135 B(  7-Au, 14-Cr) :   0.5391
B(  8-Au, 10-Au) :   0.1575 B(  8-Au, 13-Au) :   0.1408 B(  8-Au, 14-Cr) :   0.5956
B(  9-Au, 10-Au) :   0.1706 B(  9-Au, 11-Au) :   0.1429 B(  9-Au, 12-Au) :   0.3171
B(  9-Au, 13-Au) :   0.2622 B(  9-Au, 14-Cr) :   0.4763 B( 10-Au, 11-Au) :   0.1548
B( 10-Au, 13-Au) :   0.1683 B( 10-Au, 14-Cr) :   0.4999 B( 11-Au, 12-Au) :   0.1794
B( 11-Au, 14-Cr) :   0.5952 B( 12-Au, 14-Cr) :   0.6536 B( 13-Au, 14-Cr) :   0.4821

FINAL SINGLE POINT ENERGY     -2946.312214756341

DIPOLE MOMENT
-------------
                                X             Y             Z
Electronic contribution:    -11.44581      16.87109       5.17876
Nuclear contribution   :     11.47306     -16.88686      -5.18832
                        -----------------------------------------
Total Dipole Moment    :      0.02725      -0.01577      -0.00956
                        -----------------------------------------
Magnitude (a.u.)       :      0.03291
Magnitude (Debye)      :      0.08364

Rotational constants in cm-1:     0.001247     0.000996     0.000865
Rotational constants in MHz :    37.384559    29.852951    25.943672

                             ****ORCA TERMINATED NORMALLY****
TOTAL RUN TIME: 0 days 0 hours 32 minutes 21 seconds 653 msec
