                         Program Version 5.0.3 -  RELEASE  -
|  1> !SC-NEVPT2 def2-TZVP def2-TZVP/C
|  2> !MOREAD RIJCOSX def2/J
|  3> %maxcore 4000
|  4> %moinp "casscf.gbw"
|  5> %pal nprocs 6 end
|  6>
|  7> %casscf
|  8>  mult 6,4
|  9>  bweight 1,1
| 10>  nroots 1,24
| 11>  nel 5
| 12>  norb 5
| 13>  ptsettings
| 14>   d4tpre 1e-14 # default = 1e-10
| 15>   d3tpre 1e-14
| 16>  end
| 17>  rel
| 18>    dosoc true
| 19>    gtensor true
| 20>  end
| 21> end
| 22>
| 23>
| 24> *xyzfile 0 6 pbe.xyz
| 25>
| 26>
| 27>                          ****END OF INPUT****

CARTESIAN COORDINATES (ANGSTROEM)
---------------------------------
  Au     4.631770    4.526717    5.322018
  Au     8.223586    6.943650    9.914931
  Au     8.235161    6.364060    7.250870
  Au     6.777008    4.817157    9.029599
  Au     7.040797    5.975578    4.884306
  Au     6.346717    6.428192   11.921172
  Au     5.366406    7.386793    9.615230
  Au     4.540159    4.767281   10.576802
  Au     4.335894    4.074910    7.946813
  Au     4.310789    8.548416    7.538066
  Mn     5.548439    6.304048    7.025938

 Total Charge           Charge          ....    0
 Multiplicity           Mult            ....    6
 Number of Electrons    NEL             ....  215
 Basis Dimension        Dim             ....  445

ORBITAL ENERGIES
----------------

  NO   OCC          E(Eh)            E(eV)
   0   2.0000    -240.546781     -6545.6107
   1   2.0000     -29.125413      -792.5428
   2   2.0000     -24.830354      -675.6683
   3   2.0000     -24.830019      -675.6592
   4   2.0000     -24.829572      -675.6470
   5   2.0000      -4.724211      -128.5523
   6   2.0000      -4.718350      -128.3928
   7   2.0000      -4.714106      -128.2774
   8   2.0000      -4.713173      -128.2520
   9   2.0000      -4.712995      -128.2471
  10   2.0000      -4.703403      -127.9861
  11   2.0000      -4.703080      -127.9773
  12   2.0000      -4.698552      -127.8541
  13   2.0000      -4.692977      -127.7024
  14   2.0000      -4.692821      -127.6981
  15   2.0000      -3.830183      -104.2246
  16   2.0000      -2.763216       -75.1909
  17   2.0000      -2.762316       -75.1664
  18   2.0000      -2.761880       -75.1546
  19   2.0000      -2.759150       -75.0803
  20   2.0000      -2.753498       -74.9265
  21   2.0000      -2.751802       -74.8803
  22   2.0000      -2.751453       -74.8708
  23   2.0000      -2.751352       -74.8681
  24   2.0000      -2.751160       -74.8629
  25   2.0000      -2.750162       -74.8357
  26   2.0000      -2.749542       -74.8188
  27   2.0000      -2.747386       -74.7602
  28   2.0000      -2.745223       -74.7013
  29   2.0000      -2.745071       -74.6972
  30   2.0000      -2.744612       -74.6847
  31   2.0000      -2.740419       -74.5706
  32   2.0000      -2.740117       -74.5624
  33   2.0000      -2.739687       -74.5507
  34   2.0000      -2.739363       -74.5419
  35   2.0000      -2.736927       -74.4756
  36   2.0000      -2.736579       -74.4661
  37   2.0000      -2.735155       -74.4273
  38   2.0000      -2.732432       -74.3533
  39   2.0000      -2.731578       -74.3300
  40   2.0000      -2.731373       -74.3244
  41   2.0000      -2.730544       -74.3019
  42   2.0000      -2.728175       -74.2374
  43   2.0000      -2.725285       -74.1588
  44   2.0000      -2.724062       -74.1255
  45   2.0000      -2.722979       -74.0960
  46   2.0000      -2.498050       -67.9754
  47   2.0000      -2.496969       -67.9460
  48   2.0000      -2.496816       -67.9418
  49   2.0000      -0.562911       -15.3176
  50   2.0000      -0.552932       -15.0460
  51   2.0000      -0.551695       -15.0124
  52   2.0000      -0.549341       -14.9483
  53   2.0000      -0.543412       -14.7870
  54   2.0000      -0.541561       -14.7366
  55   2.0000      -0.536417       -14.5966
  56   2.0000      -0.532793       -14.4980
  57   2.0000      -0.528044       -14.3688
  58   2.0000      -0.526859       -14.3366
  59   2.0000      -0.510777       -13.8990
  60   2.0000      -0.509884       -13.8746
  61   2.0000      -0.509344       -13.8599
  62   2.0000      -0.507479       -13.8092
  63   2.0000      -0.499576       -13.5942
  64   2.0000      -0.496769       -13.5178
  65   2.0000      -0.493403       -13.4262
  66   2.0000      -0.491422       -13.3723
  67   2.0000      -0.490259       -13.3406
  68   2.0000      -0.485601       -13.2139
  69   2.0000      -0.482698       -13.1349
  70   2.0000      -0.478818       -13.0293
  71   2.0000      -0.478631       -13.0242
  72   2.0000      -0.475815       -12.9476
  73   2.0000      -0.473122       -12.8743
  74   2.0000      -0.472132       -12.8474
  75   2.0000      -0.466695       -12.6994
  76   2.0000      -0.460363       -12.5271
  77   2.0000      -0.458623       -12.4798
  78   2.0000      -0.457227       -12.4418
  79   2.0000      -0.452595       -12.3157
  80   2.0000      -0.450140       -12.2489
  81   2.0000      -0.447390       -12.1741
  82   2.0000      -0.446245       -12.1429
  83   2.0000      -0.444655       -12.0997
  84   2.0000      -0.442579       -12.0432
  85   2.0000      -0.442076       -12.0295
  86   2.0000      -0.438900       -11.9431
  87   2.0000      -0.437989       -11.9183
  88   2.0000      -0.434857       -11.8331
  89   2.0000      -0.432760       -11.7760
  90   2.0000      -0.431535       -11.7427
  91   2.0000      -0.429455       -11.6861
  92   2.0000      -0.425203       -11.5704
  93   2.0000      -0.424937       -11.5631
  94   2.0000      -0.418962       -11.4005
  95   2.0000      -0.418645       -11.3919
  96   2.0000      -0.416626       -11.3370
  97   2.0000      -0.413171       -11.2429
  98   2.0000      -0.401463       -10.9244
  99   2.0000      -0.383937       -10.4474
 100   2.0000      -0.353979        -9.6322
 101   2.0000      -0.316167        -8.6033
 102   2.0000      -0.312811        -8.5120
 103   2.0000      -0.241436        -6.5698
 104   2.0000      -0.223526        -6.0825
 105   1.0000      -0.149176        -4.0593
 106   1.0000      -0.145608        -3.9622
 107   1.0000      -0.149756        -4.0751
 108   1.0000      -0.151155        -4.1131
 109   1.0000      -0.147459        -4.0126
 110   0.0000      -0.016893        -0.4597
 111   0.0000      -0.012282        -0.3342
 112   0.0000       0.002082         0.0567
 113   0.0000       0.003464         0.0943
 114   0.0000       0.012915         0.3514

MULLIKEN ATOMIC CHARGES AND SPIN DENSITIES
------------------------------------------
   0 Au:    0.111699    0.012699
   1 Au:    0.199968    0.002796
   2 Au:   -0.015115    0.009710
   3 Au:   -0.062515    0.006726
   4 Au:    0.111777    0.012621
   5 Au:    0.389641    0.001771
   6 Au:   -0.734953    0.006972
   7 Au:    0.199230    0.002829
   8 Au:   -0.018715    0.009662
   9 Au:    0.379822    0.012592
  10 Mn:   -0.560840    3.921622
Sum of atomic charges       :    0.0000000

LOEWDIN ATOMIC CHARGES AND SPIN DENSITIES
-----------------------------------------
   0 Au:   -0.015448    0.017705
   1 Au:    0.046782    0.003193
   2 Au:   -0.023788    0.014621
   3 Au:   -0.106269    0.010795
   4 Au:   -0.014551    0.017617
   5 Au:    0.081894    0.002788
   6 Au:   -0.243030    0.010242
   7 Au:    0.047009    0.003202
   8 Au:   -0.024392    0.014559
   9 Au:    0.176439    0.018702
  10 Mn:    0.075352    3.886576

  Mayer bond orders larger than 0.100000
B(  0-Au,  8-Au) :   0.4489 B(  0-Au, 10-Mn) :   0.5307 B(  1-Au,  2-Au) :   0.3392
B(  1-Au,  3-Au) :   0.3200 B(  1-Au,  5-Au) :   0.1907 B(  1-Au,  6-Au) :   0.2505
B(  2-Au,  3-Au) :   0.3512 B(  2-Au,  4-Au) :   0.4462 B(  2-Au, 10-Mn) :   0.4492
B(  3-Au,  6-Au) :   0.1503 B(  3-Au,  7-Au) :   0.3214 B(  3-Au,  8-Au) :   0.3511
B(  3-Au, 10-Mn) :   0.2864 B(  4-Au, 10-Mn) :   0.5303 B(  5-Au,  6-Au) :   0.5353
B(  5-Au,  7-Au) :   0.1876 B(  6-Au,  7-Au) :   0.2486 B(  6-Au,  9-Au) :   0.6565
B(  6-Au, 10-Mn) :   0.4957 B(  7-Au,  8-Au) :   0.3431 B(  8-Au, 10-Mn) :   0.4491
B(  9-Au, 10-Mn) :   0.4278

FINAL SINGLE POINT ENERGY     -2502.905720524425

DIPOLE MOMENT
-------------
                                X             Y             Z
Electronic contribution:     15.47540     -11.25760      49.88949
Nuclear contribution   :    -15.66029      11.61773     -49.76503
                        -----------------------------------------
Total Dipole Moment    :     -0.18490       0.36014       0.12446
                        -----------------------------------------
Magnitude (a.u.)       :      0.42353
Magnitude (Debye)      :      1.07652

Rotational constants in cm-1:     0.002164     0.001374     0.001214
Rotational constants in MHz :    64.887865    41.181398    36.380479

                             ****ORCA TERMINATED NORMALLY****
TOTAL RUN TIME: 0 days 0 hours 41 minutes 20 seconds 374 msec
