                         Program Version 5.0.3 -  RELEASE  -
|  1> !SC-NEVPT2 def2-TZVP def2-TZVP/C
|  2> !MOREAD RIJCOSX def2/J
|  3> %maxcore 4000
|  4> %moinp "casscf.gbw"
|  5> %pal nprocs 6 end
|  6>
|  7> %casscf
|  8>  mult 6,4
|  9>  bweight 1,1
| 10>  nroots 1,24
| 11>  nel 5
| 12>  norb 5
| 13>  ptsettings
| 14>   d4tpre 1e-14 # default = 1e-10
| 15>   d3tpre 1e-14
| 16>  end
| 17>  rel
| 18>    dosoc true
| 19>    gtensor true
| 20>  end
| 21> end
| 22>
| 23>
| 24> *xyzfile 0 6 pbe.xyz
| 25>
| 26>
| 27>                          ****END OF INPUT****

CARTESIAN COORDINATES (ANGSTROEM)
---------------------------------
  Au     6.325335    7.391827    9.838669
  Au    10.556593    9.405341    9.467113
  Au     9.189663    7.078552    8.983180
  Au     9.786278    9.203624    6.830432
  Au     7.875629    9.756794    9.499126
  Au     7.416584   10.692633    6.779212
  Au     5.351721    9.799354    8.525262
  Au     3.126037    8.862164    7.310100
  Au     7.171486    5.417867    7.958444
  Au     4.738814    6.653025    7.652980
  Au     7.970837    8.669067    4.841815
  Au     9.184331    6.425365    6.243661
  Au     5.289380    8.905788    5.628248
  Au     6.422448    6.348046    5.306814
  Mn     7.217861    8.060074    7.370086

 Total Charge           Charge          ....    0
 Multiplicity           Mult            ....    6
 Number of Electrons    NEL             ....  291
 Basis Dimension        Dim             ....  605

ORBITAL ENERGIES
----------------

  NO   OCC          E(Eh)            E(eV)
   0   2.0000    -240.554061     -6545.8088
   1   2.0000     -29.129685      -792.6590
   2   2.0000     -24.834673      -675.7858
   3   2.0000     -24.834575      -675.7831
   4   2.0000     -24.834368      -675.7775
   5   2.0000      -4.726979      -128.6276
   6   2.0000      -4.726226      -128.6072
   7   2.0000      -4.725735      -128.5938
   8   2.0000      -4.725729      -128.5936
   9   2.0000      -4.721799      -128.4867
  10   2.0000      -4.721231      -128.4712
  11   2.0000      -4.710995      -128.1927
  12   2.0000      -4.710897      -128.1900
  13   2.0000      -4.709409      -128.1495
  14   2.0000      -4.709065      -128.1402
  15   2.0000      -4.707074      -128.0860
  16   2.0000      -4.706577      -128.0725
  17   2.0000      -4.704552      -128.0174
  18   2.0000      -4.703816      -127.9973
  19   2.0000      -3.836499      -104.3964
  20   2.0000      -2.768422       -75.3326
  21   2.0000      -2.767759       -75.3145
  22   2.0000      -2.765960       -75.2656
  23   2.0000      -2.765561       -75.2547
  24   2.0000      -2.764323       -75.2211
  25   2.0000      -2.763772       -75.2061
  26   2.0000      -2.762690       -75.1766
  27   2.0000      -2.762078       -75.1600
  28   2.0000      -2.761794       -75.1522
  29   2.0000      -2.761547       -75.1455
  30   2.0000      -2.761362       -75.1405
  31   2.0000      -2.759887       -75.1003
  32   2.0000      -2.759477       -75.0892
  33   2.0000      -2.756701       -75.0137
  34   2.0000      -2.756128       -74.9981
  35   2.0000      -2.754653       -74.9579
  36   2.0000      -2.754350       -74.9497
  37   2.0000      -2.753803       -74.9348
  38   2.0000      -2.748906       -74.8015
  39   2.0000      -2.748703       -74.7960
  40   2.0000      -2.747007       -74.7499
  41   2.0000      -2.746906       -74.7471
  42   2.0000      -2.746408       -74.7336
  43   2.0000      -2.746257       -74.7294
  44   2.0000      -2.745421       -74.7067
  45   2.0000      -2.745243       -74.7019
  46   2.0000      -2.744423       -74.6795
  47   2.0000      -2.744163       -74.6725
  48   2.0000      -2.743912       -74.6656
  49   2.0000      -2.743160       -74.6452
  50   2.0000      -2.742947       -74.6394
  51   2.0000      -2.742553       -74.6287
  52   2.0000      -2.740746       -74.5795
  53   2.0000      -2.740460       -74.5717
  54   2.0000      -2.740307       -74.5676
  55   2.0000      -2.740130       -74.5627
  56   2.0000      -2.739641       -74.5494
  57   2.0000      -2.738543       -74.5195
  58   2.0000      -2.738231       -74.5111
  59   2.0000      -2.737683       -74.4962
  60   2.0000      -2.737513       -74.4915
  61   2.0000      -2.736871       -74.4740
  62   2.0000      -2.505308       -68.1729
  63   2.0000      -2.505081       -68.1667
  64   2.0000      -2.504530       -68.1517
  65   2.0000      -0.593950       -16.1622
  66   2.0000      -0.563592       -15.3361
  67   2.0000      -0.556354       -15.1392
  68   2.0000      -0.556056       -15.1311
  69   2.0000      -0.554159       -15.0794
  70   2.0000      -0.552598       -15.0370
  71   2.0000      -0.550143       -14.9702
  72   2.0000      -0.548762       -14.9326
  73   2.0000      -0.547900       -14.9091
  74   2.0000      -0.544627       -14.8200
  75   2.0000      -0.544276       -14.8105
  76   2.0000      -0.542421       -14.7600
  77   2.0000      -0.539195       -14.6722
  78   2.0000      -0.538788       -14.6612
  79   2.0000      -0.537997       -14.6396
  80   2.0000      -0.535648       -14.5757
  81   2.0000      -0.534483       -14.5440
  82   2.0000      -0.532526       -14.4908
  83   2.0000      -0.532382       -14.4868
  84   2.0000      -0.525176       -14.2908
  85   2.0000      -0.524870       -14.2824
  86   2.0000      -0.520254       -14.1568
  87   2.0000      -0.515934       -14.0393
  88   2.0000      -0.515697       -14.0328
  89   2.0000      -0.513386       -13.9699
  90   2.0000      -0.505435       -13.7536
  91   2.0000      -0.504420       -13.7260
  92   2.0000      -0.502819       -13.6824
  93   2.0000      -0.499182       -13.5834
  94   2.0000      -0.497795       -13.5457
  95   2.0000      -0.496733       -13.5168
  96   2.0000      -0.490784       -13.3549
  97   2.0000      -0.489531       -13.3208
  98   2.0000      -0.484401       -13.1812
  99   2.0000      -0.484194       -13.1756
 100   2.0000      -0.480294       -13.0695
 101   2.0000      -0.475896       -12.9498
 102   2.0000      -0.469654       -12.7799
 103   2.0000      -0.467811       -12.7298
 104   2.0000      -0.463894       -12.6232
 105   2.0000      -0.462813       -12.5938
 106   2.0000      -0.458339       -12.4720
 107   2.0000      -0.457907       -12.4603
 108   2.0000      -0.455416       -12.3925
 109   2.0000      -0.454789       -12.3754
 110   2.0000      -0.453610       -12.3433
 111   2.0000      -0.452873       -12.3233
 112   2.0000      -0.450006       -12.2453
 113   2.0000      -0.448114       -12.1938
 114   2.0000      -0.447874       -12.1873
 115   2.0000      -0.445703       -12.1282
 116   2.0000      -0.444866       -12.1054
 117   2.0000      -0.442228       -12.0336
 118   2.0000      -0.441068       -12.0021
 119   2.0000      -0.439351       -11.9554
 120   2.0000      -0.437893       -11.9157
 121   2.0000      -0.436269       -11.8715
 122   2.0000      -0.436078       -11.8663
 123   2.0000      -0.434704       -11.8289
 124   2.0000      -0.431213       -11.7339
 125   2.0000      -0.430449       -11.7131
 126   2.0000      -0.429597       -11.6899
 127   2.0000      -0.427448       -11.6314
 128   2.0000      -0.425448       -11.5770
 129   2.0000      -0.423624       -11.5274
 130   2.0000      -0.418195       -11.3797
 131   2.0000      -0.416365       -11.3299
 132   2.0000      -0.412061       -11.2127
 133   2.0000      -0.403615       -10.9829
 134   2.0000      -0.395450       -10.7607
 135   2.0000      -0.391350       -10.6492
 136   2.0000      -0.376196       -10.2368
 137   2.0000      -0.352986        -9.6052
 138   2.0000      -0.344607        -9.3772
 139   2.0000      -0.269893        -7.3442
 140   2.0000      -0.240747        -6.5511
 141   2.0000      -0.231557        -6.3010
 142   2.0000      -0.214370        -5.8333
 143   1.0000      -0.153003        -4.1634
 144   1.0000      -0.151477        -4.1219
 145   1.0000      -0.153661        -4.1813
 146   1.0000      -0.147504        -4.0138
 147   1.0000      -0.155366        -4.2277
 148   0.0000      -0.056460        -1.5364
 149   0.0000      -0.021443        -0.5835
 150   0.0000      -0.011315        -0.3079
 151   0.0000       0.011417         0.3107
 152   0.0000       0.015913         0.4330

MULLIKEN ATOMIC CHARGES AND SPIN DENSITIES
------------------------------------------
   0 Au:    0.502849    0.008530
   1 Au:    0.442418    0.004381
   2 Au:   -0.077570    0.012904
   3 Au:   -0.096205    0.010144
   4 Au:   -0.051258    0.010346
   5 Au:    0.517157    0.008481
   6 Au:   -0.062466    0.010449
   7 Au:    0.443009    0.004347
   8 Au:    0.538861    0.007836
   9 Au:   -0.093859    0.010103
  10 Au:    0.531218    0.007956
  11 Au:    0.182905    0.009971
  12 Au:   -0.080991    0.012886
  13 Au:    0.186884    0.009887
  14 Mn:   -2.882952    3.871780
Sum of atomic charges       :    0.0000000

LOEWDIN ATOMIC CHARGES AND SPIN DENSITIES
-----------------------------------------
   0 Au:    0.115408    0.011913
   1 Au:    0.148494    0.005675
   2 Au:   -0.065121    0.015408
   3 Au:   -0.054311    0.012855
   4 Au:   -0.033937    0.014597
   5 Au:    0.116283    0.011942
   6 Au:   -0.031483    0.014644
   7 Au:    0.151219    0.005645
   8 Au:    0.041614    0.012292
   9 Au:   -0.055606    0.012816
  10 Au:    0.043488    0.012382
  11 Au:    0.057711    0.012860
  12 Au:   -0.065878    0.015403
  13 Au:    0.054036    0.012804
  14 Mn:   -0.421917    3.828764

  Mayer bond orders larger than 0.100000
B(  0-Au,  8-Au) :   0.1959 B(  0-Au,  9-Au) :   0.1598 B(  0-Au, 14-Mn) :   0.3887
B(  1-Au,  2-Au) :   0.2852 B(  1-Au,  3-Au) :   0.2453 B(  1-Au,  4-Au) :   0.3523
B(  2-Au,  3-Au) :   0.1448 B(  2-Au,  4-Au) :   0.1896 B(  2-Au,  8-Au) :   0.2111
B(  2-Au, 11-Au) :   0.1335 B(  2-Au, 14-Mn) :   0.4766 B(  3-Au,  4-Au) :   0.1984
B(  3-Au,  5-Au) :   0.1653 B(  3-Au, 10-Au) :   0.2211 B(  3-Au, 11-Au) :   0.1228
B(  3-Au, 14-Mn) :   0.4055 B(  4-Au,  6-Au) :   0.4109 B(  4-Au, 14-Mn) :   0.3980
B(  5-Au, 10-Au) :   0.1955 B(  5-Au, 14-Mn) :   0.3783 B(  6-Au,  7-Au) :   0.3541
B(  6-Au,  9-Au) :   0.1961 B(  6-Au, 12-Au) :   0.1902 B(  6-Au, 14-Mn) :   0.4010
B(  7-Au,  9-Au) :   0.2433 B(  7-Au, 12-Au) :   0.2879 B(  8-Au,  9-Au) :   0.2251
B(  8-Au, 11-Au) :   0.1128 B(  8-Au, 14-Mn) :   0.3033 B(  9-Au, 12-Au) :   0.1457
B(  9-Au, 13-Au) :   0.1263 B(  9-Au, 14-Mn) :   0.4047 B( 10-Au, 12-Au) :   0.2263
B( 10-Au, 13-Au) :   0.1072 B( 10-Au, 14-Mn) :   0.3104 B( 11-Au, 13-Au) :   0.1712
B( 11-Au, 14-Mn) :   0.4611 B( 12-Au, 13-Au) :   0.1358 B( 12-Au, 14-Mn) :   0.4761
B( 13-Au, 14-Mn) :   0.4598

FINAL SINGLE POINT ENERGY     -3044.121835185289

DIPOLE MOMENT
-------------
                                X             Y             Z
Electronic contribution:     -1.78011       4.88508       4.63497
Nuclear contribution   :      1.68145      -4.61062      -4.39016
                        -----------------------------------------
Total Dipole Moment    :     -0.09867       0.27446       0.24481
                        -----------------------------------------
Magnitude (a.u.)       :      0.38078
Magnitude (Debye)      :      0.96787

Rotational constants in cm-1:     0.001289     0.000947     0.000895
Rotational constants in MHz :    38.631379    28.378572    26.819080

                             ****ORCA TERMINATED NORMALLY****
TOTAL RUN TIME: 0 days 1 hours 20 minutes 54 seconds 204 msec
