                         Program Version 5.0.3 -  RELEASE  -
|  1> %pal nprocs 1 end
|  2>
|  3> !PBE def2-TZVP OPT UNO
|  4> !SLOWCONV
|  5>
|  6> *xyzfile 0 4 2.xyz                           ****END OF INPUT****
 Total Charge           Charge          ....    0
 Multiplicity           Mult            ....    4
 Number of Electrons    NEL             ....  311
FINAL SINGLE POINT ENERGY     -3300.905759621089
FINAL SINGLE POINT ENERGY     -3300.908242446221
FINAL SINGLE POINT ENERGY     -3300.908660069513
FINAL SINGLE POINT ENERGY     -3300.909057255431
FINAL SINGLE POINT ENERGY     -3300.909334388620
FINAL SINGLE POINT ENERGY     -3300.909625579560
FINAL SINGLE POINT ENERGY     -3300.909911325990
FINAL SINGLE POINT ENERGY     -3300.910084746925
FINAL SINGLE POINT ENERGY     -3300.910216636474
FINAL SINGLE POINT ENERGY     -3300.910292591738
FINAL SINGLE POINT ENERGY     -3300.910332029976
FINAL SINGLE POINT ENERGY     -3300.910346890719
FINAL SINGLE POINT ENERGY     -3300.910353507459
                    ***********************HURRAY********************

CARTESIAN COORDINATES (ANGSTROEM)
---------------------------------
  Au     6.996652    6.242643    6.577969
  Au     6.476721    9.158562    6.198806
  Au     4.468422    7.340167    6.650590
  Au     8.855043    7.890546    5.300338
  Au     3.206193    7.333379    9.196767
  Au     9.032568   10.385194    6.457094
  Au     4.847955    9.451047    8.501224
  Au     7.203660   10.709497    8.577388
  Au     5.654646    7.574317   10.456653
  Au     5.279808    5.474222    8.595566
  Au     7.828970    6.069785    9.436645
  Au     9.918943   10.153427    9.083280
  Au     8.062392    8.719859   10.652554
  Au    10.320847    7.443085    9.544989
  Au     9.685320    5.995398    7.286583
  Fe     8.299478    8.263075    7.955072

 Multiplicity           Mult            ....    4
 Number of Electrons    NEL             ....  311
 Basis Dimension        Dim             ....  645

ORBITAL ENERGIES
----------------
                 SPIN UP ORBITALS
  NO   OCC          E(Eh)            E(eV)
   0   1.0000    -254.752201     -6932.1598
   1   1.0000     -29.587441      -805.1152
   2   1.0000     -25.529526      -694.6937
   3   1.0000     -25.526934      -694.6232
   4   1.0000     -25.512532      -694.2313
   5   1.0000      -4.038343      -109.8889
   6   1.0000      -4.038333      -109.8886
   7   1.0000      -4.037527      -109.8667
   8   1.0000      -4.029513      -109.6486
   9   1.0000      -4.029423      -109.6462
  10   1.0000      -4.029302      -109.6429
  11   1.0000      -4.029259      -109.6417
  12   1.0000      -4.029063      -109.6364
  13   1.0000      -4.026882      -109.5770
  14   1.0000      -4.026750      -109.5734
  15   1.0000      -4.019615      -109.3793
  16   1.0000      -4.019454      -109.3749
  17   1.0000      -4.018670      -109.3536
  18   1.0000      -4.018498      -109.3489
  19   1.0000      -4.017861      -109.3316
  20   1.0000      -3.366091       -91.5960
  21   1.0000      -2.254466       -61.3472
  22   1.0000      -2.254391       -61.3451
  23   1.0000      -2.254014       -61.3348
  24   1.0000      -2.250942       -61.2512
  25   1.0000      -2.250911       -61.2504
  26   1.0000      -2.249230       -61.2047
  27   1.0000      -2.249169       -61.2030
  28   1.0000      -2.248408       -61.1823
  29   1.0000      -2.247812       -61.1661
  30   1.0000      -2.246846       -61.1398
  31   1.0000      -2.246513       -61.1307
  32   1.0000      -2.244843       -61.0853
  33   1.0000      -2.244776       -61.0835
  34   1.0000      -2.244037       -61.0634
  35   1.0000      -2.243927       -61.0604
  36   1.0000      -2.243064       -61.0369
  37   1.0000      -2.242847       -61.0310
  38   1.0000      -2.242539       -61.0226
  39   1.0000      -2.242014       -61.0083
  40   1.0000      -2.241889       -61.0049
  41   1.0000      -2.241083       -60.9830
  42   1.0000      -2.240531       -60.9679
  43   1.0000      -2.239629       -60.9434
  44   1.0000      -2.239586       -60.9422
  45   1.0000      -2.239334       -60.9354
  46   1.0000      -2.238661       -60.9171
  47   1.0000      -2.238137       -60.9028
  48   1.0000      -2.237319       -60.8805
  49   1.0000      -2.236964       -60.8709
  50   1.0000      -2.236942       -60.8703
  51   1.0000      -2.236005       -60.8448
  52   1.0000      -2.235936       -60.8429
  53   1.0000      -2.235626       -60.8345
  54   1.0000      -2.234739       -60.8104
  55   1.0000      -2.234158       -60.7945
  56   1.0000      -2.232956       -60.7618
  57   1.0000      -2.232064       -60.7375
  58   1.0000      -2.231489       -60.7219
  59   1.0000      -2.230694       -60.7003
  60   1.0000      -2.230172       -60.6861
  61   1.0000      -2.230059       -60.6830
  62   1.0000      -2.228942       -60.6526
  63   1.0000      -2.228349       -60.6365
  64   1.0000      -2.226925       -60.5977
  65   1.0000      -2.225407       -60.5564
  66   1.0000      -2.193298       -59.6827
  67   1.0000      -2.188468       -59.5512
  68   1.0000      -2.158190       -58.7273
  69   1.0000      -0.434999       -11.8369
  70   1.0000      -0.392055       -10.6684
  71   1.0000      -0.391811       -10.6617
  72   1.0000      -0.388519       -10.5721
  73   1.0000      -0.382788       -10.4162
  74   1.0000      -0.381750       -10.3880
  75   1.0000      -0.366247        -9.9661
  76   1.0000      -0.365416        -9.9435
  77   1.0000      -0.364205        -9.9105
  78   1.0000      -0.362436        -9.8624
  79   1.0000      -0.360618        -9.8129
  80   1.0000      -0.359732        -9.7888
  81   1.0000      -0.357163        -9.7189
  82   1.0000      -0.354869        -9.6565
  83   1.0000      -0.352860        -9.6018
  84   1.0000      -0.351553        -9.5663
  85   1.0000      -0.346875        -9.4389
  86   1.0000      -0.346492        -9.4285
  87   1.0000      -0.342396        -9.3171
  88   1.0000      -0.338249        -9.2042
  89   1.0000      -0.336792        -9.1646
  90   1.0000      -0.336729        -9.1629
  91   1.0000      -0.333061        -9.0630
  92   1.0000      -0.332654        -9.0520
  93   1.0000      -0.332002        -9.0342
  94   1.0000      -0.330487        -8.9930
  95   1.0000      -0.329003        -8.9526
  96   1.0000      -0.325397        -8.8545
  97   1.0000      -0.323854        -8.8125
  98   1.0000      -0.321401        -8.7458
  99   1.0000      -0.321033        -8.7358
 100   1.0000      -0.318611        -8.6699
 101   1.0000      -0.318363        -8.6631
 102   1.0000      -0.316386        -8.6093
 103   1.0000      -0.310596        -8.4517
 104   1.0000      -0.308184        -8.3861
 105   1.0000      -0.303859        -8.2684
 106   1.0000      -0.302951        -8.2437
 107   1.0000      -0.300952        -8.1893
 108   1.0000      -0.299761        -8.1569
 109   1.0000      -0.296786        -8.0760
 110   1.0000      -0.291707        -7.9378
 111   1.0000      -0.290556        -7.9064
 112   1.0000      -0.288960        -7.8630
 113   1.0000      -0.288906        -7.8615
 114   1.0000      -0.284600        -7.7444
 115   1.0000      -0.282577        -7.6893
 116   1.0000      -0.280561        -7.6344
 117   1.0000      -0.278081        -7.5670
 118   1.0000      -0.276800        -7.5321
 119   1.0000      -0.275956        -7.5091
 120   1.0000      -0.275742        -7.5033
 121   1.0000      -0.272802        -7.4233
 122   1.0000      -0.272453        -7.4138
 123   1.0000      -0.271542        -7.3890
 124   1.0000      -0.271307        -7.3826
 125   1.0000      -0.269728        -7.3397
 126   1.0000      -0.268573        -7.3082
 127   1.0000      -0.267934        -7.2909
 128   1.0000      -0.265882        -7.2350
 129   1.0000      -0.265288        -7.2189
 130   1.0000      -0.262980        -7.1560
 131   1.0000      -0.261166        -7.1067
 132   1.0000      -0.260809        -7.0970
 133   1.0000      -0.256692        -6.9849
 134   1.0000      -0.253814        -6.9066
 135   1.0000      -0.253256        -6.8915
 136   1.0000      -0.253200        -6.8899
 137   1.0000      -0.252382        -6.8677
 138   1.0000      -0.251264        -6.8372
 139   1.0000      -0.249742        -6.7958
 140   1.0000      -0.249619        -6.7925
 141   1.0000      -0.249154        -6.7798
 142   1.0000      -0.248513        -6.7624
 143   1.0000      -0.248184        -6.7534
 144   1.0000      -0.245945        -6.6925
 145   1.0000      -0.245438        -6.6787
 146   1.0000      -0.243321        -6.6211
 147   1.0000      -0.242097        -6.5878
 148   1.0000      -0.241219        -6.5639
 149   1.0000      -0.238813        -6.4984
 150   1.0000      -0.237707        -6.4683
 151   1.0000      -0.236036        -6.4229
 152   1.0000      -0.229250        -6.2382
 153   1.0000      -0.221092        -6.0162
 154   1.0000      -0.209606        -5.7037
 155   1.0000      -0.208333        -5.6690
 156   1.0000      -0.196162        -5.3378
 157   0.0000      -0.188374        -5.1259
 158   0.0000      -0.142118        -3.8672
 159   0.0000      -0.140091        -3.8121
 160   0.0000      -0.136796        -3.7224
 161   0.0000      -0.129130        -3.5138

                 SPIN DOWN ORBITALS
  NO   OCC          E(Eh)            E(eV)
   0   1.0000    -254.751545     -6932.1420
   1   1.0000     -29.530511      -803.5660
   2   1.0000     -25.484015      -693.4553
   3   1.0000     -25.482478      -693.4135
   4   1.0000     -25.473562      -693.1709
   5   1.0000      -4.037889      -109.8765
   6   1.0000      -4.037865      -109.8759
   7   1.0000      -4.037106      -109.8553
   8   1.0000      -4.029239      -109.6412
   9   1.0000      -4.029068      -109.6365
  10   1.0000      -4.029006      -109.6348
  11   1.0000      -4.028757      -109.6281
  12   1.0000      -4.028556      -109.6226
  13   1.0000      -4.026549      -109.5680
  14   1.0000      -4.026418      -109.5644
  15   1.0000      -4.019577      -109.3783
  16   1.0000      -4.019410      -109.3737
  17   1.0000      -4.018742      -109.3555
  18   1.0000      -4.018572      -109.3509
  19   1.0000      -4.017860      -109.3315
  20   1.0000      -3.236757       -88.0766
  21   1.0000      -2.253938       -61.3328
  22   1.0000      -2.253808       -61.3292
  23   1.0000      -2.253566       -61.3226
  24   1.0000      -2.250134       -61.2293
  25   1.0000      -2.250027       -61.2264
  26   1.0000      -2.249013       -61.1988
  27   1.0000      -2.248836       -61.1939
  28   1.0000      -2.247731       -61.1639
  29   1.0000      -2.247706       -61.1632
  30   1.0000      -2.246205       -61.1223
  31   1.0000      -2.245973       -61.1160
  32   1.0000      -2.244155       -61.0666
  33   1.0000      -2.244110       -61.0653
  34   1.0000      -2.243609       -61.0517
  35   1.0000      -2.243524       -61.0494
  36   1.0000      -2.242702       -61.0270
  37   1.0000      -2.242061       -61.0096
  38   1.0000      -2.241885       -61.0048
  39   1.0000      -2.241492       -60.9941
  40   1.0000      -2.241438       -60.9926
  41   1.0000      -2.240759       -60.9741
  42   1.0000      -2.240546       -60.9684
  43   1.0000      -2.239470       -60.9391
  44   1.0000      -2.239454       -60.9386
  45   1.0000      -2.239080       -60.9285
  46   1.0000      -2.238501       -60.9127
  47   1.0000      -2.238024       -60.8997
  48   1.0000      -2.237172       -60.8766
  49   1.0000      -2.236906       -60.8693
  50   1.0000      -2.236253       -60.8515
  51   1.0000      -2.235954       -60.8434
  52   1.0000      -2.235621       -60.8343
  53   1.0000      -2.235268       -60.8247
  54   1.0000      -2.234752       -60.8107
  55   1.0000      -2.234118       -60.7934
  56   1.0000      -2.232939       -60.7614
  57   1.0000      -2.232100       -60.7385
  58   1.0000      -2.231510       -60.7225
  59   1.0000      -2.230745       -60.7017
  60   1.0000      -2.230232       -60.6877
  61   1.0000      -2.230023       -60.6820
  62   1.0000      -2.228879       -60.6509
  63   1.0000      -2.228290       -60.6348
  64   1.0000      -2.227037       -60.6007
  65   1.0000      -2.225505       -60.5591
  66   1.0000      -2.059530       -56.0427
  67   1.0000      -2.057883       -55.9978
  68   1.0000      -2.042724       -55.5854
  69   1.0000      -0.431034       -11.7290
  70   1.0000      -0.391648       -10.6573
  71   1.0000      -0.391099       -10.6423
  72   1.0000      -0.387713       -10.5502
  73   1.0000      -0.377091       -10.2612
  74   1.0000      -0.373880       -10.1738
  75   1.0000      -0.365388        -9.9427
  76   1.0000      -0.364193        -9.9102
  77   1.0000      -0.362117        -9.8537
  78   1.0000      -0.361956        -9.8493
  79   1.0000      -0.360240        -9.8026
  80   1.0000      -0.355465        -9.6727
  81   1.0000      -0.354272        -9.6402
  82   1.0000      -0.353104        -9.6084
  83   1.0000      -0.350982        -9.5507
  84   1.0000      -0.349731        -9.5167
  85   1.0000      -0.345523        -9.4022
  86   1.0000      -0.344408        -9.3718
  87   1.0000      -0.341149        -9.2831
  88   1.0000      -0.336899        -9.1675
  89   1.0000      -0.336347        -9.1525
  90   1.0000      -0.335872        -9.1396
  91   1.0000      -0.332547        -9.0491
  92   1.0000      -0.332276        -9.0417
  93   1.0000      -0.331315        -9.0155
  94   1.0000      -0.328797        -8.9470
  95   1.0000      -0.326584        -8.8868
  96   1.0000      -0.323278        -8.7968
  97   1.0000      -0.323221        -8.7953
  98   1.0000      -0.321555        -8.7500
  99   1.0000      -0.318867        -8.6768
 100   1.0000      -0.316694        -8.6177
 101   1.0000      -0.314506        -8.5582
 102   1.0000      -0.307616        -8.3707
 103   1.0000      -0.307542        -8.3686
 104   1.0000      -0.303209        -8.2507
 105   1.0000      -0.301823        -8.2130
 106   1.0000      -0.301048        -8.1919
 107   1.0000      -0.299050        -8.1376
 108   1.0000      -0.293528        -7.9873
 109   1.0000      -0.292683        -7.9643
 110   1.0000      -0.290317        -7.8999
 111   1.0000      -0.288039        -7.8379
 112   1.0000      -0.287261        -7.8168
 113   1.0000      -0.286926        -7.8077
 114   1.0000      -0.283509        -7.7147
 115   1.0000      -0.280671        -7.6374
 116   1.0000      -0.279555        -7.6071
 117   1.0000      -0.277220        -7.5435
 118   1.0000      -0.276330        -7.5193
 119   1.0000      -0.274918        -7.4809
 120   1.0000      -0.274878        -7.4798
 121   1.0000      -0.271955        -7.4003
 122   1.0000      -0.271615        -7.3910
 123   1.0000      -0.270021        -7.3476
 124   1.0000      -0.269859        -7.3432
 125   1.0000      -0.268979        -7.3193
 126   1.0000      -0.268165        -7.2971
 127   1.0000      -0.266797        -7.2599
 128   1.0000      -0.265081        -7.2132
 129   1.0000      -0.264744        -7.2040
 130   1.0000      -0.262276        -7.1369
 131   1.0000      -0.260313        -7.0835
 132   1.0000      -0.260247        -7.0817
 133   1.0000      -0.255611        -6.9555
 134   1.0000      -0.253782        -6.9058
 135   1.0000      -0.251386        -6.8406
 136   1.0000      -0.250972        -6.8293
 137   1.0000      -0.249627        -6.7927
 138   1.0000      -0.249312        -6.7841
 139   1.0000      -0.248778        -6.7696
 140   1.0000      -0.248597        -6.7647
 141   1.0000      -0.248263        -6.7556
 142   1.0000      -0.245064        -6.6685
 143   1.0000      -0.241968        -6.5843
 144   1.0000      -0.241637        -6.5753
 145   1.0000      -0.238085        -6.4786
 146   1.0000      -0.236223        -6.4280
 147   1.0000      -0.229741        -6.2516
 148   1.0000      -0.223804        -6.0900
 149   1.0000      -0.214479        -5.8363
 150   1.0000      -0.211339        -5.7508
 151   1.0000      -0.206945        -5.6313
 152   1.0000      -0.205190        -5.5835
 153   1.0000      -0.180967        -4.9244
 154   0.0000      -0.160430        -4.3655
 155   0.0000      -0.159601        -4.3430
 156   0.0000      -0.154588        -4.2066
 157   0.0000      -0.152116        -4.1393
 158   0.0000      -0.134115        -3.6495

MULLIKEN ATOMIC CHARGES AND SPIN POPULATIONS
--------------------------------------------
   0 Au:   -0.239737   -0.055466
   1 Au:   -0.056688   -0.044274
   2 Au:    0.263337    0.051771
   3 Au:    0.325971    0.021121
   4 Au:    0.369584   -0.019241
   5 Au:    0.374549   -0.036217
   6 Au:   -0.152524    0.025388
   7 Au:    0.131268    0.033124
   8 Au:   -0.141215    0.025697
   9 Au:    0.268781    0.051996
  10 Au:   -0.061150   -0.046002
  11 Au:    0.354378   -0.012101
  12 Au:    0.126149    0.030410
  13 Au:    0.374168   -0.036188
  14 Au:    0.324666    0.023555
  15 Fe:   -2.261538    2.986425
Sum of atomic charges         :   -0.0000000

LOEWDIN ATOMIC CHARGES AND SPIN POPULATIONS
-------------------------------------------
   0 Au:   -0.022562   -0.011998
   1 Au:    0.011353   -0.004006
   2 Au:    0.002364    0.030967
   3 Au:    0.101921   -0.029429
   4 Au:    0.076373   -0.000762
   5 Au:    0.093506   -0.024478
   6 Au:   -0.045826    0.005279
   7 Au:    0.038719    0.004115
   8 Au:   -0.045321    0.005387
   9 Au:    0.003835    0.031383
  10 Au:    0.010340   -0.004719
  11 Au:    0.088283   -0.020014
  12 Au:    0.039036    0.003489
  13 Au:    0.093709   -0.024804
  14 Au:    0.101579   -0.028794
  15 Fe:   -0.547310    3.068382

  Mayer bond orders larger than 0.100000
B(  0-Au,  1-Au) :   0.2107 B(  0-Au,  2-Au) :   0.3214 B(  0-Au,  3-Au) :   0.2446
B(  0-Au,  9-Au) :   0.3217 B(  0-Au, 10-Au) :   0.2136 B(  0-Au, 14-Au) :   0.2463
B(  0-Au, 15-Fe) :   0.4663 B(  1-Au,  2-Au) :   0.3601 B(  1-Au,  3-Au) :   0.1973
B(  1-Au,  5-Au) :   0.2210 B(  1-Au,  6-Au) :   0.2632 B(  1-Au,  7-Au) :   0.1114
B(  1-Au, 15-Fe) :   0.4834 B(  2-Au,  4-Au) :   0.2155 B(  2-Au,  6-Au) :   0.2384
B(  2-Au,  9-Au) :   0.2278 B(  3-Au,  5-Au) :   0.2059 B(  3-Au, 14-Au) :   0.1221
B(  3-Au, 15-Fe) :   0.4525 B(  4-Au,  6-Au) :   0.3573 B(  4-Au,  8-Au) :   0.3564
B(  4-Au,  9-Au) :   0.2114 B(  5-Au,  7-Au) :   0.2010 B(  5-Au, 11-Au) :   0.2166
B(  5-Au, 15-Fe) :   0.4433 B(  6-Au,  7-Au) :   0.4616 B(  6-Au,  8-Au) :   0.3011
B(  6-Au, 15-Fe) :   0.1694 B(  7-Au, 11-Au) :   0.1926 B(  7-Au, 15-Fe) :   0.4836
B(  8-Au,  9-Au) :   0.2384 B(  8-Au, 10-Au) :   0.2644 B(  8-Au, 12-Au) :   0.4597
B(  8-Au, 15-Fe) :   0.1661 B(  9-Au, 10-Au) :   0.3570 B( 10-Au, 12-Au) :   0.1154
B( 10-Au, 13-Au) :   0.2215 B( 10-Au, 14-Au) :   0.1976 B( 10-Au, 15-Fe) :   0.4819
B( 11-Au, 12-Au) :   0.1909 B( 11-Au, 13-Au) :   0.2182 B( 11-Au, 15-Fe) :   0.4294
B( 12-Au, 13-Au) :   0.2003 B( 12-Au, 15-Fe) :   0.4874 B( 13-Au, 14-Au) :   0.2035
B( 13-Au, 15-Fe) :   0.4427 B( 14-Au, 15-Fe) :   0.4519

FINAL SINGLE POINT ENERGY     -3300.910358007172

DIPOLE MOMENT
-------------
                                X             Y             Z
Electronic contribution:    -42.03130     -10.22609       7.94391
Nuclear contribution   :     42.44490      10.20724      -8.13105
                        -----------------------------------------
Total Dipole Moment    :      0.41359      -0.01885      -0.18715
                        -----------------------------------------
Magnitude (a.u.)       :      0.45435
Magnitude (Debye)      :      1.15487

Rotational constants in cm-1:     0.001142     0.000799     0.000798
Rotational constants in MHz :    34.233962    23.956043    23.928115

                             ****ORCA TERMINATED NORMALLY****
TOTAL RUN TIME: 0 days 3 hours 7 minutes 28 seconds 856 msec
