                         Program Version 5.0.3 -  RELEASE  -
|  1> %pal nprocs 1 end
|  2>
|  3> !PBE def2-TZVP OPT UNO
|  4> !SLOWCONV KDIIS
|  5>
|  6> %geom maxiter 300 end
|  7>
|  8> *xyzfile 0 6 2.xyz                           ****END OF INPUT****
 Total Charge           Charge          ....    0
 Multiplicity           Mult            ....    6
 Number of Electrons    NEL             ....  291
FINAL SINGLE POINT ENERGY     -3052.332253935009
FINAL SINGLE POINT ENERGY     -3052.339841786990
FINAL SINGLE POINT ENERGY     -3052.344700710203
FINAL SINGLE POINT ENERGY     -3052.347275605937
FINAL SINGLE POINT ENERGY     -3052.349124581735
FINAL SINGLE POINT ENERGY     -3052.350641791389
FINAL SINGLE POINT ENERGY     -3052.351891145609
FINAL SINGLE POINT ENERGY     -3052.352854628479
FINAL SINGLE POINT ENERGY     -3052.353692824538
FINAL SINGLE POINT ENERGY     -3052.354641531111
FINAL SINGLE POINT ENERGY     -3052.368536376455
FINAL SINGLE POINT ENERGY     -3052.368358929302
FINAL SINGLE POINT ENERGY     -3052.368582426839
FINAL SINGLE POINT ENERGY     -3052.368382688987
FINAL SINGLE POINT ENERGY     -3052.368637747032
FINAL SINGLE POINT ENERGY     -3052.368644943408
FINAL SINGLE POINT ENERGY     -3052.368655454449
FINAL SINGLE POINT ENERGY     -3052.368659810174
FINAL SINGLE POINT ENERGY     -3052.368661457740
                    ***********************HURRAY********************

CARTESIAN COORDINATES (ANGSTROEM)
---------------------------------
  Au     9.999113    9.213203    9.693395
  Au     9.112231    9.340542    5.895819
  Au     7.937514    5.951040   10.223289
  Au     5.285767    9.422539    8.797638
  Au     5.380812    6.974239   10.214465
  Au     7.411910    8.823627   10.439638
  Au     7.944600   10.425135    8.207311
  Au    10.489542    6.523246    9.467348
  Au     8.911483    4.914423    7.798995
  Au     6.111525    4.882478    8.455595
  Au     4.712821    7.068535    7.345973
  Au     6.455320    8.953650    6.348186
  Au     9.608310    6.648537    5.709457
  Au     6.976726    6.080958    6.126237
  Mn     8.429976    7.674876    8.002825

 Multiplicity           Mult            ....    6
 Number of Electrons    NEL             ....  291
 Basis Dimension        Dim             ....  605

ORBITAL ENERGIES
----------------
                 SPIN UP ORBITALS
  NO   OCC          E(Eh)            E(eV)
   0   1.0000    -234.209289     -6373.1588
   1   1.0000     -26.902485      -732.0538
   2   1.0000     -23.052331      -627.2858
   3   1.0000     -23.050399      -627.2332
   4   1.0000     -23.049346      -627.2046
   5   1.0000      -4.036473      -109.8380
   6   1.0000      -4.036177      -109.8300
   7   1.0000      -4.035822      -109.8203
   8   1.0000      -4.035789      -109.8194
   9   1.0000      -4.031384      -109.6995
  10   1.0000      -4.031184      -109.6941
  11   1.0000      -4.026463      -109.5656
  12   1.0000      -4.026435      -109.5649
  13   1.0000      -4.026266      -109.5603
  14   1.0000      -4.026243      -109.5596
  15   1.0000      -4.024410      -109.5098
  16   1.0000      -4.024317      -109.5072
  17   1.0000      -4.022257      -109.4512
  18   1.0000      -4.021692      -109.4358
  19   1.0000      -3.115712       -84.7828
  20   1.0000      -2.252895       -61.3044
  21   1.0000      -2.252608       -61.2966
  22   1.0000      -2.252262       -61.2872
  23   1.0000      -2.252138       -61.2838
  24   1.0000      -2.248804       -61.1931
  25   1.0000      -2.248596       -61.1874
  26   1.0000      -2.248348       -61.1807
  27   1.0000      -2.248123       -61.1745
  28   1.0000      -2.247884       -61.1680
  29   1.0000      -2.247821       -61.1663
  30   1.0000      -2.246727       -61.1366
  31   1.0000      -2.246605       -61.1332
  32   1.0000      -2.244694       -61.0812
  33   1.0000      -2.244575       -61.0780
  34   1.0000      -2.243917       -61.0601
  35   1.0000      -2.243708       -61.0544
  36   1.0000      -2.243153       -61.0393
  37   1.0000      -2.243081       -61.0373
  38   1.0000      -2.242115       -61.0111
  39   1.0000      -2.242083       -61.0102
  40   1.0000      -2.241470       -60.9935
  41   1.0000      -2.241440       -60.9927
  42   1.0000      -2.240358       -60.9632
  43   1.0000      -2.240122       -60.9568
  44   1.0000      -2.240015       -60.9539
  45   1.0000      -2.239623       -60.9432
  46   1.0000      -2.239079       -60.9284
  47   1.0000      -2.238474       -60.9120
  48   1.0000      -2.237038       -60.8729
  49   1.0000      -2.237001       -60.8719
  50   1.0000      -2.236634       -60.8619
  51   1.0000      -2.236341       -60.8539
  52   1.0000      -2.236287       -60.8525
  53   1.0000      -2.236065       -60.8464
  54   1.0000      -2.235625       -60.8345
  55   1.0000      -2.235610       -60.8340
  56   1.0000      -2.235346       -60.8268
  57   1.0000      -2.235260       -60.8245
  58   1.0000      -2.234058       -60.7918
  59   1.0000      -2.232851       -60.7590
  60   1.0000      -2.232415       -60.7471
  61   1.0000      -2.231848       -60.7317
  62   1.0000      -2.021547       -55.0091
  63   1.0000      -2.017683       -54.9039
  64   1.0000      -2.015755       -54.8515
  65   1.0000      -0.429262       -11.6808
  66   1.0000      -0.389514       -10.5992
  67   1.0000      -0.386488       -10.5169
  68   1.0000      -0.384891       -10.4734
  69   1.0000      -0.379655       -10.3309
  70   1.0000      -0.369229       -10.0472
  71   1.0000      -0.368136       -10.0175
  72   1.0000      -0.365150        -9.9362
  73   1.0000      -0.363810        -9.8998
  74   1.0000      -0.361218        -9.8293
  75   1.0000      -0.359425        -9.7805
  76   1.0000      -0.359199        -9.7743
  77   1.0000      -0.355984        -9.6868
  78   1.0000      -0.355552        -9.6750
  79   1.0000      -0.353837        -9.6284
  80   1.0000      -0.350068        -9.5258
  81   1.0000      -0.346153        -9.4193
  82   1.0000      -0.345287        -9.3957
  83   1.0000      -0.344913        -9.3856
  84   1.0000      -0.342815        -9.3285
  85   1.0000      -0.340403        -9.2628
  86   1.0000      -0.336383        -9.1534
  87   1.0000      -0.334939        -9.1142
  88   1.0000      -0.333958        -9.0875
  89   1.0000      -0.333565        -9.0768
  90   1.0000      -0.326353        -8.8805
  91   1.0000      -0.325376        -8.8539
  92   1.0000      -0.325187        -8.8488
  93   1.0000      -0.322918        -8.7870
  94   1.0000      -0.318124        -8.6566
  95   1.0000      -0.312789        -8.5114
  96   1.0000      -0.311980        -8.4894
  97   1.0000      -0.311028        -8.4635
  98   1.0000      -0.309943        -8.4340
  99   1.0000      -0.308168        -8.3857
 100   1.0000      -0.307072        -8.3558
 101   1.0000      -0.303730        -8.2649
 102   1.0000      -0.299027        -8.1369
 103   1.0000      -0.297945        -8.1075
 104   1.0000      -0.297028        -8.0826
 105   1.0000      -0.295351        -8.0369
 106   1.0000      -0.290078        -7.8934
 107   1.0000      -0.289420        -7.8755
 108   1.0000      -0.286063        -7.7842
 109   1.0000      -0.282938        -7.6991
 110   1.0000      -0.280838        -7.6420
 111   1.0000      -0.279545        -7.6068
 112   1.0000      -0.276036        -7.5113
 113   1.0000      -0.275508        -7.4969
 114   1.0000      -0.275350        -7.4926
 115   1.0000      -0.273932        -7.4541
 116   1.0000      -0.272674        -7.4198
 117   1.0000      -0.271089        -7.3767
 118   1.0000      -0.268177        -7.2975
 119   1.0000      -0.265380        -7.2214
 120   1.0000      -0.264710        -7.2031
 121   1.0000      -0.263317        -7.1652
 122   1.0000      -0.261656        -7.1200
 123   1.0000      -0.261003        -7.1023
 124   1.0000      -0.260281        -7.0826
 125   1.0000      -0.258728        -7.0403
 126   1.0000      -0.257890        -7.0176
 127   1.0000      -0.257719        -7.0129
 128   1.0000      -0.255380        -6.9492
 129   1.0000      -0.254825        -6.9341
 130   1.0000      -0.254802        -6.9335
 131   1.0000      -0.251398        -6.8409
 132   1.0000      -0.250942        -6.8285
 133   1.0000      -0.250394        -6.8136
 134   1.0000      -0.249701        -6.7947
 135   1.0000      -0.249005        -6.7758
 136   1.0000      -0.248928        -6.7737
 137   1.0000      -0.247774        -6.7423
 138   1.0000      -0.245670        -6.6850
 139   1.0000      -0.244755        -6.6601
 140   1.0000      -0.242180        -6.5901
 141   1.0000      -0.241784        -6.5793
 142   1.0000      -0.241606        -6.5744
 143   1.0000      -0.233090        -6.3427
 144   1.0000      -0.212921        -5.7939
 145   1.0000      -0.209664        -5.7053
 146   1.0000      -0.203488        -5.5372
 147   1.0000      -0.200889        -5.4665
 148   0.0000      -0.181864        -4.9488
 149   0.0000      -0.140079        -3.8117
 150   0.0000      -0.133725        -3.6388
 151   0.0000      -0.130415        -3.5488
 152   0.0000      -0.125285        -3.4092

                 SPIN DOWN ORBITALS
  NO   OCC          E(Eh)            E(eV)
   0   1.0000    -234.208566     -6373.1391
   1   1.0000     -26.833704      -730.1822
   2   1.0000     -22.999407      -625.8457
   3   1.0000     -22.998463      -625.8200
   4   1.0000     -22.997538      -625.7948
   5   1.0000      -4.035728      -109.8178
   6   1.0000      -4.035445      -109.8100
   7   1.0000      -4.035124      -109.8013
   8   1.0000      -4.035097      -109.8006
   9   1.0000      -4.030756      -109.6825
  10   1.0000      -4.030581      -109.6777
  11   1.0000      -4.025559      -109.5410
  12   1.0000      -4.025526      -109.5401
  13   1.0000      -4.025355      -109.5355
  14   1.0000      -4.025332      -109.5349
  15   1.0000      -4.024240      -109.5051
  16   1.0000      -4.024146      -109.5026
  17   1.0000      -4.022197      -109.4495
  18   1.0000      -4.021621      -109.4339
  19   1.0000      -2.946423       -80.1762
  20   1.0000      -2.252037       -61.2810
  21   1.0000      -2.251769       -61.2737
  22   1.0000      -2.251436       -61.2647
  23   1.0000      -2.251299       -61.2610
  24   1.0000      -2.247935       -61.1694
  25   1.0000      -2.247787       -61.1654
  26   1.0000      -2.247705       -61.1632
  27   1.0000      -2.247466       -61.1567
  28   1.0000      -2.247185       -61.1490
  29   1.0000      -2.247082       -61.1462
  30   1.0000      -2.245988       -61.1164
  31   1.0000      -2.245908       -61.1143
  32   1.0000      -2.243744       -61.0554
  33   1.0000      -2.243672       -61.0534
  34   1.0000      -2.243407       -61.0462
  35   1.0000      -2.243201       -61.0406
  36   1.0000      -2.242496       -61.0214
  37   1.0000      -2.242434       -61.0197
  38   1.0000      -2.240892       -60.9778
  39   1.0000      -2.240852       -60.9767
  40   1.0000      -2.240343       -60.9628
  41   1.0000      -2.240276       -60.9610
  42   1.0000      -2.240031       -60.9544
  43   1.0000      -2.239515       -60.9403
  44   1.0000      -2.239356       -60.9360
  45   1.0000      -2.239313       -60.9348
  46   1.0000      -2.238932       -60.9244
  47   1.0000      -2.238309       -60.9075
  48   1.0000      -2.236539       -60.8593
  49   1.0000      -2.236022       -60.8453
  50   1.0000      -2.235975       -60.8440
  51   1.0000      -2.235943       -60.8431
  52   1.0000      -2.235385       -60.8279
  53   1.0000      -2.235369       -60.8275
  54   1.0000      -2.235267       -60.8247
  55   1.0000      -2.235189       -60.8226
  56   1.0000      -2.234908       -60.8149
  57   1.0000      -2.234891       -60.8145
  58   1.0000      -2.233910       -60.7878
  59   1.0000      -2.232634       -60.7531
  60   1.0000      -2.232314       -60.7444
  61   1.0000      -2.231739       -60.7287
  62   1.0000      -1.853082       -50.4249
  63   1.0000      -1.852140       -50.3993
  64   1.0000      -1.850949       -50.3669
  65   1.0000      -0.422321       -11.4919
  66   1.0000      -0.387833       -10.5535
  67   1.0000      -0.385174       -10.4811
  68   1.0000      -0.379901       -10.3376
  69   1.0000      -0.372569       -10.1381
  70   1.0000      -0.366304        -9.9676
  71   1.0000      -0.362988        -9.8774
  72   1.0000      -0.362235        -9.8569
  73   1.0000      -0.361638        -9.8407
  74   1.0000      -0.360271        -9.8035
  75   1.0000      -0.357124        -9.7178
  76   1.0000      -0.356584        -9.7031
  77   1.0000      -0.355115        -9.6632
  78   1.0000      -0.352904        -9.6030
  79   1.0000      -0.351357        -9.5609
  80   1.0000      -0.349492        -9.5102
  81   1.0000      -0.344904        -9.3853
  82   1.0000      -0.344517        -9.3748
  83   1.0000      -0.341163        -9.2835
  84   1.0000      -0.337001        -9.1703
  85   1.0000      -0.336135        -9.1467
  86   1.0000      -0.334039        -9.0897
  87   1.0000      -0.333123        -9.0647
  88   1.0000      -0.329665        -8.9706
  89   1.0000      -0.326988        -8.8978
  90   1.0000      -0.324082        -8.8187
  91   1.0000      -0.322937        -8.7876
  92   1.0000      -0.322572        -8.7776
  93   1.0000      -0.321853        -8.7581
  94   1.0000      -0.312571        -8.5055
  95   1.0000      -0.312253        -8.4968
  96   1.0000      -0.311141        -8.4666
  97   1.0000      -0.306964        -8.3529
  98   1.0000      -0.306552        -8.3417
  99   1.0000      -0.303294        -8.2531
 100   1.0000      -0.302566        -8.2332
 101   1.0000      -0.300472        -8.1762
 102   1.0000      -0.296748        -8.0749
 103   1.0000      -0.293219        -7.9789
 104   1.0000      -0.293072        -7.9749
 105   1.0000      -0.289394        -7.8748
 106   1.0000      -0.285150        -7.7593
 107   1.0000      -0.284709        -7.7473
 108   1.0000      -0.281703        -7.6655
 109   1.0000      -0.280665        -7.6373
 110   1.0000      -0.278725        -7.5845
 111   1.0000      -0.276238        -7.5168
 112   1.0000      -0.273446        -7.4409
 113   1.0000      -0.273203        -7.4342
 114   1.0000      -0.272849        -7.4246
 115   1.0000      -0.272164        -7.4060
 116   1.0000      -0.268794        -7.3142
 117   1.0000      -0.268219        -7.2986
 118   1.0000      -0.264483        -7.1969
 119   1.0000      -0.264054        -7.1853
 120   1.0000      -0.262725        -7.1491
 121   1.0000      -0.260458        -7.0874
 122   1.0000      -0.259869        -7.0714
 123   1.0000      -0.259147        -7.0518
 124   1.0000      -0.257993        -7.0203
 125   1.0000      -0.257132        -6.9969
 126   1.0000      -0.254471        -6.9245
 127   1.0000      -0.253626        -6.9015
 128   1.0000      -0.252860        -6.8807
 129   1.0000      -0.250367        -6.8128
 130   1.0000      -0.249176        -6.7804
 131   1.0000      -0.248209        -6.7541
 132   1.0000      -0.248183        -6.7534
 133   1.0000      -0.247219        -6.7272
 134   1.0000      -0.244752        -6.6600
 135   1.0000      -0.244272        -6.6470
 136   1.0000      -0.242846        -6.6082
 137   1.0000      -0.241194        -6.5632
 138   1.0000      -0.232593        -6.3292
 139   1.0000      -0.219333        -5.9683
 140   1.0000      -0.214094        -5.8258
 141   1.0000      -0.212467        -5.7815
 142   1.0000      -0.207941        -5.6584
 143   0.0000      -0.183640        -4.9971
 144   0.0000      -0.144945        -3.9442
 145   0.0000      -0.138365        -3.7651
 146   0.0000      -0.138002        -3.7552
 147   0.0000      -0.135981        -3.7002

MULLIKEN ATOMIC CHARGES AND SPIN POPULATIONS
--------------------------------------------
   0 Au:    0.268799    0.074476
   1 Au:    0.269469    0.074367
   2 Au:    0.032264    0.045790
   3 Au:    0.077756    0.022361
   4 Au:    0.151187    0.066139
   5 Au:    0.033480    0.044616
   6 Au:    0.184011    0.023519
   7 Au:    0.274208    0.074029
   8 Au:    0.179247    0.023683
   9 Au:    0.073427    0.019907
  10 Au:    0.146208    0.066069
  11 Au:    0.035393    0.044420
  12 Au:    0.273304    0.074070
  13 Au:    0.037289    0.045741
  14 Mn:   -2.036041    4.300814
Sum of atomic charges         :   -0.0000000

LOEWDIN ATOMIC CHARGES AND SPIN POPULATIONS
-------------------------------------------
   0 Au:    0.095091    0.053956
   1 Au:    0.095438    0.053810
   2 Au:   -0.002661    0.045175
   3 Au:    0.002351    0.034933
   4 Au:    0.021971    0.048836
   5 Au:   -0.005082    0.043782
   6 Au:   -0.005566    0.036300
   7 Au:    0.095650    0.053502
   8 Au:   -0.007941    0.035675
   9 Au:    0.002623    0.033692
  10 Au:    0.020070    0.048696
  11 Au:   -0.004326    0.043821
  12 Au:    0.095191    0.053578
  13 Au:   -0.002039    0.044835
  14 Mn:   -0.400769    4.369407

  Mayer bond orders larger than 0.100000
B(  0-Au,  5-Au) :   0.3607 B(  0-Au,  6-Au) :   0.1954 B(  0-Au,  7-Au) :   0.2711
B(  0-Au, 14-Mn) :   0.4335 B(  1-Au,  6-Au) :   0.1971 B(  1-Au, 11-Au) :   0.3585
B(  1-Au, 12-Au) :   0.2708 B(  1-Au, 14-Mn) :   0.4337 B(  2-Au,  4-Au) :   0.3774
B(  2-Au,  5-Au) :   0.1220 B(  2-Au,  7-Au) :   0.3625 B(  2-Au,  8-Au) :   0.2092
B(  2-Au,  9-Au) :   0.3277 B(  2-Au, 14-Mn) :   0.4050 B(  3-Au,  4-Au) :   0.2294
B(  3-Au,  5-Au) :   0.3302 B(  3-Au,  6-Au) :   0.2762 B(  3-Au, 10-Au) :   0.2324
B(  3-Au, 11-Au) :   0.3287 B(  3-Au, 14-Mn) :   0.1486 B(  4-Au,  5-Au) :   0.3697
B(  4-Au,  9-Au) :   0.2283 B(  4-Au, 10-Au) :   0.1611 B(  5-Au,  6-Au) :   0.2180
B(  5-Au, 14-Mn) :   0.3949 B(  6-Au, 11-Au) :   0.2170 B(  6-Au, 14-Mn) :   0.3844
B(  7-Au,  8-Au) :   0.2003 B(  7-Au, 14-Mn) :   0.4286 B(  8-Au,  9-Au) :   0.2895
B(  8-Au, 12-Au) :   0.2005 B(  8-Au, 13-Au) :   0.2087 B(  8-Au, 14-Mn) :   0.3808
B(  9-Au, 10-Au) :   0.2314 B(  9-Au, 13-Au) :   0.3260 B(  9-Au, 14-Mn) :   0.1539
B( 10-Au, 11-Au) :   0.3705 B( 10-Au, 13-Au) :   0.3756 B( 11-Au, 13-Au) :   0.1222
B( 11-Au, 14-Mn) :   0.3968 B( 12-Au, 13-Au) :   0.3596 B( 12-Au, 14-Mn) :   0.4304
B( 13-Au, 14-Mn) :   0.4034

FINAL SINGLE POINT ENERGY     -3052.368662302566

DIPOLE MOMENT
-------------
                                X             Y             Z
Electronic contribution:    -30.14710      -5.75254       6.92776
Nuclear contribution   :     30.45745       5.80395      -6.99722
                        -----------------------------------------
Total Dipole Moment    :      0.31035       0.05141      -0.06946
                        -----------------------------------------
Magnitude (a.u.)       :      0.32216
Magnitude (Debye)      :      0.81886

Rotational constants in cm-1:     0.001075     0.001035     0.000971
Rotational constants in MHz :    32.223867    31.017240    29.114727

                             ****ORCA TERMINATED NORMALLY****
TOTAL RUN TIME: 0 days 10 hours 1 minutes 30 seconds 385 msec
