                         Program Version 5.0.3 -  RELEASE  -
|  1> !SC-NEVPT2 def2-TZVP def2-TZVP/C
|  2> !MOREAD RIJCOSX def2/J
|  3> %maxcore 4000
|  4> %moinp "casscf.gbw"
|  5> %pal nprocs 6 end
|  6>
|  7> %casscf
|  8>  mult 6,4
|  9>  bweight 1,1
| 10>  nroots 1,24
| 11>  nel 5
| 12>  norb 5
| 13>  ptsettings
| 14>   d4tpre 1e-14 # default = 1e-10
| 15>   d3tpre 1e-14
| 16>  end
| 17>  rel
| 18>    dosoc true
| 19>    gtensor true
| 20>  end
| 21> end
| 22>
| 23>
| 24> *xyzfile 0 6 pbe.xyz
| 25>
| 26>
| 27>                          ****END OF INPUT****

CARTESIAN COORDINATES (ANGSTROEM)
---------------------------------
  Au     6.837196    7.615949    9.911880
  Au     4.417591    6.789429    8.723605
  Au    10.287010    8.599494    8.331018
  Au     9.113406    6.231981    9.159394
  Au     8.989385    5.363135    6.490862
  Au     6.678935    5.326158    8.028236
  Au     5.366756    7.042984    6.151227
  Au     6.750025   11.501788    7.099356
  Au     6.554583    9.400975    5.330647
  Au    10.148166    7.733378    5.663347
  Au     9.095706   10.212060    6.345642
  Au     7.662610    6.982862    4.651806
  Au     7.999618    9.956814    9.101612
  Au     5.398829    9.317783    8.144346
  Mn     7.795998    7.845675    7.303413

 Total Charge           Charge          ....    0
 Multiplicity           Mult            ....    6
 Number of Electrons    NEL             ....  291
 Basis Dimension        Dim             ....  605

ORBITAL ENERGIES
----------------

  NO   OCC          E(Eh)            E(eV)
   0   2.0000    -240.467703     -6543.4589
   1   2.0000     -29.030558      -789.9616
   2   2.0000     -24.741402      -673.2478
   3   2.0000     -24.735122      -673.0769
   4   2.0000     -24.733270      -673.0265
   5   2.0000      -4.720156      -128.4420
   6   2.0000      -4.717949      -128.3819
   7   2.0000      -4.716446      -128.3410
   8   2.0000      -4.714276      -128.2820
   9   2.0000      -4.712818      -128.2423
  10   2.0000      -4.712640      -128.2375
  11   2.0000      -4.710927      -128.1908
  12   2.0000      -4.710767      -128.1865
  13   2.0000      -4.709659      -128.1563
  14   2.0000      -4.709547      -128.1533
  15   2.0000      -4.709446      -128.1505
  16   2.0000      -4.706646      -128.0744
  17   2.0000      -4.704178      -128.0072
  18   2.0000      -4.703948      -128.0009
  19   2.0000      -3.727933      -101.4422
  20   2.0000      -2.760250       -75.1102
  21   2.0000      -2.757691       -75.0406
  22   2.0000      -2.757103       -75.0246
  23   2.0000      -2.756960       -75.0207
  24   2.0000      -2.755908       -74.9921
  25   2.0000      -2.755275       -74.9749
  26   2.0000      -2.754029       -74.9409
  27   2.0000      -2.753039       -74.9140
  28   2.0000      -2.752424       -74.8973
  29   2.0000      -2.752135       -74.8894
  30   2.0000      -2.751735       -74.8785
  31   2.0000      -2.751308       -74.8669
  32   2.0000      -2.750860       -74.8547
  33   2.0000      -2.750560       -74.8465
  34   2.0000      -2.749896       -74.8285
  35   2.0000      -2.748587       -74.7929
  36   2.0000      -2.748263       -74.7840
  37   2.0000      -2.748184       -74.7819
  38   2.0000      -2.747673       -74.7680
  39   2.0000      -2.747260       -74.7568
  40   2.0000      -2.746354       -74.7321
  41   2.0000      -2.745989       -74.7222
  42   2.0000      -2.745827       -74.7177
  43   2.0000      -2.745558       -74.7104
  44   2.0000      -2.745493       -74.7086
  45   2.0000      -2.745305       -74.7036
  46   2.0000      -2.745132       -74.6988
  47   2.0000      -2.744503       -74.6817
  48   2.0000      -2.744291       -74.6760
  49   2.0000      -2.743941       -74.6664
  50   2.0000      -2.743822       -74.6632
  51   2.0000      -2.743223       -74.6469
  52   2.0000      -2.742860       -74.6370
  53   2.0000      -2.742321       -74.6223
  54   2.0000      -2.742282       -74.6213
  55   2.0000      -2.741765       -74.6072
  56   2.0000      -2.741026       -74.5871
  57   2.0000      -2.739121       -74.5353
  58   2.0000      -2.739074       -74.5340
  59   2.0000      -2.737407       -74.4886
  60   2.0000      -2.736976       -74.4769
  61   2.0000      -2.736121       -74.4536
  62   2.0000      -2.405240       -65.4499
  63   2.0000      -2.400377       -65.3176
  64   2.0000      -2.398643       -65.2704
  65   2.0000      -0.560932       -15.2637
  66   2.0000      -0.556210       -15.1353
  67   2.0000      -0.553133       -15.0515
  68   2.0000      -0.552280       -15.0283
  69   2.0000      -0.550895       -14.9906
  70   2.0000      -0.544988       -14.8299
  71   2.0000      -0.544207       -14.8086
  72   2.0000      -0.543784       -14.7971
  73   2.0000      -0.542956       -14.7746
  74   2.0000      -0.538360       -14.6495
  75   2.0000      -0.537137       -14.6162
  76   2.0000      -0.536938       -14.6108
  77   2.0000      -0.532641       -14.4939
  78   2.0000      -0.530477       -14.4350
  79   2.0000      -0.529877       -14.4187
  80   2.0000      -0.527717       -14.3599
  81   2.0000      -0.527215       -14.3462
  82   2.0000      -0.526940       -14.3388
  83   2.0000      -0.524197       -14.2641
  84   2.0000      -0.522327       -14.2132
  85   2.0000      -0.518083       -14.0978
  86   2.0000      -0.517221       -14.0743
  87   2.0000      -0.516518       -14.0552
  88   2.0000      -0.511393       -13.9157
  89   2.0000      -0.503954       -13.7133
  90   2.0000      -0.502974       -13.6866
  91   2.0000      -0.501289       -13.6408
  92   2.0000      -0.500204       -13.6112
  93   2.0000      -0.499447       -13.5906
  94   2.0000      -0.497208       -13.5297
  95   2.0000      -0.492228       -13.3942
  96   2.0000      -0.491486       -13.3740
  97   2.0000      -0.488800       -13.3009
  98   2.0000      -0.487603       -13.2684
  99   2.0000      -0.483665       -13.1612
 100   2.0000      -0.482120       -13.1191
 101   2.0000      -0.472992       -12.8708
 102   2.0000      -0.471607       -12.8331
 103   2.0000      -0.469317       -12.7708
 104   2.0000      -0.464641       -12.6435
 105   2.0000      -0.463339       -12.6081
 106   2.0000      -0.460296       -12.5253
 107   2.0000      -0.460009       -12.5175
 108   2.0000      -0.456767       -12.4293
 109   2.0000      -0.455199       -12.3866
 110   2.0000      -0.454534       -12.3685
 111   2.0000      -0.450823       -12.2675
 112   2.0000      -0.450162       -12.2495
 113   2.0000      -0.449104       -12.2207
 114   2.0000      -0.445616       -12.1258
 115   2.0000      -0.444131       -12.0854
 116   2.0000      -0.441498       -12.0138
 117   2.0000      -0.440881       -11.9970
 118   2.0000      -0.436418       -11.8755
 119   2.0000      -0.434460       -11.8223
 120   2.0000      -0.430609       -11.7175
 121   2.0000      -0.429799       -11.6954
 122   2.0000      -0.428325       -11.6553
 123   2.0000      -0.427187       -11.6243
 124   2.0000      -0.425236       -11.5713
 125   2.0000      -0.423254       -11.5173
 126   2.0000      -0.422319       -11.4919
 127   2.0000      -0.421311       -11.4644
 128   2.0000      -0.420302       -11.4370
 129   2.0000      -0.418127       -11.3778
 130   2.0000      -0.414979       -11.2922
 131   2.0000      -0.411524       -11.1981
 132   2.0000      -0.411298       -11.1920
 133   2.0000      -0.406547       -11.0627
 134   2.0000      -0.401942       -10.9374
 135   2.0000      -0.379106       -10.3160
 136   2.0000      -0.361057        -9.8249
 137   2.0000      -0.358202        -9.7472
 138   2.0000      -0.337318        -9.1789
 139   2.0000      -0.298041        -8.1101
 140   2.0000      -0.255203        -6.9444
 141   2.0000      -0.234327        -6.3764
 142   2.0000      -0.229575        -6.2471
 143   1.0000      -0.059933        -1.6309
 144   1.0000      -0.084411        -2.2969
 145   1.0000      -0.099543        -2.7087
 146   1.0000      -0.065339        -1.7780
 147   1.0000      -0.065303        -1.7770
 148   0.0000      -0.044713        -1.2167
 149   0.0000      -0.022709        -0.6179
 150   0.0000       0.002982         0.0811
 151   0.0000       0.005691         0.1549
 152   0.0000       0.022306         0.6070

MULLIKEN ATOMIC CHARGES AND SPIN DENSITIES
------------------------------------------
   0 Au:    0.184283    0.076024
   1 Au:    0.382227    0.039083
   2 Au:    0.257614    0.104124
   3 Au:    0.295980    0.086453
   4 Au:    0.238058    0.030899
   5 Au:    0.044989    0.046657
   6 Au:    0.104668    0.043423
   7 Au:    0.377162    0.034037
   8 Au:    0.140332    0.028808
   9 Au:    0.238837    0.024609
  10 Au:    0.035532    0.058274
  11 Au:    0.237921    0.061456
  12 Au:    0.230360    0.035401
  13 Au:   -0.270001    0.128204
  14 Mn:   -2.497962    3.202547
Sum of atomic charges       :    0.0000000

LOEWDIN ATOMIC CHARGES AND SPIN DENSITIES
-----------------------------------------
   0 Au:    0.024160    0.053947
   1 Au:    0.122553    0.062951
   2 Au:    0.080227    0.095653
   3 Au:    0.087824    0.096306
   4 Au:    0.041514    0.053977
   5 Au:    0.017741    0.037081
   6 Au:    0.022646    0.061720
   7 Au:    0.128670    0.053397
   8 Au:    0.029187    0.061457
   9 Au:    0.035874    0.060304
  10 Au:    0.014869    0.040761
  11 Au:    0.056167    0.036980
  12 Au:    0.038046    0.034860
  13 Au:   -0.069866    0.106080
  14 Mn:   -0.629610    3.144526

  Mayer bond orders larger than 0.100000
B(  0-Au,  1-Au) :   0.1376 B(  0-Au,  3-Au) :   0.1137 B(  0-Au,  5-Au) :   0.1233
B(  0-Au, 12-Au) :   0.3004 B(  0-Au, 13-Au) :   0.2343 B(  0-Au, 14-Mn) :   0.3672
B(  1-Au,  5-Au) :   0.2540 B(  1-Au,  6-Au) :   0.2329 B(  1-Au, 13-Au) :   0.3018
B(  1-Au, 14-Mn) :   0.1147 B(  2-Au,  3-Au) :   0.1805 B(  2-Au,  9-Au) :   0.1500
B(  2-Au, 10-Au) :   0.1968 B(  2-Au, 12-Au) :   0.1160 B(  2-Au, 14-Mn) :   0.3374
B(  3-Au,  4-Au) :   0.1550 B(  3-Au,  5-Au) :   0.1992 B(  3-Au, 14-Mn) :   0.3387
B(  4-Au,  5-Au) :   0.1946 B(  4-Au,  9-Au) :   0.2545 B(  4-Au, 11-Au) :   0.1889
B(  4-Au, 14-Mn) :   0.3257 B(  5-Au,  6-Au) :   0.1417 B(  5-Au, 14-Mn) :   0.3096
B(  6-Au,  8-Au) :   0.3241 B(  6-Au, 11-Au) :   0.2010 B(  6-Au, 13-Au) :   0.1728
B(  6-Au, 14-Mn) :   0.3511 B(  7-Au,  8-Au) :   0.2307 B(  7-Au, 10-Au) :   0.2571
B(  7-Au, 12-Au) :   0.1317 B(  7-Au, 13-Au) :   0.3080 B(  7-Au, 14-Mn) :   0.1156
B(  8-Au, 10-Au) :   0.1523 B(  8-Au, 11-Au) :   0.2073 B(  8-Au, 13-Au) :   0.1589
B(  8-Au, 14-Mn) :   0.3560 B(  9-Au, 10-Au) :   0.1926 B(  9-Au, 11-Au) :   0.1994
B(  9-Au, 14-Mn) :   0.3327 B( 10-Au, 12-Au) :   0.1104 B( 10-Au, 14-Mn) :   0.3072
B( 11-Au, 14-Mn) :   0.3650 B( 12-Au, 13-Au) :   0.2364 B( 12-Au, 14-Mn) :   0.3631
B( 13-Au, 14-Mn) :   0.3072

FINAL SINGLE POINT ENERGY     -3044.262152023380

DIPOLE MOMENT
-------------
                                X             Y             Z
Electronic contribution:    -10.12105       6.03009       2.66649
Nuclear contribution   :     10.02253      -5.82799      -2.30791
                        -----------------------------------------
Total Dipole Moment    :     -0.09852       0.20210       0.35859
                        -----------------------------------------
Magnitude (a.u.)       :      0.42325
Magnitude (Debye)      :      1.07580

Rotational constants in cm-1:     0.001111     0.001088     0.000934
Rotational constants in MHz :    33.306490    32.610173    27.998228

                             ****ORCA TERMINATED NORMALLY****
TOTAL RUN TIME: 0 days 1 hours 21 minutes 16 seconds 59 msec
