                         Program Version 5.0.3 -  RELEASE  -
|  1> !RI-B2PLYP def2-TZVP def2-TZVP/C
|  2> !RIJCOSX VERYSLOWCONV
|  3>
|  4> %scf
|  5>   AutoTRAHIter 200
|  6>   maxiter 400
|  7> end
|  8>
|  9>
| 10> %pal nprocs 6 end
| 11>
| 12> *xyzfile 0 6 pbe.xyz
| 13>
| 14> $new_job
| 15>
| 16> !RI-B2PLYP def2-TZVP def2-TZVP/C
| 17> !RIJCOSX VERYSLOWCONV
| 18>
| 19> %scf
| 20>   AutoTRAHIter 200
| 21>   maxiter 400
| 22> end
| 23>
| 24>
| 25> %pal nprocs 6 end
| 26>
| 27> *xyzfile 0 4 pbe.xyz
| 28>
| 29>
| 30>
| 31>
| 32>
| 33>                          ****END OF INPUT****
 Total Charge           Charge          ....    0
 Multiplicity           Mult            ....    6
 Number of Electrons    NEL             ....  253
MP2 TOTAL ENERGY:    -2777.867055474 Eh
FINAL SINGLE POINT ENERGY     -2777.867055473780

CARTESIAN COORDINATES (ANGSTROEM)
---------------------------------
  Au     8.944901    7.927900    9.955291
  Au     8.177269    6.019780    8.157838
  Au     8.855513    8.210784    5.042152
  Au     6.939903    6.376923    5.736588
  Au    10.082349    7.857294    7.470571
  Au     5.438034    6.720913    8.084176
  Au     7.828762    9.768866   11.695050
  Au     6.118568    8.560026    9.970382
  Au     6.617763   11.257988    7.102890
  Au     4.762110    9.477276    7.774173
  Au     8.308788   10.648413    9.173682
  Au     9.323976   10.457069    6.659466
  Mn     7.368725    8.601751    7.374443

 Multiplicity           Mult            ....    4
 Number of Electrons    NEL             ....  253
 Basis Dimension        Dim             ....  525

ORBITAL ENERGIES
----------------
                 SPIN UP ORBITALS
  NO   OCC          E(Eh)            E(eV)
   0   1.0000    -237.628461     -6466.1992
   1   1.0000     -28.129166      -765.4335
   2   1.0000     -24.047828      -654.3747
   3   1.0000     -24.046843      -654.3479
   4   1.0000     -24.046362      -654.3348
   5   1.0000      -4.400981      -119.7568
   6   1.0000      -4.399504      -119.7166
   7   1.0000      -4.399376      -119.7131
   8   1.0000      -4.398555      -119.6908
   9   1.0000      -4.398535      -119.6902
  10   1.0000      -4.394898      -119.5912
  11   1.0000      -4.394659      -119.5848
  12   1.0000      -4.394301      -119.5750
  13   1.0000      -4.394162      -119.5712
  14   1.0000      -4.393831      -119.5622
  15   1.0000      -4.385316      -119.3305
  16   1.0000      -4.385096      -119.3245
  17   1.0000      -3.606824       -98.1467
  18   1.0000      -2.523767       -68.6752
  19   1.0000      -2.522491       -68.6405
  20   1.0000      -2.522358       -68.6369
  21   1.0000      -2.519405       -68.5565
  22   1.0000      -2.518424       -68.5298
  23   1.0000      -2.518310       -68.5267
  24   1.0000      -2.517234       -68.4974
  25   1.0000      -2.516916       -68.4888
  26   1.0000      -2.516514       -68.4778
  27   1.0000      -2.516506       -68.4776
  28   1.0000      -2.515642       -68.4541
  29   1.0000      -2.515457       -68.4491
  30   1.0000      -2.515220       -68.4426
  31   1.0000      -2.515178       -68.4415
  32   1.0000      -2.515088       -68.4390
  33   1.0000      -2.513639       -68.3996
  34   1.0000      -2.513315       -68.3908
  35   1.0000      -2.512660       -68.3730
  36   1.0000      -2.512446       -68.3671
  37   1.0000      -2.511957       -68.3538
  38   1.0000      -2.511695       -68.3467
  39   1.0000      -2.511357       -68.3375
  40   1.0000      -2.511238       -68.3343
  41   1.0000      -2.510013       -68.3009
  42   1.0000      -2.509394       -68.2841
  43   1.0000      -2.508704       -68.2653
  44   1.0000      -2.508319       -68.2548
  45   1.0000      -2.508066       -68.2480
  46   1.0000      -2.507794       -68.2405
  47   1.0000      -2.506936       -68.2172
  48   1.0000      -2.505369       -68.1745
  49   1.0000      -2.503813       -68.1322
  50   1.0000      -2.503241       -68.1166
  51   1.0000      -2.499603       -68.0177
  52   1.0000      -2.499334       -68.0103
  53   1.0000      -2.498526       -67.9884
  54   1.0000      -2.409612       -65.5689
  55   1.0000      -2.408441       -65.5370
  56   1.0000      -2.407294       -65.5058
  57   1.0000      -0.518337       -14.1047
  58   1.0000      -0.513494       -13.9729
  59   1.0000      -0.509913       -13.8754
  60   1.0000      -0.508391       -13.8340
  61   1.0000      -0.503433       -13.6991
  62   1.0000      -0.492647       -13.4056
  63   1.0000      -0.478282       -13.0147
  64   1.0000      -0.465164       -12.6578
  65   1.0000      -0.464581       -12.6419
  66   1.0000      -0.462945       -12.5974
  67   1.0000      -0.448338       -12.1999
  68   1.0000      -0.447654       -12.1813
  69   1.0000      -0.446821       -12.1586
  70   1.0000      -0.443932       -12.0800
  71   1.0000      -0.442026       -12.0281
  72   1.0000      -0.438924       -11.9437
  73   1.0000      -0.436249       -11.8709
  74   1.0000      -0.434460       -11.8223
  75   1.0000      -0.430820       -11.7232
  76   1.0000      -0.428666       -11.6646
  77   1.0000      -0.427380       -11.6296
  78   1.0000      -0.426176       -11.5968
  79   1.0000      -0.423053       -11.5119
  80   1.0000      -0.422101       -11.4860
  81   1.0000      -0.418257       -11.3813
  82   1.0000      -0.417819       -11.3694
  83   1.0000      -0.415179       -11.2976
  84   1.0000      -0.412329       -11.2200
  85   1.0000      -0.411663       -11.2019
  86   1.0000      -0.409269       -11.1368
  87   1.0000      -0.407134       -11.0787
  88   1.0000      -0.400023       -10.8852
  89   1.0000      -0.399015       -10.8578
  90   1.0000      -0.393543       -10.7088
  91   1.0000      -0.392967       -10.6932
  92   1.0000      -0.385298       -10.4845
  93   1.0000      -0.384708       -10.4684
  94   1.0000      -0.381334       -10.3766
  95   1.0000      -0.378863       -10.3094
  96   1.0000      -0.377650       -10.2764
  97   1.0000      -0.374800       -10.1988
  98   1.0000      -0.373394       -10.1606
  99   1.0000      -0.372593       -10.1388
 100   1.0000      -0.372386       -10.1331
 101   1.0000      -0.371211       -10.1012
 102   1.0000      -0.367046        -9.9878
 103   1.0000      -0.365258        -9.9392
 104   1.0000      -0.363367        -9.8877
 105   1.0000      -0.361417        -9.8347
 106   1.0000      -0.359535        -9.7834
 107   1.0000      -0.359408        -9.7800
 108   1.0000      -0.358121        -9.7450
 109   1.0000      -0.353917        -9.6306
 110   1.0000      -0.352234        -9.5848
 111   1.0000      -0.351417        -9.5626
 112   1.0000      -0.347623        -9.4593
 113   1.0000      -0.345282        -9.3956
 114   1.0000      -0.345158        -9.3922
 115   1.0000      -0.340491        -9.2652
 116   1.0000      -0.339081        -9.2269
 117   1.0000      -0.338115        -9.2006
 118   1.0000      -0.335361        -9.1256
 119   1.0000      -0.332457        -9.0466
 120   1.0000      -0.329615        -8.9693
 121   1.0000      -0.327646        -8.9157
 122   1.0000      -0.319462        -8.6930
 123   1.0000      -0.307092        -8.3564
 124   1.0000      -0.296345        -8.0639
 125   1.0000      -0.291459        -7.9310
 126   1.0000      -0.234435        -6.3793
 127   1.0000      -0.214216        -5.8291
 128   0.0000      -0.119560        -3.2534
 129   0.0000      -0.091898        -2.5007
 130   0.0000      -0.082058        -2.2329
 131   0.0000      -0.080159        -2.1812
 132   0.0000      -0.055356        -1.5063

                 SPIN DOWN ORBITALS
  NO   OCC          E(Eh)            E(eV)
   0   1.0000    -237.626400     -6466.1431
   1   1.0000     -28.027965      -762.6797
   2   1.0000     -23.954580      -651.8373
   3   1.0000     -23.953901      -651.8188
   4   1.0000     -23.953744      -651.8145
   5   1.0000      -4.400977      -119.7567
   6   1.0000      -4.399986      -119.7297
   7   1.0000      -4.399844      -119.7259
   8   1.0000      -4.398857      -119.6990
   9   1.0000      -4.398837      -119.6984
  10   1.0000      -4.395117      -119.5972
  11   1.0000      -4.394914      -119.5917
  12   1.0000      -4.394887      -119.5910
  13   1.0000      -4.394878      -119.5907
  14   1.0000      -4.394546      -119.5817
  15   1.0000      -4.385128      -119.3254
  16   1.0000      -4.384907      -119.3194
  17   1.0000      -3.322253       -90.4031
  18   1.0000      -2.523884       -68.6784
  19   1.0000      -2.522504       -68.6408
  20   1.0000      -2.522328       -68.6360
  21   1.0000      -2.518916       -68.5432
  22   1.0000      -2.517786       -68.5125
  23   1.0000      -2.517535       -68.5056
  24   1.0000      -2.517212       -68.4968
  25   1.0000      -2.516542       -68.4786
  26   1.0000      -2.516217       -68.4697
  27   1.0000      -2.515817       -68.4589
  28   1.0000      -2.515457       -68.4491
  29   1.0000      -2.515399       -68.4475
  30   1.0000      -2.515005       -68.4368
  31   1.0000      -2.514821       -68.4318
  32   1.0000      -2.514310       -68.4179
  33   1.0000      -2.514111       -68.4124
  34   1.0000      -2.513193       -68.3874
  35   1.0000      -2.512801       -68.3768
  36   1.0000      -2.512327       -68.3639
  37   1.0000      -2.512253       -68.3619
  38   1.0000      -2.511844       -68.3507
  39   1.0000      -2.511691       -68.3466
  40   1.0000      -2.511185       -68.3328
  41   1.0000      -2.510340       -68.3098
  42   1.0000      -2.510122       -68.3039
  43   1.0000      -2.509358       -68.2831
  44   1.0000      -2.508485       -68.2593
  45   1.0000      -2.508170       -68.2508
  46   1.0000      -2.508106       -68.2490
  47   1.0000      -2.506887       -68.2159
  48   1.0000      -2.504099       -68.1400
  49   1.0000      -2.503339       -68.1193
  50   1.0000      -2.503036       -68.1111
  51   1.0000      -2.499169       -68.0058
  52   1.0000      -2.499104       -68.0041
  53   1.0000      -2.498365       -67.9840
  54   1.0000      -2.083373       -56.6915
  55   1.0000      -2.082944       -56.6798
  56   1.0000      -2.081818       -56.6492
  57   1.0000      -0.495968       -13.4960
  58   1.0000      -0.480530       -13.0759
  59   1.0000      -0.473473       -12.8839
  60   1.0000      -0.469954       -12.7881
  61   1.0000      -0.466865       -12.7041
  62   1.0000      -0.458268       -12.4701
  63   1.0000      -0.456059       -12.4100
  64   1.0000      -0.452549       -12.3145
  65   1.0000      -0.451594       -12.2885
  66   1.0000      -0.447764       -12.1843
  67   1.0000      -0.446521       -12.1505
  68   1.0000      -0.442870       -12.0511
  69   1.0000      -0.442060       -12.0291
  70   1.0000      -0.437297       -11.8995
  71   1.0000      -0.437053       -11.8928
  72   1.0000      -0.434120       -11.8130
  73   1.0000      -0.430892       -11.7252
  74   1.0000      -0.430361       -11.7107
  75   1.0000      -0.424839       -11.5605
  76   1.0000      -0.422469       -11.4960
  77   1.0000      -0.422024       -11.4839
  78   1.0000      -0.420343       -11.4381
  79   1.0000      -0.419820       -11.4239
  80   1.0000      -0.416794       -11.3415
  81   1.0000      -0.411873       -11.2076
  82   1.0000      -0.410478       -11.1697
  83   1.0000      -0.403166       -10.9707
  84   1.0000      -0.402388       -10.9495
  85   1.0000      -0.398777       -10.8513
  86   1.0000      -0.395885       -10.7726
  87   1.0000      -0.392140       -10.6707
  88   1.0000      -0.389056       -10.5867
  89   1.0000      -0.387574       -10.5464
  90   1.0000      -0.385356       -10.4861
  91   1.0000      -0.382938       -10.4203
  92   1.0000      -0.380571       -10.3559
  93   1.0000      -0.379522       -10.3273
  94   1.0000      -0.378977       -10.3125
  95   1.0000      -0.373605       -10.1663
  96   1.0000      -0.373514       -10.1638
  97   1.0000      -0.369918       -10.0660
  98   1.0000      -0.367344        -9.9959
  99   1.0000      -0.365467        -9.9449
 100   1.0000      -0.363504        -9.8914
 101   1.0000      -0.363435        -9.8896
 102   1.0000      -0.362348        -9.8600
 103   1.0000      -0.360703        -9.8152
 104   1.0000      -0.355671        -9.6783
 105   1.0000      -0.354071        -9.6348
 106   1.0000      -0.352664        -9.5965
 107   1.0000      -0.349710        -9.5161
 108   1.0000      -0.348631        -9.4867
 109   1.0000      -0.346683        -9.4337
 110   1.0000      -0.343316        -9.3421
 111   1.0000      -0.340716        -9.2714
 112   1.0000      -0.339060        -9.2263
 113   1.0000      -0.337790        -9.1917
 114   1.0000      -0.334111        -9.0916
 115   1.0000      -0.332895        -9.0585
 116   1.0000      -0.330077        -8.9819
 117   1.0000      -0.322907        -8.7868
 118   1.0000      -0.311254        -8.4696
 119   1.0000      -0.308718        -8.4006
 120   1.0000      -0.307976        -8.3805
 121   1.0000      -0.247523        -6.7355
 122   1.0000      -0.229921        -6.2565
 123   1.0000      -0.221152        -6.0179
 124   1.0000      -0.180755        -4.9186
 125   0.0000      -0.092961        -2.5296
 126   0.0000      -0.085275        -2.3205
 127   0.0000      -0.055098        -1.4993
 128   0.0000      -0.048137        -1.3099
 129   0.0000      -0.039255        -1.0682

MULLIKEN ATOMIC CHARGES AND SPIN POPULATIONS
--------------------------------------------
   0 Au:    0.016587   -0.054971
   1 Au:    0.116388   -0.101374
   2 Au:    0.131321   -0.028760
   3 Au:    0.132842   -0.029007
   4 Au:    0.114687   -0.103896
   5 Au:    0.320233   -0.287555
   6 Au:    0.424110    0.038611
   7 Au:   -0.205907   -0.094455
   8 Au:    0.195843   -0.259599
   9 Au:    0.197498   -0.260777
  10 Au:   -0.207583   -0.097874
  11 Au:    0.323193   -0.285626
  12 Mn:   -1.559213    4.565283
Sum of atomic charges         :   -0.0000000

LOEWDIN ATOMIC CHARGES AND SPIN POPULATIONS
-------------------------------------------
   0 Au:   -0.029914   -0.102195
   1 Au:    0.001589   -0.102213
   2 Au:    0.036719   -0.061550
   3 Au:    0.037608   -0.061524
   4 Au:    0.001513   -0.103357
   5 Au:    0.029510   -0.190009
   6 Au:    0.158272   -0.024226
   7 Au:   -0.080708   -0.096140
   8 Au:    0.069660   -0.228784
   9 Au:    0.070003   -0.230059
  10 Au:   -0.080792   -0.097073
  11 Au:    0.029831   -0.189551
  12 Mn:   -0.243291    4.486680

  Mayer bond orders larger than 0.100000
B(  0-Au,  1-Au) :   0.3427 B(  0-Au,  4-Au) :   0.3385 B(  0-Au,  6-Au) :   0.2740
B(  0-Au,  7-Au) :   0.2458 B(  0-Au, 10-Au) :   0.2430 B(  0-Au, 12-Mn) :   0.1782
B(  1-Au,  3-Au) :   0.2289 B(  1-Au,  4-Au) :   0.1397 B(  1-Au,  5-Au) :   0.1728
B(  1-Au, 12-Mn) :   0.4362 B(  2-Au,  3-Au) :   0.2188 B(  2-Au,  4-Au) :   0.2282
B(  2-Au, 11-Au) :   0.1964 B(  2-Au, 12-Mn) :   0.4355 B(  3-Au,  5-Au) :   0.1961
B(  3-Au, 12-Mn) :   0.4331 B(  4-Au, 11-Au) :   0.1725 B(  4-Au, 12-Mn) :   0.4367
B(  5-Au,  7-Au) :   0.3042 B(  5-Au,  9-Au) :   0.1491 B(  5-Au, 12-Mn) :   0.3939
B(  6-Au,  7-Au) :   0.3688 B(  6-Au, 10-Au) :   0.3689 B(  7-Au,  9-Au) :   0.2605
B(  7-Au, 10-Au) :   0.1427 B(  7-Au, 12-Mn) :   0.4039 B(  8-Au,  9-Au) :   0.2006
B(  8-Au, 10-Au) :   0.2574 B(  8-Au, 11-Au) :   0.1493 B(  8-Au, 12-Mn) :   0.4498
B(  9-Au, 12-Mn) :   0.4461 B( 10-Au, 11-Au) :   0.3083 B( 10-Au, 12-Mn) :   0.4043
B( 11-Au, 12-Mn) :   0.3920

MP2 TOTAL ENERGY:    -2777.849282216 Eh
FINAL SINGLE POINT ENERGY     -2777.849282215760

DIPOLE MOMENT
-------------
                                X             Y             Z
Electronic contribution:      8.91463       0.41279      25.58195
Nuclear contribution   :     -9.01450      -0.18865     -25.25233
                        -----------------------------------------
Total Dipole Moment    :     -0.09987       0.22414       0.32963
                        -----------------------------------------
Magnitude (a.u.)       :      0.41093
Magnitude (Debye)      :      1.04451

Rotational constants in cm-1:     0.001458     0.001205     0.001137
Rotational constants in MHz :    43.696158    36.110969    34.085989

                             ****ORCA TERMINATED NORMALLY****
TOTAL RUN TIME: 0 days 0 hours 36 minutes 36 seconds 327 msec
