                         Program Version 5.0.3 -  RELEASE  -
|  1> !PBE def2-TZVP VERYSLOWCONV
|  2> !KDIIS
|  3>
|  4> %scf
|  5>   AutoTRAHIter 200
|  6>   maxiter 400
|  7> end
|  8>
|  9>
| 10> %pal nprocs 6 end
| 11>
| 12> *xyzfile 0 6 pbe.xyz
| 13>
| 14> $new_job
| 15>
| 16> !PBE def2-TZVP VERYSLOWCONV
| 17> !KDIIS
| 18>
| 19> %scf
| 20>   AutoTRAHIter 200
| 21>   maxiter 400
| 22> end
| 23>
| 24>
| 25> %pal nprocs 6 end
| 26>
| 27> *xyzfile 0 4 pbe.xyz
| 28>
| 29>
| 30>
| 31>
| 32>
| 33>                          ****END OF INPUT****
 Total Charge           Charge          ....    0
 Multiplicity           Mult            ....    6
 Number of Electrons    NEL             ....  253
FINAL SINGLE POINT ENERGY     -2780.698057312207

CARTESIAN COORDINATES (ANGSTROEM)
---------------------------------
  Au     8.944901    7.927900    9.955291
  Au     8.177269    6.019780    8.157838
  Au     8.855513    8.210784    5.042152
  Au     6.939903    6.376923    5.736588
  Au    10.082349    7.857294    7.470571
  Au     5.438034    6.720913    8.084176
  Au     7.828762    9.768866   11.695050
  Au     6.118568    8.560026    9.970382
  Au     6.617763   11.257988    7.102890
  Au     4.762110    9.477276    7.774173
  Au     8.308788   10.648413    9.173682
  Au     9.323976   10.457069    6.659466
  Mn     7.368725    8.601751    7.374443

 Multiplicity           Mult            ....    4
 Number of Electrons    NEL             ....  253
 Basis Dimension        Dim             ....  525

ORBITAL ENERGIES
----------------
                 SPIN UP ORBITALS
  NO   OCC          E(Eh)            E(eV)
   0   1.0000    -234.201327     -6372.9421
   1   1.0000     -26.893825      -731.8182
   2   1.0000     -23.043501      -627.0455
   3   1.0000     -23.043097      -627.0346
   4   1.0000     -23.040861      -626.9737
   5   1.0000      -4.028655      -109.6253
   6   1.0000      -4.028391      -109.6181
   7   1.0000      -4.028244      -109.6141
   8   1.0000      -4.026550      -109.5680
   9   1.0000      -4.026517      -109.5671
  10   1.0000      -4.024280      -109.5062
  11   1.0000      -4.023767      -109.4923
  12   1.0000      -4.023575      -109.4871
  13   1.0000      -4.021083      -109.4192
  14   1.0000      -4.020811      -109.4118
  15   1.0000      -4.014647      -109.2441
  16   1.0000      -4.014469      -109.2392
  17   1.0000      -3.102373       -84.4199
  18   1.0000      -2.248192       -61.1764
  19   1.0000      -2.247125       -61.1474
  20   1.0000      -2.246783       -61.1381
  21   1.0000      -2.242094       -61.0105
  22   1.0000      -2.241355       -60.9904
  23   1.0000      -2.241017       -60.9812
  24   1.0000      -2.240755       -60.9740
  25   1.0000      -2.240641       -60.9710
  26   1.0000      -2.240106       -60.9564
  27   1.0000      -2.240043       -60.9547
  28   1.0000      -2.239526       -60.9406
  29   1.0000      -2.239110       -60.9293
  30   1.0000      -2.239026       -60.9270
  31   1.0000      -2.238226       -60.9052
  32   1.0000      -2.238158       -60.9034
  33   1.0000      -2.237603       -60.8883
  34   1.0000      -2.237431       -60.8836
  35   1.0000      -2.237158       -60.8762
  36   1.0000      -2.236569       -60.8601
  37   1.0000      -2.236197       -60.8500
  38   1.0000      -2.236041       -60.8458
  39   1.0000      -2.235697       -60.8364
  40   1.0000      -2.235605       -60.8339
  41   1.0000      -2.234906       -60.8149
  42   1.0000      -2.234846       -60.8133
  43   1.0000      -2.234279       -60.7978
  44   1.0000      -2.232673       -60.7541
  45   1.0000      -2.231977       -60.7352
  46   1.0000      -2.230259       -60.6884
  47   1.0000      -2.230003       -60.6815
  48   1.0000      -2.229519       -60.6683
  49   1.0000      -2.229377       -60.6644
  50   1.0000      -2.229307       -60.6625
  51   1.0000      -2.225993       -60.5724
  52   1.0000      -2.224242       -60.5247
  53   1.0000      -2.223766       -60.5117
  54   1.0000      -2.007721       -54.6329
  55   1.0000      -2.005740       -54.5790
  56   1.0000      -2.001364       -54.4599
  57   1.0000      -0.421550       -11.4710
  58   1.0000      -0.386658       -10.5215
  59   1.0000      -0.381658       -10.3854
  60   1.0000      -0.380107       -10.3432
  61   1.0000      -0.368123       -10.0171
  62   1.0000      -0.363864        -9.9012
  63   1.0000      -0.360401        -9.8070
  64   1.0000      -0.355961        -9.6862
  65   1.0000      -0.349674        -9.5151
  66   1.0000      -0.349245        -9.5034
  67   1.0000      -0.345953        -9.4138
  68   1.0000      -0.341653        -9.2969
  69   1.0000      -0.337361        -9.1801
  70   1.0000      -0.336713        -9.1624
  71   1.0000      -0.335076        -9.1179
  72   1.0000      -0.333351        -9.0710
  73   1.0000      -0.329666        -8.9707
  74   1.0000      -0.329234        -8.9589
  75   1.0000      -0.326936        -8.8964
  76   1.0000      -0.322852        -8.7853
  77   1.0000      -0.321120        -8.7381
  78   1.0000      -0.318953        -8.6791
  79   1.0000      -0.318135        -8.6569
  80   1.0000      -0.317674        -8.6443
  81   1.0000      -0.312203        -8.4955
  82   1.0000      -0.310971        -8.4620
  83   1.0000      -0.307479        -8.3669
  84   1.0000      -0.304073        -8.2742
  85   1.0000      -0.301267        -8.1979
  86   1.0000      -0.300027        -8.1641
  87   1.0000      -0.299185        -8.1412
  88   1.0000      -0.296242        -8.0611
  89   1.0000      -0.295056        -8.0289
  90   1.0000      -0.288711        -7.8562
  91   1.0000      -0.285547        -7.7701
  92   1.0000      -0.284639        -7.7454
  93   1.0000      -0.282927        -7.6988
  94   1.0000      -0.281024        -7.6471
  95   1.0000      -0.279602        -7.6084
  96   1.0000      -0.275949        -7.5089
  97   1.0000      -0.274231        -7.4622
  98   1.0000      -0.273261        -7.4358
  99   1.0000      -0.270199        -7.3525
 100   1.0000      -0.270095        -7.3496
 101   1.0000      -0.268726        -7.3124
 102   1.0000      -0.267861        -7.2889
 103   1.0000      -0.263516        -7.1706
 104   1.0000      -0.260754        -7.0955
 105   1.0000      -0.259831        -7.0704
 106   1.0000      -0.259325        -7.0566
 107   1.0000      -0.258731        -7.0404
 108   1.0000      -0.253912        -6.9093
 109   1.0000      -0.253762        -6.9052
 110   1.0000      -0.252520        -6.8714
 111   1.0000      -0.251618        -6.8469
 112   1.0000      -0.249804        -6.7975
 113   1.0000      -0.249049        -6.7770
 114   1.0000      -0.246578        -6.7097
 115   1.0000      -0.245560        -6.6820
 116   1.0000      -0.245546        -6.6816
 117   1.0000      -0.244580        -6.6554
 118   1.0000      -0.244175        -6.6443
 119   1.0000      -0.242321        -6.5939
 120   1.0000      -0.240544        -6.5455
 121   1.0000      -0.240171        -6.5354
 122   1.0000      -0.239049        -6.5048
 123   1.0000      -0.236692        -6.4407
 124   1.0000      -0.236420        -6.4333
 125   1.0000      -0.223299        -6.0763
 126   1.0000      -0.209674        -5.7055
 127   1.0000      -0.193731        -5.2717
 128   0.0000      -0.183779        -5.0009
 129   0.0000      -0.158673        -4.3177
 130   0.0000      -0.147770        -4.0210
 131   0.0000      -0.144577        -3.9341
 132   0.0000      -0.118825        -3.2334

                 SPIN DOWN ORBITALS
  NO   OCC          E(Eh)            E(eV)
   0   1.0000    -234.200628     -6372.9231
   1   1.0000     -26.828732      -730.0469
   2   1.0000     -22.993873      -625.6951
   3   1.0000     -22.992705      -625.6633
   4   1.0000     -22.992593      -625.6603
   5   1.0000      -4.028882      -109.6314
   6   1.0000      -4.028517      -109.6215
   7   1.0000      -4.028361      -109.6173
   8   1.0000      -4.026601      -109.5694
   9   1.0000      -4.026566      -109.5684
  10   1.0000      -4.024944      -109.5243
  11   1.0000      -4.023772      -109.4924
  12   1.0000      -4.023578      -109.4871
  13   1.0000      -4.021185      -109.4220
  14   1.0000      -4.020904      -109.4144
  15   1.0000      -4.014301      -109.2347
  16   1.0000      -4.014120      -109.2298
  17   1.0000      -2.942535       -80.0704
  18   1.0000      -2.248551       -61.1862
  19   1.0000      -2.247401       -61.1549
  20   1.0000      -2.246995       -61.1438
  21   1.0000      -2.242266       -61.0152
  22   1.0000      -2.241367       -60.9907
  23   1.0000      -2.240903       -60.9781
  24   1.0000      -2.240642       -60.9710
  25   1.0000      -2.240551       -60.9685
  26   1.0000      -2.240539       -60.9682
  27   1.0000      -2.239996       -60.9534
  28   1.0000      -2.239224       -60.9324
  29   1.0000      -2.239000       -60.9263
  30   1.0000      -2.238881       -60.9230
  31   1.0000      -2.238484       -60.9123
  32   1.0000      -2.238423       -60.9106
  33   1.0000      -2.237658       -60.8898
  34   1.0000      -2.237356       -60.8816
  35   1.0000      -2.237280       -60.8795
  36   1.0000      -2.236690       -60.8634
  37   1.0000      -2.236496       -60.8581
  38   1.0000      -2.236112       -60.8477
  39   1.0000      -2.235942       -60.8431
  40   1.0000      -2.235852       -60.8406
  41   1.0000      -2.235591       -60.8335
  42   1.0000      -2.235104       -60.8203
  43   1.0000      -2.234585       -60.8061
  44   1.0000      -2.232892       -60.7601
  45   1.0000      -2.232292       -60.7437
  46   1.0000      -2.230219       -60.6873
  47   1.0000      -2.229548       -60.6691
  48   1.0000      -2.229381       -60.6645
  49   1.0000      -2.229050       -60.6555
  50   1.0000      -2.228804       -60.6488
  51   1.0000      -2.225484       -60.5585
  52   1.0000      -2.224049       -60.5194
  53   1.0000      -2.223627       -60.5080
  54   1.0000      -1.849451       -50.3261
  55   1.0000      -1.848610       -50.3032
  56   1.0000      -1.845919       -50.2300
  57   1.0000      -0.417205       -11.3527
  58   1.0000      -0.384512       -10.4631
  59   1.0000      -0.381438       -10.3795
  60   1.0000      -0.378583       -10.3018
  61   1.0000      -0.363701        -9.8968
  62   1.0000      -0.363059        -9.8793
  63   1.0000      -0.358895        -9.7660
  64   1.0000      -0.351819        -9.5735
  65   1.0000      -0.347298        -9.4504
  66   1.0000      -0.347198        -9.4477
  67   1.0000      -0.345698        -9.4069
  68   1.0000      -0.339208        -9.2303
  69   1.0000      -0.338186        -9.2025
  70   1.0000      -0.334912        -9.1134
  71   1.0000      -0.334417        -9.0999
  72   1.0000      -0.333018        -9.0619
  73   1.0000      -0.329886        -8.9767
  74   1.0000      -0.329582        -8.9684
  75   1.0000      -0.325122        -8.8470
  76   1.0000      -0.322096        -8.7647
  77   1.0000      -0.319795        -8.7021
  78   1.0000      -0.319645        -8.6980
  79   1.0000      -0.318535        -8.6678
  80   1.0000      -0.315401        -8.5825
  81   1.0000      -0.312893        -8.5143
  82   1.0000      -0.310050        -8.4369
  83   1.0000      -0.303069        -8.2469
  84   1.0000      -0.301474        -8.2035
  85   1.0000      -0.301162        -8.1950
  86   1.0000      -0.298326        -8.1179
  87   1.0000      -0.295565        -8.0427
  88   1.0000      -0.292487        -7.9590
  89   1.0000      -0.289894        -7.8884
  90   1.0000      -0.288240        -7.8434
  91   1.0000      -0.285552        -7.7703
  92   1.0000      -0.283934        -7.7262
  93   1.0000      -0.281707        -7.6656
  94   1.0000      -0.280416        -7.6305
  95   1.0000      -0.280016        -7.6196
  96   1.0000      -0.275001        -7.4831
  97   1.0000      -0.274105        -7.4588
  98   1.0000      -0.273094        -7.4313
  99   1.0000      -0.269114        -7.3230
 100   1.0000      -0.268501        -7.3063
 101   1.0000      -0.267908        -7.2901
 102   1.0000      -0.266870        -7.2619
 103   1.0000      -0.263356        -7.1663
 104   1.0000      -0.260195        -7.0803
 105   1.0000      -0.259643        -7.0652
 106   1.0000      -0.259499        -7.0613
 107   1.0000      -0.255696        -6.9578
 108   1.0000      -0.254420        -6.9231
 109   1.0000      -0.252936        -6.8827
 110   1.0000      -0.252017        -6.8577
 111   1.0000      -0.249680        -6.7941
 112   1.0000      -0.249567        -6.7911
 113   1.0000      -0.247706        -6.7404
 114   1.0000      -0.246016        -6.6944
 115   1.0000      -0.245872        -6.6905
 116   1.0000      -0.245797        -6.6885
 117   1.0000      -0.243081        -6.6146
 118   1.0000      -0.242789        -6.6066
 119   1.0000      -0.238299        -6.4844
 120   1.0000      -0.224839        -6.1182
 121   1.0000      -0.218561        -5.9474
 122   1.0000      -0.209208        -5.6928
 123   1.0000      -0.201314        -5.4780
 124   1.0000      -0.173578        -4.7233
 125   0.0000      -0.156766        -4.2658
 126   0.0000      -0.152118        -4.1394
 127   0.0000      -0.125954        -3.4274
 128   0.0000      -0.125013        -3.4018
 129   0.0000      -0.121944        -3.3183

MULLIKEN ATOMIC CHARGES AND SPIN POPULATIONS
--------------------------------------------
   0 Au:    0.030588   -0.049896
   1 Au:    0.138042   -0.074074
   2 Au:    0.185954    0.008507
   3 Au:    0.187586    0.007952
   4 Au:    0.136504   -0.075259
   5 Au:    0.316406   -0.210444
   6 Au:    0.437364    0.009190
   7 Au:   -0.150129   -0.058555
   8 Au:    0.235802   -0.165346
   9 Au:    0.237879   -0.166029
  10 Au:   -0.151586   -0.059355
  11 Au:    0.319259   -0.209294
  12 Mn:   -1.923670    4.042603
Sum of atomic charges         :   -0.0000000

LOEWDIN ATOMIC CHARGES AND SPIN POPULATIONS
-------------------------------------------
   0 Au:   -0.009059   -0.077761
   1 Au:    0.023634   -0.073472
   2 Au:    0.056574   -0.024298
   3 Au:    0.057178   -0.024500
   4 Au:    0.023615   -0.074113
   5 Au:    0.050989   -0.142884
   6 Au:    0.140791   -0.024077
   7 Au:   -0.050228   -0.060427
   8 Au:    0.089757   -0.155477
   9 Au:    0.090091   -0.156804
  10 Au:   -0.050322   -0.060584
  11 Au:    0.051328   -0.142551
  12 Mn:   -0.474349    4.016948

  Mayer bond orders larger than 0.100000
B(  0-Au,  1-Au) :   0.3487 B(  0-Au,  4-Au) :   0.3448 B(  0-Au,  6-Au) :   0.3102
B(  0-Au,  7-Au) :   0.2496 B(  0-Au, 10-Au) :   0.2470 B(  0-Au, 12-Mn) :   0.1834
B(  1-Au,  3-Au) :   0.2617 B(  1-Au,  4-Au) :   0.1737 B(  1-Au,  5-Au) :   0.2127
B(  1-Au, 12-Mn) :   0.4843 B(  2-Au,  3-Au) :   0.2683 B(  2-Au,  4-Au) :   0.2607
B(  2-Au, 11-Au) :   0.2157 B(  2-Au, 12-Mn) :   0.4616 B(  3-Au,  5-Au) :   0.2153
B(  3-Au, 12-Mn) :   0.4585 B(  4-Au, 11-Au) :   0.2123 B(  4-Au, 12-Mn) :   0.4854
B(  5-Au,  7-Au) :   0.3308 B(  5-Au,  9-Au) :   0.1736 B(  5-Au, 12-Mn) :   0.4474
B(  6-Au,  7-Au) :   0.4025 B(  6-Au, 10-Au) :   0.4026 B(  7-Au,  9-Au) :   0.2865
B(  7-Au, 10-Au) :   0.1399 B(  7-Au, 12-Mn) :   0.4431 B(  8-Au,  9-Au) :   0.2529
B(  8-Au, 10-Au) :   0.2828 B(  8-Au, 11-Au) :   0.1738 B(  8-Au, 12-Mn) :   0.4932
B(  9-Au, 12-Mn) :   0.4890 B( 10-Au, 11-Au) :   0.3353 B( 10-Au, 12-Mn) :   0.4442
B( 11-Au, 12-Mn) :   0.4444

FINAL SINGLE POINT ENERGY     -2780.686621620785

DIPOLE MOMENT
-------------
                                X             Y             Z
Electronic contribution:      8.92501       0.39609      25.56344
Nuclear contribution   :     -9.01450      -0.18865     -25.25233
                        -----------------------------------------
Total Dipole Moment    :     -0.08949       0.20744       0.31112
                        -----------------------------------------
Magnitude (a.u.)       :      0.38449
Magnitude (Debye)      :      0.97730

Rotational constants in cm-1:     0.001458     0.001205     0.001137
Rotational constants in MHz :    43.696158    36.110969    34.085989

                             ****ORCA TERMINATED NORMALLY****
TOTAL RUN TIME: 0 days 0 hours 4 minutes 18 seconds 831 msec
