                         Program Version 5.0.3 -  RELEASE  -
|  1> !R2SCAN def2-TZVP VERYSLOWCONV
|  2> !KDIIS
|  3> %scf
|  4>   AutoTRAHIter 200
|  5>   maxiter 400
|  6> end
|  7>
|  8> %pal nprocs 6 end
|  9>
| 10> *xyzfile 0 6 pbe.xyz
| 11>
| 12> $new_job
| 13>
| 14> !R2SCAN def2-TZVP VERYSLOWCONV
| 15> !KDIIS
| 16> %scf
| 17>   AutoTRAHIter 200
| 18>   maxiter 400
| 19> end
| 20>
| 21>
| 22> %pal nprocs 6 end
| 23>
| 24> *xyzfile 0 4 pbe.xyz
| 25>
| 26>
| 27>
| 28>
| 29>
| 30>                          ****END OF INPUT****
 Total Charge           Charge          ....    0
 Multiplicity           Mult            ....    6
 Number of Electrons    NEL             ....  253
FINAL SINGLE POINT ENERGY     -2781.151858416903

CARTESIAN COORDINATES (ANGSTROEM)
---------------------------------
  Au     8.944901    7.927900    9.955291
  Au     8.177269    6.019780    8.157838
  Au     8.855513    8.210784    5.042152
  Au     6.939903    6.376923    5.736588
  Au    10.082349    7.857294    7.470571
  Au     5.438034    6.720913    8.084176
  Au     7.828762    9.768866   11.695050
  Au     6.118568    8.560026    9.970382
  Au     6.617763   11.257988    7.102890
  Au     4.762110    9.477276    7.774173
  Au     8.308788   10.648413    9.173682
  Au     9.323976   10.457069    6.659466
  Mn     7.368725    8.601751    7.374443

 Multiplicity           Mult            ....    4
 Number of Electrons    NEL             ....  253
 Basis Dimension        Dim             ....  525

ORBITAL ENERGIES
----------------
                 SPIN UP ORBITALS
  NO   OCC          E(Eh)            E(eV)
   0   1.0000    -235.045064     -6395.9013
   1   1.0000     -27.221631      -740.7382
   2   1.0000     -23.269468      -633.1944
   3   1.0000     -23.268767      -633.1754
   4   1.0000     -23.267114      -633.1303
   5   1.0000      -4.119674      -112.1020
   6   1.0000      -4.119476      -112.0966
   7   1.0000      -4.119318      -112.0923
   8   1.0000      -4.117583      -112.0451
   9   1.0000      -4.117561      -112.0445
  10   1.0000      -4.115401      -111.9857
  11   1.0000      -4.114739      -111.9677
  12   1.0000      -4.114528      -111.9620
  13   1.0000      -4.112660      -111.9112
  14   1.0000      -4.112357      -111.9029
  15   1.0000      -4.105640      -111.7201
  16   1.0000      -4.105440      -111.7147
  17   1.0000      -3.243273       -88.2539
  18   1.0000      -2.311990       -62.9124
  19   1.0000      -2.310874       -62.8821
  20   1.0000      -2.310540       -62.8730
  21   1.0000      -2.306104       -62.7523
  22   1.0000      -2.305309       -62.7306
  23   1.0000      -2.305019       -62.7227
  24   1.0000      -2.304675       -62.7134
  25   1.0000      -2.304531       -62.7095
  26   1.0000      -2.304036       -62.6960
  27   1.0000      -2.303914       -62.6927
  28   1.0000      -2.303313       -62.6763
  29   1.0000      -2.302975       -62.6671
  30   1.0000      -2.302786       -62.6620
  31   1.0000      -2.302400       -62.6515
  32   1.0000      -2.302289       -62.6485
  33   1.0000      -2.301955       -62.6394
  34   1.0000      -2.301357       -62.6231
  35   1.0000      -2.301029       -62.6142
  36   1.0000      -2.300306       -62.5945
  37   1.0000      -2.300146       -62.5902
  38   1.0000      -2.300002       -62.5862
  39   1.0000      -2.299764       -62.5798
  40   1.0000      -2.299668       -62.5771
  41   1.0000      -2.298783       -62.5531
  42   1.0000      -2.298559       -62.5470
  43   1.0000      -2.298139       -62.5355
  44   1.0000      -2.296424       -62.4889
  45   1.0000      -2.296067       -62.4792
  46   1.0000      -2.294770       -62.4439
  47   1.0000      -2.293950       -62.4215
  48   1.0000      -2.293802       -62.4175
  49   1.0000      -2.292976       -62.3951
  50   1.0000      -2.292919       -62.3935
  51   1.0000      -2.289434       -62.2987
  52   1.0000      -2.288023       -62.2603
  53   1.0000      -2.287497       -62.2459
  54   1.0000      -2.102068       -57.2002
  55   1.0000      -2.100409       -57.1550
  56   1.0000      -2.096881       -57.0590
  57   1.0000      -0.427582       -11.6351
  58   1.0000      -0.394306       -10.7296
  59   1.0000      -0.390358       -10.6222
  60   1.0000      -0.388608       -10.5745
  61   1.0000      -0.377893       -10.2830
  62   1.0000      -0.373014       -10.1502
  63   1.0000      -0.370810       -10.0902
  64   1.0000      -0.367288        -9.9944
  65   1.0000      -0.360262        -9.8032
  66   1.0000      -0.359657        -9.7868
  67   1.0000      -0.355578        -9.6758
  68   1.0000      -0.352512        -9.5923
  69   1.0000      -0.349090        -9.4992
  70   1.0000      -0.346694        -9.4340
  71   1.0000      -0.344775        -9.3818
  72   1.0000      -0.342664        -9.3244
  73   1.0000      -0.338547        -9.2123
  74   1.0000      -0.338345        -9.2068
  75   1.0000      -0.337248        -9.1770
  76   1.0000      -0.332540        -9.0489
  77   1.0000      -0.331979        -9.0336
  78   1.0000      -0.328664        -8.9434
  79   1.0000      -0.328295        -8.9334
  80   1.0000      -0.326737        -8.8910
  81   1.0000      -0.321406        -8.7459
  82   1.0000      -0.320808        -8.7296
  83   1.0000      -0.318561        -8.6685
  84   1.0000      -0.315016        -8.5720
  85   1.0000      -0.311476        -8.4757
  86   1.0000      -0.309177        -8.4131
  87   1.0000      -0.308692        -8.3999
  88   1.0000      -0.307389        -8.3645
  89   1.0000      -0.304552        -8.2873
  90   1.0000      -0.299076        -8.1383
  91   1.0000      -0.295282        -8.0350
  92   1.0000      -0.294318        -8.0088
  93   1.0000      -0.293956        -7.9990
  94   1.0000      -0.289590        -7.8801
  95   1.0000      -0.287524        -7.8239
  96   1.0000      -0.285866        -7.7788
  97   1.0000      -0.283164        -7.7053
  98   1.0000      -0.282459        -7.6861
  99   1.0000      -0.280679        -7.6377
 100   1.0000      -0.280244        -7.6258
 101   1.0000      -0.279281        -7.5996
 102   1.0000      -0.276857        -7.5337
 103   1.0000      -0.276711        -7.5297
 104   1.0000      -0.272346        -7.4109
 105   1.0000      -0.268645        -7.3102
 106   1.0000      -0.267773        -7.2865
 107   1.0000      -0.267653        -7.2832
 108   1.0000      -0.262946        -7.1551
 109   1.0000      -0.262765        -7.1502
 110   1.0000      -0.261740        -7.1223
 111   1.0000      -0.260911        -7.0998
 112   1.0000      -0.259170        -7.0524
 113   1.0000      -0.258524        -7.0348
 114   1.0000      -0.256456        -6.9785
 115   1.0000      -0.256127        -6.9696
 116   1.0000      -0.254488        -6.9250
 117   1.0000      -0.254042        -6.9128
 118   1.0000      -0.252674        -6.8756
 119   1.0000      -0.252082        -6.8595
 120   1.0000      -0.250447        -6.8150
 121   1.0000      -0.249425        -6.7872
 122   1.0000      -0.249132        -6.7792
 123   1.0000      -0.244063        -6.6413
 124   1.0000      -0.242377        -6.5954
 125   1.0000      -0.229609        -6.2480
 126   1.0000      -0.212640        -5.7862
 127   1.0000      -0.196304        -5.3417
 128   0.0000      -0.182044        -4.9537
 129   0.0000      -0.155461        -4.2303
 130   0.0000      -0.143343        -3.9006
 131   0.0000      -0.140825        -3.8320
 132   0.0000      -0.113372        -3.0850

                 SPIN DOWN ORBITALS
  NO   OCC          E(Eh)            E(eV)
   0   1.0000    -235.044059     -6395.8740
   1   1.0000     -27.133908      -738.3512
   2   1.0000     -23.201754      -631.3518
   3   1.0000     -23.200900      -631.3286
   4   1.0000     -23.200832      -631.3267
   5   1.0000      -4.119965      -112.1099
   6   1.0000      -4.119836      -112.1064
   7   1.0000      -4.119676      -112.1021
   8   1.0000      -4.117817      -112.0515
   9   1.0000      -4.117793      -112.0508
  10   1.0000      -4.116133      -112.0057
  11   1.0000      -4.114887      -111.9718
  12   1.0000      -4.114673      -111.9660
  13   1.0000      -4.113093      -111.9230
  14   1.0000      -4.112779      -111.9144
  15   1.0000      -4.105381      -111.7131
  16   1.0000      -4.105178      -111.7076
  17   1.0000      -3.033744       -82.5524
  18   1.0000      -2.312534       -62.9272
  19   1.0000      -2.311386       -62.8960
  20   1.0000      -2.310769       -62.8792
  21   1.0000      -2.306254       -62.7564
  22   1.0000      -2.305320       -62.7309
  23   1.0000      -2.304910       -62.7198
  24   1.0000      -2.304646       -62.7126
  25   1.0000      -2.304505       -62.7088
  26   1.0000      -2.304386       -62.7055
  27   1.0000      -2.303947       -62.6936
  28   1.0000      -2.303131       -62.6714
  29   1.0000      -2.303014       -62.6682
  30   1.0000      -2.302847       -62.6637
  31   1.0000      -2.302740       -62.6607
  32   1.0000      -2.302592       -62.6567
  33   1.0000      -2.302103       -62.6434
  34   1.0000      -2.301272       -62.6208
  35   1.0000      -2.301173       -62.6181
  36   1.0000      -2.300596       -62.6024
  37   1.0000      -2.300522       -62.6004
  38   1.0000      -2.300154       -62.5904
  39   1.0000      -2.299992       -62.5860
  40   1.0000      -2.299938       -62.5845
  41   1.0000      -2.299667       -62.5771
  42   1.0000      -2.299091       -62.5614
  43   1.0000      -2.298442       -62.5438
  44   1.0000      -2.296668       -62.4955
  45   1.0000      -2.296452       -62.4896
  46   1.0000      -2.294824       -62.4453
  47   1.0000      -2.294027       -62.4237
  48   1.0000      -2.293056       -62.3972
  49   1.0000      -2.292757       -62.3891
  50   1.0000      -2.292459       -62.3810
  51   1.0000      -2.288938       -62.2852
  52   1.0000      -2.287843       -62.2554
  53   1.0000      -2.287357       -62.2421
  54   1.0000      -1.892475       -51.4969
  55   1.0000      -1.892133       -51.4876
  56   1.0000      -1.889879       -51.4262
  57   1.0000      -0.423815       -11.5326
  58   1.0000      -0.392235       -10.6733
  59   1.0000      -0.389747       -10.6055
  60   1.0000      -0.386769       -10.5245
  61   1.0000      -0.372448       -10.1348
  62   1.0000      -0.371890       -10.1196
  63   1.0000      -0.368008       -10.0140
  64   1.0000      -0.361250        -9.8301
  65   1.0000      -0.357180        -9.7194
  66   1.0000      -0.357058        -9.7160
  67   1.0000      -0.354801        -9.6546
  68   1.0000      -0.348647        -9.4872
  69   1.0000      -0.348197        -9.4749
  70   1.0000      -0.344856        -9.3840
  71   1.0000      -0.344163        -9.3651
  72   1.0000      -0.342707        -9.3255
  73   1.0000      -0.339428        -9.2363
  74   1.0000      -0.338639        -9.2148
  75   1.0000      -0.334800        -9.1104
  76   1.0000      -0.331865        -9.0305
  77   1.0000      -0.329718        -8.9721
  78   1.0000      -0.329423        -8.9641
  79   1.0000      -0.328127        -8.9288
  80   1.0000      -0.325214        -8.8495
  81   1.0000      -0.322130        -8.7656
  82   1.0000      -0.319613        -8.6971
  83   1.0000      -0.312320        -8.4987
  84   1.0000      -0.310908        -8.4602
  85   1.0000      -0.310611        -8.4522
  86   1.0000      -0.307392        -8.3646
  87   1.0000      -0.304830        -8.2948
  88   1.0000      -0.301189        -8.1958
  89   1.0000      -0.298791        -8.1305
  90   1.0000      -0.297231        -8.0881
  91   1.0000      -0.294615        -8.0169
  92   1.0000      -0.292740        -7.9659
  93   1.0000      -0.290450        -7.9035
  94   1.0000      -0.289667        -7.8822
  95   1.0000      -0.288287        -7.8447
  96   1.0000      -0.284128        -7.7315
  97   1.0000      -0.283113        -7.7039
  98   1.0000      -0.281945        -7.6721
  99   1.0000      -0.277910        -7.5623
 100   1.0000      -0.277259        -7.5446
 101   1.0000      -0.276438        -7.5223
 102   1.0000      -0.275539        -7.4978
 103   1.0000      -0.272072        -7.4035
 104   1.0000      -0.268907        -7.3173
 105   1.0000      -0.267910        -7.2902
 106   1.0000      -0.267790        -7.2869
 107   1.0000      -0.264092        -7.1863
 108   1.0000      -0.262863        -7.1529
 109   1.0000      -0.260488        -7.0882
 110   1.0000      -0.259898        -7.0722
 111   1.0000      -0.257549        -7.0083
 112   1.0000      -0.257534        -7.0079
 113   1.0000      -0.255965        -6.9652
 114   1.0000      -0.253908        -6.9092
 115   1.0000      -0.253407        -6.8956
 116   1.0000      -0.252820        -6.8796
 117   1.0000      -0.250815        -6.8250
 118   1.0000      -0.249661        -6.7936
 119   1.0000      -0.245208        -6.6724
 120   1.0000      -0.231407        -6.2969
 121   1.0000      -0.221629        -6.0308
 122   1.0000      -0.210936        -5.7399
 123   1.0000      -0.203246        -5.5306
 124   1.0000      -0.172327        -4.6892
 125   0.0000      -0.152899        -4.1606
 126   0.0000      -0.147403        -4.0110
 127   0.0000      -0.114344        -3.1115
 128   0.0000      -0.111303        -3.0287
 129   0.0000      -0.106764        -2.9052

MULLIKEN ATOMIC CHARGES AND SPIN POPULATIONS
--------------------------------------------
   0 Au:    0.033611   -0.046971
   1 Au:    0.121901   -0.090209
   2 Au:    0.150384   -0.001659
   3 Au:    0.152194   -0.002057
   4 Au:    0.120246   -0.091886
   5 Au:    0.304873   -0.241643
   6 Au:    0.411954    0.014483
   7 Au:   -0.157731   -0.071295
   8 Au:    0.210079   -0.205819
   9 Au:    0.212183   -0.206805
  10 Au:   -0.159250   -0.073149
  11 Au:    0.307744   -0.240267
  12 Mn:   -1.708189    4.257275
Sum of atomic charges         :   -0.0000000

LOEWDIN ATOMIC CHARGES AND SPIN POPULATIONS
-------------------------------------------
   0 Au:   -0.012814   -0.084384
   1 Au:    0.017403   -0.085796
   2 Au:    0.046606   -0.036991
   3 Au:    0.047275   -0.037114
   4 Au:    0.017317   -0.086665
   5 Au:    0.045709   -0.160424
   6 Au:    0.138323   -0.027849
   7 Au:   -0.055809   -0.074842
   8 Au:    0.082137   -0.185420
   9 Au:    0.082466   -0.186866
  10 Au:   -0.055938   -0.075285
  11 Au:    0.046036   -0.160114
  12 Mn:   -0.398712    4.201751

  Mayer bond orders larger than 0.100000
B(  0-Au,  1-Au) :   0.3518 B(  0-Au,  4-Au) :   0.3474 B(  0-Au,  6-Au) :   0.2965
B(  0-Au,  7-Au) :   0.2314 B(  0-Au, 10-Au) :   0.2284 B(  0-Au, 12-Mn) :   0.1706
B(  1-Au,  3-Au) :   0.2451 B(  1-Au,  4-Au) :   0.1537 B(  1-Au,  5-Au) :   0.1976
B(  1-Au, 12-Mn) :   0.4636 B(  2-Au,  3-Au) :   0.2475 B(  2-Au,  4-Au) :   0.2441
B(  2-Au, 11-Au) :   0.2087 B(  2-Au, 12-Mn) :   0.4528 B(  3-Au,  5-Au) :   0.2082
B(  3-Au, 12-Mn) :   0.4496 B(  4-Au, 11-Au) :   0.1969 B(  4-Au, 12-Mn) :   0.4644
B(  5-Au,  7-Au) :   0.3225 B(  5-Au,  9-Au) :   0.1650 B(  5-Au, 12-Mn) :   0.4272
B(  6-Au,  7-Au) :   0.3946 B(  6-Au, 10-Au) :   0.3948 B(  7-Au,  9-Au) :   0.2721
B(  7-Au, 10-Au) :   0.1113 B(  7-Au, 12-Mn) :   0.4204 B(  8-Au,  9-Au) :   0.2297
B(  8-Au, 10-Au) :   0.2685 B(  8-Au, 11-Au) :   0.1653 B(  8-Au, 12-Mn) :   0.4818
B(  9-Au, 12-Mn) :   0.4775 B( 10-Au, 11-Au) :   0.3268 B( 10-Au, 12-Mn) :   0.4211
B( 11-Au, 12-Mn) :   0.4244

FINAL SINGLE POINT ENERGY     -2781.137552753381

DIPOLE MOMENT
-------------
                                X             Y             Z
Electronic contribution:      8.91726       0.40910      25.57790
Nuclear contribution   :     -9.01450      -0.18865     -25.25233
                        -----------------------------------------
Total Dipole Moment    :     -0.09724       0.22045       0.32558
                        -----------------------------------------
Magnitude (a.u.)       :      0.40504
Magnitude (Debye)      :      1.02952

Rotational constants in cm-1:     0.001458     0.001205     0.001137
Rotational constants in MHz :    43.696158    36.110969    34.085989

                             ****ORCA TERMINATED NORMALLY****
TOTAL RUN TIME: 0 days 0 hours 7 minutes 24 seconds 716 msec
