                         Program Version 5.0.3 -  RELEASE  -
|  1> %pal nprocs 1 end
|  2>
|  3> !PBE def2-TZVP OPT UNO
|  4> !SLOWCONV
|  5>
|  6> *xyzfile 0 5 2.xyz                           ****END OF INPUT****
 Total Charge           Charge          ....    0
 Multiplicity           Mult            ....    5
 Number of Electrons    NEL             ....  330
FINAL SINGLE POINT ENERGY     -3436.748992913279
FINAL SINGLE POINT ENERGY     -3436.752046353527
FINAL SINGLE POINT ENERGY     -3436.753233144925
FINAL SINGLE POINT ENERGY     -3436.753947155045
FINAL SINGLE POINT ENERGY     -3436.754602448020
FINAL SINGLE POINT ENERGY     -3436.755133004160
FINAL SINGLE POINT ENERGY     -3436.755600018419
FINAL SINGLE POINT ENERGY     -3436.756045164286
FINAL SINGLE POINT ENERGY     -3436.756490510642
FINAL SINGLE POINT ENERGY     -3436.756936447522
FINAL SINGLE POINT ENERGY     -3436.759490805577
FINAL SINGLE POINT ENERGY     -3436.759631840986
FINAL SINGLE POINT ENERGY     -3436.759693372187
FINAL SINGLE POINT ENERGY     -3436.759709884649
FINAL SINGLE POINT ENERGY     -3436.759725046194
FINAL SINGLE POINT ENERGY     -3436.759741694126
FINAL SINGLE POINT ENERGY     -3436.759749632642
FINAL SINGLE POINT ENERGY     -3436.759758448272
FINAL SINGLE POINT ENERGY     -3436.759765965881
                    ***********************HURRAY********************

CARTESIAN COORDINATES (ANGSTROEM)
---------------------------------
  Au    10.120799    7.446568    6.506265
  Au     6.778053   10.759364    6.631331
  Au     7.129701    7.645777   10.188649
  Au     7.645507   10.161784    9.205528
  Au     9.604390    8.209208    9.133390
  Au     7.705922    8.395290    5.469389
  Au     5.147029    9.273708    8.416062
  Au     6.441336    5.000269    9.687123
  Au     4.476156    6.937079    9.758649
  Au     3.716748    7.073618    7.121207
  Au     5.607667    6.287966    5.174204
  Au     9.453115   10.097226    7.019235
  Au     5.004680    8.964132    5.565240
  Au     8.301009    5.698873    5.437212
  Au     6.485148    4.334054    7.019616
  Au     8.718579    5.733999    8.278584
  Fe     6.355750    6.949060    7.658776

 Multiplicity           Mult            ....    5
 Number of Electrons    NEL             ....  330
 Basis Dimension        Dim             ....  685

ORBITAL ENERGIES
----------------
                 SPIN UP ORBITALS
  NO   OCC          E(Eh)            E(eV)
   0   1.0000    -254.762089     -6932.4289
   1   1.0000     -29.597748      -805.3957
   2   1.0000     -25.539641      -694.9690
   3   1.0000     -25.538374      -694.9345
   4   1.0000     -25.520861      -694.4579
   5   1.0000      -4.038661      -109.8976
   6   1.0000      -4.038658      -109.8975
   7   1.0000      -4.038620      -109.8964
   8   1.0000      -4.037695      -109.8713
   9   1.0000      -4.033128      -109.7470
  10   1.0000      -4.031773      -109.7101
  11   1.0000      -4.031618      -109.7059
  12   1.0000      -4.030777      -109.6830
  13   1.0000      -4.030755      -109.6824
  14   1.0000      -4.030609      -109.6785
  15   1.0000      -4.030603      -109.6783
  16   1.0000      -4.027138      -109.5840
  17   1.0000      -4.027134      -109.5839
  18   1.0000      -4.023172      -109.4761
  19   1.0000      -4.023024      -109.4720
  20   1.0000      -4.017170      -109.3128
  21   1.0000      -3.379238       -91.9537
  22   1.0000      -2.254531       -61.3489
  23   1.0000      -2.254415       -61.3458
  24   1.0000      -2.254203       -61.3400
  25   1.0000      -2.253509       -61.3211
  26   1.0000      -2.252978       -61.3067
  27   1.0000      -2.250698       -61.2446
  28   1.0000      -2.250642       -61.2431
  29   1.0000      -2.250390       -61.2362
  30   1.0000      -2.250098       -61.2283
  31   1.0000      -2.249736       -61.2184
  32   1.0000      -2.249453       -61.2107
  33   1.0000      -2.249031       -61.1992
  34   1.0000      -2.247860       -61.1674
  35   1.0000      -2.247583       -61.1598
  36   1.0000      -2.247043       -61.1451
  37   1.0000      -2.246968       -61.1431
  38   1.0000      -2.246656       -61.1346
  39   1.0000      -2.246585       -61.1327
  40   1.0000      -2.246059       -61.1184
  41   1.0000      -2.245277       -61.0971
  42   1.0000      -2.245138       -61.0933
  43   1.0000      -2.244576       -61.0780
  44   1.0000      -2.244193       -61.0676
  45   1.0000      -2.243029       -61.0359
  46   1.0000      -2.242869       -61.0316
  47   1.0000      -2.242631       -61.0251
  48   1.0000      -2.242422       -61.0194
  49   1.0000      -2.242293       -61.0159
  50   1.0000      -2.242098       -61.0106
  51   1.0000      -2.242008       -61.0081
  52   1.0000      -2.241240       -60.9872
  53   1.0000      -2.240971       -60.9799
  54   1.0000      -2.240903       -60.9781
  55   1.0000      -2.240388       -60.9641
  56   1.0000      -2.240185       -60.9585
  57   1.0000      -2.239798       -60.9480
  58   1.0000      -2.239781       -60.9476
  59   1.0000      -2.239256       -60.9332
  60   1.0000      -2.238271       -60.9065
  61   1.0000      -2.237845       -60.8949
  62   1.0000      -2.237107       -60.8748
  63   1.0000      -2.237036       -60.8728
  64   1.0000      -2.236643       -60.8621
  65   1.0000      -2.232813       -60.7579
  66   1.0000      -2.232356       -60.7455
  67   1.0000      -2.230925       -60.7065
  68   1.0000      -2.229673       -60.6725
  69   1.0000      -2.226552       -60.5875
  70   1.0000      -2.206937       -60.0538
  71   1.0000      -2.204360       -59.9837
  72   1.0000      -2.167617       -58.9839
  73   1.0000      -0.436851       -11.8873
  74   1.0000      -0.398038       -10.8312
  75   1.0000      -0.395321       -10.7572
  76   1.0000      -0.391252       -10.6465
  77   1.0000      -0.384731       -10.4691
  78   1.0000      -0.382239       -10.4013
  79   1.0000      -0.375187       -10.2094
  80   1.0000      -0.371907       -10.1201
  81   1.0000      -0.371198       -10.1008
  82   1.0000      -0.366114        -9.9625
  83   1.0000      -0.364253        -9.9118
  84   1.0000      -0.363402        -9.8887
  85   1.0000      -0.359900        -9.7934
  86   1.0000      -0.359773        -9.7899
  87   1.0000      -0.356921        -9.7123
  88   1.0000      -0.355723        -9.6797
  89   1.0000      -0.355202        -9.6655
  90   1.0000      -0.352492        -9.5918
  91   1.0000      -0.352331        -9.5874
  92   1.0000      -0.349363        -9.5066
  93   1.0000      -0.347257        -9.4493
  94   1.0000      -0.346923        -9.4402
  95   1.0000      -0.346166        -9.4197
  96   1.0000      -0.345693        -9.4068
  97   1.0000      -0.343744        -9.3537
  98   1.0000      -0.341172        -9.2838
  99   1.0000      -0.340997        -9.2790
 100   1.0000      -0.334626        -9.1056
 101   1.0000      -0.332866        -9.0577
 102   1.0000      -0.330639        -8.9972
 103   1.0000      -0.330341        -8.9890
 104   1.0000      -0.328082        -8.9276
 105   1.0000      -0.325823        -8.8661
 106   1.0000      -0.324661        -8.8345
 107   1.0000      -0.321876        -8.7587
 108   1.0000      -0.321788        -8.7563
 109   1.0000      -0.316685        -8.6174
 110   1.0000      -0.313902        -8.5417
 111   1.0000      -0.311005        -8.4629
 112   1.0000      -0.306286        -8.3345
 113   1.0000      -0.303703        -8.2642
 114   1.0000      -0.302640        -8.2353
 115   1.0000      -0.300520        -8.1776
 116   1.0000      -0.299511        -8.1501
 117   1.0000      -0.298184        -8.1140
 118   1.0000      -0.293060        -7.9746
 119   1.0000      -0.290779        -7.9125
 120   1.0000      -0.289494        -7.8775
 121   1.0000      -0.288980        -7.8635
 122   1.0000      -0.286948        -7.8083
 123   1.0000      -0.284005        -7.7282
 124   1.0000      -0.282726        -7.6934
 125   1.0000      -0.280977        -7.6458
 126   1.0000      -0.280634        -7.6364
 127   1.0000      -0.277469        -7.5503
 128   1.0000      -0.277087        -7.5399
 129   1.0000      -0.276156        -7.5146
 130   1.0000      -0.275843        -7.5061
 131   1.0000      -0.274507        -7.4697
 132   1.0000      -0.273395        -7.4395
 133   1.0000      -0.272429        -7.4132
 134   1.0000      -0.269878        -7.3438
 135   1.0000      -0.268226        -7.2988
 136   1.0000      -0.267103        -7.2682
 137   1.0000      -0.266687        -7.2569
 138   1.0000      -0.265465        -7.2237
 139   1.0000      -0.263739        -7.1767
 140   1.0000      -0.261974        -7.1287
 141   1.0000      -0.261320        -7.1109
 142   1.0000      -0.260733        -7.0949
 143   1.0000      -0.260257        -7.0820
 144   1.0000      -0.258184        -7.0255
 145   1.0000      -0.257068        -6.9952
 146   1.0000      -0.256572        -6.9817
 147   1.0000      -0.254449        -6.9239
 148   1.0000      -0.252824        -6.8797
 149   1.0000      -0.252225        -6.8634
 150   1.0000      -0.250584        -6.8187
 151   1.0000      -0.250573        -6.8184
 152   1.0000      -0.250188        -6.8080
 153   1.0000      -0.249824        -6.7980
 154   1.0000      -0.248049        -6.7498
 155   1.0000      -0.246043        -6.6952
 156   1.0000      -0.245285        -6.6745
 157   1.0000      -0.243753        -6.6329
 158   1.0000      -0.241972        -6.5844
 159   1.0000      -0.241349        -6.5674
 160   1.0000      -0.237554        -6.4642
 161   1.0000      -0.236498        -6.4354
 162   1.0000      -0.225016        -6.1230
 163   1.0000      -0.215882        -5.8744
 164   1.0000      -0.211795        -5.7632
 165   1.0000      -0.210502        -5.7281
 166   1.0000      -0.203412        -5.5351
 167   0.0000      -0.154874        -4.2143
 168   0.0000      -0.146268        -3.9802
 169   0.0000      -0.143866        -3.9148
 170   0.0000      -0.135903        -3.6981
 171   0.0000      -0.127557        -3.4710

                 SPIN DOWN ORBITALS
  NO   OCC          E(Eh)            E(eV)
   0   1.0000    -254.761411     -6932.4104
   1   1.0000     -29.537889      -803.7668
   2   1.0000     -25.491456      -693.6578
   3   1.0000     -25.490822      -693.6405
   4   1.0000     -25.481055      -693.3747
   5   1.0000      -4.037784      -109.8737
   6   1.0000      -4.037627      -109.8694
   7   1.0000      -4.037588      -109.8684
   8   1.0000      -4.036764      -109.8459
   9   1.0000      -4.032715      -109.7358
  10   1.0000      -4.031177      -109.6939
  11   1.0000      -4.031024      -109.6897
  12   1.0000      -4.030520      -109.6760
  13   1.0000      -4.030482      -109.6750
  14   1.0000      -4.029796      -109.6563
  15   1.0000      -4.029778      -109.6558
  16   1.0000      -4.027011      -109.5805
  17   1.0000      -4.027007      -109.5804
  18   1.0000      -4.023079      -109.4735
  19   1.0000      -4.022930      -109.4695
  20   1.0000      -4.017049      -109.3095
  21   1.0000      -3.242767       -88.2402
  22   1.0000      -2.253393       -61.3180
  23   1.0000      -2.253139       -61.3110
  24   1.0000      -2.253076       -61.3093
  25   1.0000      -2.252863       -61.3035
  26   1.0000      -2.251513       -61.2668
  27   1.0000      -2.249957       -61.2245
  28   1.0000      -2.249257       -61.2054
  29   1.0000      -2.249176       -61.2032
  30   1.0000      -2.249156       -61.2026
  31   1.0000      -2.249116       -61.2015
  32   1.0000      -2.248395       -61.1819
  33   1.0000      -2.248299       -61.1793
  34   1.0000      -2.247502       -61.1576
  35   1.0000      -2.247022       -61.1446
  36   1.0000      -2.246573       -61.1324
  37   1.0000      -2.246461       -61.1293
  38   1.0000      -2.246028       -61.1175
  39   1.0000      -2.245787       -61.1110
  40   1.0000      -2.245137       -61.0933
  41   1.0000      -2.244301       -61.0705
  42   1.0000      -2.244095       -61.0649
  43   1.0000      -2.243832       -61.0578
  44   1.0000      -2.243610       -61.0517
  45   1.0000      -2.242619       -61.0248
  46   1.0000      -2.242581       -61.0237
  47   1.0000      -2.242400       -61.0188
  48   1.0000      -2.242142       -61.0118
  49   1.0000      -2.241976       -61.0073
  50   1.0000      -2.241731       -61.0006
  51   1.0000      -2.241375       -60.9909
  52   1.0000      -2.240603       -60.9699
  53   1.0000      -2.240557       -60.9687
  54   1.0000      -2.240483       -60.9666
  55   1.0000      -2.240142       -60.9574
  56   1.0000      -2.239980       -60.9529
  57   1.0000      -2.239159       -60.9306
  58   1.0000      -2.239129       -60.9298
  59   1.0000      -2.239058       -60.9279
  60   1.0000      -2.238130       -60.9026
  61   1.0000      -2.237730       -60.8917
  62   1.0000      -2.236978       -60.8713
  63   1.0000      -2.236926       -60.8698
  64   1.0000      -2.236495       -60.8581
  65   1.0000      -2.232668       -60.7540
  66   1.0000      -2.232296       -60.7439
  67   1.0000      -2.230875       -60.7052
  68   1.0000      -2.229504       -60.6679
  69   1.0000      -2.226486       -60.5858
  70   1.0000      -2.064792       -56.1859
  71   1.0000      -2.064290       -56.1722
  72   1.0000      -2.048988       -55.7558
  73   1.0000      -0.432342       -11.7646
  74   1.0000      -0.396760       -10.7964
  75   1.0000      -0.394012       -10.7216
  76   1.0000      -0.389269       -10.5926
  77   1.0000      -0.376910       -10.2562
  78   1.0000      -0.375127       -10.2077
  79   1.0000      -0.373116       -10.1530
  80   1.0000      -0.369485       -10.0542
  81   1.0000      -0.367762       -10.0073
  82   1.0000      -0.363417        -9.8891
  83   1.0000      -0.362540        -9.8652
  84   1.0000      -0.362158        -9.8548
  85   1.0000      -0.359249        -9.7757
  86   1.0000      -0.356958        -9.7133
  87   1.0000      -0.354976        -9.6594
  88   1.0000      -0.352576        -9.5941
  89   1.0000      -0.352014        -9.5788
  90   1.0000      -0.350896        -9.5484
  91   1.0000      -0.349902        -9.5213
  92   1.0000      -0.347406        -9.4534
  93   1.0000      -0.345657        -9.4058
  94   1.0000      -0.345479        -9.4010
  95   1.0000      -0.344414        -9.3720
  96   1.0000      -0.342723        -9.3260
  97   1.0000      -0.341077        -9.2812
  98   1.0000      -0.339568        -9.2401
  99   1.0000      -0.338275        -9.2049
 100   1.0000      -0.332960        -9.0603
 101   1.0000      -0.332367        -9.0442
 102   1.0000      -0.330042        -8.9809
 103   1.0000      -0.328866        -8.9489
 104   1.0000      -0.327426        -8.9097
 105   1.0000      -0.322541        -8.7768
 106   1.0000      -0.320370        -8.7177
 107   1.0000      -0.316897        -8.6232
 108   1.0000      -0.315752        -8.5921
 109   1.0000      -0.310001        -8.4356
 110   1.0000      -0.307091        -8.3564
 111   1.0000      -0.304295        -8.2803
 112   1.0000      -0.301983        -8.2174
 113   1.0000      -0.301363        -8.2005
 114   1.0000      -0.299501        -8.1498
 115   1.0000      -0.298933        -8.1344
 116   1.0000      -0.296043        -8.0557
 117   1.0000      -0.292894        -7.9701
 118   1.0000      -0.288456        -7.8493
 119   1.0000      -0.288165        -7.8414
 120   1.0000      -0.286386        -7.7930
 121   1.0000      -0.286040        -7.7835
 122   1.0000      -0.284520        -7.7422
 123   1.0000      -0.281443        -7.6585
 124   1.0000      -0.279706        -7.6112
 125   1.0000      -0.279329        -7.6009
 126   1.0000      -0.277478        -7.5506
 127   1.0000      -0.275906        -7.5078
 128   1.0000      -0.274390        -7.4665
 129   1.0000      -0.274106        -7.4588
 130   1.0000      -0.273263        -7.4359
 131   1.0000      -0.271187        -7.3794
 132   1.0000      -0.269776        -7.3410
 133   1.0000      -0.269407        -7.3309
 134   1.0000      -0.268445        -7.3047
 135   1.0000      -0.266658        -7.2561
 136   1.0000      -0.266384        -7.2487
 137   1.0000      -0.263152        -7.1607
 138   1.0000      -0.260822        -7.0973
 139   1.0000      -0.260591        -7.0910
 140   1.0000      -0.260263        -7.0821
 141   1.0000      -0.259712        -7.0671
 142   1.0000      -0.257634        -7.0106
 143   1.0000      -0.256244        -6.9728
 144   1.0000      -0.252696        -6.8762
 145   1.0000      -0.252150        -6.8614
 146   1.0000      -0.250439        -6.8148
 147   1.0000      -0.250258        -6.8099
 148   1.0000      -0.249655        -6.7935
 149   1.0000      -0.248756        -6.7690
 150   1.0000      -0.247967        -6.7475
 151   1.0000      -0.247602        -6.7376
 152   1.0000      -0.245924        -6.6919
 153   1.0000      -0.242186        -6.5902
 154   1.0000      -0.241152        -6.5621
 155   1.0000      -0.237307        -6.4574
 156   1.0000      -0.236487        -6.4351
 157   1.0000      -0.227399        -6.1878
 158   1.0000      -0.219364        -5.9692
 159   1.0000      -0.216938        -5.9032
 160   1.0000      -0.214289        -5.8311
 161   1.0000      -0.211142        -5.7455
 162   1.0000      -0.184689        -5.0257
 163   0.0000      -0.169697        -4.6177
 164   0.0000      -0.168085        -4.5738
 165   0.0000      -0.159961        -4.3528
 166   0.0000      -0.155301        -4.2260
 167   0.0000      -0.148835        -4.0500

MULLIKEN ATOMIC CHARGES AND SPIN POPULATIONS
--------------------------------------------
   0 Au:    0.239394    0.041678
   1 Au:    0.239853    0.041759
   2 Au:   -0.118273    0.078042
   3 Au:    0.178228    0.038066
   4 Au:    0.175713    0.038004
   5 Au:   -0.603266    0.072665
   6 Au:   -0.163082    0.088917
   7 Au:    0.368653    0.049198
   8 Au:    0.368852    0.048640
   9 Au:    0.331815    0.057788
  10 Au:    0.307031    0.067089
  11 Au:    0.152350   -0.021884
  12 Au:    0.205444    0.039448
  13 Au:    0.206334    0.039688
  14 Au:    0.332118    0.057808
  15 Au:   -0.161317    0.088801
  16 Fe:   -2.059849    3.174291
Sum of atomic charges         :   -0.0000000

LOEWDIN ATOMIC CHARGES AND SPIN POPULATIONS
-------------------------------------------
   0 Au:    0.025375    0.037449
   1 Au:    0.025190    0.037484
   2 Au:   -0.009177    0.063828
   3 Au:   -0.002439    0.033104
   4 Au:   -0.002810    0.033002
   5 Au:   -0.056943    0.043157
   6 Au:   -0.003033    0.072921
   7 Au:    0.081622    0.037490
   8 Au:    0.081741    0.037114
   9 Au:    0.089870    0.044316
  10 Au:    0.046208    0.055255
  11 Au:    0.003399    0.004447
  12 Au:    0.023996    0.042542
  13 Au:    0.024085    0.042666
  14 Au:    0.090287    0.044442
  15 Au:   -0.003161    0.072852
  16 Fe:   -0.414209    3.297934

  Mayer bond orders larger than 0.100000
B(  0-Au,  4-Au) :   0.2238 B(  0-Au,  5-Au) :   0.3503 B(  0-Au, 11-Au) :   0.3049
B(  0-Au, 13-Au) :   0.3202 B(  0-Au, 15-Au) :   0.2729 B(  1-Au,  3-Au) :   0.2250
B(  1-Au,  5-Au) :   0.3517 B(  1-Au,  6-Au) :   0.2717 B(  1-Au, 11-Au) :   0.3036
B(  1-Au, 12-Au) :   0.3206 B(  2-Au,  3-Au) :   0.2835 B(  2-Au,  4-Au) :   0.2833
B(  2-Au,  6-Au) :   0.1196 B(  2-Au,  7-Au) :   0.2659 B(  2-Au,  8-Au) :   0.2663
B(  2-Au, 15-Au) :   0.1177 B(  2-Au, 16-Fe) :   0.4659 B(  3-Au,  4-Au) :   0.2770
B(  3-Au,  6-Au) :   0.3314 B(  3-Au, 11-Au) :   0.2500 B(  3-Au, 16-Fe) :   0.1168
B(  4-Au, 11-Au) :   0.2492 B(  4-Au, 15-Au) :   0.3318 B(  4-Au, 16-Fe) :   0.1183
B(  5-Au, 10-Au) :   0.2179 B(  5-Au, 11-Au) :   0.2989 B(  5-Au, 12-Au) :   0.3144
B(  5-Au, 13-Au) :   0.3154 B(  5-Au, 16-Fe) :   0.3445 B(  6-Au,  8-Au) :   0.2454
B(  6-Au,  9-Au) :   0.1823 B(  6-Au, 12-Au) :   0.1850 B(  6-Au, 16-Fe) :   0.4764
B(  7-Au,  8-Au) :   0.2190 B(  7-Au, 14-Au) :   0.2226 B(  7-Au, 15-Au) :   0.2442
B(  7-Au, 16-Fe) :   0.3493 B(  8-Au,  9-Au) :   0.2242 B(  8-Au, 16-Fe) :   0.3465
B(  9-Au, 10-Au) :   0.1435 B(  9-Au, 12-Au) :   0.2482 B(  9-Au, 16-Fe) :   0.4627
B( 10-Au, 12-Au) :   0.2377 B( 10-Au, 13-Au) :   0.2386 B( 10-Au, 14-Au) :   0.1425
B( 10-Au, 16-Fe) :   0.4677 B( 12-Au, 16-Fe) :   0.2437 B( 13-Au, 14-Au) :   0.2477
B( 13-Au, 15-Au) :   0.1844 B( 13-Au, 16-Fe) :   0.2424 B( 14-Au, 15-Au) :   0.1839
B( 14-Au, 16-Fe) :   0.4630 B( 15-Au, 16-Fe) :   0.4765

FINAL SINGLE POINT ENERGY     -3436.759769556724

DIPOLE MOMENT
-------------
                                X             Y             Z
Electronic contribution:     25.09643      25.54845      -4.61916
Nuclear contribution   :    -25.46122     -25.91602       4.61373
                        -----------------------------------------
Total Dipole Moment    :     -0.36480      -0.36757      -0.00543
                        -----------------------------------------
Magnitude (a.u.)       :      0.51789
Magnitude (Debye)      :      1.31637

Rotational constants in cm-1:     0.000915     0.000814     0.000771
Rotational constants in MHz :    27.417372    24.395996    23.103738

                             ****ORCA TERMINATED NORMALLY****
TOTAL RUN TIME: 0 days 5 hours 58 minutes 10 seconds 387 msec
