                         Program Version 5.0.3 -  RELEASE  -
|  1> %pal nprocs 1 end
|  2>
|  3> !PBE def2-TZVP OPT UNO
|  4> !SLOWCONV KDIIS
|  5>
|  6> %geom maxiter 300 end
|  7>
|  8> *xyzfile 0 3 1.xyz                           ****END OF INPUT****
 Total Charge           Charge          ....    0
 Multiplicity           Mult            ....    3
 Number of Electrons    NEL             ....  214
FINAL SINGLE POINT ENERGY     -2402.478727480172
FINAL SINGLE POINT ENERGY     -2402.480382183960
FINAL SINGLE POINT ENERGY     -2402.481165856983
FINAL SINGLE POINT ENERGY     -2402.481384509248
FINAL SINGLE POINT ENERGY     -2402.481621400901
FINAL SINGLE POINT ENERGY     -2402.481793072712
FINAL SINGLE POINT ENERGY     -2402.481901716103
FINAL SINGLE POINT ENERGY     -2402.481925309366
FINAL SINGLE POINT ENERGY     -2402.481935566073
FINAL SINGLE POINT ENERGY     -2402.481944713882
FINAL SINGLE POINT ENERGY     -2402.484347478674
FINAL SINGLE POINT ENERGY     -2402.485057842212
FINAL SINGLE POINT ENERGY     -2402.485138892714
FINAL SINGLE POINT ENERGY     -2402.485211237528
FINAL SINGLE POINT ENERGY     -2402.485264015307
FINAL SINGLE POINT ENERGY     -2402.485288369180
FINAL SINGLE POINT ENERGY     -2402.485298289945
FINAL SINGLE POINT ENERGY     -2402.485302749546
FINAL SINGLE POINT ENERGY     -2402.485304864083
                    ***********************HURRAY********************

CARTESIAN COORDINATES (ANGSTROEM)
---------------------------------
  Au     8.711051    8.719105    7.709524
  Au     9.166369    6.157271   10.266612
  Au     6.758198    4.799679    9.443429
  Au     6.286295    7.467147    6.780946
  Au     6.897393    7.574595    9.489605
  Au     9.891817    4.465608    5.849188
  Au     8.212884    3.332494    7.745308
  Au     7.712762    5.993941    5.064697
  Au    10.615694    4.733848    8.526341
  Au    10.147892    7.235071    6.010795
  Cr     8.400059    6.030414    7.678322

 Multiplicity           Mult            ....    3
 Number of Electrons    NEL             ....  214
 Basis Dimension        Dim             ....  445

ORBITAL ENERGIES
----------------
                 SPIN UP ORBITALS
  NO   OCC          E(Eh)            E(eV)
   0   1.0000    -214.510318     -5837.1225
   1   1.0000     -24.313238      -661.5968
   2   1.0000     -20.677672      -562.6681
   3   1.0000     -20.677441      -562.6618
   4   1.0000     -20.675526      -562.6097
   5   1.0000      -4.024810      -109.5206
   6   1.0000      -4.024655      -109.5164
   7   1.0000      -4.015786      -109.2751
   8   1.0000      -4.015765      -109.2745
   9   1.0000      -4.015550      -109.2687
  10   1.0000      -4.015529      -109.2681
  11   1.0000      -4.015476      -109.2667
  12   1.0000      -4.015435      -109.2655
  13   1.0000      -4.015276      -109.2612
  14   1.0000      -4.015269      -109.2610
  15   1.0000      -2.808114       -76.4127
  16   1.0000      -2.239986       -60.9531
  17   1.0000      -2.239721       -60.9459
  18   1.0000      -2.237940       -60.8974
  19   1.0000      -2.237772       -60.8929
  20   1.0000      -2.236575       -60.8603
  21   1.0000      -2.236489       -60.8580
  22   1.0000      -2.234113       -60.7933
  23   1.0000      -2.234087       -60.7926
  24   1.0000      -2.233608       -60.7796
  25   1.0000      -2.233594       -60.7792
  26   1.0000      -2.232195       -60.7411
  27   1.0000      -2.232055       -60.7373
  28   1.0000      -2.231413       -60.7198
  29   1.0000      -2.231372       -60.7187
  30   1.0000      -2.231266       -60.7158
  31   1.0000      -2.230976       -60.7079
  32   1.0000      -2.230721       -60.7010
  33   1.0000      -2.230323       -60.6902
  34   1.0000      -2.227840       -60.6226
  35   1.0000      -2.227708       -60.6190
  36   1.0000      -2.227421       -60.6112
  37   1.0000      -2.227290       -60.6076
  38   1.0000      -2.224229       -60.5243
  39   1.0000      -2.224178       -60.5230
  40   1.0000      -2.223654       -60.5087
  41   1.0000      -2.223603       -60.5073
  42   1.0000      -2.222969       -60.4901
  43   1.0000      -2.222945       -60.4894
  44   1.0000      -2.222468       -60.4764
  45   1.0000      -2.222449       -60.4759
  46   1.0000      -1.798396       -48.9368
  47   1.0000      -1.797379       -48.9092
  48   1.0000      -1.795332       -48.8535
  49   1.0000      -0.407861       -11.0985
  50   1.0000      -0.365931        -9.9575
  51   1.0000      -0.361406        -9.8344
  52   1.0000      -0.360941        -9.8217
  53   1.0000      -0.357901        -9.7390
  54   1.0000      -0.349339        -9.5060
  55   1.0000      -0.343996        -9.3606
  56   1.0000      -0.343800        -9.3553
  57   1.0000      -0.337886        -9.1943
  58   1.0000      -0.337304        -9.1785
  59   1.0000      -0.332998        -9.0613
  60   1.0000      -0.332738        -9.0543
  61   1.0000      -0.329653        -8.9703
  62   1.0000      -0.329224        -8.9587
  63   1.0000      -0.323871        -8.8130
  64   1.0000      -0.319991        -8.7074
  65   1.0000      -0.319312        -8.6889
  66   1.0000      -0.313154        -8.5213
  67   1.0000      -0.312517        -8.5040
  68   1.0000      -0.305496        -8.3130
  69   1.0000      -0.303079        -8.2472
  70   1.0000      -0.300748        -8.1838
  71   1.0000      -0.299758        -8.1568
  72   1.0000      -0.298736        -8.1290
  73   1.0000      -0.297934        -8.1072
  74   1.0000      -0.289614        -7.8808
  75   1.0000      -0.286677        -7.8009
  76   1.0000      -0.284589        -7.7441
  77   1.0000      -0.284239        -7.7345
  78   1.0000      -0.282883        -7.6976
  79   1.0000      -0.277238        -7.5440
  80   1.0000      -0.272759        -7.4221
  81   1.0000      -0.269089        -7.3223
  82   1.0000      -0.265901        -7.2355
  83   1.0000      -0.265490        -7.2244
  84   1.0000      -0.264697        -7.2028
  85   1.0000      -0.263325        -7.1654
  86   1.0000      -0.261295        -7.1102
  87   1.0000      -0.260745        -7.0952
  88   1.0000      -0.260381        -7.0853
  89   1.0000      -0.254888        -6.9359
  90   1.0000      -0.251850        -6.8532
  91   1.0000      -0.249358        -6.7854
  92   1.0000      -0.248769        -6.7693
  93   1.0000      -0.248224        -6.7545
  94   1.0000      -0.245961        -6.6929
  95   1.0000      -0.244843        -6.6625
  96   1.0000      -0.241468        -6.5707
  97   1.0000      -0.240925        -6.5559
  98   1.0000      -0.239526        -6.5178
  99   1.0000      -0.237721        -6.4687
 100   1.0000      -0.235893        -6.4190
 101   1.0000      -0.225303        -6.1308
 102   1.0000      -0.217610        -5.9215
 103   1.0000      -0.215934        -5.8759
 104   1.0000      -0.215187        -5.8555
 105   1.0000      -0.213164        -5.8005
 106   1.0000      -0.211215        -5.7474
 107   1.0000      -0.207939        -5.6583
 108   0.0000      -0.171529        -4.6675
 109   0.0000      -0.169147        -4.6027
 110   0.0000      -0.162421        -4.4197
 111   0.0000      -0.148864        -4.0508
 112   0.0000      -0.113758        -3.0955

                 SPIN DOWN ORBITALS
  NO   OCC          E(Eh)            E(eV)
   0   1.0000    -214.509911     -5837.1114
   1   1.0000     -24.270912      -660.4451
   2   1.0000     -20.647175      -561.8382
   3   1.0000     -20.645709      -561.7983
   4   1.0000     -20.640713      -561.6623
   5   1.0000      -4.024811      -109.5207
   6   1.0000      -4.024682      -109.5172
   7   1.0000      -4.015370      -109.2638
   8   1.0000      -4.015357      -109.2634
   9   1.0000      -4.015132      -109.2573
  10   1.0000      -4.015114      -109.2568
  11   1.0000      -4.015065      -109.2555
  12   1.0000      -4.015030      -109.2545
  13   1.0000      -4.014854      -109.2497
  14   1.0000      -4.014852      -109.2497
  15   1.0000      -2.694305       -73.3158
  16   1.0000      -2.239679       -60.9448
  17   1.0000      -2.239455       -60.9387
  18   1.0000      -2.238196       -60.9044
  19   1.0000      -2.238037       -60.9001
  20   1.0000      -2.236465       -60.8573
  21   1.0000      -2.236361       -60.8545
  22   1.0000      -2.233468       -60.7758
  23   1.0000      -2.233463       -60.7756
  24   1.0000      -2.233048       -60.7643
  25   1.0000      -2.233026       -60.7637
  26   1.0000      -2.231359       -60.7184
  27   1.0000      -2.231253       -60.7155
  28   1.0000      -2.231043       -60.7098
  29   1.0000      -2.230725       -60.7011
  30   1.0000      -2.230485       -60.6946
  31   1.0000      -2.230375       -60.6916
  32   1.0000      -2.230283       -60.6891
  33   1.0000      -2.229912       -60.6790
  34   1.0000      -2.227684       -60.6184
  35   1.0000      -2.227579       -60.6155
  36   1.0000      -2.227291       -60.6077
  37   1.0000      -2.227169       -60.6043
  38   1.0000      -2.223793       -60.5125
  39   1.0000      -2.223739       -60.5110
  40   1.0000      -2.223254       -60.4978
  41   1.0000      -2.223201       -60.4964
  42   1.0000      -2.222577       -60.4794
  43   1.0000      -2.222553       -60.4787
  44   1.0000      -2.222091       -60.4662
  45   1.0000      -2.222070       -60.4656
  46   1.0000      -1.691568       -46.0299
  47   1.0000      -1.688140       -45.9366
  48   1.0000      -1.675165       -45.5836
  49   1.0000      -0.401436       -10.9236
  50   1.0000      -0.366100        -9.9621
  51   1.0000      -0.361739        -9.8434
  52   1.0000      -0.356774        -9.7083
  53   1.0000      -0.352365        -9.5883
  54   1.0000      -0.349404        -9.5078
  55   1.0000      -0.344690        -9.3795
  56   1.0000      -0.343867        -9.3571
  57   1.0000      -0.337457        -9.1827
  58   1.0000      -0.332099        -9.0369
  59   1.0000      -0.330788        -9.0012
  60   1.0000      -0.329875        -8.9764
  61   1.0000      -0.328431        -8.9371
  62   1.0000      -0.328174        -8.9301
  63   1.0000      -0.324436        -8.8283
  64   1.0000      -0.320979        -8.7343
  65   1.0000      -0.319468        -8.6932
  66   1.0000      -0.314001        -8.5444
  67   1.0000      -0.312414        -8.5012
  68   1.0000      -0.306116        -8.3298
  69   1.0000      -0.303795        -8.2667
  70   1.0000      -0.300035        -8.1644
  71   1.0000      -0.299159        -8.1405
  72   1.0000      -0.294384        -8.0106
  73   1.0000      -0.293272        -7.9803
  74   1.0000      -0.290384        -7.9017
  75   1.0000      -0.287176        -7.8145
  76   1.0000      -0.284738        -7.7481
  77   1.0000      -0.281790        -7.6679
  78   1.0000      -0.278410        -7.5759
  79   1.0000      -0.277167        -7.5421
  80   1.0000      -0.273667        -7.4469
  81   1.0000      -0.270381        -7.3574
  82   1.0000      -0.267241        -7.2720
  83   1.0000      -0.266251        -7.2451
  84   1.0000      -0.265483        -7.2241
  85   1.0000      -0.263131        -7.1602
  86   1.0000      -0.262442        -7.1414
  87   1.0000      -0.261972        -7.1286
  88   1.0000      -0.261173        -7.1069
  89   1.0000      -0.255525        -6.9532
  90   1.0000      -0.253291        -6.8924
  91   1.0000      -0.250244        -6.8095
  92   1.0000      -0.249578        -6.7914
  93   1.0000      -0.248529        -6.7628
  94   1.0000      -0.246493        -6.7074
  95   1.0000      -0.245398        -6.6776
  96   1.0000      -0.244131        -6.6431
  97   1.0000      -0.242651        -6.6029
  98   1.0000      -0.241115        -6.5611
  99   1.0000      -0.238281        -6.4839
 100   1.0000      -0.237912        -6.4739
 101   1.0000      -0.225844        -6.1455
 102   1.0000      -0.217351        -5.9144
 103   1.0000      -0.200659        -5.4602
 104   1.0000      -0.198605        -5.4043
 105   1.0000      -0.195366        -5.3162
 106   0.0000      -0.168607        -4.5880
 107   0.0000      -0.121507        -3.3064
 108   0.0000      -0.118686        -3.2296
 109   0.0000      -0.117377        -3.1940
 110   0.0000      -0.117179        -3.1886

MULLIKEN ATOMIC CHARGES AND SPIN POPULATIONS
--------------------------------------------
   0 Au:    0.370417   -0.053371
   1 Au:    0.371876   -0.053106
   2 Au:    0.319480   -0.053289
   3 Au:    0.319852   -0.055031
   4 Au:    0.455956   -0.163549
   5 Au:    0.461943   -0.163962
   6 Au:    0.314985   -0.056029
   7 Au:    0.314138   -0.053980
   8 Au:    0.374870   -0.052886
   9 Au:    0.375870   -0.052604
  10 Cr:   -3.679387    2.757806
Sum of atomic charges         :   -0.0000000

LOEWDIN ATOMIC CHARGES AND SPIN POPULATIONS
-------------------------------------------
   0 Au:    0.114799   -0.074186
   1 Au:    0.114131   -0.073975
   2 Au:    0.116601   -0.074484
   3 Au:    0.115558   -0.075734
   4 Au:    0.076044   -0.136174
   5 Au:    0.076235   -0.137021
   6 Au:    0.114844   -0.075932
   7 Au:    0.115895   -0.074474
   8 Au:    0.113477   -0.073774
   9 Au:    0.112846   -0.073497
  10 Cr:   -1.070429    2.869252

  Mayer bond orders larger than 0.100000
B(  0-Au,  4-Au) :   0.2082 B(  0-Au,  6-Au) :   0.1049 B(  0-Au,  9-Au) :   0.3991
B(  0-Au, 10-Cr) :   0.7153 B(  1-Au,  4-Au) :   0.2081 B(  1-Au,  7-Au) :   0.1056
B(  1-Au,  8-Au) :   0.3987 B(  1-Au, 10-Cr) :   0.7204 B(  2-Au,  4-Au) :   0.2099
B(  2-Au,  6-Au) :   0.4522 B(  2-Au,  9-Au) :   0.1061 B(  2-Au, 10-Cr) :   0.6907
B(  3-Au,  4-Au) :   0.2104 B(  3-Au,  7-Au) :   0.4523 B(  3-Au,  8-Au) :   0.1054
B(  3-Au, 10-Cr) :   0.6901 B(  4-Au, 10-Cr) :   0.5931 B(  5-Au,  6-Au) :   0.2159
B(  5-Au,  7-Au) :   0.2155 B(  5-Au,  8-Au) :   0.2033 B(  5-Au,  9-Au) :   0.2029
B(  5-Au, 10-Cr) :   0.5877 B(  6-Au, 10-Cr) :   0.6946 B(  7-Au, 10-Cr) :   0.6955
B(  8-Au, 10-Cr) :   0.7123 B(  9-Au, 10-Cr) :   0.7172

FINAL SINGLE POINT ENERGY     -2402.485306411974

DIPOLE MOMENT
-------------
                                X             Y             Z
Electronic contribution:      1.42140       0.62722       0.37340
Nuclear contribution   :     -1.39724      -0.61030      -0.36079
                        -----------------------------------------
Total Dipole Moment    :      0.02415       0.01692       0.01262
                        -----------------------------------------
Magnitude (a.u.)       :      0.03207
Magnitude (Debye)      :      0.08153

Rotational constants in cm-1:     0.001937     0.001825     0.001481
Rotational constants in MHz :    58.064868    54.699983    44.410713

                             ****ORCA TERMINATED NORMALLY****
TOTAL RUN TIME: 0 days 3 hours 2 minutes 48 seconds 28 msec
