                         Program Version 5.0.3 -  RELEASE  -
|  1> !RI-B2PLYP def2-TZVP def2-TZVP/C
|  2> !RIJCOSX VERYSLOWCONV
|  3>
|  4> %scf
|  5>   AutoTRAHIter 200
|  6>   maxiter 400
|  7> end
|  8>
|  9>
| 10> %pal nprocs 6 end
| 11>
| 12> *xyzfile 0 6 pbe.xyz
| 13>
| 14> $new_job
| 15>
| 16> !RI-B2PLYP def2-TZVP def2-TZVP/C
| 17> !RIJCOSX VERYSLOWCONV
| 18>
| 19> %scf
| 20>   AutoTRAHIter 200
| 21>   maxiter 400
| 22> end
| 23>
| 24>
| 25> %pal nprocs 6 end
| 26>
| 27> *xyzfile 0 4 pbe.xyz
| 28>
| 29>
| 30>
| 31>
| 32>
| 33>                          ****END OF INPUT****
 Total Charge           Charge          ....    0
 Multiplicity           Mult            ....    6
 Number of Electrons    NEL             ....  329
MP2 TOTAL ENERGY:    -3320.290376971 Eh
FINAL SINGLE POINT ENERGY     -3320.290376970727

CARTESIAN COORDINATES (ANGSTROEM)
---------------------------------
  Au     7.083788    5.157059    6.450680
  Au     5.692239    5.972469    8.700247
  Au     7.376599    7.939765   10.143253
  Au     9.724622    8.247929    8.712807
  Au     9.172443   10.053047    6.684847
  Au     8.134687   10.533115    9.264112
  Au     8.866438    7.327652    6.185253
  Au     4.673203    7.635696   10.664003
  Au     5.460162    9.992867    9.446571
  Au     3.820993   10.804016    7.330966
  Au     3.841824    8.106071    8.065801
  Au     4.921930    8.973209    5.594891
  Au     4.487359    6.264933    6.148380
  Au     7.426942    9.704173    4.614167
  Au     6.552371   10.879947    6.986479
  Au     6.638301    7.093039    4.521439
  Mn     8.326718    6.069170    8.537417

 Multiplicity           Mult            ....    4
 Number of Electrons    NEL             ....  329
 Basis Dimension        Dim             ....  685

ORBITAL ENERGIES
----------------
                 SPIN UP ORBITALS
  NO   OCC          E(Eh)            E(eV)
   0   1.0000    -237.645354     -6466.6588
   1   1.0000     -28.151184      -766.0327
   2   1.0000     -24.069138      -654.9546
   3   1.0000     -24.068219      -654.9295
   4   1.0000     -24.067738      -654.9164
   5   1.0000      -4.412390      -120.0672
   6   1.0000      -4.408464      -119.9604
   7   1.0000      -4.407764      -119.9413
   8   1.0000      -4.404028      -119.8397
   9   1.0000      -4.402165      -119.7890
  10   1.0000      -4.400128      -119.7336
  11   1.0000      -4.399703      -119.7220
  12   1.0000      -4.398583      -119.6915
  13   1.0000      -4.398202      -119.6812
  14   1.0000      -4.397754      -119.6690
  15   1.0000      -4.394717      -119.5863
  16   1.0000      -4.394678      -119.5853
  17   1.0000      -4.394466      -119.5795
  18   1.0000      -4.392186      -119.5175
  19   1.0000      -4.388175      -119.4083
  20   1.0000      -4.387567      -119.3918
  21   1.0000      -3.629938       -98.7756
  22   1.0000      -2.533795       -68.9481
  23   1.0000      -2.530407       -68.8559
  24   1.0000      -2.529753       -68.8381
  25   1.0000      -2.528232       -68.7967
  26   1.0000      -2.526295       -68.7440
  27   1.0000      -2.525380       -68.7191
  28   1.0000      -2.524751       -68.7020
  29   1.0000      -2.524111       -68.6845
  30   1.0000      -2.522869       -68.6508
  31   1.0000      -2.522563       -68.6424
  32   1.0000      -2.521630       -68.6170
  33   1.0000      -2.521368       -68.6099
  34   1.0000      -2.521186       -68.6049
  35   1.0000      -2.520866       -68.5963
  36   1.0000      -2.520092       -68.5752
  37   1.0000      -2.519762       -68.5662
  38   1.0000      -2.519112       -68.5485
  39   1.0000      -2.518622       -68.5352
  40   1.0000      -2.518228       -68.5245
  41   1.0000      -2.517613       -68.5077
  42   1.0000      -2.517439       -68.5030
  43   1.0000      -2.516659       -68.4818
  44   1.0000      -2.516137       -68.4676
  45   1.0000      -2.515268       -68.4439
  46   1.0000      -2.515091       -68.4391
  47   1.0000      -2.514261       -68.4165
  48   1.0000      -2.513790       -68.4037
  49   1.0000      -2.513584       -68.3981
  50   1.0000      -2.513239       -68.3887
  51   1.0000      -2.512945       -68.3807
  52   1.0000      -2.512423       -68.3665
  53   1.0000      -2.511981       -68.3545
  54   1.0000      -2.511566       -68.3432
  55   1.0000      -2.511155       -68.3320
  56   1.0000      -2.510903       -68.3252
  57   1.0000      -2.510548       -68.3155
  58   1.0000      -2.510165       -68.3051
  59   1.0000      -2.509997       -68.3005
  60   1.0000      -2.509079       -68.2755
  61   1.0000      -2.508759       -68.2668
  62   1.0000      -2.508420       -68.2576
  63   1.0000      -2.506268       -68.1990
  64   1.0000      -2.505676       -68.1829
  65   1.0000      -2.505110       -68.1675
  66   1.0000      -2.505080       -68.1667
  67   1.0000      -2.504460       -68.1498
  68   1.0000      -2.503496       -68.1236
  69   1.0000      -2.502791       -68.1044
  70   1.0000      -2.431712       -66.1702
  71   1.0000      -2.430033       -66.1246
  72   1.0000      -2.429475       -66.1094
  73   1.0000      -0.526535       -14.3277
  74   1.0000      -0.526130       -14.3167
  75   1.0000      -0.524429       -14.2704
  76   1.0000      -0.523293       -14.2395
  77   1.0000      -0.516776       -14.0622
  78   1.0000      -0.478026       -13.0077
  79   1.0000      -0.472156       -12.8480
  80   1.0000      -0.471970       -12.8430
  81   1.0000      -0.471732       -12.8365
  82   1.0000      -0.467582       -12.7235
  83   1.0000      -0.465680       -12.6718
  84   1.0000      -0.462870       -12.5953
  85   1.0000      -0.461360       -12.5542
  86   1.0000      -0.458978       -12.4894
  87   1.0000      -0.458608       -12.4794
  88   1.0000      -0.455940       -12.4068
  89   1.0000      -0.455364       -12.3911
  90   1.0000      -0.454392       -12.3646
  91   1.0000      -0.453338       -12.3360
  92   1.0000      -0.449996       -12.2450
  93   1.0000      -0.449541       -12.2326
  94   1.0000      -0.449444       -12.2300
  95   1.0000      -0.447687       -12.1822
  96   1.0000      -0.446086       -12.1386
  97   1.0000      -0.445752       -12.1295
  98   1.0000      -0.443966       -12.0809
  99   1.0000      -0.441785       -12.0216
 100   1.0000      -0.441422       -12.0117
 101   1.0000      -0.438926       -11.9438
 102   1.0000      -0.437131       -11.8949
 103   1.0000      -0.435293       -11.8449
 104   1.0000      -0.431278       -11.7357
 105   1.0000      -0.429924       -11.6988
 106   1.0000      -0.423451       -11.5227
 107   1.0000      -0.421609       -11.4726
 108   1.0000      -0.419905       -11.4262
 109   1.0000      -0.415542       -11.3075
 110   1.0000      -0.414868       -11.2891
 111   1.0000      -0.410429       -11.1683
 112   1.0000      -0.410121       -11.1600
 113   1.0000      -0.405678       -11.0391
 114   1.0000      -0.404548       -11.0083
 115   1.0000      -0.400037       -10.8856
 116   1.0000      -0.399470       -10.8701
 117   1.0000      -0.398076       -10.8322
 118   1.0000      -0.395405       -10.7595
 119   1.0000      -0.394686       -10.7400
 120   1.0000      -0.393185       -10.6991
 121   1.0000      -0.386824       -10.5260
 122   1.0000      -0.385379       -10.4867
 123   1.0000      -0.382060       -10.3964
 124   1.0000      -0.381752       -10.3880
 125   1.0000      -0.378746       -10.3062
 126   1.0000      -0.377344       -10.2680
 127   1.0000      -0.375823       -10.2267
 128   1.0000      -0.374726       -10.1968
 129   1.0000      -0.374413       -10.1883
 130   1.0000      -0.372372       -10.1328
 131   1.0000      -0.370056       -10.0697
 132   1.0000      -0.366372        -9.9695
 133   1.0000      -0.366219        -9.9653
 134   1.0000      -0.364945        -9.9307
 135   1.0000      -0.362641        -9.8680
 136   1.0000      -0.359073        -9.7709
 137   1.0000      -0.358535        -9.7562
 138   1.0000      -0.358251        -9.7485
 139   1.0000      -0.357579        -9.7302
 140   1.0000      -0.356278        -9.6948
 141   1.0000      -0.355893        -9.6843
 142   1.0000      -0.350982        -9.5507
 143   1.0000      -0.350361        -9.5338
 144   1.0000      -0.349677        -9.5152
 145   1.0000      -0.348426        -9.4812
 146   1.0000      -0.346774        -9.4362
 147   1.0000      -0.345428        -9.3996
 148   1.0000      -0.344506        -9.3745
 149   1.0000      -0.343313        -9.3420
 150   1.0000      -0.339653        -9.2424
 151   1.0000      -0.339326        -9.2335
 152   1.0000      -0.337776        -9.1914
 153   1.0000      -0.335898        -9.1402
 154   1.0000      -0.333361        -9.0712
 155   1.0000      -0.326100        -8.8736
 156   1.0000      -0.322892        -8.7863
 157   1.0000      -0.320578        -8.7234
 158   1.0000      -0.318284        -8.6609
 159   1.0000      -0.317119        -8.6292
 160   1.0000      -0.315562        -8.5869
 161   1.0000      -0.313927        -8.5424
 162   1.0000      -0.262019        -7.1299
 163   1.0000      -0.239971        -6.5299
 164   1.0000      -0.237666        -6.4672
 165   1.0000      -0.226289        -6.1576
 166   0.0000      -0.152779        -4.1573
 167   0.0000      -0.083527        -2.2729
 168   0.0000      -0.075227        -2.0470
 169   0.0000      -0.074072        -2.0156
 170   0.0000      -0.071038        -1.9331

                 SPIN DOWN ORBITALS
  NO   OCC          E(Eh)            E(eV)
   0   1.0000    -237.643255     -6466.6017
   1   1.0000     -28.049049      -763.2534
   2   1.0000     -23.975018      -652.3934
   3   1.0000     -23.974718      -652.3852
   4   1.0000     -23.974308      -652.3741
   5   1.0000      -4.412579      -120.0724
   6   1.0000      -4.408339      -119.9570
   7   1.0000      -4.408130      -119.9513
   8   1.0000      -4.403771      -119.8327
   9   1.0000      -4.402949      -119.8103
  10   1.0000      -4.400310      -119.7385
  11   1.0000      -4.400053      -119.7315
  12   1.0000      -4.399758      -119.7235
  13   1.0000      -4.399208      -119.7085
  14   1.0000      -4.398245      -119.6823
  15   1.0000      -4.396371      -119.6313
  16   1.0000      -4.395935      -119.6195
  17   1.0000      -4.395221      -119.6001
  18   1.0000      -4.393461      -119.5522
  19   1.0000      -4.388516      -119.4176
  20   1.0000      -4.387843      -119.3993
  21   1.0000      -3.342259       -90.9475
  22   1.0000      -2.533525       -68.9407
  23   1.0000      -2.530297       -68.8529
  24   1.0000      -2.528955       -68.8164
  25   1.0000      -2.527381       -68.7735
  26   1.0000      -2.525725       -68.7285
  27   1.0000      -2.524699       -68.7006
  28   1.0000      -2.524622       -68.6985
  29   1.0000      -2.523495       -68.6678
  30   1.0000      -2.522921       -68.6522
  31   1.0000      -2.522226       -68.6333
  32   1.0000      -2.521923       -68.6250
  33   1.0000      -2.521698       -68.6189
  34   1.0000      -2.521365       -68.6098
  35   1.0000      -2.520845       -68.5957
  36   1.0000      -2.520575       -68.5883
  37   1.0000      -2.519836       -68.5682
  38   1.0000      -2.519326       -68.5543
  39   1.0000      -2.518916       -68.5432
  40   1.0000      -2.518191       -68.5235
  41   1.0000      -2.517627       -68.5081
  42   1.0000      -2.517561       -68.5063
  43   1.0000      -2.517238       -68.4975
  44   1.0000      -2.516761       -68.4846
  45   1.0000      -2.516147       -68.4678
  46   1.0000      -2.515780       -68.4578
  47   1.0000      -2.515623       -68.4536
  48   1.0000      -2.514543       -68.4242
  49   1.0000      -2.514305       -68.4177
  50   1.0000      -2.514043       -68.4106
  51   1.0000      -2.513736       -68.4022
  52   1.0000      -2.513361       -68.3920
  53   1.0000      -2.512873       -68.3787
  54   1.0000      -2.512336       -68.3641
  55   1.0000      -2.512214       -68.3608
  56   1.0000      -2.511684       -68.3464
  57   1.0000      -2.511347       -68.3372
  58   1.0000      -2.511199       -68.3332
  59   1.0000      -2.510868       -68.3242
  60   1.0000      -2.510498       -68.3141
  61   1.0000      -2.509861       -68.2968
  62   1.0000      -2.509520       -68.2875
  63   1.0000      -2.507627       -68.2360
  64   1.0000      -2.506135       -68.1954
  65   1.0000      -2.505635       -68.1818
  66   1.0000      -2.505470       -68.1773
  67   1.0000      -2.504706       -68.1565
  68   1.0000      -2.503914       -68.1350
  69   1.0000      -2.503035       -68.1110
  70   1.0000      -2.102731       -57.2182
  71   1.0000      -2.100523       -57.1581
  72   1.0000      -2.100057       -57.1454
  73   1.0000      -0.486083       -13.2270
  74   1.0000      -0.476613       -12.9693
  75   1.0000      -0.475260       -12.9325
  76   1.0000      -0.472956       -12.8698
  77   1.0000      -0.469935       -12.7876
  78   1.0000      -0.468416       -12.7463
  79   1.0000      -0.466328       -12.6894
  80   1.0000      -0.465041       -12.6544
  81   1.0000      -0.464541       -12.6408
  82   1.0000      -0.461382       -12.5548
  83   1.0000      -0.457703       -12.4547
  84   1.0000      -0.457621       -12.4525
  85   1.0000      -0.455920       -12.4062
  86   1.0000      -0.455412       -12.3924
  87   1.0000      -0.454025       -12.3547
  88   1.0000      -0.452460       -12.3121
  89   1.0000      -0.450560       -12.2604
  90   1.0000      -0.449291       -12.2258
  91   1.0000      -0.449123       -12.2213
  92   1.0000      -0.447922       -12.1886
  93   1.0000      -0.447571       -12.1790
  94   1.0000      -0.446382       -12.1467
  95   1.0000      -0.444714       -12.1013
  96   1.0000      -0.444457       -12.0943
  97   1.0000      -0.442641       -12.0449
  98   1.0000      -0.437752       -11.9118
  99   1.0000      -0.436020       -11.8647
 100   1.0000      -0.433541       -11.7972
 101   1.0000      -0.432527       -11.7697
 102   1.0000      -0.431619       -11.7450
 103   1.0000      -0.424580       -11.5534
 104   1.0000      -0.417730       -11.3670
 105   1.0000      -0.416361       -11.3298
 106   1.0000      -0.413512       -11.2522
 107   1.0000      -0.412100       -11.2138
 108   1.0000      -0.411612       -11.2005
 109   1.0000      -0.409652       -11.1472
 110   1.0000      -0.406834       -11.0705
 111   1.0000      -0.402189       -10.9441
 112   1.0000      -0.401357       -10.9215
 113   1.0000      -0.398645       -10.8477
 114   1.0000      -0.397681       -10.8215
 115   1.0000      -0.395180       -10.7534
 116   1.0000      -0.390551       -10.6274
 117   1.0000      -0.390146       -10.6164
 118   1.0000      -0.384920       -10.4742
 119   1.0000      -0.383838       -10.4448
 120   1.0000      -0.383174       -10.4267
 121   1.0000      -0.382337       -10.4039
 122   1.0000      -0.380052       -10.3417
 123   1.0000      -0.378288       -10.2937
 124   1.0000      -0.376728       -10.2513
 125   1.0000      -0.373963       -10.1760
 126   1.0000      -0.373615       -10.1666
 127   1.0000      -0.370407       -10.0793
 128   1.0000      -0.368520       -10.0279
 129   1.0000      -0.365010        -9.9324
 130   1.0000      -0.363731        -9.8976
 131   1.0000      -0.363176        -9.8825
 132   1.0000      -0.360607        -9.8126
 133   1.0000      -0.360068        -9.7979
 134   1.0000      -0.359522        -9.7831
 135   1.0000      -0.359005        -9.7690
 136   1.0000      -0.358275        -9.7492
 137   1.0000      -0.354484        -9.6460
 138   1.0000      -0.353641        -9.6231
 139   1.0000      -0.351575        -9.5669
 140   1.0000      -0.350845        -9.5470
 141   1.0000      -0.348841        -9.4924
 142   1.0000      -0.347191        -9.4475
 143   1.0000      -0.345869        -9.4116
 144   1.0000      -0.344273        -9.3681
 145   1.0000      -0.342501        -9.3199
 146   1.0000      -0.342226        -9.3124
 147   1.0000      -0.341024        -9.2797
 148   1.0000      -0.338020        -9.1980
 149   1.0000      -0.335694        -9.1347
 150   1.0000      -0.331360        -9.0168
 151   1.0000      -0.325743        -8.8639
 152   1.0000      -0.324884        -8.8405
 153   1.0000      -0.324024        -8.8171
 154   1.0000      -0.320271        -8.7150
 155   1.0000      -0.318608        -8.6698
 156   1.0000      -0.317571        -8.6415
 157   1.0000      -0.264005        -7.1839
 158   1.0000      -0.250195        -6.8081
 159   1.0000      -0.246040        -6.6951
 160   1.0000      -0.236869        -6.4455
 161   1.0000      -0.232635        -6.3303
 162   1.0000      -0.159311        -4.3351
 163   0.0000      -0.086475        -2.3531
 164   0.0000      -0.083400        -2.2694
 165   0.0000      -0.081860        -2.2275
 166   0.0000      -0.074426        -2.0252
 167   0.0000      -0.069916        -1.9025

MULLIKEN ATOMIC CHARGES AND SPIN POPULATIONS
--------------------------------------------
   0 Au:    0.150748   -0.232989
   1 Au:   -0.238606   -0.128421
   2 Au:   -0.271583   -0.041678
   3 Au:    0.181385   -0.176186
   4 Au:   -0.009072   -0.044853
   5 Au:    0.148790    0.008029
   6 Au:   -0.224667   -0.349423
   7 Au:    0.397856   -0.276312
   8 Au:   -0.163663   -0.134562
   9 Au:    0.449891   -0.204730
  10 Au:   -0.191856   -0.058674
  11 Au:   -0.406978   -0.013519
  12 Au:    0.152861    0.004994
  13 Au:    0.217428   -0.087430
  14 Au:   -0.376456   -0.085225
  15 Au:    0.029033   -0.090614
  16 Mn:    0.154889    4.911594
Sum of atomic charges         :   -0.0000000

LOEWDIN ATOMIC CHARGES AND SPIN POPULATIONS
-------------------------------------------
   0 Au:   -0.040763   -0.205963
   1 Au:   -0.074752   -0.093062
   2 Au:   -0.084953   -0.060583
   3 Au:   -0.055511   -0.129115
   4 Au:   -0.030689   -0.105484
   5 Au:   -0.002848   -0.044009
   6 Au:   -0.052508   -0.156964
   7 Au:    0.095772   -0.209321
   8 Au:   -0.079911   -0.108446
   9 Au:    0.143693   -0.160359
  10 Au:   -0.088019   -0.083904
  11 Au:   -0.082329   -0.050060
  12 Au:   -0.003410   -0.047161
  13 Au:    0.059179   -0.087118
  14 Au:   -0.073959   -0.076668
  15 Au:   -0.025131   -0.118292
  16 Mn:    0.396139    4.736512

  Mayer bond orders larger than 0.100000
B(  0-Au,  1-Au) :   0.2653 B(  0-Au,  6-Au) :   0.1055 B(  0-Au, 12-Au) :   0.2019
B(  0-Au, 15-Au) :   0.2915 B(  0-Au, 16-Mn) :   0.4341 B(  1-Au,  2-Au) :   0.2142
B(  1-Au,  7-Au) :   0.2550 B(  1-Au, 10-Au) :   0.3375 B(  1-Au, 12-Au) :   0.2531
B(  1-Au, 16-Mn) :   0.4023 B(  2-Au,  3-Au) :   0.2778 B(  2-Au,  5-Au) :   0.2593
B(  2-Au,  7-Au) :   0.2416 B(  2-Au,  8-Au) :   0.3127 B(  2-Au, 16-Mn) :   0.4311
B(  3-Au,  4-Au) :   0.2968 B(  3-Au,  5-Au) :   0.1969 B(  3-Au,  6-Au) :   0.1102
B(  3-Au, 16-Mn) :   0.4303 B(  4-Au,  5-Au) :   0.2099 B(  4-Au,  6-Au) :   0.2751
B(  4-Au, 13-Au) :   0.3144 B(  4-Au, 14-Au) :   0.3541 B(  5-Au,  8-Au) :   0.3650
B(  5-Au, 14-Au) :   0.2900 B(  6-Au, 13-Au) :   0.1292 B(  6-Au, 15-Au) :   0.2289
B(  6-Au, 16-Mn) :   0.4886 B(  7-Au,  8-Au) :   0.2128 B(  7-Au, 10-Au) :   0.2204
B(  8-Au,  9-Au) :   0.1689 B(  8-Au, 10-Au) :   0.2924 B(  8-Au, 14-Au) :   0.3637
B(  9-Au, 10-Au) :   0.1723 B(  9-Au, 11-Au) :   0.2735 B(  9-Au, 14-Au) :   0.2703
B( 10-Au, 11-Au) :   0.3148 B( 10-Au, 12-Au) :   0.3616 B( 11-Au, 12-Au) :   0.2818
B( 11-Au, 13-Au) :   0.2563 B( 11-Au, 14-Au) :   0.3292 B( 11-Au, 15-Au) :   0.3913
B( 12-Au, 15-Au) :   0.2160 B( 13-Au, 14-Au) :   0.2373 B( 13-Au, 15-Au) :   0.3224

MP2 TOTAL ENERGY:    -3320.225774471 Eh
FINAL SINGLE POINT ENERGY     -3320.225774470879

DIPOLE MOMENT
-------------
                                X             Y             Z
Electronic contribution:    -66.84486      85.39320     -38.71688
Nuclear contribution   :     67.12857     -85.93754      39.07111
                        -----------------------------------------
Total Dipole Moment    :      0.28372      -0.54434       0.35423
                        -----------------------------------------
Magnitude (a.u.)       :      0.70872
Magnitude (Debye)      :      1.80141

Rotational constants in cm-1:     0.000850     0.000819     0.000766
Rotational constants in MHz :    25.477592    24.542247    22.974616

                             ****ORCA TERMINATED NORMALLY****
TOTAL RUN TIME: 0 days 1 hours 41 minutes 28 seconds 980 msec
