                         Program Version 5.0.3 -  RELEASE  -
|  1> !PBE def2-TZVP VERYSLOWCONV
|  2> !KDIIS
|  3>
|  4> %scf
|  5>   AutoTRAHIter 200
|  6>   maxiter 400
|  7> end
|  8>
|  9>
| 10> %pal nprocs 6 end
| 11>
| 12> *xyzfile 0 6 pbe.xyz
| 13>
| 14> $new_job
| 15>
| 16> !PBE def2-TZVP VERYSLOWCONV
| 17> !KDIIS
| 18>
| 19> %scf
| 20>   AutoTRAHIter 200
| 21>   maxiter 400
| 22> end
| 23>
| 24>
| 25> %pal nprocs 6 end
| 26>
| 27> *xyzfile 0 4 pbe.xyz
| 28>
| 29>
| 30>
| 31>
| 32>
| 33>                          ****END OF INPUT****
 Total Charge           Charge          ....    0
 Multiplicity           Mult            ....    6
 Number of Electrons    NEL             ....  329
FINAL SINGLE POINT ENERGY     -3324.044329249202

CARTESIAN COORDINATES (ANGSTROEM)
---------------------------------
  Au     7.083788    5.157059    6.450680
  Au     5.692239    5.972469    8.700247
  Au     7.376599    7.939765   10.143253
  Au     9.724622    8.247929    8.712807
  Au     9.172443   10.053047    6.684847
  Au     8.134687   10.533115    9.264112
  Au     8.866438    7.327652    6.185253
  Au     4.673203    7.635696   10.664003
  Au     5.460162    9.992867    9.446571
  Au     3.820993   10.804016    7.330966
  Au     3.841824    8.106071    8.065801
  Au     4.921930    8.973209    5.594891
  Au     4.487359    6.264933    6.148380
  Au     7.426942    9.704173    4.614167
  Au     6.552371   10.879947    6.986479
  Au     6.638301    7.093039    4.521439
  Mn     8.326718    6.069170    8.537417

 Multiplicity           Mult            ....    4
 Number of Electrons    NEL             ....  329
 Basis Dimension        Dim             ....  685

ORBITAL ENERGIES
----------------
                 SPIN UP ORBITALS
  NO   OCC          E(Eh)            E(eV)
   0   1.0000    -234.185267     -6372.5051
   1   1.0000     -26.874965      -731.3050
   2   1.0000     -23.031138      -626.7091
   3   1.0000     -23.020651      -626.4238
   4   1.0000     -23.020431      -626.4178
   5   1.0000      -4.034567      -109.7862
   6   1.0000      -4.034351      -109.7803
   7   1.0000      -4.032714      -109.7357
   8   1.0000      -4.032403      -109.7273
   9   1.0000      -4.029796      -109.6563
  10   1.0000      -4.028298      -109.6156
  11   1.0000      -4.027161      -109.5846
  12   1.0000      -4.027034      -109.5812
  13   1.0000      -4.025421      -109.5373
  14   1.0000      -4.025261      -109.5329
  15   1.0000      -4.024957      -109.5246
  16   1.0000      -4.024492      -109.5120
  17   1.0000      -4.024306      -109.5069
  18   1.0000      -4.022536      -109.4588
  19   1.0000      -4.017305      -109.3164
  20   1.0000      -4.017177      -109.3129
  21   1.0000      -3.083959       -83.9188
  22   1.0000      -2.252598       -61.2963
  23   1.0000      -2.252184       -61.2850
  24   1.0000      -2.249581       -61.2142
  25   1.0000      -2.249338       -61.2076
  26   1.0000      -2.249116       -61.2015
  27   1.0000      -2.247730       -61.1638
  28   1.0000      -2.246083       -61.1190
  29   1.0000      -2.245774       -61.1106
  30   1.0000      -2.245404       -61.1006
  31   1.0000      -2.245037       -61.0906
  32   1.0000      -2.244973       -61.0888
  33   1.0000      -2.243660       -61.0531
  34   1.0000      -2.243366       -61.0451
  35   1.0000      -2.242754       -61.0284
  36   1.0000      -2.242649       -61.0256
  37   1.0000      -2.242472       -61.0208
  38   1.0000      -2.242219       -61.0139
  39   1.0000      -2.241968       -61.0071
  40   1.0000      -2.241670       -60.9989
  41   1.0000      -2.241238       -60.9872
  42   1.0000      -2.240853       -60.9767
  43   1.0000      -2.240650       -60.9712
  44   1.0000      -2.240453       -60.9658
  45   1.0000      -2.240132       -60.9571
  46   1.0000      -2.239915       -60.9512
  47   1.0000      -2.239724       -60.9460
  48   1.0000      -2.239390       -60.9369
  49   1.0000      -2.239206       -60.9319
  50   1.0000      -2.237869       -60.8955
  51   1.0000      -2.237510       -60.8857
  52   1.0000      -2.236883       -60.8687
  53   1.0000      -2.236066       -60.8465
  54   1.0000      -2.235718       -60.8370
  55   1.0000      -2.235664       -60.8355
  56   1.0000      -2.235497       -60.8310
  57   1.0000      -2.234369       -60.8003
  58   1.0000      -2.233473       -60.7759
  59   1.0000      -2.233343       -60.7724
  60   1.0000      -2.232994       -60.7628
  61   1.0000      -2.232639       -60.7532
  62   1.0000      -2.232298       -60.7439
  63   1.0000      -2.232014       -60.7362
  64   1.0000      -2.231787       -60.7300
  65   1.0000      -2.231686       -60.7273
  66   1.0000      -2.230625       -60.6984
  67   1.0000      -2.230508       -60.6952
  68   1.0000      -2.227120       -60.6030
  69   1.0000      -2.226962       -60.5987
  70   1.0000      -2.003569       -54.5199
  71   1.0000      -1.979445       -53.8634
  72   1.0000      -1.978871       -53.8478
  73   1.0000      -0.413640       -11.2557
  74   1.0000      -0.388182       -10.5630
  75   1.0000      -0.383900       -10.4465
  76   1.0000      -0.383741       -10.4421
  77   1.0000      -0.369379       -10.0513
  78   1.0000      -0.367146        -9.9906
  79   1.0000      -0.366739        -9.9795
  80   1.0000      -0.365408        -9.9433
  81   1.0000      -0.364135        -9.9086
  82   1.0000      -0.362638        -9.8679
  83   1.0000      -0.359655        -9.7867
  84   1.0000      -0.356936        -9.7127
  85   1.0000      -0.354567        -9.6483
  86   1.0000      -0.353631        -9.6228
  87   1.0000      -0.353043        -9.6068
  88   1.0000      -0.349367        -9.5068
  89   1.0000      -0.348454        -9.4819
  90   1.0000      -0.344971        -9.3871
  91   1.0000      -0.344312        -9.3692
  92   1.0000      -0.343583        -9.3494
  93   1.0000      -0.342843        -9.3292
  94   1.0000      -0.341603        -9.2955
  95   1.0000      -0.341460        -9.2916
  96   1.0000      -0.339917        -9.2496
  97   1.0000      -0.338989        -9.2243
  98   1.0000      -0.335010        -9.1161
  99   1.0000      -0.333097        -9.0640
 100   1.0000      -0.331039        -9.0080
 101   1.0000      -0.330158        -8.9841
 102   1.0000      -0.328580        -8.9411
 103   1.0000      -0.323027        -8.7900
 104   1.0000      -0.320335        -8.7168
 105   1.0000      -0.313852        -8.5404
 106   1.0000      -0.313487        -8.5304
 107   1.0000      -0.312407        -8.5010
 108   1.0000      -0.312184        -8.4950
 109   1.0000      -0.310159        -8.4399
 110   1.0000      -0.306982        -8.3534
 111   1.0000      -0.304631        -8.2894
 112   1.0000      -0.303878        -8.2689
 113   1.0000      -0.299419        -8.1476
 114   1.0000      -0.298462        -8.1216
 115   1.0000      -0.295655        -8.0452
 116   1.0000      -0.295012        -8.0277
 117   1.0000      -0.291222        -7.9246
 118   1.0000      -0.289196        -7.8694
 119   1.0000      -0.288061        -7.8385
 120   1.0000      -0.286002        -7.7825
 121   1.0000      -0.284974        -7.7545
 122   1.0000      -0.284852        -7.7512
 123   1.0000      -0.283483        -7.7140
 124   1.0000      -0.279895        -7.6163
 125   1.0000      -0.277556        -7.5527
 126   1.0000      -0.273760        -7.4494
 127   1.0000      -0.273132        -7.4323
 128   1.0000      -0.271883        -7.3983
 129   1.0000      -0.268091        -7.2951
 130   1.0000      -0.267341        -7.2747
 131   1.0000      -0.266847        -7.2613
 132   1.0000      -0.264545        -7.1986
 133   1.0000      -0.262909        -7.1541
 134   1.0000      -0.262806        -7.1513
 135   1.0000      -0.262132        -7.1330
 136   1.0000      -0.260277        -7.0825
 137   1.0000      -0.259836        -7.0705
 138   1.0000      -0.258316        -7.0291
 139   1.0000      -0.256612        -6.9828
 140   1.0000      -0.256281        -6.9738
 141   1.0000      -0.255554        -6.9540
 142   1.0000      -0.254906        -6.9363
 143   1.0000      -0.254298        -6.9198
 144   1.0000      -0.252161        -6.8617
 145   1.0000      -0.251867        -6.8536
 146   1.0000      -0.251198        -6.8354
 147   1.0000      -0.249497        -6.7891
 148   1.0000      -0.247390        -6.7318
 149   1.0000      -0.245674        -6.6851
 150   1.0000      -0.245028        -6.6675
 151   1.0000      -0.243486        -6.6256
 152   1.0000      -0.242911        -6.6099
 153   1.0000      -0.241344        -6.5673
 154   1.0000      -0.240744        -6.5510
 155   1.0000      -0.240698        -6.5497
 156   1.0000      -0.239783        -6.5248
 157   1.0000      -0.236760        -6.4426
 158   1.0000      -0.233907        -6.3649
 159   1.0000      -0.233073        -6.3422
 160   1.0000      -0.231861        -6.3093
 161   1.0000      -0.225995        -6.1496
 162   1.0000      -0.219768        -5.9802
 163   1.0000      -0.215543        -5.8652
 164   1.0000      -0.211813        -5.7637
 165   1.0000      -0.205579        -5.5941
 166   0.0000      -0.204525        -5.5654
 167   0.0000      -0.149390        -4.0651
 168   0.0000      -0.139188        -3.7875
 169   0.0000      -0.134221        -3.6524
 170   0.0000      -0.134088        -3.6487

                 SPIN DOWN ORBITALS
  NO   OCC          E(Eh)            E(eV)
   0   1.0000    -234.184614     -6372.4873
   1   1.0000     -26.812886      -729.6157
   2   1.0000     -22.980062      -625.3193
   3   1.0000     -22.975741      -625.2017
   4   1.0000     -22.975074      -625.1835
   5   1.0000      -4.034123      -109.7741
   6   1.0000      -4.033902      -109.7681
   7   1.0000      -4.032428      -109.7280
   8   1.0000      -4.032016      -109.7167
   9   1.0000      -4.030835      -109.6846
  10   1.0000      -4.028228      -109.6137
  11   1.0000      -4.027372      -109.5904
  12   1.0000      -4.027268      -109.5875
  13   1.0000      -4.026125      -109.5564
  14   1.0000      -4.025774      -109.5469
  15   1.0000      -4.025652      -109.5436
  16   1.0000      -4.025120      -109.5291
  17   1.0000      -4.024963      -109.5248
  18   1.0000      -4.023274      -109.4789
  19   1.0000      -4.017691      -109.3269
  20   1.0000      -4.017559      -109.3233
  21   1.0000      -2.929994       -79.7292
  22   1.0000      -2.252153       -61.2842
  23   1.0000      -2.251602       -61.2692
  24   1.0000      -2.248900       -61.1957
  25   1.0000      -2.248686       -61.1899
  26   1.0000      -2.248365       -61.1811
  27   1.0000      -2.247427       -61.1556
  28   1.0000      -2.246580       -61.1326
  29   1.0000      -2.246060       -61.1184
  30   1.0000      -2.246012       -61.1171
  31   1.0000      -2.245274       -61.0970
  32   1.0000      -2.245139       -61.0933
  33   1.0000      -2.244517       -61.0764
  34   1.0000      -2.243461       -61.0477
  35   1.0000      -2.243261       -61.0422
  36   1.0000      -2.243142       -61.0390
  37   1.0000      -2.242858       -61.0313
  38   1.0000      -2.242839       -61.0307
  39   1.0000      -2.242249       -61.0147
  40   1.0000      -2.241870       -61.0044
  41   1.0000      -2.241576       -60.9964
  42   1.0000      -2.240944       -60.9792
  43   1.0000      -2.240911       -60.9783
  44   1.0000      -2.240586       -60.9694
  45   1.0000      -2.240412       -60.9647
  46   1.0000      -2.240215       -60.9593
  47   1.0000      -2.239955       -60.9523
  48   1.0000      -2.239869       -60.9499
  49   1.0000      -2.239452       -60.9386
  50   1.0000      -2.238695       -60.9180
  51   1.0000      -2.238356       -60.9088
  52   1.0000      -2.238137       -60.9028
  53   1.0000      -2.236532       -60.8591
  54   1.0000      -2.236401       -60.8556
  55   1.0000      -2.236321       -60.8534
  56   1.0000      -2.235504       -60.8312
  57   1.0000      -2.234677       -60.8087
  58   1.0000      -2.233935       -60.7885
  59   1.0000      -2.233751       -60.7835
  60   1.0000      -2.233403       -60.7740
  61   1.0000      -2.233182       -60.7680
  62   1.0000      -2.232961       -60.7620
  63   1.0000      -2.232381       -60.7462
  64   1.0000      -2.232277       -60.7433
  65   1.0000      -2.232245       -60.7425
  66   1.0000      -2.231116       -60.7118
  67   1.0000      -2.230993       -60.7084
  68   1.0000      -2.227270       -60.6071
  69   1.0000      -2.227092       -60.6022
  70   1.0000      -1.839724       -50.0614
  71   1.0000      -1.834828       -49.9282
  72   1.0000      -1.833547       -49.8934
  73   1.0000      -0.414248       -11.2723
  74   1.0000      -0.388514       -10.5720
  75   1.0000      -0.384603       -10.4656
  76   1.0000      -0.383985       -10.4488
  77   1.0000      -0.370542       -10.0830
  78   1.0000      -0.367463        -9.9992
  79   1.0000      -0.366958        -9.9854
  80   1.0000      -0.365799        -9.9539
  81   1.0000      -0.364399        -9.9158
  82   1.0000      -0.362048        -9.8518
  83   1.0000      -0.357696        -9.7334
  84   1.0000      -0.356959        -9.7133
  85   1.0000      -0.354575        -9.6485
  86   1.0000      -0.352829        -9.6010
  87   1.0000      -0.352095        -9.5810
  88   1.0000      -0.349957        -9.5228
  89   1.0000      -0.348626        -9.4866
  90   1.0000      -0.344655        -9.3785
  91   1.0000      -0.344365        -9.3707
  92   1.0000      -0.343292        -9.3414
  93   1.0000      -0.342125        -9.3097
  94   1.0000      -0.341153        -9.2832
  95   1.0000      -0.340197        -9.2572
  96   1.0000      -0.339395        -9.2354
  97   1.0000      -0.337633        -9.1875
  98   1.0000      -0.333488        -9.0747
  99   1.0000      -0.331764        -9.0278
 100   1.0000      -0.329260        -8.9596
 101   1.0000      -0.329108        -8.9555
 102   1.0000      -0.327443        -8.9102
 103   1.0000      -0.323182        -8.7942
 104   1.0000      -0.318329        -8.6622
 105   1.0000      -0.314603        -8.5608
 106   1.0000      -0.313528        -8.5315
 107   1.0000      -0.311840        -8.4856
 108   1.0000      -0.310915        -8.4604
 109   1.0000      -0.310453        -8.4479
 110   1.0000      -0.305779        -8.3207
 111   1.0000      -0.302560        -8.2331
 112   1.0000      -0.301779        -8.2118
 113   1.0000      -0.298848        -8.1321
 114   1.0000      -0.297587        -8.0977
 115   1.0000      -0.295506        -8.0411
 116   1.0000      -0.293818        -7.9952
 117   1.0000      -0.291946        -7.9443
 118   1.0000      -0.288864        -7.8604
 119   1.0000      -0.286837        -7.8052
 120   1.0000      -0.285844        -7.7782
 121   1.0000      -0.285774        -7.7763
 122   1.0000      -0.285266        -7.7625
 123   1.0000      -0.282848        -7.6967
 124   1.0000      -0.280813        -7.6413
 125   1.0000      -0.278193        -7.5700
 126   1.0000      -0.274320        -7.4646
 127   1.0000      -0.273637        -7.4460
 128   1.0000      -0.272225        -7.4076
 129   1.0000      -0.268110        -7.2956
 130   1.0000      -0.266412        -7.2494
 131   1.0000      -0.265263        -7.2182
 132   1.0000      -0.264143        -7.1877
 133   1.0000      -0.263731        -7.1765
 134   1.0000      -0.263014        -7.1570
 135   1.0000      -0.262617        -7.1462
 136   1.0000      -0.260903        -7.0995
 137   1.0000      -0.259936        -7.0732
 138   1.0000      -0.258494        -7.0340
 139   1.0000      -0.256408        -6.9772
 140   1.0000      -0.256104        -6.9690
 141   1.0000      -0.255998        -6.9661
 142   1.0000      -0.255348        -6.9484
 143   1.0000      -0.253113        -6.8875
 144   1.0000      -0.252163        -6.8617
 145   1.0000      -0.251459        -6.8425
 146   1.0000      -0.249982        -6.8023
 147   1.0000      -0.248383        -6.7589
 148   1.0000      -0.246465        -6.7066
 149   1.0000      -0.245085        -6.6691
 150   1.0000      -0.244057        -6.6411
 151   1.0000      -0.243622        -6.6293
 152   1.0000      -0.242101        -6.5879
 153   1.0000      -0.240939        -6.5563
 154   1.0000      -0.237567        -6.4645
 155   1.0000      -0.234039        -6.3685
 156   1.0000      -0.232700        -6.3321
 157   1.0000      -0.228833        -6.2269
 158   1.0000      -0.216393        -5.8884
 159   1.0000      -0.214219        -5.8292
 160   1.0000      -0.209369        -5.6972
 161   1.0000      -0.208656        -5.6778
 162   1.0000      -0.155316        -4.2264
 163   0.0000      -0.152664        -4.1542
 164   0.0000      -0.147511        -4.0140
 165   0.0000      -0.142359        -3.8738
 166   0.0000      -0.135076        -3.6756
 167   0.0000      -0.130031        -3.5383

MULLIKEN ATOMIC CHARGES AND SPIN POPULATIONS
--------------------------------------------
   0 Au:    0.261513   -0.058715
   1 Au:   -0.273172   -0.124981
   2 Au:   -0.273599   -0.109733
   3 Au:    0.264136   -0.048594
   4 Au:    0.041462   -0.051833
   5 Au:    0.186186   -0.007909
   6 Au:   -0.211282   -0.171395
   7 Au:    0.498150   -0.061065
   8 Au:   -0.272244   -0.132806
   9 Au:    0.531043   -0.074714
  10 Au:   -0.268200   -0.125838
  11 Au:   -0.455700   -0.055183
  12 Au:    0.187058   -0.007239
  13 Au:    0.270250   -0.057681
  14 Au:   -0.446617   -0.064932
  15 Au:    0.045134   -0.060425
  16 Mn:   -0.084118    4.213043
Sum of atomic charges         :   -0.0000000

LOEWDIN ATOMIC CHARGES AND SPIN POPULATIONS
-------------------------------------------
   0 Au:    0.035626   -0.054557
   1 Au:   -0.025026   -0.053580
   2 Au:   -0.024792   -0.048929
   3 Au:    0.033243   -0.041956
   4 Au:   -0.017820   -0.073298
   5 Au:    0.003606   -0.023234
   6 Au:   -0.013376   -0.082001
   7 Au:    0.134061   -0.089338
   8 Au:   -0.092484   -0.084189
   9 Au:    0.150085   -0.101283
  10 Au:   -0.092723   -0.082119
  11 Au:   -0.081419   -0.054568
  12 Au:    0.004321   -0.022880
  13 Au:    0.052418   -0.080667
  14 Au:   -0.080523   -0.057533
  15 Au:   -0.017700   -0.074597
  16 Mn:    0.032504    4.024730

  Mayer bond orders larger than 0.100000
B(  0-Au,  1-Au) :   0.2494 B(  0-Au,  6-Au) :   0.2397 B(  0-Au, 12-Au) :   0.2115
B(  0-Au, 15-Au) :   0.2842 B(  0-Au, 16-Mn) :   0.5009 B(  1-Au,  2-Au) :   0.1503
B(  1-Au,  7-Au) :   0.3248 B(  1-Au, 10-Au) :   0.2980 B(  1-Au, 12-Au) :   0.3072
B(  1-Au, 16-Mn) :   0.5071 B(  2-Au,  3-Au) :   0.2536 B(  2-Au,  5-Au) :   0.3047
B(  2-Au,  7-Au) :   0.3217 B(  2-Au,  8-Au) :   0.2965 B(  2-Au, 16-Mn) :   0.5082
B(  3-Au,  4-Au) :   0.2855 B(  3-Au,  5-Au) :   0.2131 B(  3-Au,  6-Au) :   0.2399
B(  3-Au, 16-Mn) :   0.4962 B(  4-Au,  5-Au) :   0.2581 B(  4-Au,  6-Au) :   0.3525
B(  4-Au, 13-Au) :   0.3493 B(  4-Au, 14-Au) :   0.4187 B(  5-Au,  8-Au) :   0.3437
B(  5-Au, 14-Au) :   0.3143 B(  6-Au, 13-Au) :   0.1413 B(  6-Au, 15-Au) :   0.3454
B(  6-Au, 16-Mn) :   0.5116 B(  7-Au,  8-Au) :   0.2325 B(  7-Au, 10-Au) :   0.2354
B(  8-Au,  9-Au) :   0.2082 B(  8-Au, 10-Au) :   0.2833 B(  8-Au, 14-Au) :   0.3548
B(  9-Au, 10-Au) :   0.2065 B(  9-Au, 11-Au) :   0.3224 B(  9-Au, 14-Au) :   0.3216
B( 10-Au, 11-Au) :   0.3481 B( 10-Au, 12-Au) :   0.3435 B( 11-Au, 12-Au) :   0.3122
B( 11-Au, 13-Au) :   0.2850 B( 11-Au, 14-Au) :   0.3511 B( 11-Au, 15-Au) :   0.4236
B( 12-Au, 15-Au) :   0.2587 B( 13-Au, 14-Au) :   0.2831 B( 13-Au, 15-Au) :   0.3505

FINAL SINGLE POINT ENERGY     -3323.996081743870

DIPOLE MOMENT
-------------
                                X             Y             Z
Electronic contribution:    -67.07449      85.52086     -38.57212
Nuclear contribution   :     67.12857     -85.93754      39.07111
                        -----------------------------------------
Total Dipole Moment    :      0.05409      -0.41669       0.49899
                        -----------------------------------------
Magnitude (a.u.)       :      0.65233
Magnitude (Debye)      :      1.65810

Rotational constants in cm-1:     0.000850     0.000819     0.000766
Rotational constants in MHz :    25.477592    24.542247    22.974616

                             ****ORCA TERMINATED NORMALLY****
TOTAL RUN TIME: 0 days 0 hours 9 minutes 57 seconds 156 msec
