                         Program Version 5.0.3 -  RELEASE  -
|  1> !R2SCAN def2-TZVP VERYSLOWCONV
|  2> !KDIIS
|  3> %scf
|  4>   AutoTRAHIter 200
|  5>   maxiter 400
|  6> end
|  7>
|  8> %pal nprocs 6 end
|  9>
| 10> *xyzfile 0 6 pbe.xyz
| 11>
| 12> $new_job
| 13>
| 14> !R2SCAN def2-TZVP VERYSLOWCONV
| 15> !KDIIS
| 16> %scf
| 17>   AutoTRAHIter 200
| 18>   maxiter 400
| 19> end
| 20>
| 21>
| 22> %pal nprocs 6 end
| 23>
| 24> *xyzfile 0 4 pbe.xyz
| 25>
| 26>
| 27>
| 28>
| 29>
| 30>                          ****END OF INPUT****
 Total Charge           Charge          ....    0
 Multiplicity           Mult            ....    6
 Number of Electrons    NEL             ....  329
FINAL SINGLE POINT ENERGY     -3324.595643324225

CARTESIAN COORDINATES (ANGSTROEM)
---------------------------------
  Au     7.083788    5.157059    6.450680
  Au     5.692239    5.972469    8.700247
  Au     7.376599    7.939765   10.143253
  Au     9.724622    8.247929    8.712807
  Au     9.172443   10.053047    6.684847
  Au     8.134687   10.533115    9.264112
  Au     8.866438    7.327652    6.185253
  Au     4.673203    7.635696   10.664003
  Au     5.460162    9.992867    9.446571
  Au     3.820993   10.804016    7.330966
  Au     3.841824    8.106071    8.065801
  Au     4.921930    8.973209    5.594891
  Au     4.487359    6.264933    6.148380
  Au     7.426942    9.704173    4.614167
  Au     6.552371   10.879947    6.986479
  Au     6.638301    7.093039    4.521439
  Mn     8.326718    6.069170    8.537417

 Multiplicity           Mult            ....    4
 Number of Electrons    NEL             ....  329
 Basis Dimension        Dim             ....  685

ORBITAL ENERGIES
----------------
                 SPIN UP ORBITALS
  NO   OCC          E(Eh)            E(eV)
   0   1.0000    -235.027953     -6395.4357
   1   1.0000     -27.202476      -740.2170
   2   1.0000     -23.255641      -632.8182
   3   1.0000     -23.246952      -632.5817
   4   1.0000     -23.246569      -632.5713
   5   1.0000      -4.125348      -112.2564
   6   1.0000      -4.125197      -112.2523
   7   1.0000      -4.123724      -112.2122
   8   1.0000      -4.123542      -112.2073
   9   1.0000      -4.120594      -112.1271
  10   1.0000      -4.118835      -112.0792
  11   1.0000      -4.118012      -112.0568
  12   1.0000      -4.117882      -112.0533
  13   1.0000      -4.115730      -111.9947
  14   1.0000      -4.115575      -111.9905
  15   1.0000      -4.115402      -111.9858
  16   1.0000      -4.115154      -111.9790
  17   1.0000      -4.114533      -111.9621
  18   1.0000      -4.113259      -111.9275
  19   1.0000      -4.107464      -111.7698
  20   1.0000      -4.107072      -111.7591
  21   1.0000      -3.223930       -87.7276
  22   1.0000      -2.316096       -63.0242
  23   1.0000      -2.315756       -63.0149
  24   1.0000      -2.313341       -62.9492
  25   1.0000      -2.313121       -62.9432
  26   1.0000      -2.312624       -62.9297
  27   1.0000      -2.311135       -62.8892
  28   1.0000      -2.309580       -62.8469
  29   1.0000      -2.309350       -62.8406
  30   1.0000      -2.308965       -62.8301
  31   1.0000      -2.308534       -62.8184
  32   1.0000      -2.308393       -62.8146
  33   1.0000      -2.307047       -62.7779
  34   1.0000      -2.306795       -62.7711
  35   1.0000      -2.306187       -62.7545
  36   1.0000      -2.306136       -62.7532
  37   1.0000      -2.305848       -62.7453
  38   1.0000      -2.305529       -62.7366
  39   1.0000      -2.305442       -62.7343
  40   1.0000      -2.305193       -62.7275
  41   1.0000      -2.304788       -62.7165
  42   1.0000      -2.304540       -62.7097
  43   1.0000      -2.304300       -62.7032
  44   1.0000      -2.303866       -62.6914
  45   1.0000      -2.303426       -62.6794
  46   1.0000      -2.302998       -62.6678
  47   1.0000      -2.302927       -62.6658
  48   1.0000      -2.302459       -62.6531
  49   1.0000      -2.302370       -62.6507
  50   1.0000      -2.301079       -62.6155
  51   1.0000      -2.300422       -62.5977
  52   1.0000      -2.300088       -62.5886
  53   1.0000      -2.299492       -62.5724
  54   1.0000      -2.299291       -62.5669
  55   1.0000      -2.299081       -62.5612
  56   1.0000      -2.298999       -62.5590
  57   1.0000      -2.298242       -62.5383
  58   1.0000      -2.297454       -62.5169
  59   1.0000      -2.296851       -62.5005
  60   1.0000      -2.296603       -62.4938
  61   1.0000      -2.296162       -62.4818
  62   1.0000      -2.295569       -62.4656
  63   1.0000      -2.295382       -62.4605
  64   1.0000      -2.294505       -62.4367
  65   1.0000      -2.294162       -62.4273
  66   1.0000      -2.293442       -62.4077
  67   1.0000      -2.293047       -62.3970
  68   1.0000      -2.290355       -62.3237
  69   1.0000      -2.289970       -62.3133
  70   1.0000      -2.095269       -57.0152
  71   1.0000      -2.074681       -56.4549
  72   1.0000      -2.073530       -56.4236
  73   1.0000      -0.417682       -11.3657
  74   1.0000      -0.393708       -10.7133
  75   1.0000      -0.389554       -10.6003
  76   1.0000      -0.388654       -10.5758
  77   1.0000      -0.377778       -10.2799
  78   1.0000      -0.375357       -10.2140
  79   1.0000      -0.375156       -10.2085
  80   1.0000      -0.374084       -10.1794
  81   1.0000      -0.371608       -10.1120
  82   1.0000      -0.371405       -10.1065
  83   1.0000      -0.368560       -10.0290
  84   1.0000      -0.364807        -9.9269
  85   1.0000      -0.364005        -9.9051
  86   1.0000      -0.363284        -9.8855
  87   1.0000      -0.361953        -9.8493
  88   1.0000      -0.358053        -9.7431
  89   1.0000      -0.357751        -9.7349
  90   1.0000      -0.354897        -9.6572
  91   1.0000      -0.353815        -9.6278
  92   1.0000      -0.353548        -9.6205
  93   1.0000      -0.352047        -9.5797
  94   1.0000      -0.351425        -9.5628
  95   1.0000      -0.351113        -9.5543
  96   1.0000      -0.349530        -9.5112
  97   1.0000      -0.347921        -9.4674
  98   1.0000      -0.345485        -9.4011
  99   1.0000      -0.342101        -9.3090
 100   1.0000      -0.339966        -9.2510
 101   1.0000      -0.339553        -9.2397
 102   1.0000      -0.338135        -9.2011
 103   1.0000      -0.331899        -9.0314
 104   1.0000      -0.330425        -8.9913
 105   1.0000      -0.322809        -8.7841
 106   1.0000      -0.321881        -8.7588
 107   1.0000      -0.321632        -8.7521
 108   1.0000      -0.321427        -8.7465
 109   1.0000      -0.318945        -8.6789
 110   1.0000      -0.316474        -8.6117
 111   1.0000      -0.314854        -8.5676
 112   1.0000      -0.313004        -8.5173
 113   1.0000      -0.308364        -8.3910
 114   1.0000      -0.308031        -8.3820
 115   1.0000      -0.304401        -8.2832
 116   1.0000      -0.303249        -8.2518
 117   1.0000      -0.299660        -8.1542
 118   1.0000      -0.297709        -8.1011
 119   1.0000      -0.297178        -8.0866
 120   1.0000      -0.295071        -8.0293
 121   1.0000      -0.293086        -7.9753
 122   1.0000      -0.293061        -7.9746
 123   1.0000      -0.291513        -7.9325
 124   1.0000      -0.288296        -7.8449
 125   1.0000      -0.285996        -7.7823
 126   1.0000      -0.282246        -7.6803
 127   1.0000      -0.282198        -7.6790
 128   1.0000      -0.280591        -7.6353
 129   1.0000      -0.278269        -7.5721
 130   1.0000      -0.277030        -7.5384
 131   1.0000      -0.275687        -7.5018
 132   1.0000      -0.273250        -7.4355
 133   1.0000      -0.272816        -7.4237
 134   1.0000      -0.271587        -7.3903
 135   1.0000      -0.270114        -7.3502
 136   1.0000      -0.269738        -7.3399
 137   1.0000      -0.268466        -7.3053
 138   1.0000      -0.268314        -7.3012
 139   1.0000      -0.265972        -7.2375
 140   1.0000      -0.265648        -7.2287
 141   1.0000      -0.264086        -7.1861
 142   1.0000      -0.262860        -7.1528
 143   1.0000      -0.262749        -7.1498
 144   1.0000      -0.260574        -7.0906
 145   1.0000      -0.260137        -7.0787
 146   1.0000      -0.258690        -7.0393
 147   1.0000      -0.258075        -7.0226
 148   1.0000      -0.257488        -7.0066
 149   1.0000      -0.256076        -6.9682
 150   1.0000      -0.254431        -6.9234
 151   1.0000      -0.252578        -6.8730
 152   1.0000      -0.252038        -6.8583
 153   1.0000      -0.250115        -6.8060
 154   1.0000      -0.249223        -6.7817
 155   1.0000      -0.248008        -6.7486
 156   1.0000      -0.246900        -6.7185
 157   1.0000      -0.244752        -6.6600
 158   1.0000      -0.244022        -6.6402
 159   1.0000      -0.241907        -6.5826
 160   1.0000      -0.239459        -6.5160
 161   1.0000      -0.232857        -6.3364
 162   1.0000      -0.230474        -6.2715
 163   1.0000      -0.217591        -5.9209
 164   1.0000      -0.213287        -5.8038
 165   1.0000      -0.207563        -5.6481
 166   0.0000      -0.204109        -5.5541
 167   0.0000      -0.145424        -3.9572
 168   0.0000      -0.135377        -3.6838
 169   0.0000      -0.130867        -3.5611
 170   0.0000      -0.130753        -3.5580

                 SPIN DOWN ORBITALS
  NO   OCC          E(Eh)            E(eV)
   0   1.0000    -235.027066     -6395.4116
   1   1.0000     -27.118665      -737.9364
   2   1.0000     -23.187554      -630.9654
   3   1.0000     -23.184663      -630.8868
   4   1.0000     -23.184280      -630.8763
   5   1.0000      -4.125113      -112.2500
   6   1.0000      -4.124821      -112.2421
   7   1.0000      -4.123530      -112.2070
   8   1.0000      -4.123400      -112.2034
   9   1.0000      -4.121901      -112.1626
  10   1.0000      -4.118984      -112.0833
  11   1.0000      -4.118259      -112.0635
  12   1.0000      -4.118150      -112.0606
  13   1.0000      -4.116999      -112.0292
  14   1.0000      -4.116225      -112.0082
  15   1.0000      -4.115982      -112.0016
  16   1.0000      -4.115889      -111.9990
  17   1.0000      -4.115355      -111.9845
  18   1.0000      -4.114083      -111.9499
  19   1.0000      -4.107977      -111.7837
  20   1.0000      -4.107595      -111.7733
  21   1.0000      -3.021561       -82.2209
  22   1.0000      -2.315737       -63.0144
  23   1.0000      -2.315123       -62.9977
  24   1.0000      -2.312394       -62.9234
  25   1.0000      -2.312332       -62.9218
  26   1.0000      -2.312248       -62.9195
  27   1.0000      -2.310736       -62.8783
  28   1.0000      -2.310217       -62.8642
  29   1.0000      -2.309755       -62.8516
  30   1.0000      -2.309578       -62.8468
  31   1.0000      -2.308852       -62.8271
  32   1.0000      -2.308735       -62.8239
  33   1.0000      -2.308197       -62.8092
  34   1.0000      -2.306948       -62.7752
  35   1.0000      -2.306841       -62.7723
  36   1.0000      -2.306687       -62.7681
  37   1.0000      -2.306236       -62.7559
  38   1.0000      -2.306206       -62.7551
  39   1.0000      -2.305729       -62.7421
  40   1.0000      -2.305424       -62.7338
  41   1.0000      -2.305144       -62.7261
  42   1.0000      -2.304527       -62.7094
  43   1.0000      -2.304273       -62.7024
  44   1.0000      -2.304100       -62.6978
  45   1.0000      -2.303807       -62.6898
  46   1.0000      -2.303645       -62.6854
  47   1.0000      -2.303578       -62.6835
  48   1.0000      -2.303085       -62.6701
  49   1.0000      -2.302958       -62.6667
  50   1.0000      -2.301987       -62.6402
  51   1.0000      -2.301548       -62.6283
  52   1.0000      -2.301338       -62.6226
  53   1.0000      -2.299999       -62.5861
  54   1.0000      -2.299924       -62.5841
  55   1.0000      -2.299674       -62.5773
  56   1.0000      -2.299437       -62.5709
  57   1.0000      -2.298648       -62.5494
  58   1.0000      -2.297739       -62.5247
  59   1.0000      -2.297642       -62.5220
  60   1.0000      -2.296984       -62.5041
  61   1.0000      -2.296873       -62.5011
  62   1.0000      -2.296409       -62.4885
  63   1.0000      -2.295707       -62.4694
  64   1.0000      -2.295310       -62.4586
  65   1.0000      -2.295006       -62.4503
  66   1.0000      -2.294100       -62.4256
  67   1.0000      -2.293719       -62.4153
  68   1.0000      -2.290590       -62.3301
  69   1.0000      -2.290181       -62.3190
  70   1.0000      -1.882437       -51.2237
  71   1.0000      -1.878952       -51.1289
  72   1.0000      -1.878406       -51.1140
  73   1.0000      -0.419241       -11.4081
  74   1.0000      -0.394815       -10.7435
  75   1.0000      -0.391038       -10.6407
  76   1.0000      -0.389496       -10.5987
  77   1.0000      -0.379295       -10.3211
  78   1.0000      -0.375793       -10.2258
  79   1.0000      -0.375391       -10.2149
  80   1.0000      -0.374344       -10.1864
  81   1.0000      -0.371935       -10.1209
  82   1.0000      -0.370823       -10.0906
  83   1.0000      -0.367012        -9.9869
  84   1.0000      -0.365832        -9.9548
  85   1.0000      -0.363342        -9.8870
  86   1.0000      -0.361339        -9.8325
  87   1.0000      -0.361197        -9.8287
  88   1.0000      -0.358819        -9.7640
  89   1.0000      -0.357861        -9.7379
  90   1.0000      -0.353907        -9.6303
  91   1.0000      -0.353567        -9.6211
  92   1.0000      -0.352279        -9.5860
  93   1.0000      -0.351313        -9.5597
  94   1.0000      -0.350442        -9.5360
  95   1.0000      -0.349375        -9.5070
  96   1.0000      -0.348537        -9.4842
  97   1.0000      -0.347226        -9.4485
  98   1.0000      -0.342594        -9.3225
  99   1.0000      -0.340952        -9.2778
 100   1.0000      -0.338703        -9.2166
 101   1.0000      -0.338555        -9.2126
 102   1.0000      -0.336812        -9.1651
 103   1.0000      -0.332144        -9.0381
 104   1.0000      -0.327179        -8.9030
 105   1.0000      -0.323529        -8.8037
 106   1.0000      -0.322117        -8.7653
 107   1.0000      -0.320741        -8.7278
 108   1.0000      -0.319632        -8.6976
 109   1.0000      -0.319175        -8.6852
 110   1.0000      -0.314458        -8.5568
 111   1.0000      -0.311035        -8.4637
 112   1.0000      -0.310732        -8.4555
 113   1.0000      -0.307539        -8.3686
 114   1.0000      -0.306577        -8.3424
 115   1.0000      -0.303903        -8.2696
 116   1.0000      -0.301984        -8.2174
 117   1.0000      -0.300825        -8.1859
 118   1.0000      -0.297174        -8.0865
 119   1.0000      -0.295460        -8.0399
 120   1.0000      -0.294132        -8.0037
 121   1.0000      -0.294123        -8.0035
 122   1.0000      -0.293552        -7.9880
 123   1.0000      -0.291193        -7.9238
 124   1.0000      -0.289477        -7.8771
 125   1.0000      -0.286742        -7.8027
 126   1.0000      -0.282787        -7.6950
 127   1.0000      -0.282281        -7.6813
 128   1.0000      -0.280686        -7.6379
 129   1.0000      -0.276166        -7.5149
 130   1.0000      -0.274586        -7.4719
 131   1.0000      -0.273522        -7.4429
 132   1.0000      -0.272229        -7.4077
 133   1.0000      -0.271783        -7.3956
 134   1.0000      -0.271397        -7.3851
 135   1.0000      -0.270928        -7.3723
 136   1.0000      -0.269092        -7.3224
 137   1.0000      -0.267929        -7.2907
 138   1.0000      -0.266611        -7.2549
 139   1.0000      -0.264023        -7.1844
 140   1.0000      -0.263936        -7.1821
 141   1.0000      -0.263648        -7.1742
 142   1.0000      -0.263317        -7.1652
 143   1.0000      -0.260437        -7.0868
 144   1.0000      -0.259761        -7.0685
 145   1.0000      -0.259320        -7.0564
 146   1.0000      -0.257777        -7.0145
 147   1.0000      -0.256097        -6.9688
 148   1.0000      -0.253959        -6.9106
 149   1.0000      -0.252029        -6.8580
 150   1.0000      -0.251129        -6.8336
 151   1.0000      -0.250864        -6.8263
 152   1.0000      -0.249150        -6.7797
 153   1.0000      -0.247605        -6.7377
 154   1.0000      -0.244198        -6.6450
 155   1.0000      -0.240438        -6.5426
 156   1.0000      -0.239206        -6.5091
 157   1.0000      -0.232432        -6.3248
 158   1.0000      -0.218843        -5.9550
 159   1.0000      -0.217379        -5.9152
 160   1.0000      -0.211969        -5.7680
 161   1.0000      -0.211100        -5.7443
 162   1.0000      -0.152302        -4.1443
 163   0.0000      -0.149000        -4.0545
 164   0.0000      -0.142885        -3.8881
 165   0.0000      -0.139271        -3.7898
 166   0.0000      -0.132611        -3.6085
 167   0.0000      -0.126640        -3.4461

MULLIKEN ATOMIC CHARGES AND SPIN POPULATIONS
--------------------------------------------
   0 Au:    0.218048   -0.101969
   1 Au:   -0.282924   -0.151323
   2 Au:   -0.284084   -0.123635
   3 Au:    0.230020   -0.059314
   4 Au:    0.032928   -0.057371
   5 Au:    0.176018   -0.006009
   6 Au:   -0.200541   -0.178144
   7 Au:    0.480949   -0.064583
   8 Au:   -0.260679   -0.153720
   9 Au:    0.508784   -0.079313
  10 Au:   -0.261217   -0.149458
  11 Au:   -0.428370   -0.050343
  12 Au:    0.175734   -0.001694
  13 Au:    0.259984   -0.062877
  14 Au:   -0.415374   -0.067250
  15 Au:    0.039736   -0.065547
  16 Mn:    0.010990    4.372550
Sum of atomic charges         :   -0.0000000

LOEWDIN ATOMIC CHARGES AND SPIN POPULATIONS
-------------------------------------------
   0 Au:    0.022521   -0.089373
   1 Au:   -0.035550   -0.075833
   2 Au:   -0.036047   -0.063401
   3 Au:    0.022989   -0.054091
   4 Au:   -0.021353   -0.080811
   5 Au:    0.001410   -0.027273
   6 Au:   -0.021395   -0.093847
   7 Au:    0.135329   -0.093667
   8 Au:   -0.092569   -0.094455
   9 Au:    0.149490   -0.108569
  10 Au:   -0.094859   -0.093663
  11 Au:   -0.078886   -0.056773
  12 Au:    0.003686   -0.023907
  13 Au:    0.053567   -0.084609
  14 Au:   -0.078031   -0.063759
  15 Au:   -0.018730   -0.078458
  16 Mn:    0.088426    4.182489

  Mayer bond orders larger than 0.100000
B(  0-Au,  1-Au) :   0.2263 B(  0-Au,  6-Au) :   0.2398 B(  0-Au, 12-Au) :   0.1817
B(  0-Au, 15-Au) :   0.2520 B(  0-Au, 16-Mn) :   0.5119 B(  1-Au,  2-Au) :   0.1199
B(  1-Au,  7-Au) :   0.3093 B(  1-Au, 10-Au) :   0.2609 B(  1-Au, 12-Au) :   0.2902
B(  1-Au, 16-Mn) :   0.5020 B(  2-Au,  3-Au) :   0.2457 B(  2-Au,  5-Au) :   0.2858
B(  2-Au,  7-Au) :   0.3114 B(  2-Au,  8-Au) :   0.2623 B(  2-Au, 16-Mn) :   0.4978
B(  3-Au,  4-Au) :   0.2572 B(  3-Au,  5-Au) :   0.1861 B(  3-Au,  6-Au) :   0.2501
B(  3-Au, 16-Mn) :   0.4926 B(  4-Au,  5-Au) :   0.2426 B(  4-Au,  6-Au) :   0.3234
B(  4-Au, 13-Au) :   0.3396 B(  4-Au, 14-Au) :   0.4117 B(  5-Au,  8-Au) :   0.3361
B(  5-Au, 14-Au) :   0.3049 B(  6-Au, 13-Au) :   0.1368 B(  6-Au, 15-Au) :   0.3179
B(  6-Au, 16-Mn) :   0.4809 B(  7-Au,  8-Au) :   0.2166 B(  7-Au, 10-Au) :   0.2302
B(  8-Au,  9-Au) :   0.1972 B(  8-Au, 10-Au) :   0.2402 B(  8-Au, 14-Au) :   0.3503
B(  9-Au, 10-Au) :   0.1970 B(  9-Au, 11-Au) :   0.3174 B(  9-Au, 14-Au) :   0.3168
B( 10-Au, 11-Au) :   0.3351 B( 10-Au, 12-Au) :   0.3345 B( 11-Au, 12-Au) :   0.3025
B( 11-Au, 13-Au) :   0.2702 B( 11-Au, 14-Au) :   0.3251 B( 11-Au, 15-Au) :   0.4214
B( 12-Au, 15-Au) :   0.2440 B( 13-Au, 14-Au) :   0.2698 B( 13-Au, 15-Au) :   0.3383

FINAL SINGLE POINT ENERGY     -3324.539563461038

DIPOLE MOMENT
-------------
                                X             Y             Z
Electronic contribution:    -67.07633      85.51834     -38.55608
Nuclear contribution   :     67.12857     -85.93754      39.07111
                        -----------------------------------------
Total Dipole Moment    :      0.05224      -0.41920       0.51503
                        -----------------------------------------
Magnitude (a.u.)       :      0.66612
Magnitude (Debye)      :      1.69314

Rotational constants in cm-1:     0.000850     0.000819     0.000766
Rotational constants in MHz :    25.477592    24.542247    22.974616

                             ****ORCA TERMINATED NORMALLY****
TOTAL RUN TIME: 0 days 0 hours 16 minutes 18 seconds 839 msec
