                         Program Version 5.0.3 -  RELEASE  -
|  1> !CASSCF def2-TZVP def2-TZVP/C
|  2> !MOREAD RIJCOSX
|  3> %maxcore 6000
|  4> %moinp "pbe.qro"
|  5> %pal nprocs 2 end
|  6>
|  7> %casscf
|  8>  mult 5,3
|  9>  bweight 1,1
| 10>  nroots 5,45
| 11>  nel 6
| 12>  norb 5
| 13> end
| 14>
| 15>
| 16> *xyzfile 0 5 pbe.xyz
| 17>
| 18>
| 19>                          ****END OF INPUT****

CARTESIAN COORDINATES (ANGSTROEM)
---------------------------------
  Au     7.882320   10.619084    6.640926
  Au     9.861667    8.702974    7.113971
  Au     8.171476    9.552892    9.228592
  Au     8.506644    6.744903    9.481274
  Au     8.973009    6.031194    6.772807
  Au     8.480715    7.971828    4.795960
  Au     7.445212   10.379291    3.923804
  Au     4.578795    7.354028    7.333452
  Au     6.391993    6.194714    5.446528
  Au     5.673309    8.960066    5.382138
  Au     5.543308    9.948545    8.059297
  Au     6.615412    5.234976    8.082704
  Au     4.306681    5.771331    9.501042
  Au     6.006924    7.903649    9.941733
  Fe     7.233493    7.934372    7.360396

 Total Charge           Charge          ....    0
 Multiplicity           Mult            ....    5
 Number of Electrons    NEL             ....  292
 Basis Dimension        Dim             ....  605

ORBITAL ENERGIES
----------------

  NO   OCC          E(Eh)            E(eV)
   0   2.0000    -261.399608     -7113.0450
   1   2.0000     -31.961253      -869.7099
   2   2.0000     -27.441398      -746.7184
   3   2.0000     -27.441356      -746.7173
   4   2.0000     -27.441114      -746.7107
   5   2.0000      -4.729912      -128.7075
   6   2.0000      -4.729636      -128.6999
   7   2.0000      -4.719676      -128.4289
   8   2.0000      -4.719623      -128.4275
   9   2.0000      -4.716349      -128.3384
  10   2.0000      -4.716345      -128.3383
  11   2.0000      -4.716318      -128.3375
  12   2.0000      -4.715950      -128.3275
  13   2.0000      -4.712132      -128.2236
  14   2.0000      -4.711923      -128.2179
  15   2.0000      -4.711888      -128.2170
  16   2.0000      -4.711527      -128.2072
  17   2.0000      -4.701695      -127.9396
  18   2.0000      -4.701464      -127.9333
  19   2.0000      -4.195668      -114.1699
  20   2.0000      -2.776578       -75.5545
  21   2.0000      -2.775381       -75.5220
  22   2.0000      -2.774792       -75.5059
  23   2.0000      -2.770944       -75.4012
  24   2.0000      -2.766769       -75.2876
  25   2.0000      -2.766382       -75.2771
  26   2.0000      -2.764422       -75.2237
  27   2.0000      -2.763906       -75.2097
  28   2.0000      -2.763079       -75.1872
  29   2.0000      -2.758132       -75.0526
  30   2.0000      -2.757622       -75.0387
  31   2.0000      -2.756542       -75.0093
  32   2.0000      -2.756152       -74.9987
  33   2.0000      -2.755941       -74.9930
  34   2.0000      -2.755633       -74.9846
  35   2.0000      -2.754941       -74.9658
  36   2.0000      -2.754187       -74.9452
  37   2.0000      -2.753976       -74.9395
  38   2.0000      -2.753660       -74.9309
  39   2.0000      -2.752031       -74.8866
  40   2.0000      -2.751716       -74.8780
  41   2.0000      -2.751480       -74.8716
  42   2.0000      -2.751340       -74.8678
  43   2.0000      -2.751143       -74.8624
  44   2.0000      -2.750067       -74.8331
  45   2.0000      -2.749838       -74.8269
  46   2.0000      -2.749811       -74.8262
  47   2.0000      -2.748582       -74.7927
  48   2.0000      -2.748195       -74.7822
  49   2.0000      -2.747597       -74.7659
  50   2.0000      -2.747427       -74.7613
  51   2.0000      -2.747119       -74.7529
  52   2.0000      -2.746965       -74.7487
  53   2.0000      -2.746456       -74.7349
  54   2.0000      -2.746050       -74.7238
  55   2.0000      -2.744954       -74.6940
  56   2.0000      -2.744929       -74.6933
  57   2.0000      -2.744405       -74.6790
  58   2.0000      -2.744168       -74.6726
  59   2.0000      -2.738758       -74.5254
  60   2.0000      -2.738511       -74.5187
  61   2.0000      -2.735916       -74.4481
  62   2.0000      -2.735647       -74.4407
  63   2.0000      -2.735428       -74.4348
  64   2.0000      -2.735231       -74.4294
  65   2.0000      -0.601194       -16.3593
  66   2.0000      -0.567394       -15.4396
  67   2.0000      -0.558235       -15.1904
  68   2.0000      -0.557921       -15.1818
  69   2.0000      -0.555410       -15.1135
  70   2.0000      -0.551067       -14.9953
  71   2.0000      -0.549481       -14.9522
  72   2.0000      -0.547845       -14.9076
  73   2.0000      -0.547409       -14.8958
  74   2.0000      -0.545325       -14.8390
  75   2.0000      -0.545188       -14.8353
  76   2.0000      -0.543038       -14.7768
  77   2.0000      -0.542139       -14.7524
  78   2.0000      -0.541456       -14.7338
  79   2.0000      -0.539261       -14.6740
  80   2.0000      -0.537878       -14.6364
  81   2.0000      -0.535159       -14.5624
  82   2.0000      -0.533351       -14.5132
  83   2.0000      -0.529331       -14.4038
  84   2.0000      -0.528672       -14.3859
  85   2.0000      -0.524352       -14.2683
  86   2.0000      -0.522926       -14.2295
  87   2.0000      -0.521505       -14.1909
  88   2.0000      -0.516648       -14.0587
  89   2.0000      -0.510700       -13.8969
  90   2.0000      -0.510174       -13.8825
  91   2.0000      -0.506446       -13.7811
  92   2.0000      -0.503866       -13.7109
  93   2.0000      -0.500931       -13.6310
  94   2.0000      -0.500757       -13.6263
  95   2.0000      -0.497393       -13.5348
  96   2.0000      -0.495907       -13.4943
  97   2.0000      -0.487409       -13.2631
  98   2.0000      -0.484563       -13.1856
  99   2.0000      -0.481653       -13.1064
 100   2.0000      -0.478246       -13.0137
 101   2.0000      -0.476034       -12.9535
 102   2.0000      -0.469649       -12.7798
 103   2.0000      -0.466233       -12.6868
 104   2.0000      -0.463219       -12.6048
 105   2.0000      -0.461107       -12.5473
 106   2.0000      -0.459759       -12.5107
 107   2.0000      -0.458527       -12.4772
 108   2.0000      -0.455349       -12.3907
 109   2.0000      -0.452143       -12.3034
 110   2.0000      -0.452048       -12.3008
 111   2.0000      -0.451118       -12.2755
 112   2.0000      -0.450599       -12.2614
 113   2.0000      -0.448900       -12.2152
 114   2.0000      -0.448661       -12.2087
 115   2.0000      -0.448051       -12.1921
 116   2.0000      -0.444560       -12.0971
 117   2.0000      -0.443941       -12.0802
 118   2.0000      -0.438522       -11.9328
 119   2.0000      -0.437477       -11.9044
 120   2.0000      -0.436938       -11.8897
 121   2.0000      -0.436315       -11.8727
 122   2.0000      -0.435265       -11.8442
 123   2.0000      -0.433730       -11.8024
 124   2.0000      -0.430386       -11.7114
 125   2.0000      -0.428459       -11.6590
 126   2.0000      -0.428343       -11.6558
 127   2.0000      -0.426609       -11.6086
 128   2.0000      -0.426227       -11.5982
 129   2.0000      -0.425085       -11.5671
 130   2.0000      -0.421812       -11.4781
 131   2.0000      -0.420888       -11.4529
 132   2.0000      -0.420407       -11.4399
 133   2.0000      -0.397547       -10.8178
 134   2.0000      -0.396717       -10.7952
 135   2.0000      -0.393608       -10.7106
 136   2.0000      -0.377780       -10.2799
 137   2.0000      -0.349021        -9.4973
 138   2.0000      -0.345916        -9.4128
 139   2.0000      -0.267501        -7.2791
 140   2.0000      -0.247948        -6.7470
 141   2.0000      -0.226881        -6.1737
 142   2.0000      -0.223495        -6.0816
 143   1.2000      -0.273812        -7.4508
 144   1.2000      -0.262655        -7.1472
 145   1.2000      -0.278434        -7.5766
 146   1.2000      -0.270247        -7.3538
 147   1.2000      -0.271586        -7.3902
 148   0.0000      -0.055490        -1.5100
 149   0.0000      -0.020235        -0.5506
 150   0.0000      -0.014152        -0.3851
 151   0.0000       0.010776         0.2932
 152   0.0000       0.012588         0.3425

MULLIKEN ATOMIC CHARGES AND SPIN DENSITIES
------------------------------------------
   0 Au:   -0.052999    0.006999
   1 Au:    0.353669    0.006610
   2 Au:    0.241111    0.010504
   3 Au:    0.354452    0.006690
   4 Au:    0.243322    0.010443
   5 Au:   -0.049949    0.006988
   6 Au:    0.470482    0.003104
   7 Au:    0.048107    0.006438
   8 Au:    0.226844    0.009157
   9 Au:    0.052877    0.006371
  10 Au:    0.233078    0.009063
  11 Au:   -0.051674    0.006928
  12 Au:    0.469378    0.003107
  13 Au:   -0.049755    0.006943
  14 Fe:   -2.488943    2.900654
Sum of atomic charges       :    0.0000000

LOEWDIN ATOMIC CHARGES AND SPIN DENSITIES
-----------------------------------------
   0 Au:   -0.063416    0.008914
   1 Au:    0.070184    0.008846
   2 Au:    0.037327    0.012658
   3 Au:    0.069332    0.008934
   4 Au:    0.036698    0.012612
   5 Au:   -0.062389    0.008909
   6 Au:    0.154952    0.003677
   7 Au:   -0.043100    0.009791
   8 Au:    0.075494    0.010487
   9 Au:   -0.042331    0.009722
  10 Au:    0.076193    0.010415
  11 Au:   -0.062874    0.008827
  12 Au:    0.153705    0.003686
  13 Au:   -0.061819    0.008849
  14 Fe:   -0.337958    2.873674

  Mayer bond orders larger than 0.100000
B(  0-Au,  1-Au) :   0.2143 B(  0-Au,  2-Au) :   0.2164 B(  0-Au,  5-Au) :   0.1457
B(  0-Au,  6-Au) :   0.2413 B(  0-Au,  9-Au) :   0.2514 B(  0-Au, 10-Au) :   0.1016
B(  0-Au, 14-Fe) :   0.3711 B(  1-Au,  2-Au) :   0.1757 B(  1-Au,  4-Au) :   0.1801
B(  1-Au,  5-Au) :   0.2164 B(  1-Au, 14-Fe) :   0.3707 B(  2-Au,  3-Au) :   0.1771
B(  2-Au, 13-Au) :   0.2139 B(  2-Au, 14-Fe) :   0.4590 B(  3-Au,  4-Au) :   0.1794
B(  3-Au, 11-Au) :   0.2135 B(  3-Au, 13-Au) :   0.2153 B(  3-Au, 14-Fe) :   0.3714
B(  4-Au,  5-Au) :   0.2126 B(  4-Au, 11-Au) :   0.2131 B(  4-Au, 14-Fe) :   0.4581
B(  5-Au,  6-Au) :   0.2418 B(  5-Au,  8-Au) :   0.1016 B(  5-Au,  9-Au) :   0.2525
B(  5-Au, 14-Fe) :   0.3709 B(  6-Au,  9-Au) :   0.3740 B(  7-Au,  8-Au) :   0.1651
B(  7-Au,  9-Au) :   0.2057 B(  7-Au, 10-Au) :   0.1719 B(  7-Au, 11-Au) :   0.2514
B(  7-Au, 12-Au) :   0.3779 B(  7-Au, 13-Au) :   0.2529 B(  7-Au, 14-Fe) :   0.3377
B(  8-Au,  9-Au) :   0.1679 B(  8-Au, 11-Au) :   0.1051 B(  8-Au, 14-Fe) :   0.5028
B(  9-Au, 10-Au) :   0.1706 B(  9-Au, 14-Fe) :   0.3352 B( 10-Au, 13-Au) :   0.1014
B( 10-Au, 14-Fe) :   0.4995 B( 11-Au, 12-Au) :   0.2394 B( 11-Au, 13-Au) :   0.1458
B( 11-Au, 14-Fe) :   0.3694 B( 12-Au, 13-Au) :   0.2405 B( 13-Au, 14-Fe) :   0.3699

FINAL SINGLE POINT ENERGY     -3149.724017245068

DIPOLE MOMENT
-------------
                                X             Y             Z
Electronic contribution:     -7.75804       0.79833      -3.67817
Nuclear contribution   :      7.72149      -0.78612       3.65787
                        -----------------------------------------
Total Dipole Moment    :     -0.03655       0.01222      -0.02030
                        -----------------------------------------
Magnitude (a.u.)       :      0.04355
Magnitude (Debye)      :      0.11071

Rotational constants in cm-1:     0.001338     0.000915     0.000900
Rotational constants in MHz :    40.114543    27.436292    26.994491

                             ****ORCA TERMINATED NORMALLY****
TOTAL RUN TIME: 0 days 1 hours 26 minutes 29 seconds 183 msec
