                         Program Version 5.0.3 -  RELEASE  -
|  1> !RI-B2PLYP def2-TZVP def2-TZVP/C
|  2> !RIJCOSX VERYSLOWCONV
|  3>
|  4> %scf
|  5>   AutoTRAHIter 200
|  6>   maxiter 400
|  7> end
|  8>
|  9>
| 10> %pal nprocs 6 end
| 11>
| 12> *xyzfile 0 5 pbe.xyz
| 13>
| 14> $new_job
| 15>
| 16> !RI-B2PLYP def2-TZVP def2-TZVP/C
| 17> !RIJCOSX VERYSLOWCONV
| 18>
| 19> %scf
| 20>   AutoTRAHIter 200
| 21>   maxiter 400
| 22> end
| 23>
| 24>
| 25> %pal nprocs 6 end
| 26>
| 27> *xyzfile 0 3 pbe.xyz
| 28>
| 29>
| 30>
| 31>
| 32>
| 33>                          ****END OF INPUT****
 Total Charge           Charge          ....    0
 Multiplicity           Mult            ....    5
 Number of Electrons    NEL             ....  328
MP2 TOTAL ENERGY:    -3213.737516128 Eh
FINAL SINGLE POINT ENERGY     -3213.737516127510

CARTESIAN COORDINATES (ANGSTROEM)
---------------------------------
  Au     9.434609    5.547976    8.841342
  Au    10.466945    6.827914    5.948535
  Au     6.792545    5.025118    8.125305
  Au    10.166535    9.749188   12.103101
  Au     9.792170    7.436210   10.720045
  Au     8.260203    9.844777   10.165285
  Au     7.173257    7.309436    9.749190
  Au    11.623994    7.137632    8.608577
  Au    11.139522    9.758250    9.527025
  Au     8.896761    4.634910    6.303233
  Au     9.266332   10.913050    7.770111
  Au    11.349271    9.286150    6.831361
  Au     8.976115    9.175923    5.435279
  Au     6.298187    8.706566    5.355604
  Au     6.856784    9.656935    7.877643
  Au     5.335508    7.334239    7.608604
  Cr     8.026132    7.221688    7.028374

 Multiplicity           Mult            ....    3
 Number of Electrons    NEL             ....  328
 Basis Dimension        Dim             ....  685

ORBITAL ENERGIES
----------------
                 SPIN UP ORBITALS
  NO   OCC          E(Eh)            E(eV)
   0   1.0000    -217.773123     -5925.9080
   1   1.0000     -25.458511      -692.7613
   2   1.0000     -21.597912      -587.7091
   3   1.0000     -21.597770      -587.7052
   4   1.0000     -21.592068      -587.5500
   5   1.0000      -4.407008      -119.9208
   6   1.0000      -4.406522      -119.9076
   7   1.0000      -4.405730      -119.8860
   8   1.0000      -4.405277      -119.8737
   9   1.0000      -4.402248      -119.7913
  10   1.0000      -4.401082      -119.7595
  11   1.0000      -4.400918      -119.7551
  12   1.0000      -4.398760      -119.6963
  13   1.0000      -4.396651      -119.6390
  14   1.0000      -4.396298      -119.6293
  15   1.0000      -4.393850      -119.5627
  16   1.0000      -4.393723      -119.5593
  17   1.0000      -4.387884      -119.4004
  18   1.0000      -4.387816      -119.3985
  19   1.0000      -4.387325      -119.3852
  20   1.0000      -4.385141      -119.3258
  21   1.0000      -3.248169       -88.3872
  22   1.0000      -2.528083       -68.7926
  23   1.0000      -2.527671       -68.7814
  24   1.0000      -2.526248       -68.7427
  25   1.0000      -2.525650       -68.7264
  26   1.0000      -2.525231       -68.7150
  27   1.0000      -2.523908       -68.6790
  28   1.0000      -2.523608       -68.6709
  29   1.0000      -2.523196       -68.6596
  30   1.0000      -2.522430       -68.6388
  31   1.0000      -2.522380       -68.6374
  32   1.0000      -2.521981       -68.6266
  33   1.0000      -2.520227       -68.5789
  34   1.0000      -2.519797       -68.5672
  35   1.0000      -2.519762       -68.5662
  36   1.0000      -2.519563       -68.5608
  37   1.0000      -2.519009       -68.5457
  38   1.0000      -2.518859       -68.5416
  39   1.0000      -2.518384       -68.5287
  40   1.0000      -2.517148       -68.4951
  41   1.0000      -2.516925       -68.4890
  42   1.0000      -2.516750       -68.4842
  43   1.0000      -2.516024       -68.4645
  44   1.0000      -2.515374       -68.4468
  45   1.0000      -2.515200       -68.4421
  46   1.0000      -2.514613       -68.4261
  47   1.0000      -2.514478       -68.4224
  48   1.0000      -2.513483       -68.3953
  49   1.0000      -2.512918       -68.3800
  50   1.0000      -2.512227       -68.3612
  51   1.0000      -2.511960       -68.3539
  52   1.0000      -2.511051       -68.3292
  53   1.0000      -2.510929       -68.3258
  54   1.0000      -2.510867       -68.3242
  55   1.0000      -2.510482       -68.3137
  56   1.0000      -2.509367       -68.2833
  57   1.0000      -2.507854       -68.2422
  58   1.0000      -2.507705       -68.2381
  59   1.0000      -2.506574       -68.2074
  60   1.0000      -2.506262       -68.1988
  61   1.0000      -2.505678       -68.1830
  62   1.0000      -2.504856       -68.1606
  63   1.0000      -2.504320       -68.1460
  64   1.0000      -2.504148       -68.1413
  65   1.0000      -2.503110       -68.1131
  66   1.0000      -2.501935       -68.0811
  67   1.0000      -2.501403       -68.0666
  68   1.0000      -2.500324       -68.0373
  69   1.0000      -2.499726       -68.0210
  70   1.0000      -2.140404       -58.2433
  71   1.0000      -2.129837       -57.9558
  72   1.0000      -2.128976       -57.9324
  73   1.0000      -0.500599       -13.6220
  74   1.0000      -0.491922       -13.3859
  75   1.0000      -0.478805       -13.0290
  76   1.0000      -0.478382       -13.0174
  77   1.0000      -0.471021       -12.8171
  78   1.0000      -0.467389       -12.7183
  79   1.0000      -0.466676       -12.6989
  80   1.0000      -0.463291       -12.6068
  81   1.0000      -0.460629       -12.5343
  82   1.0000      -0.460592       -12.5333
  83   1.0000      -0.459146       -12.4940
  84   1.0000      -0.458370       -12.4729
  85   1.0000      -0.453885       -12.3508
  86   1.0000      -0.453476       -12.3397
  87   1.0000      -0.453203       -12.3323
  88   1.0000      -0.452481       -12.3126
  89   1.0000      -0.451208       -12.2780
  90   1.0000      -0.448415       -12.2020
  91   1.0000      -0.447670       -12.1817
  92   1.0000      -0.444504       -12.0956
  93   1.0000      -0.439809       -11.9678
  94   1.0000      -0.439683       -11.9644
  95   1.0000      -0.439006       -11.9460
  96   1.0000      -0.438213       -11.9244
  97   1.0000      -0.435257       -11.8440
  98   1.0000      -0.434444       -11.8218
  99   1.0000      -0.432677       -11.7737
 100   1.0000      -0.431918       -11.7531
 101   1.0000      -0.428511       -11.6604
 102   1.0000      -0.424985       -11.5644
 103   1.0000      -0.424431       -11.5493
 104   1.0000      -0.424268       -11.5449
 105   1.0000      -0.419799       -11.4233
 106   1.0000      -0.416870       -11.3436
 107   1.0000      -0.414840       -11.2884
 108   1.0000      -0.411300       -11.1920
 109   1.0000      -0.407968       -11.1014
 110   1.0000      -0.404746       -11.0137
 111   1.0000      -0.402447       -10.9511
 112   1.0000      -0.401214       -10.9176
 113   1.0000      -0.398387       -10.8407
 114   1.0000      -0.395370       -10.7586
 115   1.0000      -0.391687       -10.6583
 116   1.0000      -0.389946       -10.6110
 117   1.0000      -0.383223       -10.4280
 118   1.0000      -0.382526       -10.4091
 119   1.0000      -0.379624       -10.3301
 120   1.0000      -0.379399       -10.3240
 121   1.0000      -0.378904       -10.3105
 122   1.0000      -0.377746       -10.2790
 123   1.0000      -0.375453       -10.2166
 124   1.0000      -0.373445       -10.1620
 125   1.0000      -0.371316       -10.1040
 126   1.0000      -0.370872       -10.0919
 127   1.0000      -0.369066       -10.0428
 128   1.0000      -0.368365       -10.0237
 129   1.0000      -0.367639       -10.0040
 130   1.0000      -0.367007        -9.9868
 131   1.0000      -0.364995        -9.9320
 132   1.0000      -0.363938        -9.9033
 133   1.0000      -0.362228        -9.8567
 134   1.0000      -0.361463        -9.8359
 135   1.0000      -0.360989        -9.8230
 136   1.0000      -0.359710        -9.7882
 137   1.0000      -0.358789        -9.7631
 138   1.0000      -0.357986        -9.7413
 139   1.0000      -0.356950        -9.7131
 140   1.0000      -0.355691        -9.6788
 141   1.0000      -0.353657        -9.6235
 142   1.0000      -0.352415        -9.5897
 143   1.0000      -0.351696        -9.5701
 144   1.0000      -0.351021        -9.5518
 145   1.0000      -0.347221        -9.4484
 146   1.0000      -0.344649        -9.3784
 147   1.0000      -0.341380        -9.2894
 148   1.0000      -0.339982        -9.2514
 149   1.0000      -0.336980        -9.1697
 150   1.0000      -0.334968        -9.1149
 151   1.0000      -0.333677        -9.0798
 152   1.0000      -0.332060        -9.0358
 153   1.0000      -0.331615        -9.0237
 154   1.0000      -0.330550        -8.9947
 155   1.0000      -0.329782        -8.9738
 156   1.0000      -0.328517        -8.9394
 157   1.0000      -0.316277        -8.6063
 158   1.0000      -0.315302        -8.5798
 159   1.0000      -0.306143        -8.3306
 160   1.0000      -0.305022        -8.3001
 161   1.0000      -0.251871        -6.8538
 162   1.0000      -0.245257        -6.6738
 163   1.0000      -0.237849        -6.4722
 164   1.0000      -0.233696        -6.3592
 165   0.0000      -0.143290        -3.8991
 166   0.0000      -0.091681        -2.4948
 167   0.0000      -0.081345        -2.2135
 168   0.0000      -0.076683        -2.0866
 169   0.0000      -0.067181        -1.8281

                 SPIN DOWN ORBITALS
  NO   OCC          E(Eh)            E(eV)
   0   1.0000    -217.771832     -5925.8728
   1   1.0000     -25.387508      -690.8292
   2   1.0000     -21.537998      -586.0787
   3   1.0000     -21.537517      -586.0656
   4   1.0000     -21.515452      -585.4652
   5   1.0000      -4.407500      -119.9342
   6   1.0000      -4.407035      -119.9215
   7   1.0000      -4.405797      -119.8878
   8   1.0000      -4.405330      -119.8751
   9   1.0000      -4.402719      -119.8041
  10   1.0000      -4.400995      -119.7572
  11   1.0000      -4.400831      -119.7527
  12   1.0000      -4.399507      -119.7167
  13   1.0000      -4.396556      -119.6364
  14   1.0000      -4.396209      -119.6269
  15   1.0000      -4.394904      -119.5914
  16   1.0000      -4.394758      -119.5874
  17   1.0000      -4.389087      -119.4331
  18   1.0000      -4.389049      -119.4321
  19   1.0000      -4.388773      -119.4246
  20   1.0000      -4.386653      -119.3669
  21   1.0000      -3.031104       -82.4805
  22   1.0000      -2.528619       -68.8072
  23   1.0000      -2.528226       -68.7965
  24   1.0000      -2.525675       -68.7271
  25   1.0000      -2.525002       -68.7088
  26   1.0000      -2.524763       -68.7023
  27   1.0000      -2.524083       -68.6838
  28   1.0000      -2.523766       -68.6752
  29   1.0000      -2.523050       -68.6557
  30   1.0000      -2.522148       -68.6311
  31   1.0000      -2.521944       -68.6256
  32   1.0000      -2.521694       -68.6188
  33   1.0000      -2.519862       -68.5689
  34   1.0000      -2.519702       -68.5646
  35   1.0000      -2.519414       -68.5567
  36   1.0000      -2.518933       -68.5437
  37   1.0000      -2.518794       -68.5399
  38   1.0000      -2.518683       -68.5368
  39   1.0000      -2.518428       -68.5299
  40   1.0000      -2.518320       -68.5270
  41   1.0000      -2.516586       -68.4798
  42   1.0000      -2.516353       -68.4734
  43   1.0000      -2.516333       -68.4729
  44   1.0000      -2.515450       -68.4489
  45   1.0000      -2.514984       -68.4362
  46   1.0000      -2.514796       -68.4311
  47   1.0000      -2.514368       -68.4194
  48   1.0000      -2.514186       -68.4145
  49   1.0000      -2.514069       -68.4113
  50   1.0000      -2.512227       -68.3612
  51   1.0000      -2.512023       -68.3556
  52   1.0000      -2.511834       -68.3505
  53   1.0000      -2.511545       -68.3426
  54   1.0000      -2.510664       -68.3186
  55   1.0000      -2.510316       -68.3092
  56   1.0000      -2.510270       -68.3079
  57   1.0000      -2.509209       -68.2791
  58   1.0000      -2.508555       -68.2612
  59   1.0000      -2.507814       -68.2411
  60   1.0000      -2.507439       -68.2309
  61   1.0000      -2.506765       -68.2126
  62   1.0000      -2.506314       -68.2003
  63   1.0000      -2.505155       -68.1687
  64   1.0000      -2.505038       -68.1655
  65   1.0000      -2.504440       -68.1493
  66   1.0000      -2.503188       -68.1152
  67   1.0000      -2.501860       -68.0791
  68   1.0000      -2.501275       -68.0632
  69   1.0000      -2.500993       -68.0555
  70   1.0000      -1.901468       -51.7416
  71   1.0000      -1.900174       -51.7064
  72   1.0000      -1.848485       -50.2998
  73   1.0000      -0.494891       -13.4667
  74   1.0000      -0.480727       -13.0813
  75   1.0000      -0.478484       -13.0202
  76   1.0000      -0.474747       -12.9185
  77   1.0000      -0.469622       -12.7791
  78   1.0000      -0.468509       -12.7488
  79   1.0000      -0.467658       -12.7256
  80   1.0000      -0.461095       -12.5470
  81   1.0000      -0.460392       -12.5279
  82   1.0000      -0.459595       -12.5062
  83   1.0000      -0.456883       -12.4324
  84   1.0000      -0.456609       -12.4250
  85   1.0000      -0.455050       -12.3826
  86   1.0000      -0.454436       -12.3658
  87   1.0000      -0.453344       -12.3361
  88   1.0000      -0.452403       -12.3105
  89   1.0000      -0.451764       -12.2931
  90   1.0000      -0.448868       -12.2143
  91   1.0000      -0.447514       -12.1775
  92   1.0000      -0.441963       -12.0264
  93   1.0000      -0.440484       -11.9862
  94   1.0000      -0.439810       -11.9678
  95   1.0000      -0.438638       -11.9359
  96   1.0000      -0.437741       -11.9115
  97   1.0000      -0.435566       -11.8523
  98   1.0000      -0.434641       -11.8272
  99   1.0000      -0.429128       -11.6772
 100   1.0000      -0.428840       -11.6693
 101   1.0000      -0.427432       -11.6310
 102   1.0000      -0.425721       -11.5845
 103   1.0000      -0.422620       -11.5001
 104   1.0000      -0.419825       -11.4240
 105   1.0000      -0.419709       -11.4209
 106   1.0000      -0.413920       -11.2633
 107   1.0000      -0.410279       -11.1643
 108   1.0000      -0.408341       -11.1115
 109   1.0000      -0.407307       -11.0834
 110   1.0000      -0.402723       -10.9586
 111   1.0000      -0.401031       -10.9126
 112   1.0000      -0.396846       -10.7987
 113   1.0000      -0.396610       -10.7923
 114   1.0000      -0.389781       -10.6065
 115   1.0000      -0.386470       -10.5164
 116   1.0000      -0.385276       -10.4839
 117   1.0000      -0.384162       -10.4536
 118   1.0000      -0.381581       -10.3834
 119   1.0000      -0.379552       -10.3281
 120   1.0000      -0.378083       -10.2882
 121   1.0000      -0.376641       -10.2489
 122   1.0000      -0.375726       -10.2240
 123   1.0000      -0.374551       -10.1920
 124   1.0000      -0.371253       -10.1023
 125   1.0000      -0.370418       -10.0796
 126   1.0000      -0.369735       -10.0610
 127   1.0000      -0.369345       -10.0504
 128   1.0000      -0.368082       -10.0160
 129   1.0000      -0.367849       -10.0097
 130   1.0000      -0.365931        -9.9575
 131   1.0000      -0.364817        -9.9272
 132   1.0000      -0.362754        -9.8711
 133   1.0000      -0.361945        -9.8490
 134   1.0000      -0.361302        -9.8315
 135   1.0000      -0.359433        -9.7807
 136   1.0000      -0.359160        -9.7733
 137   1.0000      -0.358390        -9.7523
 138   1.0000      -0.357048        -9.7158
 139   1.0000      -0.355881        -9.6840
 140   1.0000      -0.354453        -9.6451
 141   1.0000      -0.352171        -9.5831
 142   1.0000      -0.351696        -9.5701
 143   1.0000      -0.346247        -9.4219
 144   1.0000      -0.344459        -9.3732
 145   1.0000      -0.342073        -9.3083
 146   1.0000      -0.339392        -9.2353
 147   1.0000      -0.338415        -9.2087
 148   1.0000      -0.336337        -9.1522
 149   1.0000      -0.335122        -9.1191
 150   1.0000      -0.332904        -9.0588
 151   1.0000      -0.332479        -9.0472
 152   1.0000      -0.329878        -8.9764
 153   1.0000      -0.322145        -8.7660
 154   1.0000      -0.320862        -8.7311
 155   1.0000      -0.318030        -8.6540
 156   1.0000      -0.307509        -8.3677
 157   1.0000      -0.265061        -7.2127
 158   1.0000      -0.259741        -7.0679
 159   1.0000      -0.248625        -6.7654
 160   1.0000      -0.237385        -6.4596
 161   1.0000      -0.228985        -6.2310
 162   1.0000      -0.162168        -4.4128
 163   0.0000      -0.084846        -2.3088
 164   0.0000      -0.083877        -2.2824
 165   0.0000      -0.076418        -2.0794
 166   0.0000      -0.074111        -2.0167
 167   0.0000      -0.063505        -1.7281

MULLIKEN ATOMIC CHARGES AND SPIN POPULATIONS
--------------------------------------------
   0 Au:    0.064463   -0.133287
   1 Au:    0.185233   -0.114645
   2 Au:    0.481436   -0.073261
   3 Au:    0.493306   -0.285641
   4 Au:   -0.156799   -0.003595
   5 Au:   -0.148839   -0.004100
   6 Au:   -0.036276   -0.269222
   7 Au:    0.178023   -0.157814
   8 Au:   -0.262040   -0.142116
   9 Au:    0.438254   -0.088820
  10 Au:    0.187412   -0.150492
  11 Au:    0.195085   -0.022901
  12 Au:    0.181768   -0.115465
  13 Au:    0.436909   -0.087673
  14 Au:    0.047099   -0.134733
  15 Au:    0.483008   -0.075110
  16 Cr:   -2.768043    3.858875
Sum of atomic charges         :    0.0000000

LOEWDIN ATOMIC CHARGES AND SPIN POPULATIONS
-------------------------------------------
   0 Au:   -0.018424   -0.100789
   1 Au:    0.053474   -0.120131
   2 Au:    0.103143   -0.078782
   3 Au:    0.146186   -0.180541
   4 Au:   -0.052869   -0.103735
   5 Au:   -0.053162   -0.103586
   6 Au:    0.034982   -0.118223
   7 Au:    0.041717   -0.137182
   8 Au:   -0.093453   -0.108409
   9 Au:    0.153610   -0.071768
  10 Au:    0.043959   -0.134265
  11 Au:    0.043292   -0.131556
  12 Au:    0.051141   -0.120573
  13 Au:    0.156805   -0.071160
  14 Au:   -0.020080   -0.099778
  15 Au:    0.103142   -0.080402
  16 Cr:   -0.693463    3.760881

  Mayer bond orders larger than 0.100000
B(  0-Au,  2-Au) :   0.2002 B(  0-Au,  4-Au) :   0.4336 B(  0-Au,  6-Au) :   0.1642
B(  0-Au,  7-Au) :   0.2953 B(  0-Au,  9-Au) :   0.1587 B(  0-Au, 16-Cr) :   0.3810
B(  1-Au,  7-Au) :   0.1330 B(  1-Au,  9-Au) :   0.2912 B(  1-Au, 11-Au) :   0.1783
B(  1-Au, 12-Au) :   0.2244 B(  1-Au, 16-Cr) :   0.5548 B(  2-Au,  6-Au) :   0.1224
B(  2-Au,  9-Au) :   0.1704 B(  2-Au, 15-Au) :   0.2631 B(  2-Au, 16-Cr) :   0.4669
B(  3-Au,  4-Au) :   0.2946 B(  3-Au,  5-Au) :   0.2923 B(  3-Au,  8-Au) :   0.2345
B(  4-Au,  5-Au) :   0.2666 B(  4-Au,  6-Au) :   0.2238 B(  4-Au,  7-Au) :   0.1975
B(  4-Au,  8-Au) :   0.3194 B(  4-Au, 16-Cr) :   0.1683 B(  5-Au,  6-Au) :   0.2257
B(  5-Au,  8-Au) :   0.3170 B(  5-Au, 10-Au) :   0.1928 B(  5-Au, 14-Au) :   0.4310
B(  5-Au, 16-Cr) :   0.1665 B(  6-Au, 14-Au) :   0.1632 B(  6-Au, 15-Au) :   0.1251
B(  6-Au, 16-Cr) :   0.4404 B(  7-Au,  8-Au) :   0.1910 B(  7-Au, 11-Au) :   0.2026
B(  7-Au, 16-Cr) :   0.2584 B(  8-Au, 10-Au) :   0.1919 B(  8-Au, 11-Au) :   0.4720
B(  9-Au, 16-Cr) :   0.4664 B( 10-Au, 11-Au) :   0.2003 B( 10-Au, 12-Au) :   0.1357
B( 10-Au, 14-Au) :   0.3039 B( 10-Au, 16-Cr) :   0.2539 B( 11-Au, 12-Au) :   0.1808
B( 11-Au, 16-Cr) :   0.2409 B( 12-Au, 13-Au) :   0.2888 B( 12-Au, 16-Cr) :   0.5566
B( 13-Au, 14-Au) :   0.1608 B( 13-Au, 15-Au) :   0.1696 B( 13-Au, 16-Cr) :   0.4590
B( 14-Au, 15-Au) :   0.2025 B( 14-Au, 16-Cr) :   0.3893 B( 15-Au, 16-Cr) :   0.4614

MP2 TOTAL ENERGY:    -3213.682456712 Eh
FINAL SINGLE POINT ENERGY     -3213.682456712181

DIPOLE MOMENT
-------------
                                X             Y             Z
Electronic contribution:     29.15307      27.87134      40.40282
Nuclear contribution   :    -29.58054     -28.22764     -40.84233
                        -----------------------------------------
Total Dipole Moment    :     -0.42747      -0.35630      -0.43951
                        -----------------------------------------
Magnitude (a.u.)       :      0.70912
Magnitude (Debye)      :      1.80244

Rotational constants in cm-1:     0.000931     0.000712     0.000704
Rotational constants in MHz :    27.903370    21.356495    21.106181

                             ****ORCA TERMINATED NORMALLY****
TOTAL RUN TIME: 0 days 0 hours 38 minutes 40 seconds 831 msec
