                         Program Version 5.0.3 -  RELEASE  -
|  1> !PBE def2-TZVP VERYSLOWCONV
|  2>
|  3> %scf
|  4>   AutoTRAHIter 200
|  5>   maxiter 400
|  6> end
|  7>
|  8>
|  9> %pal nprocs 6 end
| 10>
| 11> *xyzfile 0 5 pbe.xyz
| 12>
| 13> $new_job
| 14>
| 15> !PBE def2-TZVP VERYSLOWCONV
| 16>
| 17> %scf
| 18>   AutoTRAHIter 200
| 19>   maxiter 400
| 20> end
| 21>
| 22>
| 23> %pal nprocs 6 end
| 24>
| 25> *xyzfile 0 3 pbe.xyz
| 26>
| 27>
| 28>
| 29>
| 30>
| 31>                          ****END OF INPUT****
 Total Charge           Charge          ....    0
 Multiplicity           Mult            ....    5
 Number of Electrons    NEL             ....  328
FINAL SINGLE POINT ENERGY     -3217.509633657274

CARTESIAN COORDINATES (ANGSTROEM)
---------------------------------
  Au     9.434609    5.547976    8.841342
  Au    10.466945    6.827914    5.948535
  Au     6.792545    5.025118    8.125305
  Au    10.166535    9.749188   12.103101
  Au     9.792170    7.436210   10.720045
  Au     8.260203    9.844777   10.165285
  Au     7.173257    7.309436    9.749190
  Au    11.623994    7.137632    8.608577
  Au    11.139522    9.758250    9.527025
  Au     8.896761    4.634910    6.303233
  Au     9.266332   10.913050    7.770111
  Au    11.349271    9.286150    6.831361
  Au     8.976115    9.175923    5.435279
  Au     6.298187    8.706566    5.355604
  Au     6.856784    9.656935    7.877643
  Au     5.335508    7.334239    7.608604
  Cr     8.026132    7.221688    7.028374

 Multiplicity           Mult            ....    3
 Number of Electrons    NEL             ....  328
 Basis Dimension        Dim             ....  685

ORBITAL ENERGIES
----------------
                 SPIN UP ORBITALS
  NO   OCC          E(Eh)            E(eV)
   0   1.0000    -214.505351     -5836.9873
   1   1.0000     -24.304575      -661.3611
   2   1.0000     -20.671557      -562.5017
   3   1.0000     -20.669704      -562.4512
   4   1.0000     -20.662213      -562.2474
   5   1.0000      -4.038909      -109.9043
   6   1.0000      -4.038556      -109.8947
   7   1.0000      -4.034408      -109.7818
   8   1.0000      -4.034022      -109.7713
   9   1.0000      -4.033274      -109.7510
  10   1.0000      -4.033134      -109.7471
  11   1.0000      -4.029612      -109.6513
  12   1.0000      -4.026611      -109.5697
  13   1.0000      -4.026607      -109.5695
  14   1.0000      -4.026432      -109.5648
  15   1.0000      -4.025048      -109.5271
  16   1.0000      -4.024884      -109.5227
  17   1.0000      -4.018489      -109.3486
  18   1.0000      -4.016130      -109.2845
  19   1.0000      -4.015988      -109.2806
  20   1.0000      -4.015419      -109.2651
  21   1.0000      -2.808883       -76.4336
  22   1.0000      -2.256411       -61.4001
  23   1.0000      -2.256103       -61.3917
  24   1.0000      -2.251034       -61.2538
  25   1.0000      -2.250497       -61.2391
  26   1.0000      -2.250258       -61.2326
  27   1.0000      -2.250005       -61.2257
  28   1.0000      -2.249564       -61.2137
  29   1.0000      -2.249346       -61.2078
  30   1.0000      -2.249083       -61.2007
  31   1.0000      -2.248794       -61.1928
  32   1.0000      -2.247868       -61.1676
  33   1.0000      -2.247252       -61.1508
  34   1.0000      -2.247218       -61.1499
  35   1.0000      -2.245357       -61.0993
  36   1.0000      -2.245011       -61.0899
  37   1.0000      -2.243105       -61.0380
  38   1.0000      -2.243040       -61.0362
  39   1.0000      -2.242920       -61.0330
  40   1.0000      -2.242833       -61.0306
  41   1.0000      -2.242490       -61.0212
  42   1.0000      -2.242151       -61.0120
  43   1.0000      -2.242041       -61.0090
  44   1.0000      -2.241700       -60.9998
  45   1.0000      -2.241640       -60.9981
  46   1.0000      -2.241156       -60.9850
  47   1.0000      -2.241086       -60.9830
  48   1.0000      -2.241004       -60.9808
  49   1.0000      -2.238857       -60.9224
  50   1.0000      -2.238725       -60.9188
  51   1.0000      -2.237711       -60.8912
  52   1.0000      -2.237367       -60.8819
  53   1.0000      -2.236483       -60.8578
  54   1.0000      -2.235985       -60.8442
  55   1.0000      -2.235781       -60.8387
  56   1.0000      -2.234926       -60.8154
  57   1.0000      -2.233945       -60.7887
  58   1.0000      -2.233015       -60.7634
  59   1.0000      -2.232125       -60.7392
  60   1.0000      -2.231606       -60.7251
  61   1.0000      -2.231573       -60.7242
  62   1.0000      -2.231089       -60.7110
  63   1.0000      -2.229058       -60.6557
  64   1.0000      -2.228438       -60.6389
  65   1.0000      -2.226536       -60.5871
  66   1.0000      -2.226107       -60.5755
  67   1.0000      -2.226031       -60.5734
  68   1.0000      -2.225745       -60.5656
  69   1.0000      -2.225347       -60.5548
  70   1.0000      -1.802342       -49.0442
  71   1.0000      -1.802047       -49.0362
  72   1.0000      -1.790641       -48.7258
  73   1.0000      -0.425158       -11.5691
  74   1.0000      -0.395313       -10.7570
  75   1.0000      -0.394099       -10.7240
  76   1.0000      -0.385504       -10.4901
  77   1.0000      -0.381047       -10.3688
  78   1.0000      -0.369683       -10.0596
  79   1.0000      -0.369438       -10.0529
  80   1.0000      -0.365609        -9.9487
  81   1.0000      -0.363561        -9.8930
  82   1.0000      -0.361253        -9.8302
  83   1.0000      -0.358830        -9.7643
  84   1.0000      -0.357847        -9.7375
  85   1.0000      -0.354837        -9.6556
  86   1.0000      -0.353412        -9.6168
  87   1.0000      -0.350457        -9.5364
  88   1.0000      -0.349888        -9.5209
  89   1.0000      -0.348076        -9.4716
  90   1.0000      -0.347040        -9.4434
  91   1.0000      -0.346175        -9.4199
  92   1.0000      -0.341407        -9.2902
  93   1.0000      -0.339956        -9.2507
  94   1.0000      -0.338329        -9.2064
  95   1.0000      -0.338047        -9.1987
  96   1.0000      -0.336227        -9.1492
  97   1.0000      -0.333712        -9.0808
  98   1.0000      -0.331206        -9.0126
  99   1.0000      -0.329855        -8.9758
 100   1.0000      -0.328312        -8.9338
 101   1.0000      -0.326315        -8.8795
 102   1.0000      -0.326055        -8.8724
 103   1.0000      -0.322762        -8.7828
 104   1.0000      -0.321974        -8.7613
 105   1.0000      -0.321640        -8.7523
 106   1.0000      -0.313511        -8.5311
 107   1.0000      -0.313041        -8.5183
 108   1.0000      -0.310810        -8.4576
 109   1.0000      -0.309628        -8.4254
 110   1.0000      -0.305845        -8.3225
 111   1.0000      -0.305224        -8.3056
 112   1.0000      -0.299880        -8.1601
 113   1.0000      -0.299658        -8.1541
 114   1.0000      -0.295692        -8.0462
 115   1.0000      -0.292698        -7.9647
 116   1.0000      -0.289837        -7.8869
 117   1.0000      -0.286507        -7.7962
 118   1.0000      -0.285869        -7.7789
 119   1.0000      -0.283365        -7.7108
 120   1.0000      -0.283317        -7.7094
 121   1.0000      -0.281303        -7.6546
 122   1.0000      -0.280102        -7.6220
 123   1.0000      -0.279148        -7.5960
 124   1.0000      -0.277145        -7.5415
 125   1.0000      -0.276520        -7.5245
 126   1.0000      -0.275242        -7.4897
 127   1.0000      -0.274898        -7.4803
 128   1.0000      -0.272835        -7.4242
 129   1.0000      -0.272659        -7.4194
 130   1.0000      -0.271640        -7.3917
 131   1.0000      -0.269597        -7.3361
 132   1.0000      -0.269101        -7.3226
 133   1.0000      -0.268004        -7.2928
 134   1.0000      -0.266932        -7.2636
 135   1.0000      -0.265587        -7.2270
 136   1.0000      -0.264245        -7.1905
 137   1.0000      -0.263829        -7.1792
 138   1.0000      -0.262445        -7.1415
 139   1.0000      -0.260609        -7.0915
 140   1.0000      -0.259090        -7.0502
 141   1.0000      -0.258574        -7.0362
 142   1.0000      -0.257336        -7.0025
 143   1.0000      -0.254817        -6.9339
 144   1.0000      -0.254411        -6.9229
 145   1.0000      -0.252369        -6.8673
 146   1.0000      -0.251408        -6.8411
 147   1.0000      -0.250611        -6.8195
 148   1.0000      -0.249288        -6.7835
 149   1.0000      -0.246571        -6.7095
 150   1.0000      -0.244745        -6.6598
 151   1.0000      -0.243962        -6.6386
 152   1.0000      -0.241448        -6.5701
 153   1.0000      -0.241133        -6.5616
 154   1.0000      -0.240192        -6.5359
 155   1.0000      -0.234357        -6.3772
 156   1.0000      -0.227766        -6.1978
 157   1.0000      -0.226321        -6.1585
 158   1.0000      -0.224274        -6.1028
 159   1.0000      -0.222371        -6.0510
 160   1.0000      -0.221782        -6.0350
 161   1.0000      -0.219151        -5.9634
 162   1.0000      -0.216603        -5.8941
 163   1.0000      -0.205342        -5.5876
 164   1.0000      -0.203100        -5.5266
 165   0.0000      -0.191852        -5.2206
 166   0.0000      -0.188798        -5.1374
 167   0.0000      -0.147003        -4.0002
 168   0.0000      -0.141032        -3.8377
 169   0.0000      -0.139234        -3.7888

                 SPIN DOWN ORBITALS
  NO   OCC          E(Eh)            E(eV)
   0   1.0000    -214.504932     -5836.9759
   1   1.0000     -24.257434      -660.0783
   2   1.0000     -20.639382      -561.6261
   3   1.0000     -20.634962      -561.5058
   4   1.0000     -20.621094      -561.1285
   5   1.0000      -4.039155      -109.9110
   6   1.0000      -4.038841      -109.9024
   7   1.0000      -4.034195      -109.7760
   8   1.0000      -4.033814      -109.7657
   9   1.0000      -4.033270      -109.7509
  10   1.0000      -4.033134      -109.7471
  11   1.0000      -4.029503      -109.6483
  12   1.0000      -4.027052      -109.5816
  13   1.0000      -4.026547      -109.5679
  14   1.0000      -4.026369      -109.5631
  15   1.0000      -4.025997      -109.5529
  16   1.0000      -4.025834      -109.5485
  17   1.0000      -4.019269      -109.3699
  18   1.0000      -4.016706      -109.3001
  19   1.0000      -4.016568      -109.2964
  20   1.0000      -4.016002      -109.2810
  21   1.0000      -2.681507       -72.9675
  22   1.0000      -2.256851       -61.4120
  23   1.0000      -2.256590       -61.4049
  24   1.0000      -2.250721       -61.2452
  25   1.0000      -2.250362       -61.2355
  26   1.0000      -2.250190       -61.2308
  27   1.0000      -2.250127       -61.2291
  28   1.0000      -2.249350       -61.2079
  29   1.0000      -2.249311       -61.2069
  30   1.0000      -2.249114       -61.2015
  31   1.0000      -2.248999       -61.1984
  32   1.0000      -2.247690       -61.1628
  33   1.0000      -2.247106       -61.1469
  34   1.0000      -2.247042       -61.1451
  35   1.0000      -2.245435       -61.1014
  36   1.0000      -2.245051       -61.0909
  37   1.0000      -2.244214       -61.0682
  38   1.0000      -2.243411       -61.0463
  39   1.0000      -2.243238       -61.0416
  40   1.0000      -2.243220       -61.0411
  41   1.0000      -2.242951       -61.0338
  42   1.0000      -2.242376       -61.0182
  43   1.0000      -2.242253       -61.0148
  44   1.0000      -2.241920       -61.0057
  45   1.0000      -2.241659       -60.9987
  46   1.0000      -2.241291       -60.9886
  47   1.0000      -2.241244       -60.9874
  48   1.0000      -2.240766       -60.9743
  49   1.0000      -2.238775       -60.9202
  50   1.0000      -2.238641       -60.9165
  51   1.0000      -2.238633       -60.9163
  52   1.0000      -2.238314       -60.9076
  53   1.0000      -2.237384       -60.8823
  54   1.0000      -2.235985       -60.8442
  55   1.0000      -2.235795       -60.8391
  56   1.0000      -2.235536       -60.8320
  57   1.0000      -2.234485       -60.8034
  58   1.0000      -2.233606       -60.7795
  59   1.0000      -2.232874       -60.7596
  60   1.0000      -2.232300       -60.7440
  61   1.0000      -2.232227       -60.7420
  62   1.0000      -2.231774       -60.7296
  63   1.0000      -2.229799       -60.6759
  64   1.0000      -2.229231       -60.6605
  65   1.0000      -2.227015       -60.6001
  66   1.0000      -2.226556       -60.5877
  67   1.0000      -2.226550       -60.5875
  68   1.0000      -2.226452       -60.5848
  69   1.0000      -2.225804       -60.5672
  70   1.0000      -1.689935       -45.9855
  71   1.0000      -1.679757       -45.7085
  72   1.0000      -1.648210       -44.8501
  73   1.0000      -0.422245       -11.4899
  74   1.0000      -0.395488       -10.7618
  75   1.0000      -0.392422       -10.6784
  76   1.0000      -0.386582       -10.5194
  77   1.0000      -0.379877       -10.3370
  78   1.0000      -0.369084       -10.0433
  79   1.0000      -0.368874       -10.0376
  80   1.0000      -0.365428        -9.9438
  81   1.0000      -0.364883        -9.9290
  82   1.0000      -0.361544        -9.8381
  83   1.0000      -0.358758        -9.7623
  84   1.0000      -0.356531        -9.7017
  85   1.0000      -0.354550        -9.6478
  86   1.0000      -0.353248        -9.6124
  87   1.0000      -0.350967        -9.5503
  88   1.0000      -0.349259        -9.5038
  89   1.0000      -0.348914        -9.4944
  90   1.0000      -0.347975        -9.4689
  91   1.0000      -0.347144        -9.4463
  92   1.0000      -0.341969        -9.3055
  93   1.0000      -0.340076        -9.2539
  94   1.0000      -0.339140        -9.2285
  95   1.0000      -0.338816        -9.2196
  96   1.0000      -0.335334        -9.1249
  97   1.0000      -0.334579        -9.1044
  98   1.0000      -0.332071        -9.0361
  99   1.0000      -0.328741        -8.9455
 100   1.0000      -0.328254        -8.9322
 101   1.0000      -0.327082        -8.9003
 102   1.0000      -0.326559        -8.8861
 103   1.0000      -0.323042        -8.7904
 104   1.0000      -0.321559        -8.7501
 105   1.0000      -0.321488        -8.7481
 106   1.0000      -0.313974        -8.5437
 107   1.0000      -0.311401        -8.4737
 108   1.0000      -0.310347        -8.4450
 109   1.0000      -0.308624        -8.3981
 110   1.0000      -0.305414        -8.3108
 111   1.0000      -0.305017        -8.2999
 112   1.0000      -0.299942        -8.1618
 113   1.0000      -0.299708        -8.1555
 114   1.0000      -0.295548        -8.0423
 115   1.0000      -0.291894        -7.9428
 116   1.0000      -0.290281        -7.8989
 117   1.0000      -0.287649        -7.8273
 118   1.0000      -0.285907        -7.7799
 119   1.0000      -0.283870        -7.7245
 120   1.0000      -0.283783        -7.7221
 121   1.0000      -0.281747        -7.6667
 122   1.0000      -0.280711        -7.6385
 123   1.0000      -0.279435        -7.6038
 124   1.0000      -0.277486        -7.5508
 125   1.0000      -0.277016        -7.5380
 126   1.0000      -0.276281        -7.5180
 127   1.0000      -0.275816        -7.5053
 128   1.0000      -0.274044        -7.4571
 129   1.0000      -0.273882        -7.4527
 130   1.0000      -0.272507        -7.4153
 131   1.0000      -0.270816        -7.3693
 132   1.0000      -0.270232        -7.3534
 133   1.0000      -0.269162        -7.3243
 134   1.0000      -0.267841        -7.2883
 135   1.0000      -0.266516        -7.2523
 136   1.0000      -0.265171        -7.2157
 137   1.0000      -0.264702        -7.2029
 138   1.0000      -0.263593        -7.1727
 139   1.0000      -0.261473        -7.1150
 140   1.0000      -0.260062        -7.0766
 141   1.0000      -0.259659        -7.0657
 142   1.0000      -0.258257        -7.0275
 143   1.0000      -0.255868        -6.9625
 144   1.0000      -0.255325        -6.9478
 145   1.0000      -0.253101        -6.8872
 146   1.0000      -0.252550        -6.8722
 147   1.0000      -0.251863        -6.8536
 148   1.0000      -0.250411        -6.8140
 149   1.0000      -0.247677        -6.7396
 150   1.0000      -0.245601        -6.6831
 151   1.0000      -0.245289        -6.6747
 152   1.0000      -0.242546        -6.6000
 153   1.0000      -0.242297        -6.5932
 154   1.0000      -0.241164        -6.5624
 155   1.0000      -0.235803        -6.4165
 156   1.0000      -0.227574        -6.1926
 157   1.0000      -0.226487        -6.1630
 158   1.0000      -0.223409        -6.0793
 159   1.0000      -0.217324        -5.9137
 160   1.0000      -0.212930        -5.7941
 161   1.0000      -0.209606        -5.7037
 162   1.0000      -0.156243        -4.2516
 163   0.0000      -0.148617        -4.0441
 164   0.0000      -0.145842        -3.9685
 165   0.0000      -0.142744        -3.8843
 166   0.0000      -0.138604        -3.7716
 167   0.0000      -0.127113        -3.4589

MULLIKEN ATOMIC CHARGES AND SPIN POPULATIONS
--------------------------------------------
   0 Au:    0.072100   -0.115540
   1 Au:    0.203194   -0.075275
   2 Au:    0.523773   -0.060103
   3 Au:    0.524312   -0.191515
   4 Au:   -0.122665   -0.056908
   5 Au:   -0.115903   -0.057430
   6 Au:   -0.092715   -0.122649
   7 Au:    0.162348   -0.088603
   8 Au:   -0.262869   -0.102593
   9 Au:    0.442340   -0.054633
  10 Au:    0.173812   -0.082802
  11 Au:    0.244375   -0.073023
  12 Au:    0.198173   -0.074734
  13 Au:    0.442082   -0.055070
  14 Au:    0.053415   -0.115695
  15 Au:    0.525520   -0.061199
  16 Cr:   -2.971291    3.387769
Sum of atomic charges         :   -0.0000000

LOEWDIN ATOMIC CHARGES AND SPIN POPULATIONS
-------------------------------------------
   0 Au:    0.011915   -0.098268
   1 Au:    0.073831   -0.081582
   2 Au:    0.123171   -0.067341
   3 Au:    0.127577   -0.142846
   4 Au:   -0.047851   -0.094016
   5 Au:   -0.048210   -0.094379
   6 Au:    0.044876   -0.069299
   7 Au:    0.042209   -0.105026
   8 Au:   -0.085165   -0.083199
   9 Au:    0.161578   -0.072359
  10 Au:    0.044284   -0.102735
  11 Au:    0.034629   -0.092128
  12 Au:    0.071456   -0.080851
  13 Au:    0.163963   -0.071823
  14 Au:    0.010727   -0.096876
  15 Au:    0.122892   -0.068426
  16 Cr:   -0.851881    3.421154

  Mayer bond orders larger than 0.100000
B(  0-Au,  2-Au) :   0.2273 B(  0-Au,  4-Au) :   0.4496 B(  0-Au,  6-Au) :   0.1552
B(  0-Au,  7-Au) :   0.3080 B(  0-Au,  9-Au) :   0.2083 B(  0-Au, 16-Cr) :   0.4726
B(  1-Au,  7-Au) :   0.1503 B(  1-Au,  9-Au) :   0.3000 B(  1-Au, 11-Au) :   0.2282
B(  1-Au, 12-Au) :   0.2806 B(  1-Au, 16-Cr) :   0.5747 B(  2-Au,  6-Au) :   0.1491
B(  2-Au,  9-Au) :   0.2218 B(  2-Au, 15-Au) :   0.3059 B(  2-Au, 16-Cr) :   0.5050
B(  3-Au,  4-Au) :   0.3327 B(  3-Au,  5-Au) :   0.3311 B(  3-Au,  8-Au) :   0.2463
B(  4-Au,  5-Au) :   0.2836 B(  4-Au,  6-Au) :   0.2701 B(  4-Au,  7-Au) :   0.2284
B(  4-Au,  8-Au) :   0.3343 B(  4-Au, 16-Cr) :   0.1701 B(  5-Au,  6-Au) :   0.2726
B(  5-Au,  8-Au) :   0.3315 B(  5-Au, 10-Au) :   0.2247 B(  5-Au, 14-Au) :   0.4463
B(  5-Au, 16-Cr) :   0.1674 B(  6-Au, 14-Au) :   0.1532 B(  6-Au, 15-Au) :   0.1517
B(  6-Au, 16-Cr) :   0.5599 B(  7-Au,  8-Au) :   0.2627 B(  7-Au, 11-Au) :   0.2246
B(  7-Au, 16-Cr) :   0.2638 B(  8-Au, 10-Au) :   0.2634 B(  8-Au, 11-Au) :   0.4854
B(  8-Au, 16-Cr) :   0.1063 B(  9-Au, 16-Cr) :   0.5406 B( 10-Au, 11-Au) :   0.2223
B( 10-Au, 12-Au) :   0.1528 B( 10-Au, 14-Au) :   0.3163 B( 10-Au, 16-Cr) :   0.2587
B( 11-Au, 12-Au) :   0.2312 B( 11-Au, 16-Cr) :   0.2288 B( 12-Au, 13-Au) :   0.2987
B( 12-Au, 16-Cr) :   0.5781 B( 13-Au, 14-Au) :   0.2095 B( 13-Au, 15-Au) :   0.2216
B( 13-Au, 16-Cr) :   0.5311 B( 14-Au, 15-Au) :   0.2300 B( 14-Au, 16-Cr) :   0.4826
B( 15-Au, 16-Cr) :   0.4986

FINAL SINGLE POINT ENERGY     -3217.473533630443

DIPOLE MOMENT
-------------
                                X             Y             Z
Electronic contribution:     29.08781      27.82555      40.40140
Nuclear contribution   :    -29.58054     -28.22764     -40.84233
                        -----------------------------------------
Total Dipole Moment    :     -0.49273      -0.40209      -0.44094
                        -----------------------------------------
Magnitude (a.u.)       :      0.77387
Magnitude (Debye)      :      1.96703

Rotational constants in cm-1:     0.000931     0.000712     0.000704
Rotational constants in MHz :    27.903370    21.356495    21.106181

                             ****ORCA TERMINATED NORMALLY****
TOTAL RUN TIME: 0 days 0 hours 14 minutes 45 seconds 186 msec
