                         Program Version 5.0.3 -  RELEASE  -
|  1> !R2SCAN def2-TZVP VERYSLOWCONV
|  2> !KDIIS
|  3> %scf
|  4>   AutoTRAHIter 200
|  5>   maxiter 400
|  6> end
|  7>
|  8> %pal nprocs 6 end
|  9>
| 10> *xyzfile 0 5 pbe.xyz
| 11>
| 12> $new_job
| 13>
| 14> !R2SCAN def2-TZVP VERYSLOWCONV
| 15> !KDIIS
| 16> %scf
| 17>   AutoTRAHIter 200
| 18>   maxiter 400
| 19> end
| 20>
| 21>
| 22> %pal nprocs 6 end
| 23>
| 24> *xyzfile 0 3 pbe.xyz
| 25>
| 26>
| 27>
| 28>
| 29>
| 30>                          ****END OF INPUT****
 Total Charge           Charge          ....    0
 Multiplicity           Mult            ....    5
 Number of Electrons    NEL             ....  328
FINAL SINGLE POINT ENERGY     -3218.042164917791

CARTESIAN COORDINATES (ANGSTROEM)
---------------------------------
  Au     9.434609    5.547976    8.841342
  Au    10.466945    6.827914    5.948535
  Au     6.792545    5.025118    8.125305
  Au    10.166535    9.749188   12.103101
  Au     9.792170    7.436210   10.720045
  Au     8.260203    9.844777   10.165285
  Au     7.173257    7.309436    9.749190
  Au    11.623994    7.137632    8.608577
  Au    11.139522    9.758250    9.527025
  Au     8.896761    4.634910    6.303233
  Au     9.266332   10.913050    7.770111
  Au    11.349271    9.286150    6.831361
  Au     8.976115    9.175923    5.435279
  Au     6.298187    8.706566    5.355604
  Au     6.856784    9.656935    7.877643
  Au     5.335508    7.334239    7.608604
  Cr     8.026132    7.221688    7.028374

 Multiplicity           Mult            ....    3
 Number of Electrons    NEL             ....  328
 Basis Dimension        Dim             ....  685

ORBITAL ENERGIES
----------------
                 SPIN UP ORBITALS
  NO   OCC          E(Eh)            E(eV)
   0   1.0000    -215.297924     -5858.5544
   1   1.0000     -24.597512      -669.3323
   2   1.0000     -20.866306      -567.8011
   3   1.0000     -20.864436      -567.7502
   4   1.0000     -20.859384      -567.6127
   5   1.0000      -4.129644      -112.3733
   6   1.0000      -4.129307      -112.3641
   7   1.0000      -4.124920      -112.2448
   8   1.0000      -4.124532      -112.2342
   9   1.0000      -4.123449      -112.2048
  10   1.0000      -4.123296      -112.2006
  11   1.0000      -4.120310      -112.1193
  12   1.0000      -4.117723      -112.0489
  13   1.0000      -4.117060      -112.0309
  14   1.0000      -4.116816      -112.0243
  15   1.0000      -4.115420      -111.9863
  16   1.0000      -4.115253      -111.9817
  17   1.0000      -4.108109      -111.7873
  18   1.0000      -4.106963      -111.7561
  19   1.0000      -4.106845      -111.7529
  20   1.0000      -4.105362      -111.7126
  21   1.0000      -2.921503       -79.4981
  22   1.0000      -2.319738       -63.1233
  23   1.0000      -2.319439       -63.1151
  24   1.0000      -2.314247       -62.9739
  25   1.0000      -2.313835       -62.9627
  26   1.0000      -2.313701       -62.9590
  27   1.0000      -2.313561       -62.9552
  28   1.0000      -2.313056       -62.9414
  29   1.0000      -2.312841       -62.9356
  30   1.0000      -2.312560       -62.9280
  31   1.0000      -2.312271       -62.9201
  32   1.0000      -2.310790       -62.8798
  33   1.0000      -2.310572       -62.8739
  34   1.0000      -2.310346       -62.8677
  35   1.0000      -2.308678       -62.8223
  36   1.0000      -2.308094       -62.8064
  37   1.0000      -2.306544       -62.7642
  38   1.0000      -2.306216       -62.7553
  39   1.0000      -2.306124       -62.7528
  40   1.0000      -2.305918       -62.7472
  41   1.0000      -2.305781       -62.7435
  42   1.0000      -2.305533       -62.7367
  43   1.0000      -2.305346       -62.7317
  44   1.0000      -2.304918       -62.7200
  45   1.0000      -2.304841       -62.7179
  46   1.0000      -2.304798       -62.7168
  47   1.0000      -2.304686       -62.7137
  48   1.0000      -2.304173       -62.6997
  49   1.0000      -2.302067       -62.6424
  50   1.0000      -2.301882       -62.6374
  51   1.0000      -2.300836       -62.6089
  52   1.0000      -2.300510       -62.6001
  53   1.0000      -2.299822       -62.5813
  54   1.0000      -2.299344       -62.5683
  55   1.0000      -2.299075       -62.5610
  56   1.0000      -2.298115       -62.5349
  57   1.0000      -2.297382       -62.5150
  58   1.0000      -2.296507       -62.4911
  59   1.0000      -2.295330       -62.4591
  60   1.0000      -2.295102       -62.4529
  61   1.0000      -2.294125       -62.4263
  62   1.0000      -2.293960       -62.4218
  63   1.0000      -2.292603       -62.3849
  64   1.0000      -2.291711       -62.3606
  65   1.0000      -2.290320       -62.3228
  66   1.0000      -2.289921       -62.3119
  67   1.0000      -2.288821       -62.2820
  68   1.0000      -2.288408       -62.2707
  69   1.0000      -2.288337       -62.2688
  70   1.0000      -1.870200       -50.8907
  71   1.0000      -1.869877       -50.8819
  72   1.0000      -1.864069       -50.7239
  73   1.0000      -0.429859       -11.6971
  74   1.0000      -0.401501       -10.9254
  75   1.0000      -0.399694       -10.8762
  76   1.0000      -0.391013       -10.6400
  77   1.0000      -0.388738       -10.5781
  78   1.0000      -0.378136       -10.2896
  79   1.0000      -0.377777       -10.2798
  80   1.0000      -0.373383       -10.1603
  81   1.0000      -0.371300       -10.1036
  82   1.0000      -0.369131       -10.0446
  83   1.0000      -0.366691        -9.9782
  84   1.0000      -0.366314        -9.9679
  85   1.0000      -0.363625        -9.8947
  86   1.0000      -0.362042        -9.8517
  87   1.0000      -0.359313        -9.7774
  88   1.0000      -0.359020        -9.7694
  89   1.0000      -0.356928        -9.7125
  90   1.0000      -0.355826        -9.6825
  91   1.0000      -0.354940        -9.6584
  92   1.0000      -0.350223        -9.5301
  93   1.0000      -0.348693        -9.4884
  94   1.0000      -0.346747        -9.4355
  95   1.0000      -0.346490        -9.4285
  96   1.0000      -0.344818        -9.3830
  97   1.0000      -0.342683        -9.3249
  98   1.0000      -0.340095        -9.2545
  99   1.0000      -0.338514        -9.2114
 100   1.0000      -0.337142        -9.1741
 101   1.0000      -0.334928        -9.1138
 102   1.0000      -0.334735        -9.1086
 103   1.0000      -0.331835        -9.0297
 104   1.0000      -0.330209        -8.9854
 105   1.0000      -0.329900        -8.9770
 106   1.0000      -0.322148        -8.7661
 107   1.0000      -0.321441        -8.7469
 108   1.0000      -0.318842        -8.6761
 109   1.0000      -0.317927        -8.6512
 110   1.0000      -0.314183        -8.5494
 111   1.0000      -0.313536        -8.5318
 112   1.0000      -0.308434        -8.3929
 113   1.0000      -0.307823        -8.3763
 114   1.0000      -0.303453        -8.2574
 115   1.0000      -0.300686        -8.1821
 116   1.0000      -0.297954        -8.1077
 117   1.0000      -0.294446        -8.0123
 118   1.0000      -0.293915        -7.9978
 119   1.0000      -0.291290        -7.9264
 120   1.0000      -0.291126        -7.9220
 121   1.0000      -0.289325        -7.8729
 122   1.0000      -0.288116        -7.8400
 123   1.0000      -0.287086        -7.8120
 124   1.0000      -0.284964        -7.7543
 125   1.0000      -0.284083        -7.7303
 126   1.0000      -0.282998        -7.7008
 127   1.0000      -0.282495        -7.6871
 128   1.0000      -0.280646        -7.6368
 129   1.0000      -0.280279        -7.6268
 130   1.0000      -0.279414        -7.6032
 131   1.0000      -0.277221        -7.5436
 132   1.0000      -0.276406        -7.5214
 133   1.0000      -0.275556        -7.4983
 134   1.0000      -0.274720        -7.4755
 135   1.0000      -0.273085        -7.4310
 136   1.0000      -0.272023        -7.4021
 137   1.0000      -0.271469        -7.3871
 138   1.0000      -0.270084        -7.3494
 139   1.0000      -0.267879        -7.2894
 140   1.0000      -0.266783        -7.2595
 141   1.0000      -0.266224        -7.2443
 142   1.0000      -0.265369        -7.2211
 143   1.0000      -0.261813        -7.1243
 144   1.0000      -0.261629        -7.1193
 145   1.0000      -0.259401        -7.0587
 146   1.0000      -0.258102        -7.0233
 147   1.0000      -0.257382        -7.0037
 148   1.0000      -0.255795        -6.9605
 149   1.0000      -0.253528        -6.8988
 150   1.0000      -0.251633        -6.8473
 151   1.0000      -0.250880        -6.8268
 152   1.0000      -0.248620        -6.7653
 153   1.0000      -0.247047        -6.7225
 154   1.0000      -0.246483        -6.7071
 155   1.0000      -0.239817        -6.5257
 156   1.0000      -0.232980        -6.3397
 157   1.0000      -0.232079        -6.3152
 158   1.0000      -0.230917        -6.2836
 159   1.0000      -0.229330        -6.2404
 160   1.0000      -0.226284        -6.1575
 161   1.0000      -0.226024        -6.1504
 162   1.0000      -0.220691        -6.0053
 163   1.0000      -0.209043        -5.6883
 164   1.0000      -0.208591        -5.6760
 165   0.0000      -0.191965        -5.2236
 166   0.0000      -0.187890        -5.1127
 167   0.0000      -0.142293        -3.8720
 168   0.0000      -0.136010        -3.7010
 169   0.0000      -0.135187        -3.6786

                 SPIN DOWN ORBITALS
  NO   OCC          E(Eh)            E(eV)
   0   1.0000    -215.297344     -5858.5386
   1   1.0000     -24.533439      -667.5888
   2   1.0000     -20.821129      -566.5717
   3   1.0000     -20.816884      -566.4562
   4   1.0000     -20.804206      -566.1112
   5   1.0000      -4.130084      -112.3853
   6   1.0000      -4.129792      -112.3774
   7   1.0000      -4.124841      -112.2426
   8   1.0000      -4.124461      -112.2323
   9   1.0000      -4.123580      -112.2083
  10   1.0000      -4.123428      -112.2042
  11   1.0000      -4.120415      -112.1222
  12   1.0000      -4.118280      -112.0641
  13   1.0000      -4.117152      -112.0334
  14   1.0000      -4.116905      -112.0267
  15   1.0000      -4.116563      -112.0174
  16   1.0000      -4.116393      -112.0128
  17   1.0000      -4.109210      -111.8173
  18   1.0000      -4.107696      -111.7761
  19   1.0000      -4.107589      -111.7732
  20   1.0000      -4.106285      -111.7377
  21   1.0000      -2.752719       -74.9053
  22   1.0000      -2.320208       -63.1361
  23   1.0000      -2.319965       -63.1295
  24   1.0000      -2.314155       -62.9714
  25   1.0000      -2.313939       -62.9655
  26   1.0000      -2.313925       -62.9651
  27   1.0000      -2.313405       -62.9509
  28   1.0000      -2.313058       -62.9415
  29   1.0000      -2.312832       -62.9353
  30   1.0000      -2.312771       -62.9337
  31   1.0000      -2.312293       -62.9207
  32   1.0000      -2.310656       -62.8761
  33   1.0000      -2.310360       -62.8681
  34   1.0000      -2.310187       -62.8634
  35   1.0000      -2.308769       -62.8248
  36   1.0000      -2.308135       -62.8075
  37   1.0000      -2.307311       -62.7851
  38   1.0000      -2.306596       -62.7657
  39   1.0000      -2.306512       -62.7634
  40   1.0000      -2.306412       -62.7607
  41   1.0000      -2.306227       -62.7556
  42   1.0000      -2.305979       -62.7489
  43   1.0000      -2.305883       -62.7463
  44   1.0000      -2.305073       -62.7242
  45   1.0000      -2.304921       -62.7201
  46   1.0000      -2.304871       -62.7187
  47   1.0000      -2.304735       -62.7150
  48   1.0000      -2.304519       -62.7092
  49   1.0000      -2.301985       -62.6402
  50   1.0000      -2.301924       -62.6385
  51   1.0000      -2.301737       -62.6335
  52   1.0000      -2.301672       -62.6317
  53   1.0000      -2.300594       -62.6024
  54   1.0000      -2.299416       -62.5703
  55   1.0000      -2.299262       -62.5661
  56   1.0000      -2.299152       -62.5631
  57   1.0000      -2.298174       -62.5365
  58   1.0000      -2.297227       -62.5107
  59   1.0000      -2.296175       -62.4821
  60   1.0000      -2.295850       -62.4733
  61   1.0000      -2.295088       -62.4525
  62   1.0000      -2.295043       -62.4513
  63   1.0000      -2.293479       -62.4087
  64   1.0000      -2.292698       -62.3875
  65   1.0000      -2.290914       -62.3389
  66   1.0000      -2.290524       -62.3283
  67   1.0000      -2.289453       -62.2992
  68   1.0000      -2.289375       -62.2971
  69   1.0000      -2.288920       -62.2847
  70   1.0000      -1.715145       -46.6715
  71   1.0000      -1.706063       -46.4243
  72   1.0000      -1.677156       -45.6377
  73   1.0000      -0.427192       -11.6245
  74   1.0000      -0.401930       -10.9371
  75   1.0000      -0.398060       -10.8318
  76   1.0000      -0.393046       -10.6953
  77   1.0000      -0.387489       -10.5441
  78   1.0000      -0.377671       -10.2769
  79   1.0000      -0.377413       -10.2699
  80   1.0000      -0.373619       -10.1667
  81   1.0000      -0.373196       -10.1552
  82   1.0000      -0.370090       -10.0707
  83   1.0000      -0.366486        -9.9726
  84   1.0000      -0.365293        -9.9401
  85   1.0000      -0.363500        -9.8913
  86   1.0000      -0.362114        -9.8536
  87   1.0000      -0.360191        -9.8013
  88   1.0000      -0.358215        -9.7475
  89   1.0000      -0.358132        -9.7453
  90   1.0000      -0.356990        -9.7142
  91   1.0000      -0.356469        -9.7000
  92   1.0000      -0.350955        -9.5500
  93   1.0000      -0.349311        -9.5052
  94   1.0000      -0.347947        -9.4681
  95   1.0000      -0.347573        -9.4580
  96   1.0000      -0.344421        -9.3722
  97   1.0000      -0.343817        -9.3557
  98   1.0000      -0.341256        -9.2860
  99   1.0000      -0.337705        -9.1894
 100   1.0000      -0.337193        -9.1755
 101   1.0000      -0.336072        -9.1450
 102   1.0000      -0.335729        -9.1356
 103   1.0000      -0.331910        -9.0317
 104   1.0000      -0.330580        -8.9955
 105   1.0000      -0.329992        -8.9795
 106   1.0000      -0.322727        -8.7818
 107   1.0000      -0.320184        -8.7127
 108   1.0000      -0.319064        -8.6822
 109   1.0000      -0.317169        -8.6306
 110   1.0000      -0.314139        -8.5482
 111   1.0000      -0.313293        -8.5251
 112   1.0000      -0.308674        -8.3995
 113   1.0000      -0.308212        -8.3869
 114   1.0000      -0.303518        -8.2591
 115   1.0000      -0.299873        -8.1599
 116   1.0000      -0.298610        -8.1256
 117   1.0000      -0.296159        -8.0589
 118   1.0000      -0.294551        -8.0151
 119   1.0000      -0.292256        -7.9527
 120   1.0000      -0.291918        -7.9435
 121   1.0000      -0.290247        -7.8980
 122   1.0000      -0.289104        -7.8669
 123   1.0000      -0.287767        -7.8305
 124   1.0000      -0.285504        -7.7690
 125   1.0000      -0.285123        -7.7586
 126   1.0000      -0.284449        -7.7403
 127   1.0000      -0.284090        -7.7305
 128   1.0000      -0.282269        -7.6809
 129   1.0000      -0.282087        -7.6760
 130   1.0000      -0.280746        -7.6395
 131   1.0000      -0.278886        -7.5889
 132   1.0000      -0.278097        -7.5674
 133   1.0000      -0.277424        -7.5491
 134   1.0000      -0.275883        -7.5072
 135   1.0000      -0.274590        -7.4720
 136   1.0000      -0.273275        -7.4362
 137   1.0000      -0.272833        -7.4242
 138   1.0000      -0.271712        -7.3937
 139   1.0000      -0.269226        -7.3260
 140   1.0000      -0.268104        -7.2955
 141   1.0000      -0.267672        -7.2837
 142   1.0000      -0.266618        -7.2550
 143   1.0000      -0.263234        -7.1630
 144   1.0000      -0.262855        -7.1526
 145   1.0000      -0.260684        -7.0936
 146   1.0000      -0.259820        -7.0701
 147   1.0000      -0.259303        -7.0560
 148   1.0000      -0.257617        -7.0101
 149   1.0000      -0.255218        -6.9448
 150   1.0000      -0.253043        -6.8857
 151   1.0000      -0.252701        -6.8763
 152   1.0000      -0.250085        -6.8052
 153   1.0000      -0.248653        -6.7662
 154   1.0000      -0.248382        -6.7588
 155   1.0000      -0.242189        -6.5903
 156   1.0000      -0.232599        -6.3293
 157   1.0000      -0.231924        -6.3110
 158   1.0000      -0.227325        -6.1858
 159   1.0000      -0.220375        -5.9967
 160   1.0000      -0.214407        -5.8343
 161   1.0000      -0.211874        -5.7654
 162   1.0000      -0.154812        -4.2126
 163   0.0000      -0.144381        -3.9288
 164   0.0000      -0.140741        -3.8298
 165   0.0000      -0.137698        -3.7469
 166   0.0000      -0.133367        -3.6291
 167   0.0000      -0.119704        -3.2573

MULLIKEN ATOMIC CHARGES AND SPIN POPULATIONS
--------------------------------------------
   0 Au:    0.048378   -0.131680
   1 Au:    0.182198   -0.108385
   2 Au:    0.471214   -0.081763
   3 Au:    0.477023   -0.248716
   4 Au:   -0.102442   -0.043959
   5 Au:   -0.095994   -0.044648
   6 Au:   -0.103596   -0.156628
   7 Au:    0.154731   -0.104375
   8 Au:   -0.262826   -0.107793
   9 Au:    0.407424   -0.082381
  10 Au:    0.165839   -0.097185
  11 Au:    0.224804   -0.072579
  12 Au:    0.177326   -0.108732
  13 Au:    0.408559   -0.082834
  14 Au:    0.030139   -0.131752
  15 Au:    0.472367   -0.082583
  16 Cr:   -2.655143    3.685994
Sum of atomic charges         :   -0.0000000

LOEWDIN ATOMIC CHARGES AND SPIN POPULATIONS
-------------------------------------------
   0 Au:    0.010546   -0.109597
   1 Au:    0.069726   -0.101872
   2 Au:    0.116869   -0.080192
   3 Au:    0.119922   -0.167916
   4 Au:   -0.045817   -0.101267
   5 Au:   -0.046160   -0.101485
   6 Au:    0.042668   -0.088349
   7 Au:    0.042712   -0.116622
   8 Au:   -0.088965   -0.090844
   9 Au:    0.155174   -0.089084
  10 Au:    0.044796   -0.113778
  11 Au:    0.035779   -0.104336
  12 Au:    0.067282   -0.101224
  13 Au:    0.157836   -0.088681
  14 Au:    0.009221   -0.108076
  15 Au:    0.116701   -0.081225
  16 Cr:   -0.808291    3.644548

  Mayer bond orders larger than 0.100000
B(  0-Au,  2-Au) :   0.2258 B(  0-Au,  4-Au) :   0.4426 B(  0-Au,  6-Au) :   0.1483
B(  0-Au,  7-Au) :   0.3115 B(  0-Au,  9-Au) :   0.1901 B(  0-Au, 16-Cr) :   0.4554
B(  1-Au,  7-Au) :   0.1374 B(  1-Au,  9-Au) :   0.2949 B(  1-Au, 11-Au) :   0.2164
B(  1-Au, 12-Au) :   0.2654 B(  1-Au, 16-Cr) :   0.5746 B(  2-Au,  6-Au) :   0.1363
B(  2-Au,  9-Au) :   0.2074 B(  2-Au, 15-Au) :   0.3006 B(  2-Au, 16-Cr) :   0.4949
B(  3-Au,  4-Au) :   0.3239 B(  3-Au,  5-Au) :   0.3223 B(  3-Au,  8-Au) :   0.2309
B(  4-Au,  5-Au) :   0.2568 B(  4-Au,  6-Au) :   0.2607 B(  4-Au,  7-Au) :   0.2189
B(  4-Au,  8-Au) :   0.3028 B(  4-Au, 16-Cr) :   0.1519 B(  5-Au,  6-Au) :   0.2631
B(  5-Au,  8-Au) :   0.2997 B(  5-Au, 10-Au) :   0.2154 B(  5-Au, 14-Au) :   0.4395
B(  5-Au, 16-Cr) :   0.1493 B(  6-Au, 14-Au) :   0.1466 B(  6-Au, 15-Au) :   0.1391
B(  6-Au, 16-Cr) :   0.5244 B(  7-Au,  8-Au) :   0.2403 B(  7-Au, 11-Au) :   0.2146
B(  7-Au, 16-Cr) :   0.2438 B(  8-Au, 10-Au) :   0.2411 B(  8-Au, 11-Au) :   0.4826
B(  8-Au, 16-Cr) :   0.1020 B(  9-Au, 16-Cr) :   0.5359 B( 10-Au, 11-Au) :   0.2120
B( 10-Au, 12-Au) :   0.1394 B( 10-Au, 14-Au) :   0.3195 B( 10-Au, 16-Cr) :   0.2393
B( 11-Au, 12-Au) :   0.2194 B( 11-Au, 16-Cr) :   0.2116 B( 12-Au, 13-Au) :   0.2931
B( 12-Au, 16-Cr) :   0.5770 B( 13-Au, 14-Au) :   0.1914 B( 13-Au, 15-Au) :   0.2069
B( 13-Au, 16-Cr) :   0.5264 B( 14-Au, 15-Au) :   0.2284 B( 14-Au, 16-Cr) :   0.4644
B( 15-Au, 16-Cr) :   0.4896

FINAL SINGLE POINT ENERGY     -3218.000690953942

DIPOLE MOMENT
-------------
                                X             Y             Z
Electronic contribution:     29.08263      27.81618      40.36907
Nuclear contribution   :    -29.58054     -28.22764     -40.84233
                        -----------------------------------------
Total Dipole Moment    :     -0.49791      -0.41146      -0.47326
                        -----------------------------------------
Magnitude (a.u.)       :      0.80075
Magnitude (Debye)      :      2.03534

Rotational constants in cm-1:     0.000931     0.000712     0.000704
Rotational constants in MHz :    27.903370    21.356495    21.106181

                             ****ORCA TERMINATED NORMALLY****
TOTAL RUN TIME: 0 days 0 hours 6 minutes 35 seconds 233 msec
