                         Program Version 5.0.3 -  RELEASE  -
|  1> !RI-B2PLYP def2-TZVP def2-TZVP/C
|  2> !RIJCOSX VERYSLOWCONV
|  3>
|  4> %scf
|  5>   AutoTRAHIter 200
|  6>   maxiter 400
|  7> end
|  8>
|  9>
| 10> %pal nprocs 6 end
| 11>
| 12> *xyzfile 0 5 pbe.xyz
| 13>
| 14> $new_job
| 15>
| 16> !RI-B2PLYP def2-TZVP def2-TZVP/C
| 17> !RIJCOSX VERYSLOWCONV
| 18>
| 19> %scf
| 20>   AutoTRAHIter 200
| 21>   maxiter 400
| 22> end
| 23>
| 24>
| 25> %pal nprocs 6 end
| 26>
| 27> *xyzfile 0 3 pbe.xyz
| 28>
| 29>
| 30>
| 31>
| 32>
| 33>                          ****END OF INPUT****
 Total Charge           Charge          ....    0
 Multiplicity           Mult            ....    5
 Number of Electrons    NEL             ....  252
MP2 TOTAL ENERGY:    -2671.301651399 Eh
FINAL SINGLE POINT ENERGY     -2671.301651399369

CARTESIAN COORDINATES (ANGSTROEM)
---------------------------------
  Au     7.292753   11.951582    7.623145
  Au     9.142651   10.603493    5.693257
  Au     6.235055    6.889340    6.235037
  Au     8.792937    5.593985    7.577206
  Au     6.676576    9.520209    6.474811
  Au     9.187983    7.910657    6.267125
  Au     8.100475    5.927086   10.348799
  Au     8.760288    8.610978   10.645654
  Au     5.772224    7.669340   10.472867
  Au     9.143096    9.981058    8.383829
  Au     6.292013   10.058561    9.352647
  Au     6.049246    5.479205    8.605275
  Cr     7.502774    7.774206    8.431196

 Multiplicity           Mult            ....    3
 Number of Electrons    NEL             ....  252
 Basis Dimension        Dim             ....  525

ORBITAL ENERGIES
----------------
                 SPIN UP ORBITALS
  NO   OCC          E(Eh)            E(eV)
   0   1.0000    -217.775182     -5925.9640
   1   1.0000     -25.465635      -692.9551
   2   1.0000     -21.605288      -587.9098
   3   1.0000     -21.604852      -587.8979
   4   1.0000     -21.598423      -587.7230
   5   1.0000      -4.401730      -119.7772
   6   1.0000      -4.401250      -119.7641
   7   1.0000      -4.398366      -119.6856
   8   1.0000      -4.398274      -119.6831
   9   1.0000      -4.391004      -119.4853
  10   1.0000      -4.390322      -119.4667
  11   1.0000      -4.389698      -119.4498
  12   1.0000      -4.389646      -119.4483
  13   1.0000      -4.389545      -119.4456
  14   1.0000      -4.389461      -119.4433
  15   1.0000      -4.389272      -119.4382
  16   1.0000      -4.389247      -119.4375
  17   1.0000      -3.249345       -88.4192
  18   1.0000      -2.523413       -68.6656
  19   1.0000      -2.523009       -68.6546
  20   1.0000      -2.520326       -68.5816
  21   1.0000      -2.519906       -68.5701
  22   1.0000      -2.519736       -68.5655
  23   1.0000      -2.519142       -68.5493
  24   1.0000      -2.517518       -68.5052
  25   1.0000      -2.516538       -68.4785
  26   1.0000      -2.516151       -68.4679
  27   1.0000      -2.514894       -68.4338
  28   1.0000      -2.512697       -68.3740
  29   1.0000      -2.511538       -68.3424
  30   1.0000      -2.511259       -68.3348
  31   1.0000      -2.511084       -68.3301
  32   1.0000      -2.510861       -68.3240
  33   1.0000      -2.510724       -68.3203
  34   1.0000      -2.510405       -68.3116
  35   1.0000      -2.509431       -68.2851
  36   1.0000      -2.509347       -68.2828
  37   1.0000      -2.508641       -68.2636
  38   1.0000      -2.508039       -68.2472
  39   1.0000      -2.507717       -68.2384
  40   1.0000      -2.507121       -68.2222
  41   1.0000      -2.506721       -68.2113
  42   1.0000      -2.506173       -68.1964
  43   1.0000      -2.505325       -68.1734
  44   1.0000      -2.505181       -68.1695
  45   1.0000      -2.504914       -68.1622
  46   1.0000      -2.504772       -68.1583
  47   1.0000      -2.504364       -68.1472
  48   1.0000      -2.504121       -68.1406
  49   1.0000      -2.503675       -68.1284
  50   1.0000      -2.503299       -68.1182
  51   1.0000      -2.503140       -68.1139
  52   1.0000      -2.502669       -68.1011
  53   1.0000      -2.502598       -68.0992
  54   1.0000      -2.139171       -58.2098
  55   1.0000      -2.129985       -57.9598
  56   1.0000      -2.128634       -57.9231
  57   1.0000      -0.498809       -13.5733
  58   1.0000      -0.491061       -13.3625
  59   1.0000      -0.475139       -12.9292
  60   1.0000      -0.471482       -12.8297
  61   1.0000      -0.466991       -12.7075
  62   1.0000      -0.466520       -12.6946
  63   1.0000      -0.458620       -12.4797
  64   1.0000      -0.452999       -12.3267
  65   1.0000      -0.452091       -12.3020
  66   1.0000      -0.450203       -12.2507
  67   1.0000      -0.448147       -12.1947
  68   1.0000      -0.447956       -12.1895
  69   1.0000      -0.445589       -12.1251
  70   1.0000      -0.442110       -12.0304
  71   1.0000      -0.438510       -11.9325
  72   1.0000      -0.436845       -11.8871
  73   1.0000      -0.429152       -11.6778
  74   1.0000      -0.428070       -11.6484
  75   1.0000      -0.425615       -11.5816
  76   1.0000      -0.422894       -11.5075
  77   1.0000      -0.420073       -11.4308
  78   1.0000      -0.418870       -11.3980
  79   1.0000      -0.416555       -11.3350
  80   1.0000      -0.415324       -11.3015
  81   1.0000      -0.411558       -11.1991
  82   1.0000      -0.410395       -11.1674
  83   1.0000      -0.405255       -11.0276
  84   1.0000      -0.397542       -10.8177
  85   1.0000      -0.397299       -10.8111
  86   1.0000      -0.391423       -10.6511
  87   1.0000      -0.389477       -10.5982
  88   1.0000      -0.385712       -10.4958
  89   1.0000      -0.384299       -10.4573
  90   1.0000      -0.383096       -10.4246
  91   1.0000      -0.382607       -10.4113
  92   1.0000      -0.380682       -10.3589
  93   1.0000      -0.376865       -10.2550
  94   1.0000      -0.374281       -10.1847
  95   1.0000      -0.373141       -10.1537
  96   1.0000      -0.372562       -10.1379
  97   1.0000      -0.368903       -10.0384
  98   1.0000      -0.368053       -10.0152
  99   1.0000      -0.365933        -9.9576
 100   1.0000      -0.365375        -9.9424
 101   1.0000      -0.363320        -9.8864
 102   1.0000      -0.362546        -9.8654
 103   1.0000      -0.361520        -9.8375
 104   1.0000      -0.358486        -9.7549
 105   1.0000      -0.357015        -9.7149
 106   1.0000      -0.355535        -9.6746
 107   1.0000      -0.355139        -9.6638
 108   1.0000      -0.351768        -9.5721
 109   1.0000      -0.350035        -9.5249
 110   1.0000      -0.348279        -9.4772
 111   1.0000      -0.346252        -9.4220
 112   1.0000      -0.343784        -9.3549
 113   1.0000      -0.343028        -9.3343
 114   1.0000      -0.341359        -9.2888
 115   1.0000      -0.335299        -9.1240
 116   1.0000      -0.331645        -9.0245
 117   1.0000      -0.330794        -9.0014
 118   1.0000      -0.330039        -8.9808
 119   1.0000      -0.325922        -8.8688
 120   1.0000      -0.324715        -8.8359
 121   1.0000      -0.320377        -8.7179
 122   1.0000      -0.317320        -8.6347
 123   1.0000      -0.296442        -8.0666
 124   1.0000      -0.249106        -6.7785
 125   1.0000      -0.230680        -6.2771
 126   1.0000      -0.229524        -6.2457
 127   0.0000      -0.108860        -2.9622
 128   0.0000      -0.105586        -2.8732
 129   0.0000      -0.083315        -2.2671
 130   0.0000      -0.081336        -2.2133
 131   0.0000      -0.049167        -1.3379

                 SPIN DOWN ORBITALS
  NO   OCC          E(Eh)            E(eV)
   0   1.0000    -217.773789     -5925.9261
   1   1.0000     -25.397112      -691.0906
   2   1.0000     -21.547735      -586.3437
   3   1.0000     -21.545909      -586.2940
   4   1.0000     -21.524989      -585.7247
   5   1.0000      -4.401915      -119.7822
   6   1.0000      -4.401371      -119.7674
   7   1.0000      -4.399023      -119.7035
   8   1.0000      -4.398900      -119.7002
   9   1.0000      -4.391854      -119.5084
  10   1.0000      -4.391143      -119.4891
  11   1.0000      -4.390141      -119.4618
  12   1.0000      -4.389862      -119.4542
  13   1.0000      -4.389655      -119.4486
  14   1.0000      -4.389648      -119.4484
  15   1.0000      -4.389512      -119.4447
  16   1.0000      -4.389424      -119.4423
  17   1.0000      -3.040869       -82.7462
  18   1.0000      -2.522767       -68.6480
  19   1.0000      -2.522234       -68.6335
  20   1.0000      -2.519908       -68.5702
  21   1.0000      -2.519675       -68.5638
  22   1.0000      -2.518972       -68.5447
  23   1.0000      -2.518586       -68.5342
  24   1.0000      -2.516899       -68.4883
  25   1.0000      -2.516823       -68.4862
  26   1.0000      -2.516314       -68.4724
  27   1.0000      -2.515474       -68.4495
  28   1.0000      -2.512136       -68.3587
  29   1.0000      -2.511689       -68.3465
  30   1.0000      -2.511559       -68.3430
  31   1.0000      -2.511372       -68.3379
  32   1.0000      -2.510358       -68.3103
  33   1.0000      -2.509458       -68.2858
  34   1.0000      -2.509331       -68.2824
  35   1.0000      -2.509309       -68.2818
  36   1.0000      -2.508918       -68.2711
  37   1.0000      -2.508585       -68.2621
  38   1.0000      -2.507976       -68.2455
  39   1.0000      -2.507848       -68.2420
  40   1.0000      -2.507492       -68.2323
  41   1.0000      -2.506503       -68.2054
  42   1.0000      -2.506414       -68.2030
  43   1.0000      -2.505815       -68.1867
  44   1.0000      -2.505370       -68.1746
  45   1.0000      -2.505343       -68.1738
  46   1.0000      -2.505138       -68.1683
  47   1.0000      -2.504636       -68.1546
  48   1.0000      -2.504320       -68.1460
  49   1.0000      -2.503738       -68.1302
  50   1.0000      -2.503458       -68.1225
  51   1.0000      -2.503080       -68.1123
  52   1.0000      -2.502826       -68.1053
  53   1.0000      -2.502660       -68.1008
  54   1.0000      -1.911950       -52.0268
  55   1.0000      -1.908374       -51.9295
  56   1.0000      -1.858985       -50.5856
  57   1.0000      -0.490915       -13.3585
  58   1.0000      -0.477433       -12.9916
  59   1.0000      -0.467765       -12.7285
  60   1.0000      -0.462379       -12.5820
  61   1.0000      -0.460749       -12.5376
  62   1.0000      -0.458653       -12.4806
  63   1.0000      -0.452680       -12.3181
  64   1.0000      -0.451904       -12.2969
  65   1.0000      -0.450762       -12.2659
  66   1.0000      -0.449110       -12.2209
  67   1.0000      -0.443305       -12.0630
  68   1.0000      -0.442900       -12.0519
  69   1.0000      -0.440852       -11.9962
  70   1.0000      -0.437999       -11.9185
  71   1.0000      -0.432714       -11.7747
  72   1.0000      -0.431258       -11.7351
  73   1.0000      -0.428918       -11.6714
  74   1.0000      -0.428343       -11.6558
  75   1.0000      -0.422039       -11.4843
  76   1.0000      -0.420861       -11.4522
  77   1.0000      -0.418375       -11.3846
  78   1.0000      -0.417628       -11.3642
  79   1.0000      -0.413786       -11.2597
  80   1.0000      -0.412592       -11.2272
  81   1.0000      -0.408644       -11.1198
  82   1.0000      -0.405911       -11.0454
  83   1.0000      -0.400300       -10.8927
  84   1.0000      -0.398846       -10.8531
  85   1.0000      -0.393792       -10.7156
  86   1.0000      -0.389224       -10.5913
  87   1.0000      -0.386469       -10.5163
  88   1.0000      -0.385594       -10.4926
  89   1.0000      -0.384307       -10.4575
  90   1.0000      -0.381895       -10.3919
  91   1.0000      -0.379422       -10.3246
  92   1.0000      -0.378620       -10.3028
  93   1.0000      -0.376898       -10.2559
  94   1.0000      -0.374013       -10.1774
  95   1.0000      -0.373500       -10.1635
  96   1.0000      -0.371927       -10.1207
  97   1.0000      -0.366737        -9.9794
  98   1.0000      -0.366572        -9.9749
  99   1.0000      -0.366219        -9.9653
 100   1.0000      -0.365445        -9.9443
 101   1.0000      -0.363120        -9.8810
 102   1.0000      -0.361713        -9.8427
 103   1.0000      -0.358811        -9.7638
 104   1.0000      -0.358354        -9.7513
 105   1.0000      -0.355849        -9.6831
 106   1.0000      -0.355422        -9.6715
 107   1.0000      -0.350887        -9.5481
 108   1.0000      -0.350409        -9.5351
 109   1.0000      -0.348783        -9.4909
 110   1.0000      -0.346302        -9.4234
 111   1.0000      -0.345699        -9.4070
 112   1.0000      -0.343022        -9.3341
 113   1.0000      -0.337036        -9.1712
 114   1.0000      -0.335795        -9.1374
 115   1.0000      -0.333566        -9.0768
 116   1.0000      -0.329927        -8.9778
 117   1.0000      -0.326926        -8.8961
 118   1.0000      -0.323384        -8.7997
 119   1.0000      -0.310128        -8.4390
 120   1.0000      -0.275570        -7.4986
 121   1.0000      -0.241023        -6.5586
 122   1.0000      -0.230076        -6.2607
 123   1.0000      -0.221454        -6.0261
 124   1.0000      -0.206410        -5.6167
 125   0.0000      -0.090671        -2.4673
 126   0.0000      -0.071153        -1.9362
 127   0.0000      -0.057643        -1.5685
 128   0.0000      -0.049892        -1.3576
 129   0.0000      -0.044738        -1.2174

MULLIKEN ATOMIC CHARGES AND SPIN POPULATIONS
--------------------------------------------
   0 Au:    0.318112   -0.011771
   1 Au:    0.310992   -0.002254
   2 Au:    0.420335   -0.110063
   3 Au:    0.389297   -0.100961
   4 Au:    0.106460   -0.167283
   5 Au:    0.214489   -0.151651
   6 Au:    0.458281   -0.160524
   7 Au:    0.417411   -0.110911
   8 Au:    0.394356   -0.105604
   9 Au:    0.106004   -0.171404
  10 Au:    0.207014   -0.149058
  11 Au:    0.448197   -0.168895
  12 Cr:   -3.790949    3.410379
Sum of atomic charges         :   -0.0000000

LOEWDIN ATOMIC CHARGES AND SPIN POPULATIONS
-------------------------------------------
   0 Au:    0.116216   -0.041875
   1 Au:    0.114726   -0.038842
   2 Au:    0.139153   -0.147609
   3 Au:    0.113058   -0.127878
   4 Au:   -0.030832   -0.096322
   5 Au:    0.059980   -0.127325
   6 Au:    0.066386   -0.124914
   7 Au:    0.138383   -0.146636
   8 Au:    0.112415   -0.132606
   9 Au:   -0.028464   -0.097915
  10 Au:    0.061996   -0.128769
  11 Au:    0.067479   -0.130123
  12 Cr:   -0.930496    3.340813

  Mayer bond orders larger than 0.100000
B(  0-Au,  4-Au) :   0.3011 B(  0-Au,  9-Au) :   0.1792 B(  0-Au, 10-Au) :   0.2648
B(  0-Au, 12-Cr) :   0.3747 B(  1-Au,  4-Au) :   0.1827 B(  1-Au,  5-Au) :   0.2667
B(  1-Au,  9-Au) :   0.3008 B(  1-Au, 12-Cr) :   0.3717 B(  2-Au,  4-Au) :   0.3688
B(  2-Au, 11-Au) :   0.2217 B(  2-Au, 12-Cr) :   0.5579 B(  3-Au,  5-Au) :   0.3854
B(  3-Au,  6-Au) :   0.1960 B(  3-Au, 12-Cr) :   0.5887 B(  4-Au, 10-Au) :   0.1784
B(  4-Au, 12-Cr) :   0.5066 B(  5-Au,  9-Au) :   0.1760 B(  5-Au, 12-Cr) :   0.6364
B(  6-Au,  7-Au) :   0.2136 B(  6-Au, 11-Au) :   0.1536 B(  6-Au, 12-Cr) :   0.4562
B(  7-Au,  9-Au) :   0.3724 B(  7-Au, 12-Cr) :   0.5624 B(  8-Au, 10-Au) :   0.3855
B(  8-Au, 11-Au) :   0.1923 B(  8-Au, 12-Cr) :   0.5766 B(  9-Au, 12-Cr) :   0.5018
B( 10-Au, 12-Cr) :   0.6467 B( 11-Au, 12-Cr) :   0.4603

MP2 TOTAL ENERGY:    -2671.292841906 Eh
FINAL SINGLE POINT ENERGY     -2671.292841905532

DIPOLE MOMENT
-------------
                                X             Y             Z
Electronic contribution:      4.18171      20.47854     -10.35152
Nuclear contribution   :     -4.13038     -20.19841      10.22261
                        -----------------------------------------
Total Dipole Moment    :      0.05133       0.28013      -0.12891
                        -----------------------------------------
Magnitude (a.u.)       :      0.31261
Magnitude (Debye)      :      0.79459

Rotational constants in cm-1:     0.001721     0.001155     0.000992
Rotational constants in MHz :    51.581608    34.640620    29.725386

                             ****ORCA TERMINATED NORMALLY****
TOTAL RUN TIME: 0 days 3 hours 5 minutes 5 seconds 235 msec
