                         Program Version 5.0.3 -  RELEASE  -
|  1> !PBE def2-TZVP VERYSLOWCONV
|  2>
|  3> %scf
|  4>   AutoTRAHIter 200
|  5>   maxiter 400
|  6> end
|  7>
|  8>
|  9> %pal nprocs 6 end
| 10>
| 11> *xyzfile 0 5 pbe.xyz
| 12>
| 13> $new_job
| 14>
| 15> !PBE def2-TZVP VERYSLOWCONV
| 16>
| 17> %scf
| 18>   AutoTRAHIter 200
| 19>   maxiter 400
| 20> end
| 21>
| 22>
| 23> %pal nprocs 6 end
| 24>
| 25> *xyzfile 0 3 pbe.xyz
| 26>
| 27>
| 28>
| 29>
| 30>
| 31>                          ****END OF INPUT****
 Total Charge           Charge          ....    0
 Multiplicity           Mult            ....    5
 Number of Electrons    NEL             ....  252
FINAL SINGLE POINT ENERGY     -2674.149620565853

CARTESIAN COORDINATES (ANGSTROEM)
---------------------------------
  Au     7.292753   11.951582    7.623145
  Au     9.142651   10.603493    5.693257
  Au     6.235055    6.889340    6.235037
  Au     8.792937    5.593985    7.577206
  Au     6.676576    9.520209    6.474811
  Au     9.187983    7.910657    6.267125
  Au     8.100475    5.927086   10.348799
  Au     8.760288    8.610978   10.645654
  Au     5.772224    7.669340   10.472867
  Au     9.143096    9.981058    8.383829
  Au     6.292013   10.058561    9.352647
  Au     6.049246    5.479205    8.605275
  Cr     7.502774    7.774206    8.431196

 Multiplicity           Mult            ....    3
 Number of Electrons    NEL             ....  252
 Basis Dimension        Dim             ....  525

ORBITAL ENERGIES
----------------
                 SPIN UP ORBITALS
  NO   OCC          E(Eh)            E(eV)
   0   1.0000    -214.510352     -5837.1234
   1   1.0000     -24.313445      -661.6025
   2   1.0000     -20.678996      -562.7041
   3   1.0000     -20.677555      -562.6649
   4   1.0000     -20.674744      -562.5884
   5   1.0000      -4.030779      -109.6831
   6   1.0000      -4.030269      -109.6692
   7   1.0000      -4.025783      -109.5471
   8   1.0000      -4.025560      -109.5410
   9   1.0000      -4.020547      -109.4047
  10   1.0000      -4.020156      -109.3940
  11   1.0000      -4.020084      -109.3920
  12   1.0000      -4.019964      -109.3888
  13   1.0000      -4.016955      -109.3069
  14   1.0000      -4.016658      -109.2988
  15   1.0000      -4.016445      -109.2930
  16   1.0000      -4.016399      -109.2918
  17   1.0000      -2.808887       -76.4337
  18   1.0000      -2.248563       -61.1865
  19   1.0000      -2.248106       -61.1741
  20   1.0000      -2.244067       -61.0642
  21   1.0000      -2.243952       -61.0611
  22   1.0000      -2.243257       -61.0421
  23   1.0000      -2.242613       -61.0246
  24   1.0000      -2.240552       -60.9685
  25   1.0000      -2.240183       -60.9585
  26   1.0000      -2.239649       -60.9439
  27   1.0000      -2.238911       -60.9239
  28   1.0000      -2.237919       -60.8969
  29   1.0000      -2.237659       -60.8898
  30   1.0000      -2.235267       -60.8247
  31   1.0000      -2.235120       -60.8207
  32   1.0000      -2.234494       -60.8037
  33   1.0000      -2.233781       -60.7843
  34   1.0000      -2.233621       -60.7799
  35   1.0000      -2.233510       -60.7769
  36   1.0000      -2.233332       -60.7720
  37   1.0000      -2.232636       -60.7531
  38   1.0000      -2.232323       -60.7446
  39   1.0000      -2.232160       -60.7402
  40   1.0000      -2.232087       -60.7382
  41   1.0000      -2.231969       -60.7350
  42   1.0000      -2.231919       -60.7336
  43   1.0000      -2.230644       -60.6989
  44   1.0000      -2.230566       -60.6968
  45   1.0000      -2.230355       -60.6911
  46   1.0000      -2.228758       -60.6476
  47   1.0000      -2.228218       -60.6329
  48   1.0000      -2.228025       -60.6276
  49   1.0000      -2.227309       -60.6082
  50   1.0000      -2.226478       -60.5855
  51   1.0000      -2.226112       -60.5756
  52   1.0000      -2.224060       -60.5197
  53   1.0000      -2.224031       -60.5190
  54   1.0000      -1.800828       -49.0030
  55   1.0000      -1.798858       -48.9494
  56   1.0000      -1.794012       -48.8176
  57   1.0000      -0.418969       -11.4007
  58   1.0000      -0.388825       -10.5805
  59   1.0000      -0.374030       -10.1779
  60   1.0000      -0.369698       -10.0600
  61   1.0000      -0.367269        -9.9939
  62   1.0000      -0.362390        -9.8611
  63   1.0000      -0.360216        -9.8020
  64   1.0000      -0.356946        -9.7130
  65   1.0000      -0.347145        -9.4463
  66   1.0000      -0.345398        -9.3987
  67   1.0000      -0.343473        -9.3464
  68   1.0000      -0.340420        -9.2633
  69   1.0000      -0.339450        -9.2369
  70   1.0000      -0.334813        -9.1107
  71   1.0000      -0.334387        -9.0991
  72   1.0000      -0.329102        -8.9553
  73   1.0000      -0.328743        -8.9456
  74   1.0000      -0.326184        -8.8759
  75   1.0000      -0.320391        -8.7183
  76   1.0000      -0.319971        -8.7068
  77   1.0000      -0.316750        -8.6192
  78   1.0000      -0.315582        -8.5874
  79   1.0000      -0.313952        -8.5431
  80   1.0000      -0.313236        -8.5236
  81   1.0000      -0.309635        -8.4256
  82   1.0000      -0.307435        -8.3657
  83   1.0000      -0.307363        -8.3638
  84   1.0000      -0.297700        -8.1008
  85   1.0000      -0.296631        -8.0717
  86   1.0000      -0.294860        -8.0235
  87   1.0000      -0.289902        -7.8886
  88   1.0000      -0.289066        -7.8659
  89   1.0000      -0.285883        -7.7793
  90   1.0000      -0.285656        -7.7731
  91   1.0000      -0.281124        -7.6498
  92   1.0000      -0.279961        -7.6181
  93   1.0000      -0.279707        -7.6112
  94   1.0000      -0.279420        -7.6034
  95   1.0000      -0.274409        -7.4671
  96   1.0000      -0.274176        -7.4607
  97   1.0000      -0.271629        -7.3914
  98   1.0000      -0.270184        -7.3521
  99   1.0000      -0.268070        -7.2945
 100   1.0000      -0.267259        -7.2725
 101   1.0000      -0.266266        -7.2455
 102   1.0000      -0.265779        -7.2322
 103   1.0000      -0.263176        -7.1614
 104   1.0000      -0.262716        -7.1489
 105   1.0000      -0.259573        -7.0633
 106   1.0000      -0.259439        -7.0597
 107   1.0000      -0.256737        -6.9862
 108   1.0000      -0.255711        -6.9583
 109   1.0000      -0.254995        -6.9388
 110   1.0000      -0.252973        -6.8838
 111   1.0000      -0.249983        -6.8024
 112   1.0000      -0.249914        -6.8005
 113   1.0000      -0.248582        -6.7643
 114   1.0000      -0.244972        -6.6660
 115   1.0000      -0.243243        -6.6190
 116   1.0000      -0.241558        -6.5731
 117   1.0000      -0.240731        -6.5506
 118   1.0000      -0.238305        -6.4846
 119   1.0000      -0.232940        -6.3386
 120   1.0000      -0.222915        -6.0658
 121   1.0000      -0.222179        -6.0458
 122   1.0000      -0.217848        -5.9279
 123   1.0000      -0.213527        -5.8104
 124   1.0000      -0.211983        -5.7684
 125   1.0000      -0.207228        -5.6390
 126   1.0000      -0.196392        -5.3441
 127   0.0000      -0.187389        -5.0991
 128   0.0000      -0.164423        -4.4742
 129   0.0000      -0.164201        -4.4681
 130   0.0000      -0.143310        -3.8997
 131   0.0000      -0.127305        -3.4642

                 SPIN DOWN ORBITALS
  NO   OCC          E(Eh)            E(eV)
   0   1.0000    -214.509940     -5837.1122
   1   1.0000     -24.271245      -660.4542
   2   1.0000     -20.648190      -561.8658
   3   1.0000     -20.645379      -561.7893
   4   1.0000     -20.640964      -561.6692
   5   1.0000      -4.030650      -109.6796
   6   1.0000      -4.030141      -109.6657
   7   1.0000      -4.025851      -109.5490
   8   1.0000      -4.025622      -109.5427
   9   1.0000      -4.020716      -109.4093
  10   1.0000      -4.020559      -109.4050
  11   1.0000      -4.020442      -109.4018
  12   1.0000      -4.020297      -109.3978
  13   1.0000      -4.016563      -109.2962
  14   1.0000      -4.016272      -109.2883
  15   1.0000      -4.016118      -109.2841
  16   1.0000      -4.016080      -109.2831
  17   1.0000      -2.695657       -73.3526
  18   1.0000      -2.248406       -61.1822
  19   1.0000      -2.247931       -61.1693
  20   1.0000      -2.243999       -61.0623
  21   1.0000      -2.243888       -61.0593
  22   1.0000      -2.242691       -61.0267
  23   1.0000      -2.242286       -61.0157
  24   1.0000      -2.240666       -60.9716
  25   1.0000      -2.240226       -60.9597
  26   1.0000      -2.239674       -60.9446
  27   1.0000      -2.239165       -60.9308
  28   1.0000      -2.237764       -60.8927
  29   1.0000      -2.237466       -60.8845
  30   1.0000      -2.235709       -60.8367
  31   1.0000      -2.235573       -60.8330
  32   1.0000      -2.234654       -60.8080
  33   1.0000      -2.234226       -60.7964
  34   1.0000      -2.233620       -60.7799
  35   1.0000      -2.232872       -60.7595
  36   1.0000      -2.232761       -60.7565
  37   1.0000      -2.232570       -60.7513
  38   1.0000      -2.232517       -60.7499
  39   1.0000      -2.232370       -60.7459
  40   1.0000      -2.232134       -60.7394
  41   1.0000      -2.231742       -60.7288
  42   1.0000      -2.231631       -60.7258
  43   1.0000      -2.231270       -60.7159
  44   1.0000      -2.231203       -60.7141
  45   1.0000      -2.229881       -60.6781
  46   1.0000      -2.228501       -60.6406
  47   1.0000      -2.228080       -60.6291
  48   1.0000      -2.228034       -60.6279
  49   1.0000      -2.227395       -60.6105
  50   1.0000      -2.226330       -60.5815
  51   1.0000      -2.225930       -60.5706
  52   1.0000      -2.223879       -60.5148
  53   1.0000      -2.223855       -60.5142
  54   1.0000      -1.693897       -46.0933
  55   1.0000      -1.688074       -45.9348
  56   1.0000      -1.677361       -45.6433
  57   1.0000      -0.414714       -11.2849
  58   1.0000      -0.386763       -10.5244
  59   1.0000      -0.374166       -10.1816
  60   1.0000      -0.369366       -10.0510
  61   1.0000      -0.363392        -9.8884
  62   1.0000      -0.361099        -9.8260
  63   1.0000      -0.356493        -9.7007
  64   1.0000      -0.354595        -9.6490
  65   1.0000      -0.346789        -9.4366
  66   1.0000      -0.345588        -9.4039
  67   1.0000      -0.341650        -9.2968
  68   1.0000      -0.339363        -9.2345
  69   1.0000      -0.338089        -9.1999
  70   1.0000      -0.334926        -9.1138
  71   1.0000      -0.331346        -9.0164
  72   1.0000      -0.327633        -8.9153
  73   1.0000      -0.327210        -8.9038
  74   1.0000      -0.325203        -8.8492
  75   1.0000      -0.320449        -8.7199
  76   1.0000      -0.319198        -8.6858
  77   1.0000      -0.316413        -8.6100
  78   1.0000      -0.315205        -8.5772
  79   1.0000      -0.312420        -8.5014
  80   1.0000      -0.311790        -8.4842
  81   1.0000      -0.309965        -8.4346
  82   1.0000      -0.308119        -8.3844
  83   1.0000      -0.306513        -8.3406
  84   1.0000      -0.297973        -8.1083
  85   1.0000      -0.297149        -8.0858
  86   1.0000      -0.294985        -8.0269
  87   1.0000      -0.288802        -7.8587
  88   1.0000      -0.287339        -7.8189
  89   1.0000      -0.287091        -7.8121
  90   1.0000      -0.285195        -7.7606
  91   1.0000      -0.281465        -7.6591
  92   1.0000      -0.280122        -7.6225
  93   1.0000      -0.279976        -7.6185
  94   1.0000      -0.279529        -7.6064
  95   1.0000      -0.275178        -7.4880
  96   1.0000      -0.274456        -7.4683
  97   1.0000      -0.272979        -7.4281
  98   1.0000      -0.270632        -7.3643
  99   1.0000      -0.268829        -7.3152
 100   1.0000      -0.267961        -7.2916
 101   1.0000      -0.266837        -7.2610
 102   1.0000      -0.266027        -7.2390
 103   1.0000      -0.264022        -7.1844
 104   1.0000      -0.263099        -7.1593
 105   1.0000      -0.260235        -7.0813
 106   1.0000      -0.260114        -7.0781
 107   1.0000      -0.257453        -7.0056
 108   1.0000      -0.256925        -6.9913
 109   1.0000      -0.255709        -6.9582
 110   1.0000      -0.254117        -6.9149
 111   1.0000      -0.250517        -6.8169
 112   1.0000      -0.250223        -6.8089
 113   1.0000      -0.249421        -6.7871
 114   1.0000      -0.246246        -6.7007
 115   1.0000      -0.244036        -6.6406
 116   1.0000      -0.242785        -6.6065
 117   1.0000      -0.241359        -6.5677
 118   1.0000      -0.239415        -6.5148
 119   1.0000      -0.233685        -6.3589
 120   1.0000      -0.225541        -6.1373
 121   1.0000      -0.214600        -5.8396
 122   1.0000      -0.208811        -5.6820
 123   1.0000      -0.196940        -5.3590
 124   1.0000      -0.186909        -5.0860
 125   0.0000      -0.154478        -4.2035
 126   0.0000      -0.144914        -3.9433
 127   0.0000      -0.126581        -3.4444
 128   0.0000      -0.121933        -3.3180
 129   0.0000      -0.120920        -3.2904

MULLIKEN ATOMIC CHARGES AND SPIN POPULATIONS
--------------------------------------------
   0 Au:    0.337457   -0.050894
   1 Au:    0.334977   -0.049387
   2 Au:    0.422193   -0.047995
   3 Au:    0.428474   -0.090325
   4 Au:    0.139938   -0.102533
   5 Au:    0.223342   -0.077198
   6 Au:    0.487727   -0.060193
   7 Au:    0.421112   -0.048180
   8 Au:    0.433123   -0.092150
   9 Au:    0.138142   -0.102115
  10 Au:    0.217729   -0.077090
  11 Au:    0.479719   -0.063355
  12 Cr:   -4.063933    2.861416
Sum of atomic charges         :   -0.0000000

LOEWDIN ATOMIC CHARGES AND SPIN POPULATIONS
-------------------------------------------
   0 Au:    0.106517   -0.066069
   1 Au:    0.106049   -0.065733
   2 Au:    0.150274   -0.069816
   3 Au:    0.139894   -0.092344
   4 Au:    0.004401   -0.062688
   5 Au:    0.085049   -0.081204
   6 Au:    0.082869   -0.067153
   7 Au:    0.149791   -0.069032
   8 Au:    0.138128   -0.094670
   9 Au:    0.006129   -0.062097
  10 Au:    0.086879   -0.081134
  11 Au:    0.084054   -0.067976
  12 Cr:   -1.140035    2.879918

  Mayer bond orders larger than 0.100000
B(  0-Au,  1-Au) :   0.1499 B(  0-Au,  4-Au) :   0.3322 B(  0-Au,  9-Au) :   0.2364
B(  0-Au, 10-Au) :   0.2996 B(  0-Au, 12-Cr) :   0.3243 B(  1-Au,  4-Au) :   0.2390
B(  1-Au,  5-Au) :   0.3019 B(  1-Au,  9-Au) :   0.3305 B(  1-Au, 12-Cr) :   0.3231
B(  2-Au,  4-Au) :   0.4126 B(  2-Au, 11-Au) :   0.2729 B(  2-Au, 12-Cr) :   0.7321
B(  3-Au,  5-Au) :   0.4107 B(  3-Au,  6-Au) :   0.2303 B(  3-Au, 12-Cr) :   0.6821
B(  4-Au, 10-Au) :   0.1790 B(  4-Au, 12-Cr) :   0.5376 B(  5-Au,  9-Au) :   0.1759
B(  5-Au, 12-Cr) :   0.6991 B(  6-Au,  7-Au) :   0.2633 B(  6-Au,  8-Au) :   0.1000
B(  6-Au, 11-Au) :   0.2085 B(  6-Au, 12-Cr) :   0.5285 B(  7-Au,  9-Au) :   0.4159
B(  7-Au, 12-Cr) :   0.7370 B(  8-Au, 10-Au) :   0.4114 B(  8-Au, 11-Au) :   0.2255
B(  8-Au, 12-Cr) :   0.6739 B(  9-Au, 12-Cr) :   0.5405 B( 10-Au, 12-Cr) :   0.7039
B( 11-Au, 12-Cr) :   0.5383

FINAL SINGLE POINT ENERGY     -2674.150653605430

DIPOLE MOMENT
-------------
                                X             Y             Z
Electronic contribution:      4.18713      20.47648     -10.36006
Nuclear contribution   :     -4.13038     -20.19841      10.22261
                        -----------------------------------------
Total Dipole Moment    :      0.05674       0.27807      -0.13745
                        -----------------------------------------
Magnitude (a.u.)       :      0.31533
Magnitude (Debye)      :      0.80152

Rotational constants in cm-1:     0.001721     0.001155     0.000992
Rotational constants in MHz :    51.581608    34.640620    29.725386

                             ****ORCA TERMINATED NORMALLY****
TOTAL RUN TIME: 0 days 1 hours 10 minutes 32 seconds 639 msec
