                         Program Version 5.0.3 -  RELEASE  -
|  1> !R2SCAN def2-TZVP VERYSLOWCONV
|  2> !KDIIS
|  3> %scf
|  4>   AutoTRAHIter 200
|  5>   maxiter 400
|  6> end
|  7>
|  8> %pal nprocs 6 end
|  9>
| 10> *xyzfile 0 5 pbe.xyz
| 11>
| 12> $new_job
| 13>
| 14> !R2SCAN def2-TZVP VERYSLOWCONV
| 15> !KDIIS
| 16> %scf
| 17>   AutoTRAHIter 200
| 18>   maxiter 400
| 19> end
| 20>
| 21>
| 22> %pal nprocs 6 end
| 23>
| 24> *xyzfile 0 3 pbe.xyz
| 25>
| 26>
| 27>
| 28>
| 29>
| 30>                          ****END OF INPUT****
 Total Charge           Charge          ....    0
 Multiplicity           Mult            ....    5
 Number of Electrons    NEL             ....  252
FINAL SINGLE POINT ENERGY     -2674.584005210671

CARTESIAN COORDINATES (ANGSTROEM)
---------------------------------
  Au     7.292753   11.951582    7.623145
  Au     9.142651   10.603493    5.693257
  Au     6.235055    6.889340    6.235037
  Au     8.792937    5.593985    7.577206
  Au     6.676576    9.520209    6.474811
  Au     9.187983    7.910657    6.267125
  Au     8.100475    5.927086   10.348799
  Au     8.760288    8.610978   10.645654
  Au     5.772224    7.669340   10.472867
  Au     9.143096    9.981058    8.383829
  Au     6.292013   10.058561    9.352647
  Au     6.049246    5.479205    8.605275
  Cr     7.502774    7.774206    8.431196

 Multiplicity           Mult            ....    3
 Number of Electrons    NEL             ....  252
 Basis Dimension        Dim             ....  525

ORBITAL ENERGIES
----------------
                 SPIN UP ORBITALS
  NO   OCC          E(Eh)            E(eV)
   0   1.0000    -215.306101     -5858.7769
   1   1.0000     -24.609408      -669.6560
   2   1.0000     -20.877480      -568.1051
   3   1.0000     -20.876144      -568.0688
   4   1.0000     -20.873881      -568.0072
   5   1.0000      -4.120939      -112.1364
   6   1.0000      -4.120407      -112.1220
   7   1.0000      -4.116158      -112.0064
   8   1.0000      -4.115938      -112.0004
   9   1.0000      -4.111096      -111.8686
  10   1.0000      -4.110979      -111.8654
  11   1.0000      -4.110873      -111.8625
  12   1.0000      -4.110444      -111.8509
  13   1.0000      -4.107120      -111.7604
  14   1.0000      -4.106970      -111.7563
  15   1.0000      -4.106928      -111.7552
  16   1.0000      -4.106717      -111.7494
  17   1.0000      -2.922718       -79.5312
  18   1.0000      -2.311469       -62.8983
  19   1.0000      -2.310989       -62.8852
  20   1.0000      -2.307162       -62.7811
  21   1.0000      -2.307067       -62.7785
  22   1.0000      -2.306474       -62.7624
  23   1.0000      -2.305758       -62.7429
  24   1.0000      -2.303773       -62.6888
  25   1.0000      -2.303306       -62.6762
  26   1.0000      -2.302807       -62.6626
  27   1.0000      -2.302012       -62.6409
  28   1.0000      -2.300799       -62.6079
  29   1.0000      -2.300496       -62.5997
  30   1.0000      -2.298932       -62.5571
  31   1.0000      -2.298806       -62.5537
  32   1.0000      -2.297686       -62.5232
  33   1.0000      -2.296994       -62.5044
  34   1.0000      -2.296869       -62.5010
  35   1.0000      -2.296831       -62.5000
  36   1.0000      -2.296698       -62.4963
  37   1.0000      -2.295898       -62.4746
  38   1.0000      -2.295813       -62.4722
  39   1.0000      -2.295587       -62.4661
  40   1.0000      -2.295454       -62.4625
  41   1.0000      -2.295202       -62.4556
  42   1.0000      -2.295140       -62.4539
  43   1.0000      -2.294439       -62.4349
  44   1.0000      -2.294368       -62.4329
  45   1.0000      -2.293378       -62.4060
  46   1.0000      -2.291791       -62.3628
  47   1.0000      -2.291520       -62.3554
  48   1.0000      -2.291210       -62.3470
  49   1.0000      -2.290777       -62.3352
  50   1.0000      -2.289666       -62.3050
  51   1.0000      -2.289260       -62.2939
  52   1.0000      -2.287625       -62.2494
  53   1.0000      -2.287583       -62.2483
  54   1.0000      -1.870391       -50.8959
  55   1.0000      -1.869504       -50.8718
  56   1.0000      -1.866781       -50.7977
  57   1.0000      -0.423539       -11.5251
  58   1.0000      -0.394346       -10.7307
  59   1.0000      -0.380746       -10.3606
  60   1.0000      -0.377174       -10.2634
  61   1.0000      -0.375983       -10.2310
  62   1.0000      -0.371102       -10.0982
  63   1.0000      -0.367346        -9.9960
  64   1.0000      -0.364652        -9.9227
  65   1.0000      -0.356016        -9.6877
  66   1.0000      -0.354067        -9.6347
  67   1.0000      -0.351760        -9.5719
  68   1.0000      -0.349502        -9.5104
  69   1.0000      -0.347993        -9.4694
  70   1.0000      -0.343707        -9.3527
  71   1.0000      -0.343251        -9.3403
  72   1.0000      -0.338217        -9.2033
  73   1.0000      -0.337024        -9.1709
  74   1.0000      -0.334725        -9.1083
  75   1.0000      -0.329066        -8.9543
  76   1.0000      -0.328196        -8.9307
  77   1.0000      -0.325263        -8.8509
  78   1.0000      -0.324041        -8.8176
  79   1.0000      -0.322494        -8.7755
  80   1.0000      -0.321817        -8.7571
  81   1.0000      -0.317536        -8.6406
  82   1.0000      -0.315965        -8.5979
  83   1.0000      -0.315890        -8.5958
  84   1.0000      -0.305823        -8.3219
  85   1.0000      -0.304876        -8.2961
  86   1.0000      -0.302810        -8.2399
  87   1.0000      -0.298480        -8.1220
  88   1.0000      -0.296909        -8.0793
  89   1.0000      -0.294059        -8.0017
  90   1.0000      -0.293835        -7.9957
  91   1.0000      -0.289328        -7.8730
  92   1.0000      -0.287973        -7.8362
  93   1.0000      -0.287806        -7.8316
  94   1.0000      -0.287482        -7.8228
  95   1.0000      -0.282593        -7.6897
  96   1.0000      -0.282322        -7.6824
  97   1.0000      -0.278537        -7.5794
  98   1.0000      -0.278023        -7.5654
  99   1.0000      -0.275504        -7.4969
 100   1.0000      -0.275062        -7.4848
 101   1.0000      -0.273955        -7.4547
 102   1.0000      -0.273702        -7.4478
 103   1.0000      -0.270674        -7.3654
 104   1.0000      -0.269942        -7.3455
 105   1.0000      -0.267345        -7.2748
 106   1.0000      -0.267092        -7.2679
 107   1.0000      -0.264470        -7.1966
 108   1.0000      -0.262952        -7.1553
 109   1.0000      -0.262556        -7.1445
 110   1.0000      -0.259995        -7.0748
 111   1.0000      -0.257590        -7.0094
 112   1.0000      -0.257344        -7.0027
 113   1.0000      -0.255829        -6.9615
 114   1.0000      -0.251239        -6.8366
 115   1.0000      -0.250020        -6.8034
 116   1.0000      -0.247193        -6.7265
 117   1.0000      -0.247068        -6.7231
 118   1.0000      -0.244242        -6.6462
 119   1.0000      -0.239725        -6.5232
 120   1.0000      -0.233158        -6.3446
 121   1.0000      -0.228346        -6.2136
 122   1.0000      -0.224891        -6.1196
 123   1.0000      -0.216771        -5.8986
 124   1.0000      -0.216193        -5.8829
 125   1.0000      -0.213598        -5.8123
 126   1.0000      -0.201041        -5.4706
 127   0.0000      -0.185526        -5.0484
 128   0.0000      -0.162536        -4.4228
 129   0.0000      -0.162349        -4.4177
 130   0.0000      -0.138371        -3.7653
 131   0.0000      -0.121846        -3.3156

                 SPIN DOWN ORBITALS
  NO   OCC          E(Eh)            E(eV)
   0   1.0000    -215.305487     -5858.7601
   1   1.0000     -24.550751      -668.0599
   2   1.0000     -20.834233      -566.9283
   3   1.0000     -20.831004      -566.8404
   4   1.0000     -20.826696      -566.7232
   5   1.0000      -4.121068      -112.1400
   6   1.0000      -4.120526      -112.1252
   7   1.0000      -4.116395      -112.0128
   8   1.0000      -4.116166      -112.0066
   9   1.0000      -4.111749      -111.8864
  10   1.0000      -4.111637      -111.8833
  11   1.0000      -4.111326      -111.8749
  12   1.0000      -4.110869      -111.8624
  13   1.0000      -4.106905      -111.7546
  14   1.0000      -4.106821      -111.7523
  15   1.0000      -4.106750      -111.7504
  16   1.0000      -4.106484      -111.7431
  17   1.0000      -2.769720       -75.3679
  18   1.0000      -2.311394       -62.8962
  19   1.0000      -2.310881       -62.8823
  20   1.0000      -2.307051       -62.7781
  21   1.0000      -2.306945       -62.7752
  22   1.0000      -2.305950       -62.7481
  23   1.0000      -2.305566       -62.7376
  24   1.0000      -2.304048       -62.6963
  25   1.0000      -2.303540       -62.6825
  26   1.0000      -2.302953       -62.6665
  27   1.0000      -2.302464       -62.6532
  28   1.0000      -2.301007       -62.6136
  29   1.0000      -2.300670       -62.6044
  30   1.0000      -2.299502       -62.5726
  31   1.0000      -2.299383       -62.5694
  32   1.0000      -2.297933       -62.5299
  33   1.0000      -2.297319       -62.5132
  34   1.0000      -2.297123       -62.5079
  35   1.0000      -2.296424       -62.4889
  36   1.0000      -2.296229       -62.4836
  37   1.0000      -2.296124       -62.4807
  38   1.0000      -2.295892       -62.4744
  39   1.0000      -2.295757       -62.4707
  40   1.0000      -2.295545       -62.4649
  41   1.0000      -2.295293       -62.4581
  42   1.0000      -2.295242       -62.4567
  43   1.0000      -2.294832       -62.4456
  44   1.0000      -2.294697       -62.4419
  45   1.0000      -2.292861       -62.3919
  46   1.0000      -2.291718       -62.3608
  47   1.0000      -2.291401       -62.3522
  48   1.0000      -2.291104       -62.3441
  49   1.0000      -2.290801       -62.3359
  50   1.0000      -2.289484       -62.3000
  51   1.0000      -2.289057       -62.2884
  52   1.0000      -2.287485       -62.2456
  53   1.0000      -2.287443       -62.2445
  54   1.0000      -1.724122       -46.9157
  55   1.0000      -1.717593       -46.7381
  56   1.0000      -1.706810       -46.4447
  57   1.0000      -0.419257       -11.4086
  58   1.0000      -0.392799       -10.6886
  59   1.0000      -0.381244       -10.3742
  60   1.0000      -0.376944       -10.2572
  61   1.0000      -0.371385       -10.1059
  62   1.0000      -0.369401       -10.0519
  63   1.0000      -0.363830        -9.9003
  64   1.0000      -0.362816        -9.8727
  65   1.0000      -0.355985        -9.6868
  66   1.0000      -0.354474        -9.6457
  67   1.0000      -0.350260        -9.5311
  68   1.0000      -0.348281        -9.4772
  69   1.0000      -0.346502        -9.4288
  70   1.0000      -0.344259        -9.3678
  71   1.0000      -0.340102        -9.2547
  72   1.0000      -0.336587        -9.1590
  73   1.0000      -0.336108        -9.1460
  74   1.0000      -0.334227        -9.0948
  75   1.0000      -0.329577        -8.9683
  76   1.0000      -0.328018        -8.9258
  77   1.0000      -0.325456        -8.8561
  78   1.0000      -0.324223        -8.8226
  79   1.0000      -0.320793        -8.7292
  80   1.0000      -0.320033        -8.7085
  81   1.0000      -0.318459        -8.6657
  82   1.0000      -0.317212        -8.6318
  83   1.0000      -0.314988        -8.5713
  84   1.0000      -0.306661        -8.3447
  85   1.0000      -0.305554        -8.3146
  86   1.0000      -0.303133        -8.2487
  87   1.0000      -0.297180        -8.0867
  88   1.0000      -0.296007        -8.0547
  89   1.0000      -0.295720        -8.0470
  90   1.0000      -0.293660        -7.9909
  91   1.0000      -0.290020        -7.8918
  92   1.0000      -0.288534        -7.8514
  93   1.0000      -0.288441        -7.8489
  94   1.0000      -0.288000        -7.8369
  95   1.0000      -0.283935        -7.7263
  96   1.0000      -0.282948        -7.6994
  97   1.0000      -0.281037        -7.6474
  98   1.0000      -0.278967        -7.5911
  99   1.0000      -0.276933        -7.5357
 100   1.0000      -0.276228        -7.5165
 101   1.0000      -0.275017        -7.4836
 102   1.0000      -0.274163        -7.4604
 103   1.0000      -0.272044        -7.4027
 104   1.0000      -0.270596        -7.3633
 105   1.0000      -0.268526        -7.3070
 106   1.0000      -0.268109        -7.2956
 107   1.0000      -0.265373        -7.2212
 108   1.0000      -0.264982        -7.2105
 109   1.0000      -0.263922        -7.1817
 110   1.0000      -0.261851        -7.1253
 111   1.0000      -0.258374        -7.0307
 112   1.0000      -0.258136        -7.0242
 113   1.0000      -0.257022        -6.9939
 114   1.0000      -0.253330        -6.8935
 115   1.0000      -0.251194        -6.8353
 116   1.0000      -0.249517        -6.7897
 117   1.0000      -0.248245        -6.7551
 118   1.0000      -0.246633        -6.7112
 119   1.0000      -0.240637        -6.5481
 120   1.0000      -0.230724        -6.2783
 121   1.0000      -0.216399        -5.8885
 122   1.0000      -0.210905        -5.7390
 123   1.0000      -0.198868        -5.4115
 124   1.0000      -0.187669        -5.1067
 125   0.0000      -0.149536        -4.0691
 126   0.0000      -0.136904        -3.7253
 127   0.0000      -0.120732        -3.2853
 128   0.0000      -0.112349        -3.0572
 129   0.0000      -0.106891        -2.9087

MULLIKEN ATOMIC CHARGES AND SPIN POPULATIONS
--------------------------------------------
   0 Au:    0.306198   -0.074580
   1 Au:    0.303533   -0.073168
   2 Au:    0.390251   -0.070090
   3 Au:    0.390105   -0.123207
   4 Au:    0.133660   -0.131825
   5 Au:    0.190497   -0.102276
   6 Au:    0.432259   -0.102911
   7 Au:    0.388873   -0.070946
   8 Au:    0.394768   -0.125522
   9 Au:    0.132304   -0.130583
  10 Au:    0.185236   -0.101883
  11 Au:    0.425050   -0.106851
  12 Cr:   -3.672733    3.213842
Sum of atomic charges         :    0.0000000

LOEWDIN ATOMIC CHARGES AND SPIN POPULATIONS
-------------------------------------------
   0 Au:    0.106649   -0.085054
   1 Au:    0.106103   -0.084952
   2 Au:    0.145049   -0.092746
   3 Au:    0.133880   -0.113764
   4 Au:   -0.000438   -0.083504
   5 Au:    0.080038   -0.100205
   6 Au:    0.077399   -0.090778
   7 Au:    0.144509   -0.092049
   8 Au:    0.132373   -0.116339
   9 Au:    0.001220   -0.082443
  10 Au:    0.081714   -0.100094
  11 Au:    0.078403   -0.091752
  12 Cr:   -1.086898    3.133679

  Mayer bond orders larger than 0.100000
B(  0-Au,  1-Au) :   0.1383 B(  0-Au,  4-Au) :   0.3252 B(  0-Au,  9-Au) :   0.2171
B(  0-Au, 10-Au) :   0.2919 B(  0-Au, 12-Cr) :   0.3091 B(  1-Au,  4-Au) :   0.2197
B(  1-Au,  5-Au) :   0.2939 B(  1-Au,  9-Au) :   0.3235 B(  1-Au, 12-Cr) :   0.3077
B(  2-Au,  4-Au) :   0.4159 B(  2-Au, 11-Au) :   0.2630 B(  2-Au, 12-Cr) :   0.7093
B(  3-Au,  5-Au) :   0.4136 B(  3-Au,  6-Au) :   0.2165 B(  3-Au, 12-Cr) :   0.6724
B(  4-Au, 10-Au) :   0.1650 B(  4-Au, 12-Cr) :   0.5273 B(  5-Au,  9-Au) :   0.1621
B(  5-Au, 12-Cr) :   0.6948 B(  6-Au,  7-Au) :   0.2533 B(  6-Au, 11-Au) :   0.1981
B(  6-Au, 12-Cr) :   0.5316 B(  7-Au,  9-Au) :   0.4195 B(  7-Au, 12-Cr) :   0.7140
B(  8-Au, 10-Au) :   0.4141 B(  8-Au, 11-Au) :   0.2114 B(  8-Au, 12-Cr) :   0.6650
B(  9-Au, 12-Cr) :   0.5295 B( 10-Au, 12-Cr) :   0.6985 B( 11-Au, 12-Cr) :   0.5397

FINAL SINGLE POINT ENERGY     -2674.582228914662

DIPOLE MOMENT
-------------
                                X             Y             Z
Electronic contribution:      4.19133      20.49710     -10.36986
Nuclear contribution   :     -4.13038     -20.19841      10.22261
                        -----------------------------------------
Total Dipole Moment    :      0.06095       0.29869      -0.14725
                        -----------------------------------------
Magnitude (a.u.)       :      0.33854
Magnitude (Debye)      :      0.86051

Rotational constants in cm-1:     0.001721     0.001155     0.000992
Rotational constants in MHz :    51.581608    34.640620    29.725386

                             ****ORCA TERMINATED NORMALLY****
TOTAL RUN TIME: 0 days 0 hours 22 minutes 53 seconds 669 msec
