                         Program Version 5.0.3 -  RELEASE  -
|  1> !R2SCAN def2-TZVP VERYSLOWCONV
|  2>
|  3> %pal nprocs 16 end
|  4>
|  5> %scf
|  6>   AutoTRAHIter 200
|  7>   maxiter 400
|  8> end
|  9>
| 10> *xyzfile 0 5 pbe.xyz
| 11>
| 12> $new_job
| 13>
| 14> !R2SCAN def2-TZVP VERYSLOWCONV
| 15>
| 16>
| 17> %pal nprocs 16 end
| 18>
| 19> %scf
| 20>   AutoTRAHIter 200
| 21>   maxiter 400
| 22> end
| 23>
| 24> *xyzfile 0 3 pbe.xyz
| 25>
| 26>
| 27>
| 28>
| 29>
| 30>                          ****END OF INPUT****
 Total Charge           Charge          ....    0
 Multiplicity           Mult            ....    5
 Number of Electrons    NEL             ....  292
FINAL SINGLE POINT ENERGY     -3165.562994818020

CARTESIAN COORDINATES (ANGSTROEM)
---------------------------------
  Au     6.305628    9.014371    9.031280
  Au     8.735667    5.904696    8.862535
  Au     9.005907    8.663708    9.383534
  Au     8.375974   10.745516    5.484367
  Au     6.074389    6.247279    8.530792
  Au    10.442262   10.047937    7.214382
  Au    10.755290    7.348018    7.522981
  Au     6.794291    8.572291    4.762463
  Au     8.059735   11.032881    8.258156
  Au     9.049718    5.624010    6.078713
  Au     6.387097    5.956057    5.746341
  Au     5.838479   10.609171    6.628954
  Au     4.817217    8.065891    6.772122
  Au     9.498277    8.225057    5.093071
  Fe     7.813583    7.863510    7.135131

 Multiplicity           Mult            ....    3
 Number of Electrons    NEL             ....  292
 Basis Dimension        Dim             ....  605

ORBITAL ENERGIES
----------------
                 SPIN UP ORBITALS
  NO   OCC          E(Eh)            E(eV)
   0   1.0000    -255.636836     -6956.2320
   1   1.0000     -29.931043      -814.4651
   2   1.0000     -25.774426      -701.3578
   3   1.0000     -25.761839      -701.0153
   4   1.0000     -25.748589      -700.6547
   5   1.0000      -4.130372      -112.3931
   6   1.0000      -4.130258      -112.3900
   7   1.0000      -4.130093      -112.3855
   8   1.0000      -4.130056      -112.3845
   9   1.0000      -4.118270      -112.0638
  10   1.0000      -4.118160      -112.0608
  11   1.0000      -4.117237      -112.0357
  12   1.0000      -4.117045      -112.0305
  13   1.0000      -4.116628      -112.0191
  14   1.0000      -4.116499      -112.0156
  15   1.0000      -4.115257      -111.9818
  16   1.0000      -4.115123      -111.9782
  17   1.0000      -4.111581      -111.8818
  18   1.0000      -4.111176      -111.8708
  19   1.0000      -3.511996       -95.5663
  20   1.0000      -2.320155       -63.1346
  21   1.0000      -2.319804       -63.1251
  22   1.0000      -2.317735       -63.0688
  23   1.0000      -2.317613       -63.0655
  24   1.0000      -2.317082       -63.0510
  25   1.0000      -2.316950       -63.0474
  26   1.0000      -2.315719       -63.0139
  27   1.0000      -2.315653       -63.0121
  28   1.0000      -2.314513       -62.9811
  29   1.0000      -2.314432       -62.9789
  30   1.0000      -2.313018       -62.9404
  31   1.0000      -2.312922       -62.9378
  32   1.0000      -2.306673       -62.7678
  33   1.0000      -2.306249       -62.7562
  34   1.0000      -2.305516       -62.7363
  35   1.0000      -2.305350       -62.7317
  36   1.0000      -2.304450       -62.7073
  37   1.0000      -2.304218       -62.7010
  38   1.0000      -2.303940       -62.6934
  39   1.0000      -2.303785       -62.6892
  40   1.0000      -2.303139       -62.6716
  41   1.0000      -2.303083       -62.6701
  42   1.0000      -2.302662       -62.6586
  43   1.0000      -2.302442       -62.6526
  44   1.0000      -2.302343       -62.6499
  45   1.0000      -2.302241       -62.6472
  46   1.0000      -2.302009       -62.6408
  47   1.0000      -2.301802       -62.6352
  48   1.0000      -2.301704       -62.6326
  49   1.0000      -2.301486       -62.6266
  50   1.0000      -2.301108       -62.6163
  51   1.0000      -2.300227       -62.5924
  52   1.0000      -2.300142       -62.5900
  53   1.0000      -2.299619       -62.5758
  54   1.0000      -2.299229       -62.5652
  55   1.0000      -2.298583       -62.5476
  56   1.0000      -2.297845       -62.5275
  57   1.0000      -2.297526       -62.5189
  58   1.0000      -2.297430       -62.5163
  59   1.0000      -2.296335       -62.4865
  60   1.0000      -2.295849       -62.4732
  61   1.0000      -2.295244       -62.4568
  62   1.0000      -2.294885       -62.4470
  63   1.0000      -2.277962       -61.9865
  64   1.0000      -2.250976       -61.2522
  65   1.0000      -0.439447       -11.9580
  66   1.0000      -0.393255       -10.7010
  67   1.0000      -0.392829       -10.6894
  68   1.0000      -0.390711       -10.6318
  69   1.0000      -0.390292       -10.6204
  70   1.0000      -0.382008       -10.3950
  71   1.0000      -0.380434       -10.3521
  72   1.0000      -0.378997       -10.3130
  73   1.0000      -0.375581       -10.2201
  74   1.0000      -0.369368       -10.0510
  75   1.0000      -0.367749       -10.0070
  76   1.0000      -0.366473        -9.9722
  77   1.0000      -0.365626        -9.9492
  78   1.0000      -0.363900        -9.9022
  79   1.0000      -0.362628        -9.8676
  80   1.0000      -0.358660        -9.7596
  81   1.0000      -0.358533        -9.7562
  82   1.0000      -0.358040        -9.7428
  83   1.0000      -0.357048        -9.7158
  84   1.0000      -0.354156        -9.6371
  85   1.0000      -0.350326        -9.5328
  86   1.0000      -0.347781        -9.4636
  87   1.0000      -0.347450        -9.4546
  88   1.0000      -0.347128        -9.4458
  89   1.0000      -0.344699        -9.3797
  90   1.0000      -0.342667        -9.3244
  91   1.0000      -0.339798        -9.2464
  92   1.0000      -0.335785        -9.1372
  93   1.0000      -0.330497        -8.9933
  94   1.0000      -0.329148        -8.9566
  95   1.0000      -0.328563        -8.9407
  96   1.0000      -0.326321        -8.8796
  97   1.0000      -0.325233        -8.8501
  98   1.0000      -0.323015        -8.7897
  99   1.0000      -0.322828        -8.7846
 100   1.0000      -0.318428        -8.6649
 101   1.0000      -0.308584        -8.3970
 102   1.0000      -0.308028        -8.3819
 103   1.0000      -0.306712        -8.3461
 104   1.0000      -0.306088        -8.3291
 105   1.0000      -0.304677        -8.2907
 106   1.0000      -0.302004        -8.2180
 107   1.0000      -0.299853        -8.1594
 108   1.0000      -0.298941        -8.1346
 109   1.0000      -0.289666        -7.8822
 110   1.0000      -0.287619        -7.8265
 111   1.0000      -0.284154        -7.7322
 112   1.0000      -0.283903        -7.7254
 113   1.0000      -0.281549        -7.6613
 114   1.0000      -0.280047        -7.6205
 115   1.0000      -0.279368        -7.6020
 116   1.0000      -0.277078        -7.5397
 117   1.0000      -0.276439        -7.5223
 118   1.0000      -0.275577        -7.4988
 119   1.0000      -0.274557        -7.4711
 120   1.0000      -0.272476        -7.4144
 121   1.0000      -0.271190        -7.3795
 122   1.0000      -0.270760        -7.3678
 123   1.0000      -0.268411        -7.3038
 124   1.0000      -0.267568        -7.2809
 125   1.0000      -0.267151        -7.2695
 126   1.0000      -0.267016        -7.2659
 127   1.0000      -0.266607        -7.2548
 128   1.0000      -0.264601        -7.2002
 129   1.0000      -0.263578        -7.1723
 130   1.0000      -0.262696        -7.1483
 131   1.0000      -0.261465        -7.1148
 132   1.0000      -0.258945        -7.0462
 133   1.0000      -0.257438        -7.0052
 134   1.0000      -0.256476        -6.9791
 135   1.0000      -0.253990        -6.9114
 136   1.0000      -0.252925        -6.8824
 137   1.0000      -0.252101        -6.8600
 138   1.0000      -0.250242        -6.8094
 139   1.0000      -0.249664        -6.7937
 140   1.0000      -0.248961        -6.7746
 141   1.0000      -0.248822        -6.7708
 142   1.0000      -0.245979        -6.6934
 143   1.0000      -0.237642        -6.4666
 144   1.0000      -0.211203        -5.7471
 145   1.0000      -0.207533        -5.6473
 146   1.0000      -0.201930        -5.4948
 147   0.0000      -0.192903        -5.2492
 148   0.0000      -0.190301        -5.1783
 149   0.0000      -0.129150        -3.5144
 150   0.0000      -0.121169        -3.2972
 151   0.0000      -0.120398        -3.2762

                 SPIN DOWN ORBITALS
  NO   OCC          E(Eh)            E(eV)
   0   1.0000    -255.635901     -6956.2065
   1   1.0000     -29.854876      -812.3925
   2   1.0000     -25.710156      -699.6089
   3   1.0000     -25.703243      -699.4208
   4   1.0000     -25.697187      -699.2560
   5   1.0000      -4.130535      -112.3976
   6   1.0000      -4.130424      -112.3946
   7   1.0000      -4.130275      -112.3905
   8   1.0000      -4.130222      -112.3890
   9   1.0000      -4.118831      -112.0791
  10   1.0000      -4.118674      -112.0748
  11   1.0000      -4.117704      -112.0484
  12   1.0000      -4.117513      -112.0432
  13   1.0000      -4.117125      -112.0327
  14   1.0000      -4.117001      -112.0293
  15   1.0000      -4.116214      -112.0079
  16   1.0000      -4.116080      -112.0042
  17   1.0000      -4.112500      -111.9068
  18   1.0000      -4.112066      -111.8950
  19   1.0000      -3.340611       -90.9027
  20   1.0000      -2.319663       -63.1212
  21   1.0000      -2.319580       -63.1190
  22   1.0000      -2.317047       -63.0501
  23   1.0000      -2.316873       -63.0453
  24   1.0000      -2.316779       -63.0428
  25   1.0000      -2.316747       -63.0419
  26   1.0000      -2.316082       -63.0238
  27   1.0000      -2.316007       -63.0218
  28   1.0000      -2.314681       -62.9857
  29   1.0000      -2.314596       -62.9834
  30   1.0000      -2.313304       -62.9482
  31   1.0000      -2.313197       -62.9453
  32   1.0000      -2.307135       -62.7803
  33   1.0000      -2.306554       -62.7645
  34   1.0000      -2.305839       -62.7451
  35   1.0000      -2.305259       -62.7293
  36   1.0000      -2.304855       -62.7183
  37   1.0000      -2.304768       -62.7159
  38   1.0000      -2.304494       -62.7085
  39   1.0000      -2.304470       -62.7078
  40   1.0000      -2.304223       -62.7011
  41   1.0000      -2.303723       -62.6875
  42   1.0000      -2.303438       -62.6797
  43   1.0000      -2.303189       -62.6730
  44   1.0000      -2.303056       -62.6693
  45   1.0000      -2.302959       -62.6667
  46   1.0000      -2.302912       -62.6654
  47   1.0000      -2.302684       -62.6592
  48   1.0000      -2.302425       -62.6522
  49   1.0000      -2.301864       -62.6369
  50   1.0000      -2.300669       -62.6044
  51   1.0000      -2.300654       -62.6040
  52   1.0000      -2.300589       -62.6022
  53   1.0000      -2.299808       -62.5810
  54   1.0000      -2.299075       -62.5610
  55   1.0000      -2.298831       -62.5544
  56   1.0000      -2.298461       -62.5443
  57   1.0000      -2.298396       -62.5425
  58   1.0000      -2.297368       -62.5146
  59   1.0000      -2.296744       -62.4976
  60   1.0000      -2.296042       -62.4785
  61   1.0000      -2.295703       -62.4693
  62   1.0000      -2.119344       -57.6703
  63   1.0000      -2.110109       -57.4190
  64   1.0000      -2.097934       -57.0877
  65   1.0000      -0.437623       -11.9083
  66   1.0000      -0.393912       -10.7189
  67   1.0000      -0.392808       -10.6888
  68   1.0000      -0.392177       -10.6717
  69   1.0000      -0.380154       -10.3445
  70   1.0000      -0.376907       -10.2562
  71   1.0000      -0.372579       -10.1384
  72   1.0000      -0.371402       -10.1063
  73   1.0000      -0.370971       -10.0946
  74   1.0000      -0.369078       -10.0431
  75   1.0000      -0.367995       -10.0137
  76   1.0000      -0.367353        -9.9962
  77   1.0000      -0.365551        -9.9471
  78   1.0000      -0.365226        -9.9383
  79   1.0000      -0.364441        -9.9169
  80   1.0000      -0.359296        -9.7769
  81   1.0000      -0.358729        -9.7615
  82   1.0000      -0.358575        -9.7573
  83   1.0000      -0.357944        -9.7401
  84   1.0000      -0.355942        -9.6857
  85   1.0000      -0.349065        -9.4985
  86   1.0000      -0.348460        -9.4821
  87   1.0000      -0.348000        -9.4696
  88   1.0000      -0.347047        -9.4436
  89   1.0000      -0.343733        -9.3535
  90   1.0000      -0.340887        -9.2760
  91   1.0000      -0.337536        -9.1848
  92   1.0000      -0.331839        -9.0298
  93   1.0000      -0.329568        -8.9680
  94   1.0000      -0.328762        -8.9461
  95   1.0000      -0.327393        -8.9088
  96   1.0000      -0.323646        -8.8069
  97   1.0000      -0.322229        -8.7683
  98   1.0000      -0.321052        -8.7363
  99   1.0000      -0.319753        -8.7009
 100   1.0000      -0.315075        -8.5736
 101   1.0000      -0.306950        -8.3525
 102   1.0000      -0.305248        -8.3062
 103   1.0000      -0.305079        -8.3016
 104   1.0000      -0.302842        -8.2408
 105   1.0000      -0.301389        -8.2012
 106   1.0000      -0.300412        -8.1746
 107   1.0000      -0.294361        -8.0100
 108   1.0000      -0.290091        -7.8938
 109   1.0000      -0.288478        -7.8499
 110   1.0000      -0.288251        -7.8437
 111   1.0000      -0.284825        -7.7505
 112   1.0000      -0.281298        -7.6545
 113   1.0000      -0.281204        -7.6519
 114   1.0000      -0.280332        -7.6282
 115   1.0000      -0.277743        -7.5578
 116   1.0000      -0.275762        -7.5039
 117   1.0000      -0.275092        -7.4856
 118   1.0000      -0.274954        -7.4819
 119   1.0000      -0.273426        -7.4403
 120   1.0000      -0.272690        -7.4203
 121   1.0000      -0.271555        -7.3894
 122   1.0000      -0.271159        -7.3786
 123   1.0000      -0.269027        -7.3206
 124   1.0000      -0.267084        -7.2677
 125   1.0000      -0.266028        -7.2390
 126   1.0000      -0.265733        -7.2310
 127   1.0000      -0.264967        -7.2101
 128   1.0000      -0.260813        -7.0971
 129   1.0000      -0.259659        -7.0657
 130   1.0000      -0.257632        -7.0105
 131   1.0000      -0.254751        -6.9321
 132   1.0000      -0.254348        -6.9212
 133   1.0000      -0.252451        -6.8696
 134   1.0000      -0.250726        -6.8226
 135   1.0000      -0.250354        -6.8125
 136   1.0000      -0.249927        -6.8009
 137   1.0000      -0.248146        -6.7524
 138   1.0000      -0.239291        -6.5115
 139   1.0000      -0.219141        -5.9631
 140   1.0000      -0.218607        -5.9486
 141   1.0000      -0.210850        -5.7375
 142   1.0000      -0.210515        -5.7284
 143   1.0000      -0.208978        -5.6866
 144   1.0000      -0.180517        -4.9121
 145   0.0000      -0.154704        -4.2097
 146   0.0000      -0.153458        -4.1758
 147   0.0000      -0.136480        -3.7138
 148   0.0000      -0.129043        -3.5114
 149   0.0000      -0.124669        -3.3924

MULLIKEN ATOMIC CHARGES AND SPIN POPULATIONS
--------------------------------------------
   0 Au:    0.169268   -0.177393
   1 Au:    0.217382   -0.042164
   2 Au:    0.174159   -0.181436
   3 Au:    0.077244   -0.066634
   4 Au:    0.215548   -0.045425
   5 Au:    0.100235   -0.053243
   6 Au:    0.157028   -0.004390
   7 Au:    0.169304   -0.175466
   8 Au:    0.076938   -0.064141
   9 Au:    0.215516   -0.038446
  10 Au:    0.215838   -0.043824
  11 Au:    0.102271   -0.054434
  12 Au:    0.161855   -0.007531
  13 Au:    0.174672   -0.181952
  14 Fe:   -2.227259    3.136479
Sum of atomic charges         :   -0.0000000

LOEWDIN ATOMIC CHARGES AND SPIN POPULATIONS
-------------------------------------------
   0 Au:    0.056109   -0.101501
   1 Au:    0.053821   -0.068720
   2 Au:    0.059011   -0.101796
   3 Au:   -0.003117   -0.102709
   4 Au:    0.055323   -0.070221
   5 Au:    0.011860   -0.076427
   6 Au:    0.017431   -0.054155
   7 Au:    0.056366   -0.100302
   8 Au:   -0.003069   -0.102189
   9 Au:    0.053406   -0.067241
  10 Au:    0.055228   -0.069151
  11 Au:    0.010564   -0.075755
  12 Au:    0.020241   -0.057287
  13 Au:    0.058805   -0.102078
  14 Fe:   -0.501978    3.149535

  Mayer bond orders larger than 0.100000
B(  0-Au,  2-Au) :   0.2061 B(  0-Au,  4-Au) :   0.1866 B(  0-Au,  8-Au) :   0.2661
B(  0-Au, 11-Au) :   0.1828 B(  0-Au, 12-Au) :   0.1724 B(  0-Au, 14-Fe) :   0.4916
B(  1-Au,  2-Au) :   0.1926 B(  1-Au,  4-Au) :   0.3084 B(  1-Au,  6-Au) :   0.1969
B(  1-Au,  9-Au) :   0.1500 B(  1-Au, 14-Fe) :   0.4146 B(  2-Au,  5-Au) :   0.1716
B(  2-Au,  6-Au) :   0.1684 B(  2-Au,  8-Au) :   0.2582 B(  2-Au, 14-Fe) :   0.5005
B(  3-Au,  5-Au) :   0.2573 B(  3-Au,  7-Au) :   0.2670 B(  3-Au,  8-Au) :   0.1814
B(  3-Au, 11-Au) :   0.2569 B(  3-Au, 13-Au) :   0.2605 B(  3-Au, 14-Fe) :   0.2072
B(  4-Au, 10-Au) :   0.1497 B(  4-Au, 12-Au) :   0.1944 B(  4-Au, 14-Fe) :   0.4249
B(  5-Au,  6-Au) :   0.3229 B(  5-Au,  8-Au) :   0.2595 B(  5-Au, 13-Au) :   0.1691
B(  5-Au, 14-Fe) :   0.2118 B(  6-Au,  9-Au) :   0.1959 B(  6-Au, 13-Au) :   0.1684
B(  6-Au, 14-Fe) :   0.3144 B(  7-Au, 10-Au) :   0.1848 B(  7-Au, 11-Au) :   0.1808
B(  7-Au, 12-Au) :   0.1734 B(  7-Au, 13-Au) :   0.2063 B(  7-Au, 14-Fe) :   0.4946
B(  8-Au, 11-Au) :   0.2577 B(  8-Au, 14-Fe) :   0.2065 B(  9-Au, 10-Au) :   0.3090
B(  9-Au, 13-Au) :   0.1932 B(  9-Au, 14-Fe) :   0.4159 B( 10-Au, 12-Au) :   0.1963
B( 10-Au, 14-Fe) :   0.4233 B( 11-Au, 12-Au) :   0.3142 B( 11-Au, 14-Fe) :   0.2084
B( 12-Au, 14-Fe) :   0.3092 B( 13-Au, 14-Fe) :   0.4983

FINAL SINGLE POINT ENERGY     -3165.548707199028

DIPOLE MOMENT
-------------
                                X             Y             Z
Electronic contribution:      2.01194      16.10116      -1.40817
Nuclear contribution   :     -2.04465     -16.27437       1.42392
                        -----------------------------------------
Total Dipole Moment    :     -0.03271      -0.17321       0.01575
                        -----------------------------------------
Magnitude (a.u.)       :      0.17697
Magnitude (Debye)      :      0.44983

Rotational constants in cm-1:     0.001148     0.001112     0.000948
Rotational constants in MHz :    34.412688    33.337662    28.418928

                             ****ORCA TERMINATED NORMALLY****
TOTAL RUN TIME: 0 days 0 hours 30 minutes 16 seconds 631 msec
