                         Program Version 5.0.3 -  RELEASE  -
|  1> %pal nprocs 4 end
|  2>
|  3> !PBE def2-TZVP OPT UNO
|  4> !SLOWCONV KDIIS
|  5>
|  6> %geom maxiter 300 end
|  7>
|  8> *xyz 0 3
|  9>   Au     6.925415    8.934746    5.364537
| 10>   Au     5.478501    5.924576    9.673877
| 11>   Au    10.285475    8.158185    8.622450
| 12>   Au     8.094350    6.831043    9.538817
| 13>   Au     7.159739    4.876774    7.693805
| 14>   Au    11.920646    9.858590    7.228404
| 15>   Au     9.423143    9.565001    6.168159
| 16>   Au     8.837301    6.889217    6.643338
| 17>   Au     6.647107    6.005127    5.175555
| 18>   Au     4.433018    7.645100    5.327008
| 19>   Au     7.246177   10.437674    7.824940
| 20>   Au     4.709251    9.690320    7.209291
| 21>   Au     3.631181    7.198855    8.034229
| 22>   Au     9.810703   11.090343    8.570577
| 23>   Au     8.320683    9.507586   10.236034
| 24>   Au     5.678852    8.765541    9.719818
| 25>   Cr     6.243347    7.405690    7.476231
| 26> *
| 27>
| 28>                          ****END OF INPUT****
 Total Charge           Charge          ....    0
 Multiplicity           Mult            ....    3
 Number of Electrons    NEL             ....  328
FINAL SINGLE POINT ENERGY     -3217.500250164178
                    ***********************HURRAY********************

CARTESIAN COORDINATES (ANGSTROEM)
---------------------------------
  Au     6.925413    8.934431    5.364489
  Au     5.477974    5.924177    9.673813
  Au    10.285727    8.158260    8.622522
  Au     8.094203    6.831148    9.538496
  Au     7.159785    4.876459    7.693826
  Au    11.921072    9.859096    7.228440
  Au     9.423322    9.565391    6.168209
  Au     8.837618    6.888850    6.643209
  Au     6.647123    6.005434    5.175565
  Au     4.432847    7.644699    5.327319
  Au     7.246113   10.437669    7.824990
  Au     4.708973    9.690517    7.209081
  Au     3.631071    7.199286    8.034658
  Au     9.810933   11.090143    8.570750
  Au     8.320786    9.507588   10.235779
  Au     5.678642    8.765627    9.719671
  Cr     6.243287    7.405595    7.476254

 Multiplicity           Mult            ....    3
 Number of Electrons    NEL             ....  328
 Basis Dimension        Dim             ....  685

ORBITAL ENERGIES
----------------
                 SPIN UP ORBITALS
  NO   OCC          E(Eh)            E(eV)
   0   1.0000    -214.506247     -5837.0117
   1   1.0000     -24.307172      -661.4318
   2   1.0000     -20.673018      -562.5414
   3   1.0000     -20.671795      -562.5081
   4   1.0000     -20.667056      -562.3792
   5   1.0000      -4.037200      -109.8578
   6   1.0000      -4.032915      -109.7412
   7   1.0000      -4.032875      -109.7401
   8   1.0000      -4.032026      -109.7170
   9   1.0000      -4.031329      -109.6980
  10   1.0000      -4.028907      -109.6321
  11   1.0000      -4.028283      -109.6151
  12   1.0000      -4.027978      -109.6068
  13   1.0000      -4.025922      -109.5509
  14   1.0000      -4.025032      -109.5267
  15   1.0000      -4.024290      -109.5065
  16   1.0000      -4.022404      -109.4552
  17   1.0000      -4.020429      -109.4014
  18   1.0000      -4.018259      -109.3424
  19   1.0000      -4.015351      -109.2633
  20   1.0000      -4.013278      -109.2068
  21   1.0000      -2.807894       -76.4067
  22   1.0000      -2.253704       -61.3264
  23   1.0000      -2.250774       -61.2467
  24   1.0000      -2.250225       -61.2317
  25   1.0000      -2.248860       -61.1946
  26   1.0000      -2.248688       -61.1899
  27   1.0000      -2.247465       -61.1566
  28   1.0000      -2.247145       -61.1479
  29   1.0000      -2.245909       -61.1143
  30   1.0000      -2.245638       -61.1069
  31   1.0000      -2.244697       -61.0813
  32   1.0000      -2.244111       -61.0654
  33   1.0000      -2.243859       -61.0585
  34   1.0000      -2.243670       -61.0534
  35   1.0000      -2.243410       -61.0463
  36   1.0000      -2.243113       -61.0382
  37   1.0000      -2.243013       -61.0355
  38   1.0000      -2.242850       -61.0310
  39   1.0000      -2.242191       -61.0131
  40   1.0000      -2.242062       -61.0096
  41   1.0000      -2.241797       -61.0024
  42   1.0000      -2.241515       -60.9947
  43   1.0000      -2.241236       -60.9871
  44   1.0000      -2.240492       -60.9669
  45   1.0000      -2.240017       -60.9540
  46   1.0000      -2.238902       -60.9236
  47   1.0000      -2.238848       -60.9222
  48   1.0000      -2.237964       -60.8981
  49   1.0000      -2.237869       -60.8955
  50   1.0000      -2.237755       -60.8924
  51   1.0000      -2.237644       -60.8894
  52   1.0000      -2.237300       -60.8800
  53   1.0000      -2.236666       -60.8628
  54   1.0000      -2.235502       -60.8311
  55   1.0000      -2.234818       -60.8125
  56   1.0000      -2.234193       -60.7955
  57   1.0000      -2.233916       -60.7880
  58   1.0000      -2.233233       -60.7694
  59   1.0000      -2.232749       -60.7562
  60   1.0000      -2.231346       -60.7180
  61   1.0000      -2.231065       -60.7104
  62   1.0000      -2.230633       -60.6986
  63   1.0000      -2.229605       -60.6706
  64   1.0000      -2.228773       -60.6480
  65   1.0000      -2.228011       -60.6273
  66   1.0000      -2.227542       -60.6145
  67   1.0000      -2.225976       -60.5719
  68   1.0000      -2.224932       -60.5435
  69   1.0000      -2.222972       -60.4901
  70   1.0000      -1.800325       -48.9893
  71   1.0000      -1.798932       -48.9514
  72   1.0000      -1.792739       -48.7829
  73   1.0000      -0.430747       -11.7212
  74   1.0000      -0.395157       -10.7528
  75   1.0000      -0.391024       -10.6403
  76   1.0000      -0.387096       -10.5334
  77   1.0000      -0.381631       -10.3847
  78   1.0000      -0.372666       -10.1408
  79   1.0000      -0.370031       -10.0691
  80   1.0000      -0.366141        -9.9632
  81   1.0000      -0.363120        -9.8810
  82   1.0000      -0.360122        -9.7994
  83   1.0000      -0.358239        -9.7482
  84   1.0000      -0.357210        -9.7202
  85   1.0000      -0.354463        -9.6454
  86   1.0000      -0.352983        -9.6052
  87   1.0000      -0.351259        -9.5582
  88   1.0000      -0.348974        -9.4961
  89   1.0000      -0.346112        -9.4182
  90   1.0000      -0.344142        -9.3646
  91   1.0000      -0.343698        -9.3525
  92   1.0000      -0.343213        -9.3393
  93   1.0000      -0.339992        -9.2517
  94   1.0000      -0.336188        -9.1481
  95   1.0000      -0.334037        -9.0896
  96   1.0000      -0.331848        -9.0300
  97   1.0000      -0.331026        -9.0077
  98   1.0000      -0.329404        -8.9635
  99   1.0000      -0.327567        -8.9136
 100   1.0000      -0.326340        -8.8802
 101   1.0000      -0.324246        -8.8232
 102   1.0000      -0.322054        -8.7635
 103   1.0000      -0.321621        -8.7518
 104   1.0000      -0.319763        -8.7012
 105   1.0000      -0.316188        -8.6039
 106   1.0000      -0.315567        -8.5870
 107   1.0000      -0.314640        -8.5618
 108   1.0000      -0.311027        -8.4635
 109   1.0000      -0.309425        -8.4199
 110   1.0000      -0.301898        -8.2151
 111   1.0000      -0.301693        -8.2095
 112   1.0000      -0.300785        -8.1848
 113   1.0000      -0.297772        -8.1028
 114   1.0000      -0.294549        -8.0151
 115   1.0000      -0.293560        -7.9882
 116   1.0000      -0.290193        -7.8965
 117   1.0000      -0.287723        -7.8294
 118   1.0000      -0.286830        -7.8050
 119   1.0000      -0.284073        -7.7300
 120   1.0000      -0.282649        -7.6913
 121   1.0000      -0.281339        -7.6556
 122   1.0000      -0.278217        -7.5707
 123   1.0000      -0.278132        -7.5683
 124   1.0000      -0.276310        -7.5188
 125   1.0000      -0.274731        -7.4758
 126   1.0000      -0.274359        -7.4657
 127   1.0000      -0.271860        -7.3977
 128   1.0000      -0.271458        -7.3868
 129   1.0000      -0.269863        -7.3433
 130   1.0000      -0.269498        -7.3334
 131   1.0000      -0.268658        -7.3105
 132   1.0000      -0.267907        -7.2901
 133   1.0000      -0.267034        -7.2664
 134   1.0000      -0.264998        -7.2110
 135   1.0000      -0.264412        -7.1950
 136   1.0000      -0.263872        -7.1803
 137   1.0000      -0.263225        -7.1627
 138   1.0000      -0.262420        -7.1408
 139   1.0000      -0.261671        -7.1204
 140   1.0000      -0.260665        -7.0931
 141   1.0000      -0.258223        -7.0266
 142   1.0000      -0.256309        -6.9745
 143   1.0000      -0.253298        -6.8926
 144   1.0000      -0.251862        -6.8535
 145   1.0000      -0.250043        -6.8040
 146   1.0000      -0.249486        -6.7889
 147   1.0000      -0.248172        -6.7531
 148   1.0000      -0.247811        -6.7433
 149   1.0000      -0.246791        -6.7155
 150   1.0000      -0.244868        -6.6632
 151   1.0000      -0.244263        -6.6467
 152   1.0000      -0.243503        -6.6261
 153   1.0000      -0.241590        -6.5740
 154   1.0000      -0.238940        -6.5019
 155   1.0000      -0.237510        -6.4630
 156   1.0000      -0.232952        -6.3389
 157   1.0000      -0.230385        -6.2691
 158   1.0000      -0.220678        -6.0050
 159   1.0000      -0.218537        -5.9467
 160   1.0000      -0.217740        -5.9250
 161   1.0000      -0.217674        -5.9232
 162   1.0000      -0.210552        -5.7294
 163   1.0000      -0.200152        -5.4464
 164   1.0000      -0.196750        -5.3538
 165   0.0000      -0.181078        -4.9274
 166   0.0000      -0.178366        -4.8536
 167   0.0000      -0.168997        -4.5987
 168   0.0000      -0.138619        -3.7720
 169   0.0000      -0.132386        -3.6024

                 SPIN DOWN ORBITALS
  NO   OCC          E(Eh)            E(eV)
   0   1.0000    -214.505839     -5837.0006
   1   1.0000     -24.262161      -660.2070
   2   1.0000     -20.641064      -561.6719
   3   1.0000     -20.638838      -561.6113
   4   1.0000     -20.628805      -561.3383
   5   1.0000      -4.037011      -109.8526
   6   1.0000      -4.033039      -109.7446
   7   1.0000      -4.032593      -109.7324
   8   1.0000      -4.031742      -109.7093
   9   1.0000      -4.031205      -109.6947
  10   1.0000      -4.028730      -109.6273
  11   1.0000      -4.028253      -109.6143
  12   1.0000      -4.027757      -109.6008
  13   1.0000      -4.025738      -109.5459
  14   1.0000      -4.025176      -109.5306
  15   1.0000      -4.024774      -109.5197
  16   1.0000      -4.022220      -109.4502
  17   1.0000      -4.021052      -109.4184
  18   1.0000      -4.018920      -109.3604
  19   1.0000      -4.015751      -109.2741
  20   1.0000      -4.013692      -109.2181
  21   1.0000      -2.686635       -73.1071
  22   1.0000      -2.253758       -61.3279
  23   1.0000      -2.250184       -61.2306
  24   1.0000      -2.250095       -61.2282
  25   1.0000      -2.248692       -61.1900
  26   1.0000      -2.248519       -61.1853
  27   1.0000      -2.247510       -61.1579
  28   1.0000      -2.246640       -61.1342
  29   1.0000      -2.245831       -61.1122
  30   1.0000      -2.245317       -61.0982
  31   1.0000      -2.244339       -61.0716
  32   1.0000      -2.243864       -61.0586
  33   1.0000      -2.243627       -61.0522
  34   1.0000      -2.243534       -61.0497
  35   1.0000      -2.243203       -61.0407
  36   1.0000      -2.243016       -61.0356
  37   1.0000      -2.242926       -61.0331
  38   1.0000      -2.242553       -61.0230
  39   1.0000      -2.242352       -61.0175
  40   1.0000      -2.242059       -61.0095
  41   1.0000      -2.241943       -61.0064
  42   1.0000      -2.241623       -60.9977
  43   1.0000      -2.241268       -60.9880
  44   1.0000      -2.240424       -60.9650
  45   1.0000      -2.239755       -60.9468
  46   1.0000      -2.238873       -60.9228
  47   1.0000      -2.238651       -60.9168
  48   1.0000      -2.238467       -60.9118
  49   1.0000      -2.238153       -60.9032
  50   1.0000      -2.237874       -60.8956
  51   1.0000      -2.237643       -60.8894
  52   1.0000      -2.237158       -60.8762
  53   1.0000      -2.236476       -60.8576
  54   1.0000      -2.235951       -60.8433
  55   1.0000      -2.234974       -60.8167
  56   1.0000      -2.234859       -60.8136
  57   1.0000      -2.234135       -60.7939
  58   1.0000      -2.233698       -60.7820
  59   1.0000      -2.233006       -60.7632
  60   1.0000      -2.231820       -60.7309
  61   1.0000      -2.231304       -60.7169
  62   1.0000      -2.231280       -60.7162
  63   1.0000      -2.230030       -60.6822
  64   1.0000      -2.229233       -60.6605
  65   1.0000      -2.228347       -60.6364
  66   1.0000      -2.227962       -60.6259
  67   1.0000      -2.226200       -60.5780
  68   1.0000      -2.225255       -60.5523
  69   1.0000      -2.223532       -60.5054
  70   1.0000      -1.688933       -45.9582
  71   1.0000      -1.684126       -45.8274
  72   1.0000      -1.660419       -45.1823
  73   1.0000      -0.426195       -11.5973
  74   1.0000      -0.393451       -10.7063
  75   1.0000      -0.391268       -10.6469
  76   1.0000      -0.387308       -10.5392
  77   1.0000      -0.380005       -10.3405
  78   1.0000      -0.370360       -10.0780
  79   1.0000      -0.368064       -10.0155
  80   1.0000      -0.364837        -9.9277
  81   1.0000      -0.362163        -9.8550
  82   1.0000      -0.359714        -9.7883
  83   1.0000      -0.358508        -9.7555
  84   1.0000      -0.355953        -9.6860
  85   1.0000      -0.353430        -9.6173
  86   1.0000      -0.352508        -9.5922
  87   1.0000      -0.350669        -9.5422
  88   1.0000      -0.348728        -9.4894
  89   1.0000      -0.346755        -9.4357
  90   1.0000      -0.344841        -9.3836
  91   1.0000      -0.343607        -9.3500
  92   1.0000      -0.342988        -9.3332
  93   1.0000      -0.339075        -9.2267
  94   1.0000      -0.336457        -9.1555
  95   1.0000      -0.333903        -9.0860
  96   1.0000      -0.332181        -9.0391
  97   1.0000      -0.331526        -9.0213
  98   1.0000      -0.329263        -8.9597
  99   1.0000      -0.328154        -8.9295
 100   1.0000      -0.326320        -8.8796
 101   1.0000      -0.324700        -8.8355
 102   1.0000      -0.322671        -8.7803
 103   1.0000      -0.322215        -8.7679
 104   1.0000      -0.320384        -8.7181
 105   1.0000      -0.316975        -8.6253
 106   1.0000      -0.316140        -8.6026
 107   1.0000      -0.314920        -8.5694
 108   1.0000      -0.307832        -8.3765
 109   1.0000      -0.306188        -8.3318
 110   1.0000      -0.302190        -8.2230
 111   1.0000      -0.301531        -8.2051
 112   1.0000      -0.298349        -8.1185
 113   1.0000      -0.296759        -8.0752
 114   1.0000      -0.294094        -8.0027
 115   1.0000      -0.292332        -7.9548
 116   1.0000      -0.290796        -7.9130
 117   1.0000      -0.288283        -7.8446
 118   1.0000      -0.287571        -7.8252
 119   1.0000      -0.283852        -7.7240
 120   1.0000      -0.283338        -7.7100
 121   1.0000      -0.281723        -7.6661
 122   1.0000      -0.278909        -7.5895
 123   1.0000      -0.278530        -7.5792
 124   1.0000      -0.277163        -7.5420
 125   1.0000      -0.275437        -7.4950
 126   1.0000      -0.275197        -7.4885
 127   1.0000      -0.272556        -7.4166
 128   1.0000      -0.272418        -7.4129
 129   1.0000      -0.270414        -7.3584
 130   1.0000      -0.270284        -7.3548
 131   1.0000      -0.269436        -7.3317
 132   1.0000      -0.268283        -7.3004
 133   1.0000      -0.267897        -7.2898
 134   1.0000      -0.265519        -7.2251
 135   1.0000      -0.265386        -7.2215
 136   1.0000      -0.264791        -7.2053
 137   1.0000      -0.264040        -7.1849
 138   1.0000      -0.263210        -7.1623
 139   1.0000      -0.262084        -7.1317
 140   1.0000      -0.261670        -7.1204
 141   1.0000      -0.258983        -7.0473
 142   1.0000      -0.257015        -6.9937
 143   1.0000      -0.254302        -6.9199
 144   1.0000      -0.252992        -6.8843
 145   1.0000      -0.251231        -6.8363
 146   1.0000      -0.249957        -6.8017
 147   1.0000      -0.249428        -6.7873
 148   1.0000      -0.248980        -6.7751
 149   1.0000      -0.247900        -6.7457
 150   1.0000      -0.245723        -6.6865
 151   1.0000      -0.244786        -6.6610
 152   1.0000      -0.243953        -6.6383
 153   1.0000      -0.241960        -6.5841
 154   1.0000      -0.239393        -6.5142
 155   1.0000      -0.238540        -6.4910
 156   1.0000      -0.233748        -6.3606
 157   1.0000      -0.230538        -6.2733
 158   1.0000      -0.216225        -5.8838
 159   1.0000      -0.209492        -5.7006
 160   1.0000      -0.205127        -5.5818
 161   1.0000      -0.201996        -5.4966
 162   1.0000      -0.187167        -5.0931
 163   0.0000      -0.147888        -4.0242
 164   0.0000      -0.145569        -3.9611
 165   0.0000      -0.135071        -3.6755
 166   0.0000      -0.127945        -3.4816
 167   0.0000      -0.125094        -3.4040

MULLIKEN ATOMIC CHARGES AND SPIN POPULATIONS
--------------------------------------------
   0 Au:    0.378981   -0.026407
   1 Au:    0.567607   -0.042044
   2 Au:   -0.014995    0.035278
   3 Au:    0.076295   -0.014529
   4 Au:    0.489084   -0.050729
   5 Au:    0.450814   -0.206185
   6 Au:   -0.141170   -0.009537
   7 Au:    0.106078   -0.019567
   8 Au:    0.512308   -0.029385
   9 Au:    0.525710   -0.018613
  10 Au:   -0.421799   -0.066854
  11 Au:    0.628194   -0.043630
  12 Au:    0.479324   -0.119160
  13 Au:    0.348834   -0.005221
  14 Au:    0.219385   -0.034820
  15 Au:    0.397249   -0.078875
  16 Cr:   -4.601898    2.730277
Sum of atomic charges         :   -0.0000000

LOEWDIN ATOMIC CHARGES AND SPIN POPULATIONS
-------------------------------------------
   0 Au:    0.096931   -0.061997
   1 Au:    0.143996   -0.095227
   2 Au:   -0.049558   -0.022327
   3 Au:    0.042688   -0.041181
   4 Au:    0.161843   -0.083519
   5 Au:    0.109184   -0.140103
   6 Au:   -0.043433   -0.052777
   7 Au:    0.052681   -0.041361
   8 Au:    0.156568   -0.068294
   9 Au:    0.130607   -0.059904
  10 Au:   -0.011442   -0.052125
  11 Au:    0.125032   -0.098388
  12 Au:    0.140536   -0.123130
  13 Au:    0.009076   -0.022729
  14 Au:    0.052430   -0.049136
  15 Au:    0.099953   -0.093540
  16 Cr:   -1.217093    3.105737

  Mayer bond orders larger than 0.100000
B(  0-Au,  6-Au) :   0.4386 B(  0-Au,  7-Au) :   0.1013 B(  0-Au,  8-Au) :   0.1197
B(  0-Au,  9-Au) :   0.2078 B(  0-Au, 10-Au) :   0.2334 B(  0-Au, 11-Au) :   0.1067
B(  0-Au, 16-Cr) :   0.5716 B(  1-Au,  3-Au) :   0.2217 B(  1-Au,  4-Au) :   0.2473
B(  1-Au, 12-Au) :   0.2578 B(  1-Au, 15-Au) :   0.1531 B(  1-Au, 16-Cr) :   0.5567
B(  2-Au,  3-Au) :   0.4457 B(  2-Au,  5-Au) :   0.3384 B(  2-Au,  6-Au) :   0.3326
B(  2-Au,  7-Au) :   0.2408 B(  2-Au, 13-Au) :   0.1804 B(  2-Au, 14-Au) :   0.1742
B(  2-Au, 16-Cr) :   0.2212 B(  3-Au,  4-Au) :   0.1519 B(  3-Au,  7-Au) :   0.1452
B(  3-Au, 14-Au) :   0.2607 B(  3-Au, 15-Au) :   0.1144 B(  3-Au, 16-Cr) :   0.4924
B(  4-Au,  7-Au) :   0.1884 B(  4-Au,  8-Au) :   0.2808 B(  4-Au, 16-Cr) :   0.5896
B(  5-Au,  6-Au) :   0.3882 B(  5-Au, 13-Au) :   0.2348 B(  5-Au, 16-Cr) :   0.1320
B(  6-Au,  7-Au) :   0.2084 B(  6-Au, 10-Au) :   0.2554 B(  6-Au, 13-Au) :   0.2237
B(  6-Au, 16-Cr) :   0.3054 B(  7-Au,  8-Au) :   0.2527 B(  7-Au, 12-Au) :   0.1280
B(  7-Au, 16-Cr) :   0.5297 B(  8-Au,  9-Au) :   0.2686 B(  8-Au, 16-Cr) :   0.5637
B(  9-Au, 11-Au) :   0.1774 B(  9-Au, 12-Au) :   0.2162 B(  9-Au, 16-Cr) :   0.4477
B( 10-Au, 11-Au) :   0.2912 B( 10-Au, 13-Au) :   0.4308 B( 10-Au, 14-Au) :   0.3343
B( 10-Au, 15-Au) :   0.1828 B( 10-Au, 16-Cr) :   0.3540 B( 11-Au, 12-Au) :   0.1325
B( 11-Au, 15-Au) :   0.1910 B( 11-Au, 16-Cr) :   0.5264 B( 12-Au, 16-Cr) :   0.6496
B( 13-Au, 14-Au) :   0.3004 B( 14-Au, 15-Au) :   0.2136 B( 14-Au, 16-Cr) :   0.2762
B( 15-Au, 16-Cr) :   0.6477

FINAL SINGLE POINT ENERGY     -3217.500250565030

DIPOLE MOMENT
-------------
                                X             Y             Z
Electronic contribution:     40.78225      28.09718       7.40784
Nuclear contribution   :    -41.26749     -28.43055      -7.52329
                        -----------------------------------------
Total Dipole Moment    :     -0.48524      -0.33336      -0.11545
                        -----------------------------------------
Magnitude (a.u.)       :      0.59993
Magnitude (Debye)      :      1.52490

Rotational constants in cm-1:     0.001102     0.000661     0.000645
Rotational constants in MHz :    33.036582    19.802841    19.325816

                             ****ORCA TERMINATED NORMALLY****
TOTAL RUN TIME: 0 days 0 hours 13 minutes 2 seconds 863 msec
