                         Program Version 5.0.3 -  RELEASE  -
|  1> %pal nprocs 1 end
|  2>
|  3> !PBE def2-TZVP OPT UNO
|  4> !SLOWCONV KDIIS
|  5>
|  6> %geom maxiter 300 end
|  7>
|  8> *xyzfile 0 3 9.xyz                           ****END OF INPUT****
 Total Charge           Charge          ....    0
 Multiplicity           Mult            ....    3
 Number of Electrons    NEL             ....  252
FINAL SINGLE POINT ENERGY     -2674.141772887162
FINAL SINGLE POINT ENERGY     -2674.144211773906
FINAL SINGLE POINT ENERGY     -2674.145928844471
FINAL SINGLE POINT ENERGY     -2674.147504201849
FINAL SINGLE POINT ENERGY     -2674.148520790380
FINAL SINGLE POINT ENERGY     -2674.149407585654
FINAL SINGLE POINT ENERGY     -2674.150598201892
FINAL SINGLE POINT ENERGY     -2674.151825100576
FINAL SINGLE POINT ENERGY     -2674.152985169205
FINAL SINGLE POINT ENERGY     -2674.154409961896
FINAL SINGLE POINT ENERGY     -2674.160615955001
FINAL SINGLE POINT ENERGY     -2674.160617462792
FINAL SINGLE POINT ENERGY     -2674.160619845229
FINAL SINGLE POINT ENERGY     -2674.160621399413
FINAL SINGLE POINT ENERGY     -2674.160623107132
FINAL SINGLE POINT ENERGY     -2674.160625383454
FINAL SINGLE POINT ENERGY     -2674.160628078450
FINAL SINGLE POINT ENERGY     -2674.160629732034
FINAL SINGLE POINT ENERGY     -2674.160631084323
                    ***********************HURRAY********************

CARTESIAN COORDINATES (ANGSTROEM)
---------------------------------
  Au    10.190644    4.852950    9.168229
  Au     9.632332    5.039686   11.859134
  Au     7.418434    5.174892   10.266056
  Au     7.399257    5.723893    5.602278
  Au     6.164546    5.128813    7.901481
  Au    10.176244    5.158244    6.570887
  Au     9.588401    8.954054    8.341317
  Au     9.426300    7.411831   10.522425
  Au     6.764866    7.873479    9.604331
  Au     6.745979    8.186747    6.881851
  Au     9.598094    5.974114    4.002927
  Au     9.403866    7.963048    5.863269
  Cr     8.454187    6.529436    8.059489

 Multiplicity           Mult            ....    3
 Number of Electrons    NEL             ....  252
 Basis Dimension        Dim             ....  525

ORBITAL ENERGIES
----------------
                 SPIN UP ORBITALS
  NO   OCC          E(Eh)            E(eV)
   0   1.0000    -214.507601     -5837.0486
   1   1.0000     -24.310997      -661.5359
   2   1.0000     -20.675672      -562.6136
   3   1.0000     -20.675514      -562.6093
   4   1.0000     -20.672734      -562.5337
   5   1.0000      -4.027541      -109.5950
   6   1.0000      -4.027216      -109.5861
   7   1.0000      -4.023522      -109.4856
   8   1.0000      -4.023518      -109.4855
   9   1.0000      -4.023470      -109.4842
  10   1.0000      -4.023437      -109.4833
  11   1.0000      -4.020778      -109.4109
  12   1.0000      -4.020760      -109.4104
  13   1.0000      -4.017024      -109.3088
  14   1.0000      -4.016861      -109.3043
  15   1.0000      -4.014587      -109.2425
  16   1.0000      -4.014539      -109.2412
  17   1.0000      -2.806623       -76.3721
  18   1.0000      -2.249357       -61.2081
  19   1.0000      -2.243929       -61.0604
  20   1.0000      -2.242673       -61.0262
  21   1.0000      -2.242635       -61.0252
  22   1.0000      -2.241756       -61.0013
  23   1.0000      -2.241714       -61.0002
  24   1.0000      -2.241236       -60.9871
  25   1.0000      -2.240847       -60.9766
  26   1.0000      -2.237753       -60.8924
  27   1.0000      -2.237524       -60.8861
  28   1.0000      -2.236053       -60.8461
  29   1.0000      -2.236038       -60.8457
  30   1.0000      -2.235965       -60.8437
  31   1.0000      -2.235917       -60.8424
  32   1.0000      -2.235682       -60.8360
  33   1.0000      -2.234573       -60.8058
  34   1.0000      -2.232360       -60.7456
  35   1.0000      -2.232206       -60.7414
  36   1.0000      -2.232165       -60.7403
  37   1.0000      -2.231928       -60.7339
  38   1.0000      -2.231644       -60.7261
  39   1.0000      -2.231628       -60.7257
  40   1.0000      -2.231600       -60.7249
  41   1.0000      -2.231477       -60.7216
  42   1.0000      -2.231371       -60.7187
  43   1.0000      -2.231059       -60.7102
  44   1.0000      -2.230538       -60.6960
  45   1.0000      -2.230455       -60.6938
  46   1.0000      -2.229900       -60.6787
  47   1.0000      -2.229597       -60.6704
  48   1.0000      -2.229531       -60.6686
  49   1.0000      -2.227432       -60.6115
  50   1.0000      -2.225424       -60.5569
  51   1.0000      -2.225080       -60.5475
  52   1.0000      -2.220757       -60.4299
  53   1.0000      -2.220724       -60.4290
  54   1.0000      -1.797263       -48.9060
  55   1.0000      -1.797107       -48.9018
  56   1.0000      -1.792620       -48.7797
  57   1.0000      -0.415135       -11.2964
  58   1.0000      -0.384304       -10.4575
  59   1.0000      -0.381461       -10.3801
  60   1.0000      -0.370364       -10.0781
  61   1.0000      -0.366972        -9.9858
  62   1.0000      -0.359669        -9.7871
  63   1.0000      -0.359317        -9.7775
  64   1.0000      -0.359191        -9.7741
  65   1.0000      -0.344713        -9.3801
  66   1.0000      -0.343237        -9.3400
  67   1.0000      -0.339356        -9.2343
  68   1.0000      -0.339124        -9.2280
  69   1.0000      -0.337083        -9.1725
  70   1.0000      -0.333950        -9.0872
  71   1.0000      -0.333278        -9.0690
  72   1.0000      -0.330471        -8.9926
  73   1.0000      -0.329270        -8.9599
  74   1.0000      -0.324596        -8.8327
  75   1.0000      -0.323685        -8.8079
  76   1.0000      -0.320687        -8.7263
  77   1.0000      -0.315639        -8.5890
  78   1.0000      -0.312932        -8.5153
  79   1.0000      -0.312558        -8.5051
  80   1.0000      -0.311888        -8.4869
  81   1.0000      -0.306442        -8.3387
  82   1.0000      -0.301056        -8.1922
  83   1.0000      -0.295656        -8.0452
  84   1.0000      -0.295399        -8.0382
  85   1.0000      -0.292927        -7.9709
  86   1.0000      -0.292877        -7.9696
  87   1.0000      -0.291917        -7.9435
  88   1.0000      -0.289976        -7.8906
  89   1.0000      -0.286319        -7.7911
  90   1.0000      -0.283778        -7.7220
  91   1.0000      -0.281267        -7.6537
  92   1.0000      -0.279627        -7.6090
  93   1.0000      -0.278111        -7.5678
  94   1.0000      -0.277778        -7.5587
  95   1.0000      -0.277034        -7.5385
  96   1.0000      -0.273398        -7.4395
  97   1.0000      -0.272782        -7.4228
  98   1.0000      -0.269155        -7.3241
  99   1.0000      -0.268514        -7.3066
 100   1.0000      -0.267593        -7.2816
 101   1.0000      -0.266375        -7.2484
 102   1.0000      -0.261437        -7.1141
 103   1.0000      -0.259692        -7.0666
 104   1.0000      -0.259538        -7.0624
 105   1.0000      -0.258605        -7.0370
 106   1.0000      -0.257480        -7.0064
 107   1.0000      -0.256651        -6.9838
 108   1.0000      -0.254162        -6.9161
 109   1.0000      -0.253454        -6.8968
 110   1.0000      -0.252757        -6.8779
 111   1.0000      -0.251688        -6.8488
 112   1.0000      -0.249275        -6.7831
 113   1.0000      -0.248301        -6.7566
 114   1.0000      -0.244381        -6.6499
 115   1.0000      -0.242813        -6.6073
 116   1.0000      -0.241137        -6.5617
 117   1.0000      -0.240411        -6.5419
 118   1.0000      -0.237680        -6.4676
 119   1.0000      -0.234648        -6.3851
 120   1.0000      -0.231065        -6.2876
 121   1.0000      -0.229594        -6.2476
 122   1.0000      -0.211792        -5.7631
 123   1.0000      -0.209291        -5.6951
 124   1.0000      -0.208695        -5.6789
 125   1.0000      -0.206589        -5.6216
 126   1.0000      -0.199548        -5.4300
 127   0.0000      -0.181161        -4.9296
 128   0.0000      -0.167786        -4.5657
 129   0.0000      -0.160672        -4.3721
 130   0.0000      -0.134522        -3.6605
 131   0.0000      -0.131901        -3.5892

                 SPIN DOWN ORBITALS
  NO   OCC          E(Eh)            E(eV)
   0   1.0000    -214.507190     -5837.0374
   1   1.0000     -24.268709      -660.3852
   2   1.0000     -20.644396      -561.7626
   3   1.0000     -20.643240      -561.7311
   4   1.0000     -20.639322      -561.6245
   5   1.0000      -4.027613      -109.5969
   6   1.0000      -4.027288      -109.5881
   7   1.0000      -4.023231      -109.4777
   8   1.0000      -4.023227      -109.4776
   9   1.0000      -4.023178      -109.4762
  10   1.0000      -4.023143      -109.4753
  11   1.0000      -4.021040      -109.4181
  12   1.0000      -4.021021      -109.4175
  13   1.0000      -4.017529      -109.3225
  14   1.0000      -4.017365      -109.3181
  15   1.0000      -4.014172      -109.2312
  16   1.0000      -4.014138      -109.2302
  17   1.0000      -2.693154       -73.2844
  18   1.0000      -2.249588       -61.2144
  19   1.0000      -2.243858       -61.0585
  20   1.0000      -2.242700       -61.0270
  21   1.0000      -2.242596       -61.0241
  22   1.0000      -2.241608       -60.9972
  23   1.0000      -2.241499       -60.9943
  24   1.0000      -2.241121       -60.9840
  25   1.0000      -2.240931       -60.9788
  26   1.0000      -2.237372       -60.8820
  27   1.0000      -2.237214       -60.8777
  28   1.0000      -2.235982       -60.8442
  29   1.0000      -2.235809       -60.8395
  30   1.0000      -2.235475       -60.8304
  31   1.0000      -2.235306       -60.8258
  32   1.0000      -2.235299       -60.8256
  33   1.0000      -2.234428       -60.8019
  34   1.0000      -2.232525       -60.7501
  35   1.0000      -2.232387       -60.7463
  36   1.0000      -2.232228       -60.7420
  37   1.0000      -2.231966       -60.7349
  38   1.0000      -2.231897       -60.7330
  39   1.0000      -2.231865       -60.7321
  40   1.0000      -2.231785       -60.7299
  41   1.0000      -2.231658       -60.7265
  42   1.0000      -2.231342       -60.7179
  43   1.0000      -2.230951       -60.7073
  44   1.0000      -2.230463       -60.6940
  45   1.0000      -2.229648       -60.6718
  46   1.0000      -2.229591       -60.6703
  47   1.0000      -2.229585       -60.6701
  48   1.0000      -2.229524       -60.6684
  49   1.0000      -2.228191       -60.6322
  50   1.0000      -2.226287       -60.5803
  51   1.0000      -2.225947       -60.5711
  52   1.0000      -2.220261       -60.4164
  53   1.0000      -2.220238       -60.4158
  54   1.0000      -1.688714       -45.9523
  55   1.0000      -1.686217       -45.8843
  56   1.0000      -1.677037       -45.6345
  57   1.0000      -0.410670       -11.1749
  58   1.0000      -0.384623       -10.4661
  59   1.0000      -0.379851       -10.3363
  60   1.0000      -0.368102       -10.0166
  61   1.0000      -0.366890        -9.9836
  62   1.0000      -0.357332        -9.7235
  63   1.0000      -0.356665        -9.7054
  64   1.0000      -0.355619        -9.6769
  65   1.0000      -0.345006        -9.3881
  66   1.0000      -0.342420        -9.3177
  67   1.0000      -0.339160        -9.2290
  68   1.0000      -0.336547        -9.1579
  69   1.0000      -0.334761        -9.1093
  70   1.0000      -0.334190        -9.0938
  71   1.0000      -0.331366        -9.0169
  72   1.0000      -0.329501        -8.9662
  73   1.0000      -0.326899        -8.8954
  74   1.0000      -0.322992        -8.7891
  75   1.0000      -0.321041        -8.7360
  76   1.0000      -0.320904        -8.7322
  77   1.0000      -0.314905        -8.5690
  78   1.0000      -0.313281        -8.5248
  79   1.0000      -0.313122        -8.5205
  80   1.0000      -0.311341        -8.4720
  81   1.0000      -0.304942        -8.2979
  82   1.0000      -0.301339        -8.1999
  83   1.0000      -0.296718        -8.0741
  84   1.0000      -0.293852        -7.9961
  85   1.0000      -0.292841        -7.9686
  86   1.0000      -0.292667        -7.9639
  87   1.0000      -0.292419        -7.9571
  88   1.0000      -0.290243        -7.8979
  89   1.0000      -0.287070        -7.8116
  90   1.0000      -0.284392        -7.7387
  91   1.0000      -0.280520        -7.6333
  92   1.0000      -0.280451        -7.6314
  93   1.0000      -0.278087        -7.5671
  94   1.0000      -0.277626        -7.5546
  95   1.0000      -0.277534        -7.5521
  96   1.0000      -0.273478        -7.4417
  97   1.0000      -0.273110        -7.4317
  98   1.0000      -0.270981        -7.3738
  99   1.0000      -0.267639        -7.2828
 100   1.0000      -0.267435        -7.2773
 101   1.0000      -0.266720        -7.2578
 102   1.0000      -0.262582        -7.1452
 103   1.0000      -0.259951        -7.0736
 104   1.0000      -0.259452        -7.0600
 105   1.0000      -0.259311        -7.0562
 106   1.0000      -0.258479        -7.0336
 107   1.0000      -0.257719        -7.0129
 108   1.0000      -0.254885        -6.9358
 109   1.0000      -0.254640        -6.9291
 110   1.0000      -0.253802        -6.9063
 111   1.0000      -0.252889        -6.8815
 112   1.0000      -0.250240        -6.8094
 113   1.0000      -0.248961        -6.7746
 114   1.0000      -0.244546        -6.6544
 115   1.0000      -0.244090        -6.6420
 116   1.0000      -0.241834        -6.5806
 117   1.0000      -0.241132        -6.5615
 118   1.0000      -0.237724        -6.4688
 119   1.0000      -0.235662        -6.4127
 120   1.0000      -0.233236        -6.3467
 121   1.0000      -0.223807        -6.0901
 122   1.0000      -0.203681        -5.5424
 123   1.0000      -0.192803        -5.2464
 124   1.0000      -0.191042        -5.1985
 125   0.0000      -0.144544        -3.9332
 126   0.0000      -0.143635        -3.9085
 127   0.0000      -0.134618        -3.6631
 128   0.0000      -0.118897        -3.2353
 129   0.0000      -0.117193        -3.1890

MULLIKEN ATOMIC CHARGES AND SPIN POPULATIONS
--------------------------------------------
   0 Au:    0.068594   -0.029874
   1 Au:    0.375864   -0.029331
   2 Au:    0.265022   -0.104652
   3 Au:    0.264792   -0.104695
   4 Au:    0.293677   -0.060366
   5 Au:    0.069028   -0.030204
   6 Au:    0.294877   -0.060986
   7 Au:    0.264255   -0.104998
   8 Au:    0.606297   -0.106961
   9 Au:    0.605999   -0.107142
  10 Au:    0.376369   -0.028784
  11 Au:    0.262894   -0.105133
  12 Cr:   -3.747668    2.873126
Sum of atomic charges         :    0.0000000

LOEWDIN ATOMIC CHARGES AND SPIN POPULATIONS
-------------------------------------------
   0 Au:    0.095212   -0.044769
   1 Au:    0.138293   -0.045533
   2 Au:    0.029185   -0.072950
   3 Au:    0.028618   -0.073027
   4 Au:    0.150606   -0.084627
   5 Au:    0.094976   -0.044917
   6 Au:    0.150513   -0.085390
   7 Au:    0.028696   -0.073181
   8 Au:    0.130091   -0.122470
   9 Au:    0.130049   -0.122618
  10 Au:    0.138380   -0.045200
  11 Au:    0.028518   -0.073066
  12 Cr:   -1.143137    2.887747

  Mayer bond orders larger than 0.100000
B(  0-Au,  1-Au) :   0.3043 B(  0-Au,  2-Au) :   0.1250 B(  0-Au,  5-Au) :   0.6418
B(  0-Au,  7-Au) :   0.1258 B(  0-Au, 12-Cr) :   0.6969 B(  1-Au,  2-Au) :   0.3410
B(  1-Au,  7-Au) :   0.3421 B(  1-Au, 12-Cr) :   0.2549 B(  2-Au,  4-Au) :   0.3832
B(  2-Au,  7-Au) :   0.1203 B(  2-Au,  8-Au) :   0.1806 B(  2-Au, 12-Cr) :   0.5473
B(  3-Au,  4-Au) :   0.3836 B(  3-Au,  5-Au) :   0.1258 B(  3-Au,  9-Au) :   0.1822
B(  3-Au, 10-Au) :   0.3423 B(  3-Au, 11-Au) :   0.1206 B(  3-Au, 12-Cr) :   0.5442
B(  4-Au, 12-Cr) :   0.6667 B(  5-Au, 10-Au) :   0.3037 B(  5-Au, 11-Au) :   0.1261
B(  5-Au, 12-Cr) :   0.6968 B(  6-Au,  7-Au) :   0.3837 B(  6-Au, 11-Au) :   0.3844
B(  6-Au, 12-Cr) :   0.6650 B(  7-Au,  8-Au) :   0.1821 B(  7-Au, 12-Cr) :   0.5451
B(  8-Au,  9-Au) :   0.2474 B(  8-Au, 12-Cr) :   0.8048 B(  9-Au, 11-Au) :   0.1808
B(  9-Au, 12-Cr) :   0.8042 B( 10-Au, 11-Au) :   0.3421 B( 10-Au, 12-Cr) :   0.2538
B( 11-Au, 12-Cr) :   0.5476

FINAL SINGLE POINT ENERGY     -2674.160631684534

DIPOLE MOMENT
-------------
                                X             Y             Z
Electronic contribution:      3.20983      -2.76577      -0.39108
Nuclear contribution   :     -3.09693       2.66626       0.37933
                        -----------------------------------------
Total Dipole Moment    :      0.11291      -0.09951      -0.01175
                        -----------------------------------------
Magnitude (a.u.)       :      0.15096
Magnitude (Debye)      :      0.38371

Rotational constants in cm-1:     0.001736     0.001033     0.000979
Rotational constants in MHz :    52.058033    30.958345    29.351481

                             ****ORCA TERMINATED NORMALLY****
TOTAL RUN TIME: 0 days 5 hours 56 minutes 33 seconds 108 msec
