                         Program Version 5.0.3 -  RELEASE  -
|  1> !SC-NEVPT2 def2-TZVP def2-TZVP/C
|  2> !MOREAD RIJCOSX def2/J
|  3> %maxcore 4000
|  4> %moinp "casscf.gbw"
|  5> %pal nprocs 8 end
|  6>
|  7> %casscf
|  8>  mult 5,3
|  9>  bweight 1,1
| 10>  nroots 5,45
| 11>  nel 6
| 12>  norb 5
| 13>  ptsettings
| 14>   d4tpre 1e-14 # default = 1e-10
| 15>   d3tpre 1e-14
| 16>  end
| 17>  rel
| 18>    dosoc true
| 19>    gtensor true
| 20>  end
| 21> end
| 22>
| 23>
| 24> *xyzfile 0 5 pbe.xyz
| 25>
| 26>
| 27>                          ****END OF INPUT****

CARTESIAN COORDINATES (ANGSTROEM)
---------------------------------
  Au     7.224144    6.548428    7.981805
  Au     8.870167    4.558443    7.009359
  Au    11.017945    9.287893    8.411283
  Au    10.317770    6.637031    8.010846
  Au     6.410670    9.139128    8.666003
  Au     8.649246   10.897291    8.806437
  Au     8.749586    8.163871    9.799014
  Au    10.955362    8.229995    5.715411
  Au    10.093025   10.929489    6.293701
  Au     8.605046    6.675049    5.293246
  Au     4.778953   10.269205    6.780315
  Au     7.326877   11.076820    6.269857
  Au     6.306002    8.191638    5.795906
  Au     8.574422    9.317317    4.443175
  Cr     8.664938    8.742817    7.121321

 Total Charge           Charge          ....    0
 Multiplicity           Mult            ....    5
 Number of Electrons    NEL             ....  290
 Basis Dimension        Dim             ....  605

ORBITAL ENERGIES
----------------

  NO   OCC          E(Eh)            E(eV)
   0   2.0000    -220.600093     -6002.8337
   1   2.0000     -26.453456      -719.8351
   2   2.0000     -22.383218      -609.0783
   3   2.0000     -22.381505      -609.0317
   4   2.0000     -22.380831      -609.0134
   5   2.0000      -4.715337      -128.3109
   6   2.0000      -4.715217      -128.3076
   7   2.0000      -4.714585      -128.2904
   8   2.0000      -4.714375      -128.2847
   9   2.0000      -4.714182      -128.2794
  10   2.0000      -4.713925      -128.2724
  11   2.0000      -4.711024      -128.1935
  12   2.0000      -4.710604      -128.1821
  13   2.0000      -4.710004      -128.1657
  14   2.0000      -4.709727      -128.1582
  15   2.0000      -4.706686      -128.0754
  16   2.0000      -4.706644      -128.0743
  17   2.0000      -4.703338      -127.9843
  18   2.0000      -4.703086      -127.9775
  19   2.0000      -3.495382       -95.1142
  20   2.0000      -2.755843       -74.9903
  21   2.0000      -2.755730       -74.9872
  22   2.0000      -2.755415       -74.9787
  23   2.0000      -2.755162       -74.9718
  24   2.0000      -2.753151       -74.9170
  25   2.0000      -2.752880       -74.9097
  26   2.0000      -2.752070       -74.8876
  27   2.0000      -2.751930       -74.8838
  28   2.0000      -2.751787       -74.8799
  29   2.0000      -2.751446       -74.8706
  30   2.0000      -2.750415       -74.8426
  31   2.0000      -2.750321       -74.8400
  32   2.0000      -2.749825       -74.8265
  33   2.0000      -2.749590       -74.8201
  34   2.0000      -2.749224       -74.8102
  35   2.0000      -2.748801       -74.7987
  36   2.0000      -2.748350       -74.7864
  37   2.0000      -2.747738       -74.7698
  38   2.0000      -2.747654       -74.7675
  39   2.0000      -2.747385       -74.7601
  40   2.0000      -2.746881       -74.7464
  41   2.0000      -2.746631       -74.7396
  42   2.0000      -2.746093       -74.7250
  43   2.0000      -2.745869       -74.7189
  44   2.0000      -2.745460       -74.7078
  45   2.0000      -2.744978       -74.6947
  46   2.0000      -2.744902       -74.6926
  47   2.0000      -2.744026       -74.6688
  48   2.0000      -2.743713       -74.6602
  49   2.0000      -2.743268       -74.6481
  50   2.0000      -2.742539       -74.6283
  51   2.0000      -2.742375       -74.6238
  52   2.0000      -2.740511       -74.5731
  53   2.0000      -2.740438       -74.5711
  54   2.0000      -2.740135       -74.5629
  55   2.0000      -2.739627       -74.5490
  56   2.0000      -2.739259       -74.5390
  57   2.0000      -2.738981       -74.5315
  58   2.0000      -2.737325       -74.4864
  59   2.0000      -2.737080       -74.4797
  60   2.0000      -2.736863       -74.4738
  61   2.0000      -2.736695       -74.4693
  62   2.0000      -2.251838       -61.2756
  63   2.0000      -2.250150       -61.2297
  64   2.0000      -2.249743       -61.2186
  65   2.0000      -0.578472       -15.7410
  66   2.0000      -0.551890       -15.0177
  67   2.0000      -0.551139       -14.9973
  68   2.0000      -0.548823       -14.9342
  69   2.0000      -0.546496       -14.8709
  70   2.0000      -0.544999       -14.8302
  71   2.0000      -0.543685       -14.7944
  72   2.0000      -0.542371       -14.7587
  73   2.0000      -0.540647       -14.7117
  74   2.0000      -0.538393       -14.6504
  75   2.0000      -0.538082       -14.6420
  76   2.0000      -0.536489       -14.5986
  77   2.0000      -0.536351       -14.5949
  78   2.0000      -0.534628       -14.5480
  79   2.0000      -0.533231       -14.5100
  80   2.0000      -0.531235       -14.4556
  81   2.0000      -0.528249       -14.3744
  82   2.0000      -0.528194       -14.3729
  83   2.0000      -0.525878       -14.3099
  84   2.0000      -0.525785       -14.3073
  85   2.0000      -0.523974       -14.2580
  86   2.0000      -0.519225       -14.1288
  87   2.0000      -0.518257       -14.1025
  88   2.0000      -0.517020       -14.0688
  89   2.0000      -0.508299       -13.8315
  90   2.0000      -0.499220       -13.5845
  91   2.0000      -0.498801       -13.5731
  92   2.0000      -0.497224       -13.5302
  93   2.0000      -0.495278       -13.4772
  94   2.0000      -0.492117       -13.3912
  95   2.0000      -0.490537       -13.3482
  96   2.0000      -0.487079       -13.2541
  97   2.0000      -0.483644       -13.1606
  98   2.0000      -0.482210       -13.1216
  99   2.0000      -0.471845       -12.8396
 100   2.0000      -0.471217       -12.8225
 101   2.0000      -0.467962       -12.7339
 102   2.0000      -0.466518       -12.6946
 103   2.0000      -0.463428       -12.6105
 104   2.0000      -0.459173       -12.4947
 105   2.0000      -0.455986       -12.4080
 106   2.0000      -0.455076       -12.3832
 107   2.0000      -0.454554       -12.3690
 108   2.0000      -0.452136       -12.3032
 109   2.0000      -0.450665       -12.2632
 110   2.0000      -0.449984       -12.2447
 111   2.0000      -0.448893       -12.2150
 112   2.0000      -0.447116       -12.1667
 113   2.0000      -0.446817       -12.1585
 114   2.0000      -0.445016       -12.1095
 115   2.0000      -0.442953       -12.0534
 116   2.0000      -0.442052       -12.0289
 117   2.0000      -0.440578       -11.9887
 118   2.0000      -0.437778       -11.9125
 119   2.0000      -0.437622       -11.9083
 120   2.0000      -0.436164       -11.8686
 121   2.0000      -0.433226       -11.7887
 122   2.0000      -0.432172       -11.7600
 123   2.0000      -0.431582       -11.7440
 124   2.0000      -0.429541       -11.6884
 125   2.0000      -0.426475       -11.6050
 126   2.0000      -0.425192       -11.5701
 127   2.0000      -0.423949       -11.5362
 128   2.0000      -0.422309       -11.4916
 129   2.0000      -0.421193       -11.4612
 130   2.0000      -0.418712       -11.3937
 131   2.0000      -0.414929       -11.2908
 132   2.0000      -0.410454       -11.1690
 133   2.0000      -0.398405       -10.8412
 134   2.0000      -0.394423       -10.7328
 135   2.0000      -0.390210       -10.6182
 136   2.0000      -0.365916        -9.9571
 137   2.0000      -0.352319        -9.5871
 138   2.0000      -0.342175        -9.3111
 139   2.0000      -0.256599        -6.9824
 140   2.0000      -0.253138        -6.8882
 141   2.0000      -0.222886        -6.0650
 142   1.2000      -0.169169        -4.6033
 143   1.2000      -0.160868        -4.3774
 144   1.2000      -0.151043        -4.1101
 145   1.2000      -0.174606        -4.7513
 146   1.2000      -0.156263        -4.2521
 147   0.0000      -0.024186        -0.6581
 148   0.0000       0.004017         0.1093
 149   0.0000       0.013715         0.3732
 150   0.0000       0.023231         0.6322
 151   0.0000       0.027089         0.7371

MULLIKEN ATOMIC CHARGES AND SPIN DENSITIES
------------------------------------------
   0 Au:    0.423792    0.020651
   1 Au:    0.357780    0.019839
   2 Au:    0.660308    0.023967
   3 Au:    0.320723    0.030433
   4 Au:    0.378058    0.024067
   5 Au:    0.662137    0.023376
   6 Au:    0.741757    0.016483
   7 Au:    0.664016    0.022411
   8 Au:    0.655522    0.025151
   9 Au:    0.372120    0.024930
  10 Au:    0.357429    0.019427
  11 Au:    0.320383    0.030526
  12 Au:    0.432176    0.019911
  13 Au:    0.741594    0.016502
  14 Cr:   -7.087797    2.682328
Sum of atomic charges       :    0.0000000

LOEWDIN ATOMIC CHARGES AND SPIN DENSITIES
-----------------------------------------
   0 Au:    0.039191    0.059517
   1 Au:    0.195712    0.031700
   2 Au:    0.107755    0.067926
   3 Au:    0.037663    0.060997
   4 Au:    0.026001    0.062176
   5 Au:    0.136575    0.067597
   6 Au:    0.136453    0.064200
   7 Au:    0.135842    0.066069
   8 Au:    0.106922    0.068950
   9 Au:    0.026745    0.063567
  10 Au:    0.194699    0.030840
  11 Au:    0.038018    0.061293
  12 Au:    0.041482    0.058962
  13 Au:    0.136889    0.064421
  14 Cr:   -1.359948    2.171783

  Mayer bond orders larger than 0.100000
B(  0-Au,  1-Au) :   0.2384 B(  0-Au,  3-Au) :   0.1119 B(  0-Au,  4-Au) :   0.1591
B(  0-Au,  8-Au) :   0.1536 B(  0-Au,  9-Au) :   0.1133 B(  0-Au, 14-Cr) :   0.4012
B(  1-Au,  3-Au) :   0.2525 B(  1-Au,  9-Au) :   0.2339 B(  1-Au, 14-Cr) :   0.4757
B(  2-Au,  3-Au) :   0.1466 B(  2-Au,  8-Au) :   0.1081 B(  2-Au, 12-Au) :   0.1536
B(  2-Au, 14-Cr) :   0.2962 B(  3-Au,  6-Au) :   0.1028 B(  3-Au,  7-Au) :   0.1115
B(  3-Au,  9-Au) :   0.1213 B(  3-Au, 11-Au) :   0.1332 B(  3-Au, 14-Cr) :   0.3635
B(  4-Au,  6-Au) :   0.1125 B(  4-Au,  7-Au) :   0.1530 B(  4-Au, 10-Au) :   0.2306
B(  4-Au, 11-Au) :   0.1201 B(  4-Au, 12-Au) :   0.1128 B(  4-Au, 14-Cr) :   0.4213
B(  5-Au,  9-Au) :   0.1538 B(  5-Au, 11-Au) :   0.1131 B(  5-Au, 14-Cr) :   0.3120
B(  6-Au, 13-Au) :   0.1722 B(  6-Au, 14-Cr) :   0.2114 B(  7-Au, 14-Cr) :   0.3125
B(  8-Au, 11-Au) :   0.1461 B(  8-Au, 14-Cr) :   0.3031 B(  9-Au, 12-Au) :   0.1557
B(  9-Au, 13-Au) :   0.1130 B(  9-Au, 14-Cr) :   0.4235 B( 10-Au, 11-Au) :   0.2545
B( 10-Au, 12-Au) :   0.2384 B( 10-Au, 14-Cr) :   0.4776 B( 11-Au, 12-Au) :   0.1122
B( 11-Au, 13-Au) :   0.1008 B( 11-Au, 14-Cr) :   0.3625 B( 12-Au, 14-Cr) :   0.3926
B( 13-Au, 14-Cr) :   0.2118

FINAL SINGLE POINT ENERGY     -2937.928683594542

DIPOLE MOMENT
-------------
                                X             Y             Z
Electronic contribution:     -8.75033      -6.32490      -1.08266
Nuclear contribution   :      8.62633       6.23183       1.06167
                        -----------------------------------------
Total Dipole Moment    :     -0.12400      -0.09307      -0.02099
                        -----------------------------------------
Magnitude (a.u.)       :      0.15646
Magnitude (Debye)      :      0.39768

Rotational constants in cm-1:     0.001212     0.000997     0.000910
Rotational constants in MHz :    36.341299    29.879706    27.282705

                             ****ORCA TERMINATED NORMALLY****
TOTAL RUN TIME: 0 days 3 hours 55 minutes 5 seconds 123 msec
