                         Program Version 5.0.3 -  RELEASE  -
|  1> !RI-B2PLYP def2-TZVP def2-TZVP/C
|  2> !RIJCOSX
|  3> %pal nprocs 6 end
|  4>
|  5> *xyzfile 0 5 pbe.xyz
|  6>
|  7> $new_job
|  8>
|  9> !RI-B2PLYP def2-TZVP def2-TZVP/C
| 10> !RIJCOSX
| 11> %pal nprocs 6 end
| 12>
| 13> *xyzfile 0 3 pbe.xyz
| 14>
| 15>
| 16>
| 17>
| 18>
| 19>                          ****END OF INPUT****
 Total Charge           Charge          ....    0
 Multiplicity           Mult            ....    5
 Number of Electrons    NEL             ....  292
MP2 TOTAL ENERGY:    -3161.743392239 Eh
FINAL SINGLE POINT ENERGY     -3161.743392238937

CARTESIAN COORDINATES (ANGSTROEM)
---------------------------------
  Au     9.111546    7.616935   10.022949
  Au     7.046061    5.537509    9.757087
  Au     5.705755    9.310820    7.430289
  Au     3.756002    7.841357    6.114502
  Au     5.685929    9.486720    4.662723
  Au     8.180196    9.877759    8.533173
  Au     4.980818    6.431928    8.142377
  Au     6.326386    8.288939    9.929989
  Au     7.111678    4.794786    7.005406
  Au     8.221004    9.193384    5.702575
  Au    10.210779    8.237784    7.375035
  Au     8.967239    6.382546    5.610272
  Au     9.576685    5.519120    8.281182
  Au     6.251926    6.871497    5.394792
  Fe     7.632341    7.342161    7.758810

 Multiplicity           Mult            ....    3
 Number of Electrons    NEL             ....  292
 Basis Dimension        Dim             ....  605

ORBITAL ENERGIES
----------------
                 SPIN UP ORBITALS
  NO   OCC          E(Eh)            E(eV)
   0   1.0000    -258.337028     -7029.7079
   1   1.0000     -30.895984      -840.7225
   2   1.0000     -26.606057      -723.9876
   3   1.0000     -26.601381      -723.8604
   4   1.0000     -26.575561      -723.1578
   5   1.0000      -4.405822      -119.8885
   6   1.0000      -4.405434      -119.8780
   7   1.0000      -4.402734      -119.8045
   8   1.0000      -4.402669      -119.8027
   9   1.0000      -4.402535      -119.7991
  10   1.0000      -4.402467      -119.7972
  11   1.0000      -4.397368      -119.6585
  12   1.0000      -4.397083      -119.6507
  13   1.0000      -4.395011      -119.5943
  14   1.0000      -4.394983      -119.5936
  15   1.0000      -4.393890      -119.5638
  16   1.0000      -4.393847      -119.5627
  17   1.0000      -4.389753      -119.4512
  18   1.0000      -4.389657      -119.4486
  19   1.0000      -3.908034      -106.3430
  20   1.0000      -2.641145       -71.8692
  21   1.0000      -2.631869       -71.6168
  22   1.0000      -2.577794       -70.1453
  23   1.0000      -2.528189       -68.7955
  24   1.0000      -2.527841       -68.7861
  25   1.0000      -2.523669       -68.6725
  26   1.0000      -2.523510       -68.6682
  27   1.0000      -2.523422       -68.6658
  28   1.0000      -2.523265       -68.6615
  29   1.0000      -2.522693       -68.6460
  30   1.0000      -2.521777       -68.6211
  31   1.0000      -2.521603       -68.6163
  32   1.0000      -2.521513       -68.6139
  33   1.0000      -2.520006       -68.5728
  34   1.0000      -2.519834       -68.5682
  35   1.0000      -2.519172       -68.5502
  36   1.0000      -2.519046       -68.5467
  37   1.0000      -2.518740       -68.5384
  38   1.0000      -2.518495       -68.5317
  39   1.0000      -2.518349       -68.5278
  40   1.0000      -2.517365       -68.5010
  41   1.0000      -2.516998       -68.4910
  42   1.0000      -2.516047       -68.4651
  43   1.0000      -2.515191       -68.4418
  44   1.0000      -2.514838       -68.4322
  45   1.0000      -2.514727       -68.4292
  46   1.0000      -2.514150       -68.4135
  47   1.0000      -2.512857       -68.3783
  48   1.0000      -2.512745       -68.3753
  49   1.0000      -2.512205       -68.3606
  50   1.0000      -2.512047       -68.3563
  51   1.0000      -2.511265       -68.3350
  52   1.0000      -2.511150       -68.3319
  53   1.0000      -2.509837       -68.2961
  54   1.0000      -2.509654       -68.2912
  55   1.0000      -2.509440       -68.2853
  56   1.0000      -2.509357       -68.2831
  57   1.0000      -2.508077       -68.2482
  58   1.0000      -2.507788       -68.2404
  59   1.0000      -2.507729       -68.2388
  60   1.0000      -2.507189       -68.2241
  61   1.0000      -2.506113       -68.1948
  62   1.0000      -2.504878       -68.1612
  63   1.0000      -2.504801       -68.1591
  64   1.0000      -2.504699       -68.1563
  65   1.0000      -0.564071       -15.3492
  66   1.0000      -0.559441       -15.2232
  67   1.0000      -0.542016       -14.7490
  68   1.0000      -0.540366       -14.7041
  69   1.0000      -0.525650       -14.3037
  70   1.0000      -0.507469       -13.8089
  71   1.0000      -0.479987       -13.0611
  72   1.0000      -0.474470       -12.9110
  73   1.0000      -0.468980       -12.7616
  74   1.0000      -0.463067       -12.6007
  75   1.0000      -0.462084       -12.5739
  76   1.0000      -0.461021       -12.5450
  77   1.0000      -0.456038       -12.4094
  78   1.0000      -0.453844       -12.3497
  79   1.0000      -0.451117       -12.2755
  80   1.0000      -0.450481       -12.2582
  81   1.0000      -0.450375       -12.2553
  82   1.0000      -0.450113       -12.2482
  83   1.0000      -0.446250       -12.1431
  84   1.0000      -0.445268       -12.1164
  85   1.0000      -0.441778       -12.0214
  86   1.0000      -0.440248       -11.9798
  87   1.0000      -0.439083       -11.9481
  88   1.0000      -0.438878       -11.9425
  89   1.0000      -0.438404       -11.9296
  90   1.0000      -0.437493       -11.9048
  91   1.0000      -0.433859       -11.8059
  92   1.0000      -0.431314       -11.7367
  93   1.0000      -0.431247       -11.7348
  94   1.0000      -0.429020       -11.6742
  95   1.0000      -0.421041       -11.4571
  96   1.0000      -0.419943       -11.4272
  97   1.0000      -0.415081       -11.2949
  98   1.0000      -0.410610       -11.1733
  99   1.0000      -0.407070       -11.0769
 100   1.0000      -0.406942       -11.0735
 101   1.0000      -0.406472       -11.0607
 102   1.0000      -0.399830       -10.8799
 103   1.0000      -0.398500       -10.8437
 104   1.0000      -0.393289       -10.7019
 105   1.0000      -0.393185       -10.6991
 106   1.0000      -0.380797       -10.3620
 107   1.0000      -0.378902       -10.3105
 108   1.0000      -0.377063       -10.2604
 109   1.0000      -0.375231       -10.2105
 110   1.0000      -0.374694       -10.1959
 111   1.0000      -0.374130       -10.1806
 112   1.0000      -0.372723       -10.1423
 113   1.0000      -0.372439       -10.1346
 114   1.0000      -0.370281       -10.0759
 115   1.0000      -0.369995       -10.0681
 116   1.0000      -0.367331        -9.9956
 117   1.0000      -0.367209        -9.9923
 118   1.0000      -0.366070        -9.9613
 119   1.0000      -0.365287        -9.9400
 120   1.0000      -0.364295        -9.9130
 121   1.0000      -0.364002        -9.9050
 122   1.0000      -0.362874        -9.8743
 123   1.0000      -0.362104        -9.8534
 124   1.0000      -0.359457        -9.7813
 125   1.0000      -0.358309        -9.7501
 126   1.0000      -0.354903        -9.6574
 127   1.0000      -0.353136        -9.6093
 128   1.0000      -0.352312        -9.5869
 129   1.0000      -0.352063        -9.5801
 130   1.0000      -0.350681        -9.5425
 131   1.0000      -0.346209        -9.4208
 132   1.0000      -0.344475        -9.3736
 133   1.0000      -0.343884        -9.3576
 134   1.0000      -0.341464        -9.2917
 135   1.0000      -0.341441        -9.2911
 136   1.0000      -0.338738        -9.2175
 137   1.0000      -0.335680        -9.1343
 138   1.0000      -0.331932        -9.0323
 139   1.0000      -0.326129        -8.8744
 140   1.0000      -0.318926        -8.6784
 141   1.0000      -0.318180        -8.6581
 142   1.0000      -0.307282        -8.3616
 143   1.0000      -0.299450        -8.1484
 144   1.0000      -0.241669        -6.5762
 145   1.0000      -0.223748        -6.0885
 146   1.0000      -0.206439        -5.6175
 147   0.0000      -0.121602        -3.3090
 148   0.0000      -0.115044        -3.1305
 149   0.0000      -0.084784        -2.3071
 150   0.0000      -0.067749        -1.8435
 151   0.0000      -0.060625        -1.6497

                 SPIN DOWN ORBITALS
  NO   OCC          E(Eh)            E(eV)
   0   1.0000    -258.335066     -7029.6545
   1   1.0000     -30.804023      -838.2201
   2   1.0000     -26.513202      -721.4609
   3   1.0000     -26.512403      -721.4392
   4   1.0000     -26.505465      -721.2504
   5   1.0000      -4.406671      -119.9116
   6   1.0000      -4.406268      -119.9006
   7   1.0000      -4.403406      -119.8228
   8   1.0000      -4.403336      -119.8209
   9   1.0000      -4.403195      -119.8170
  10   1.0000      -4.403121      -119.8150
  11   1.0000      -4.398506      -119.6894
  12   1.0000      -4.398231      -119.6820
  13   1.0000      -4.394983      -119.5936
  14   1.0000      -4.394953      -119.5928
  15   1.0000      -4.394063      -119.5685
  16   1.0000      -4.394022      -119.5674
  17   1.0000      -4.390748      -119.4783
  18   1.0000      -4.390653      -119.4757
  19   1.0000      -3.666153       -99.7611
  20   1.0000      -2.528519       -68.8045
  21   1.0000      -2.528178       -68.7952
  22   1.0000      -2.523643       -68.6718
  23   1.0000      -2.523577       -68.6700
  24   1.0000      -2.523493       -68.6677
  25   1.0000      -2.523344       -68.6637
  26   1.0000      -2.522709       -68.6464
  27   1.0000      -2.521706       -68.6191
  28   1.0000      -2.521603       -68.6163
  29   1.0000      -2.521422       -68.6114
  30   1.0000      -2.519767       -68.5664
  31   1.0000      -2.519731       -68.5654
  32   1.0000      -2.519697       -68.5644
  33   1.0000      -2.519556       -68.5606
  34   1.0000      -2.519137       -68.5492
  35   1.0000      -2.519106       -68.5484
  36   1.0000      -2.518967       -68.5446
  37   1.0000      -2.517726       -68.5108
  38   1.0000      -2.517499       -68.5046
  39   1.0000      -2.516001       -68.4639
  40   1.0000      -2.515343       -68.4460
  41   1.0000      -2.515016       -68.4371
  42   1.0000      -2.514849       -68.4325
  43   1.0000      -2.514658       -68.4273
  44   1.0000      -2.513866       -68.4058
  45   1.0000      -2.513349       -68.3917
  46   1.0000      -2.512320       -68.3637
  47   1.0000      -2.512093       -68.3575
  48   1.0000      -2.510845       -68.3236
  49   1.0000      -2.510811       -68.3226
  50   1.0000      -2.510501       -68.3142
  51   1.0000      -2.510301       -68.3088
  52   1.0000      -2.509953       -68.2993
  53   1.0000      -2.509617       -68.2901
  54   1.0000      -2.509219       -68.2793
  55   1.0000      -2.508963       -68.2723
  56   1.0000      -2.508900       -68.2706
  57   1.0000      -2.508302       -68.2544
  58   1.0000      -2.506729       -68.2116
  59   1.0000      -2.506672       -68.2100
  60   1.0000      -2.506562       -68.2070
  61   1.0000      -2.505110       -68.1675
  62   1.0000      -2.348468       -63.9051
  63   1.0000      -2.338740       -63.6404
  64   1.0000      -2.335305       -63.5469
  65   1.0000      -0.525036       -14.2870
  66   1.0000      -0.485343       -13.2068
  67   1.0000      -0.481089       -13.0911
  68   1.0000      -0.477518       -12.9939
  69   1.0000      -0.470234       -12.7957
  70   1.0000      -0.468749       -12.7553
  71   1.0000      -0.466734       -12.7005
  72   1.0000      -0.464518       -12.6402
  73   1.0000      -0.462241       -12.5782
  74   1.0000      -0.462061       -12.5733
  75   1.0000      -0.460033       -12.5181
  76   1.0000      -0.459861       -12.5135
  77   1.0000      -0.454077       -12.3561
  78   1.0000      -0.453775       -12.3479
  79   1.0000      -0.453761       -12.3475
  80   1.0000      -0.452692       -12.3184
  81   1.0000      -0.450791       -12.2666
  82   1.0000      -0.448240       -12.1972
  83   1.0000      -0.443825       -12.0771
  84   1.0000      -0.443167       -12.0592
  85   1.0000      -0.441792       -12.0218
  86   1.0000      -0.440609       -11.9896
  87   1.0000      -0.437878       -11.9153
  88   1.0000      -0.436430       -11.8759
  89   1.0000      -0.432246       -11.7620
  90   1.0000      -0.429276       -11.6812
  91   1.0000      -0.421839       -11.4788
  92   1.0000      -0.417917       -11.3721
  93   1.0000      -0.414869       -11.2892
  94   1.0000      -0.414242       -11.2721
  95   1.0000      -0.413642       -11.2558
  96   1.0000      -0.410287       -11.1645
  97   1.0000      -0.406340       -11.0571
  98   1.0000      -0.405281       -11.0283
  99   1.0000      -0.397294       -10.8109
 100   1.0000      -0.395471       -10.7613
 101   1.0000      -0.393119       -10.6973
 102   1.0000      -0.383345       -10.4313
 103   1.0000      -0.383012       -10.4223
 104   1.0000      -0.382401       -10.4057
 105   1.0000      -0.378335       -10.2950
 106   1.0000      -0.378200       -10.2914
 107   1.0000      -0.376753       -10.2520
 108   1.0000      -0.375676       -10.2227
 109   1.0000      -0.375382       -10.2147
 110   1.0000      -0.373079       -10.1520
 111   1.0000      -0.372892       -10.1469
 112   1.0000      -0.371445       -10.1075
 113   1.0000      -0.370139       -10.0720
 114   1.0000      -0.366667        -9.9775
 115   1.0000      -0.366399        -9.9702
 116   1.0000      -0.366217        -9.9653
 117   1.0000      -0.366010        -9.9596
 118   1.0000      -0.364289        -9.9128
 119   1.0000      -0.360602        -9.8125
 120   1.0000      -0.360352        -9.8057
 121   1.0000      -0.357491        -9.7278
 122   1.0000      -0.356640        -9.7047
 123   1.0000      -0.354290        -9.6407
 124   1.0000      -0.353603        -9.6220
 125   1.0000      -0.353313        -9.6141
 126   1.0000      -0.347884        -9.4664
 127   1.0000      -0.347657        -9.4602
 128   1.0000      -0.347195        -9.4477
 129   1.0000      -0.345701        -9.4070
 130   1.0000      -0.344661        -9.3787
 131   1.0000      -0.341540        -9.2938
 132   1.0000      -0.336622        -9.1599
 133   1.0000      -0.334724        -9.1083
 134   1.0000      -0.331738        -9.0270
 135   1.0000      -0.323259        -8.7963
 136   1.0000      -0.322769        -8.7830
 137   1.0000      -0.319372        -8.6906
 138   1.0000      -0.316274        -8.6062
 139   1.0000      -0.316080        -8.6010
 140   1.0000      -0.242484        -6.5983
 141   1.0000      -0.230996        -6.2857
 142   1.0000      -0.220171        -5.9912
 143   1.0000      -0.218569        -5.9476
 144   1.0000      -0.215240        -5.8570
 145   0.0000      -0.086896        -2.3646
 146   0.0000      -0.073454        -1.9988
 147   0.0000      -0.060351        -1.6422
 148   0.0000      -0.055730        -1.5165
 149   0.0000      -0.046029        -1.2525

MULLIKEN ATOMIC CHARGES AND SPIN POPULATIONS
--------------------------------------------
   0 Au:    0.234655   -0.178296
   1 Au:    0.235534    0.020733
   2 Au:   -0.213307   -0.207397
   3 Au:    0.379114    0.011548
   4 Au:    0.378691    0.011449
   5 Au:    0.347887   -0.188804
   6 Au:   -0.087873    0.046846
   7 Au:    0.350426   -0.192598
   8 Au:    0.347513   -0.189270
   9 Au:   -0.089622    0.046936
  10 Au:    0.236308    0.020762
  11 Au:    0.350145   -0.192781
  12 Au:    0.236270   -0.183462
  13 Au:   -0.214429   -0.199720
  14 Fe:   -2.491313    3.374054
Sum of atomic charges         :   -0.0000000

LOEWDIN ATOMIC CHARGES AND SPIN POPULATIONS
-------------------------------------------
   0 Au:    0.051862   -0.141269
   1 Au:    0.040996   -0.066443
   2 Au:   -0.075396   -0.123358
   3 Au:    0.104881   -0.028607
   4 Au:    0.104643   -0.028671
   5 Au:    0.071803   -0.159474
   6 Au:   -0.030998   -0.042463
   7 Au:    0.071296   -0.159192
   8 Au:    0.071725   -0.159025
   9 Au:   -0.031340   -0.042517
  10 Au:    0.040977   -0.066324
  11 Au:    0.071320   -0.158620
  12 Au:    0.052646   -0.143598
  13 Au:   -0.076320   -0.120447
  14 Fe:   -0.468097    3.440009

  Mayer bond orders larger than 0.100000
B(  0-Au,  1-Au) :   0.1122 B(  0-Au,  5-Au) :   0.1454 B(  0-Au,  7-Au) :   0.1430
B(  0-Au, 10-Au) :   0.1152 B(  0-Au, 12-Au) :   0.2340 B(  0-Au, 14-Fe) :   0.3942
B(  1-Au,  6-Au) :   0.3124 B(  1-Au,  7-Au) :   0.1246 B(  1-Au,  8-Au) :   0.1234
B(  1-Au, 12-Au) :   0.1171 B(  1-Au, 14-Fe) :   0.4303 B(  2-Au,  3-Au) :   0.2810
B(  2-Au,  4-Au) :   0.2804 B(  2-Au,  5-Au) :   0.2532 B(  2-Au,  6-Au) :   0.1269
B(  2-Au,  7-Au) :   0.2489 B(  2-Au,  9-Au) :   0.1266 B(  2-Au, 13-Au) :   0.2223
B(  2-Au, 14-Fe) :   0.3834 B(  3-Au,  4-Au) :   0.1056 B(  3-Au,  6-Au) :   0.3438
B(  3-Au, 13-Au) :   0.2803 B(  4-Au,  9-Au) :   0.3445 B(  4-Au, 13-Au) :   0.2800
B(  5-Au,  7-Au) :   0.1490 B(  5-Au, 10-Au) :   0.1210 B(  5-Au, 14-Fe) :   0.4588
B(  6-Au, 13-Au) :   0.1247 B(  6-Au, 14-Fe) :   0.4673 B(  7-Au, 14-Fe) :   0.4583
B(  8-Au, 11-Au) :   0.1488 B(  8-Au, 12-Au) :   0.1415 B(  8-Au, 13-Au) :   0.2565
B(  8-Au, 14-Fe) :   0.4594 B(  9-Au, 10-Au) :   0.3130 B(  9-Au, 13-Au) :   0.1249
B(  9-Au, 14-Fe) :   0.4673 B( 10-Au, 11-Au) :   0.1264 B( 10-Au, 12-Au) :   0.1153
B( 10-Au, 14-Fe) :   0.4300 B( 11-Au, 12-Au) :   0.1392 B( 11-Au, 13-Au) :   0.2522
B( 11-Au, 14-Fe) :   0.4584 B( 12-Au, 14-Fe) :   0.3936 B( 13-Au, 14-Fe) :   0.3837

MP2 TOTAL ENERGY:    -3161.742783666 Eh
FINAL SINGLE POINT ENERGY     -3161.742783665581

DIPOLE MOMENT
-------------
                                X             Y             Z
Electronic contribution:    -15.66063       7.12001     -12.75767
Nuclear contribution   :     15.60088      -7.09262      12.71077
                        -----------------------------------------
Total Dipole Moment    :     -0.05975       0.02740      -0.04690
                        -----------------------------------------
Magnitude (a.u.)       :      0.08074
Magnitude (Debye)      :      0.20524

Rotational constants in cm-1:     0.001295     0.000988     0.000931
Rotational constants in MHz :    38.810907    29.619749    27.909082

                             ****ORCA TERMINATED NORMALLY****
TOTAL RUN TIME: 0 days 0 hours 48 minutes 59 seconds 150 msec
