                         Program Version 5.0.3 -  RELEASE  -
|  1> !R2SCAN def2-TZVP VERYSLOWCONV
|  2> !NOTRAH
|  3> %pal nprocs 6 end
|  4>
|  5> *xyzfile 0 5 pbe.xyz
|  6>
|  7> $new_job
|  8>
|  9> !R2SCAN def2-TZVP VERYSLOWCONV
| 10> !NOTRAH
| 11>
| 12> %pal nprocs 6 end
| 13>
| 14> *xyzfile 0 3 pbe.xyz
| 15>
| 16>
| 17>
| 18>
| 19>
| 20>                          ****END OF INPUT****
 Total Charge           Charge          ....    0
 Multiplicity           Mult            ....    5
 Number of Electrons    NEL             ....  292
FINAL SINGLE POINT ENERGY     -3165.570876657405

CARTESIAN COORDINATES (ANGSTROEM)
---------------------------------
  Au     9.111546    7.616935   10.022949
  Au     7.046061    5.537509    9.757087
  Au     5.705755    9.310820    7.430289
  Au     3.756002    7.841357    6.114502
  Au     5.685929    9.486720    4.662723
  Au     8.180196    9.877759    8.533173
  Au     4.980818    6.431928    8.142377
  Au     6.326386    8.288939    9.929989
  Au     7.111678    4.794786    7.005406
  Au     8.221004    9.193384    5.702575
  Au    10.210779    8.237784    7.375035
  Au     8.967239    6.382546    5.610272
  Au     9.576685    5.519120    8.281182
  Au     6.251926    6.871497    5.394792
  Fe     7.632341    7.342161    7.758810

 Multiplicity           Mult            ....    3
 Number of Electrons    NEL             ....  292
 Basis Dimension        Dim             ....  605

ORBITAL ENERGIES
----------------
                 SPIN UP ORBITALS
  NO   OCC          E(Eh)            E(eV)
   0   1.0000    -255.634129     -6956.1583
   1   1.0000     -29.931121      -814.4672
   2   1.0000     -25.766899      -701.1530
   3   1.0000     -25.766064      -701.1302
   4   1.0000     -25.752018      -700.7480
   5   1.0000      -4.123339      -112.2018
   6   1.0000      -4.123096      -112.1951
   7   1.0000      -4.122338      -112.1745
   8   1.0000      -4.122273      -112.1728
   9   1.0000      -4.122144      -112.1692
  10   1.0000      -4.122079      -112.1675
  11   1.0000      -4.116370      -112.0121
  12   1.0000      -4.116344      -112.0114
  13   1.0000      -4.116139      -112.0058
  14   1.0000      -4.115935      -112.0003
  15   1.0000      -4.115040      -111.9759
  16   1.0000      -4.115000      -111.9749
  17   1.0000      -4.109289      -111.8194
  18   1.0000      -4.109208      -111.8172
  19   1.0000      -3.510329       -95.5209
  20   1.0000      -2.314455       -62.9795
  21   1.0000      -2.314301       -62.9753
  22   1.0000      -2.311008       -62.8857
  23   1.0000      -2.310886       -62.8824
  24   1.0000      -2.310617       -62.8751
  25   1.0000      -2.310450       -62.8705
  26   1.0000      -2.308645       -62.8214
  27   1.0000      -2.308427       -62.8155
  28   1.0000      -2.307831       -62.7993
  29   1.0000      -2.307712       -62.7960
  30   1.0000      -2.307246       -62.7834
  31   1.0000      -2.307121       -62.7800
  32   1.0000      -2.306942       -62.7751
  33   1.0000      -2.306642       -62.7669
  34   1.0000      -2.306470       -62.7622
  35   1.0000      -2.306126       -62.7529
  36   1.0000      -2.306066       -62.7512
  37   1.0000      -2.305518       -62.7363
  38   1.0000      -2.305248       -62.7290
  39   1.0000      -2.304708       -62.7143
  40   1.0000      -2.304325       -62.7039
  41   1.0000      -2.302773       -62.6616
  42   1.0000      -2.302741       -62.6608
  43   1.0000      -2.302415       -62.6519
  44   1.0000      -2.302165       -62.6451
  45   1.0000      -2.301469       -62.6262
  46   1.0000      -2.300859       -62.6096
  47   1.0000      -2.300523       -62.6004
  48   1.0000      -2.300470       -62.5990
  49   1.0000      -2.300105       -62.5890
  50   1.0000      -2.300051       -62.5876
  51   1.0000      -2.299939       -62.5845
  52   1.0000      -2.299557       -62.5741
  53   1.0000      -2.299310       -62.5674
  54   1.0000      -2.297680       -62.5230
  55   1.0000      -2.297628       -62.5216
  56   1.0000      -2.296268       -62.4846
  57   1.0000      -2.295946       -62.4759
  58   1.0000      -2.294750       -62.4433
  59   1.0000      -2.293242       -62.4023
  60   1.0000      -2.293198       -62.4011
  61   1.0000      -2.293090       -62.3981
  62   1.0000      -2.286437       -62.2171
  63   1.0000      -2.284557       -62.1659
  64   1.0000      -2.255189       -61.3668
  65   1.0000      -0.448144       -12.1946
  66   1.0000      -0.401803       -10.9336
  67   1.0000      -0.397918       -10.8279
  68   1.0000      -0.394159       -10.7256
  69   1.0000      -0.391954       -10.6656
  70   1.0000      -0.386778       -10.5248
  71   1.0000      -0.384476       -10.4621
  72   1.0000      -0.382158       -10.3990
  73   1.0000      -0.380841       -10.3632
  74   1.0000      -0.370036       -10.0692
  75   1.0000      -0.369904       -10.0656
  76   1.0000      -0.365718        -9.9517
  77   1.0000      -0.358905        -9.7663
  78   1.0000      -0.358531        -9.7561
  79   1.0000      -0.357009        -9.7147
  80   1.0000      -0.356719        -9.7068
  81   1.0000      -0.354014        -9.6332
  82   1.0000      -0.353245        -9.6123
  83   1.0000      -0.349575        -9.5124
  84   1.0000      -0.347498        -9.4559
  85   1.0000      -0.346396        -9.4259
  86   1.0000      -0.344218        -9.3666
  87   1.0000      -0.343382        -9.3439
  88   1.0000      -0.342057        -9.3078
  89   1.0000      -0.341075        -9.2811
  90   1.0000      -0.337620        -9.1871
  91   1.0000      -0.330130        -8.9833
  92   1.0000      -0.328453        -8.9377
  93   1.0000      -0.324391        -8.8271
  94   1.0000      -0.323642        -8.8067
  95   1.0000      -0.322333        -8.7711
  96   1.0000      -0.322257        -8.7691
  97   1.0000      -0.321281        -8.7425
  98   1.0000      -0.316744        -8.6190
  99   1.0000      -0.310874        -8.4593
 100   1.0000      -0.308353        -8.3907
 101   1.0000      -0.305528        -8.3138
 102   1.0000      -0.304779        -8.2935
 103   1.0000      -0.303180        -8.2500
 104   1.0000      -0.302235        -8.2242
 105   1.0000      -0.299677        -8.1546
 106   1.0000      -0.295536        -8.0419
 107   1.0000      -0.288991        -7.8638
 108   1.0000      -0.287839        -7.8325
 109   1.0000      -0.285870        -7.7789
 110   1.0000      -0.285329        -7.7642
 111   1.0000      -0.285052        -7.7567
 112   1.0000      -0.283844        -7.7238
 113   1.0000      -0.283373        -7.7110
 114   1.0000      -0.282580        -7.6894
 115   1.0000      -0.279358        -7.6017
 116   1.0000      -0.277642        -7.5550
 117   1.0000      -0.276857        -7.5336
 118   1.0000      -0.276310        -7.5188
 119   1.0000      -0.274551        -7.4709
 120   1.0000      -0.273409        -7.4398
 121   1.0000      -0.272726        -7.4213
 122   1.0000      -0.270650        -7.3648
 123   1.0000      -0.269236        -7.3263
 124   1.0000      -0.268759        -7.3133
 125   1.0000      -0.268684        -7.3113
 126   1.0000      -0.266326        -7.2471
 127   1.0000      -0.265464        -7.2236
 128   1.0000      -0.264709        -7.2031
 129   1.0000      -0.261603        -7.1186
 130   1.0000      -0.260644        -7.0925
 131   1.0000      -0.259804        -7.0696
 132   1.0000      -0.259758        -7.0684
 133   1.0000      -0.259070        -7.0497
 134   1.0000      -0.258235        -7.0269
 135   1.0000      -0.256711        -6.9855
 136   1.0000      -0.254679        -6.9302
 137   1.0000      -0.254296        -6.9197
 138   1.0000      -0.250229        -6.8091
 139   1.0000      -0.249943        -6.8013
 140   1.0000      -0.249534        -6.7902
 141   1.0000      -0.246884        -6.7181
 142   1.0000      -0.240947        -6.5565
 143   1.0000      -0.239844        -6.5265
 144   1.0000      -0.215492        -5.8638
 145   1.0000      -0.206361        -5.6154
 146   1.0000      -0.192557        -5.2397
 147   0.0000      -0.182049        -4.9538
 148   0.0000      -0.178298        -4.8517
 149   0.0000      -0.141151        -3.8409
 150   0.0000      -0.127744        -3.4761
 151   0.0000      -0.120302        -3.2736

                 SPIN DOWN ORBITALS
  NO   OCC          E(Eh)            E(eV)
   0   1.0000    -255.633179     -6956.1324
   1   1.0000     -29.854567      -812.3841
   2   1.0000     -25.705574      -699.4842
   3   1.0000     -25.704983      -699.4681
   4   1.0000     -25.699274      -699.3128
   5   1.0000      -4.124222      -112.2258
   6   1.0000      -4.123964      -112.2188
   7   1.0000      -4.122695      -112.1842
   8   1.0000      -4.122627      -112.1824
   9   1.0000      -4.122496      -112.1788
  10   1.0000      -4.122425      -112.1769
  11   1.0000      -4.117006      -112.0294
  12   1.0000      -4.116783      -112.0233
  13   1.0000      -4.116363      -112.0119
  14   1.0000      -4.116342      -112.0114
  15   1.0000      -4.115191      -111.9800
  16   1.0000      -4.115150      -111.9789
  17   1.0000      -4.110459      -111.8513
  18   1.0000      -4.110379      -111.8491
  19   1.0000      -3.341611       -90.9298
  20   1.0000      -2.315295       -63.0024
  21   1.0000      -2.315054       -62.9958
  22   1.0000      -2.311188       -62.8906
  23   1.0000      -2.311067       -62.8873
  24   1.0000      -2.310660       -62.8763
  25   1.0000      -2.310532       -62.8728
  26   1.0000      -2.308898       -62.8283
  27   1.0000      -2.308705       -62.8231
  28   1.0000      -2.308003       -62.8040
  29   1.0000      -2.307940       -62.8022
  30   1.0000      -2.307717       -62.7962
  31   1.0000      -2.307496       -62.7902
  32   1.0000      -2.307472       -62.7895
  33   1.0000      -2.307219       -62.7826
  34   1.0000      -2.307081       -62.7789
  35   1.0000      -2.306667       -62.7676
  36   1.0000      -2.306446       -62.7616
  37   1.0000      -2.306005       -62.7496
  38   1.0000      -2.305839       -62.7451
  39   1.0000      -2.304707       -62.7143
  40   1.0000      -2.304447       -62.7072
  41   1.0000      -2.302950       -62.6664
  42   1.0000      -2.302728       -62.6604
  43   1.0000      -2.302555       -62.6557
  44   1.0000      -2.301998       -62.6406
  45   1.0000      -2.301799       -62.6351
  46   1.0000      -2.301691       -62.6322
  47   1.0000      -2.301477       -62.6264
  48   1.0000      -2.300854       -62.6094
  49   1.0000      -2.300402       -62.5971
  50   1.0000      -2.300382       -62.5966
  51   1.0000      -2.299807       -62.5809
  52   1.0000      -2.299727       -62.5787
  53   1.0000      -2.299638       -62.5763
  54   1.0000      -2.298481       -62.5448
  55   1.0000      -2.298426       -62.5434
  56   1.0000      -2.297816       -62.5268
  57   1.0000      -2.297463       -62.5172
  58   1.0000      -2.295365       -62.4600
  59   1.0000      -2.294875       -62.4467
  60   1.0000      -2.294767       -62.4438
  61   1.0000      -2.293896       -62.4201
  62   1.0000      -2.114859       -57.5482
  63   1.0000      -2.112074       -57.4725
  64   1.0000      -2.101549       -57.1861
  65   1.0000      -0.446201       -12.1417
  66   1.0000      -0.403061       -10.9678
  67   1.0000      -0.399776       -10.8784
  68   1.0000      -0.392119       -10.6701
  69   1.0000      -0.384153       -10.4533
  70   1.0000      -0.379620       -10.3300
  71   1.0000      -0.377720       -10.2783
  72   1.0000      -0.373521       -10.1640
  73   1.0000      -0.372415       -10.1339
  74   1.0000      -0.369793       -10.0626
  75   1.0000      -0.367449        -9.9988
  76   1.0000      -0.365413        -9.9434
  77   1.0000      -0.360192        -9.8013
  78   1.0000      -0.359552        -9.7839
  79   1.0000      -0.358252        -9.7485
  80   1.0000      -0.357492        -9.7279
  81   1.0000      -0.354569        -9.6483
  82   1.0000      -0.352952        -9.6043
  83   1.0000      -0.350441        -9.5360
  84   1.0000      -0.347509        -9.4562
  85   1.0000      -0.347266        -9.4496
  86   1.0000      -0.346370        -9.4252
  87   1.0000      -0.345337        -9.3971
  88   1.0000      -0.341618        -9.2959
  89   1.0000      -0.341334        -9.2882
  90   1.0000      -0.338626        -9.2145
  91   1.0000      -0.331073        -9.0089
  92   1.0000      -0.326167        -8.8754
  93   1.0000      -0.324182        -8.8214
  94   1.0000      -0.323354        -8.7989
  95   1.0000      -0.321190        -8.7400
  96   1.0000      -0.321123        -8.7382
  97   1.0000      -0.315933        -8.5970
  98   1.0000      -0.314701        -8.5635
  99   1.0000      -0.306627        -8.3437
 100   1.0000      -0.305635        -8.3168
 101   1.0000      -0.299087        -8.1386
 102   1.0000      -0.297630        -8.0989
 103   1.0000      -0.295812        -8.0495
 104   1.0000      -0.295113        -8.0304
 105   1.0000      -0.292812        -7.9678
 106   1.0000      -0.290755        -7.9119
 107   1.0000      -0.289843        -7.8870
 108   1.0000      -0.286242        -7.7891
 109   1.0000      -0.285786        -7.7766
 110   1.0000      -0.285369        -7.7653
 111   1.0000      -0.285180        -7.7602
 112   1.0000      -0.284760        -7.7487
 113   1.0000      -0.283563        -7.7161
 114   1.0000      -0.281479        -7.6594
 115   1.0000      -0.279815        -7.6142
 116   1.0000      -0.278859        -7.5881
 117   1.0000      -0.277363        -7.5474
 118   1.0000      -0.277337        -7.5467
 119   1.0000      -0.273549        -7.4436
 120   1.0000      -0.273355        -7.4384
 121   1.0000      -0.272801        -7.4233
 122   1.0000      -0.270700        -7.3661
 123   1.0000      -0.270560        -7.3623
 124   1.0000      -0.270011        -7.3474
 125   1.0000      -0.267808        -7.2874
 126   1.0000      -0.262822        -7.1518
 127   1.0000      -0.262535        -7.1439
 128   1.0000      -0.261824        -7.1246
 129   1.0000      -0.260604        -7.0914
 130   1.0000      -0.259474        -7.0606
 131   1.0000      -0.258978        -7.0471
 132   1.0000      -0.255939        -6.9644
 133   1.0000      -0.255596        -6.9551
 134   1.0000      -0.253361        -6.8943
 135   1.0000      -0.251656        -6.8479
 136   1.0000      -0.250934        -6.8282
 137   1.0000      -0.244223        -6.6456
 138   1.0000      -0.241216        -6.5638
 139   1.0000      -0.226084        -6.1521
 140   1.0000      -0.212484        -5.7820
 141   1.0000      -0.206296        -5.6136
 142   1.0000      -0.200440        -5.4543
 143   1.0000      -0.199803        -5.4369
 144   1.0000      -0.177937        -4.8419
 145   0.0000      -0.148391        -4.0379
 146   0.0000      -0.146370        -3.9829
 147   0.0000      -0.141532        -3.8513
 148   0.0000      -0.138560        -3.7704
 149   0.0000      -0.129273        -3.5177

MULLIKEN ATOMIC CHARGES AND SPIN POPULATIONS
--------------------------------------------
   0 Au:    0.246813   -0.152550
   1 Au:    0.249198    0.052175
   2 Au:   -0.166922   -0.155001
   3 Au:    0.360577   -0.062981
   4 Au:    0.360231   -0.063268
   5 Au:    0.354692   -0.122284
   6 Au:   -0.059615    0.069235
   7 Au:    0.357339   -0.126272
   8 Au:    0.354385   -0.122838
   9 Au:   -0.060649    0.069209
  10 Au:    0.249374    0.052358
  11 Au:    0.357083   -0.126651
  12 Au:    0.249554   -0.159279
  13 Au:   -0.169476   -0.146016
  14 Fe:   -2.682583    2.994165
Sum of atomic charges         :   -0.0000000

LOEWDIN ATOMIC CHARGES AND SPIN POPULATIONS
-------------------------------------------
   0 Au:    0.062016   -0.119940
   1 Au:    0.059351   -0.026226
   2 Au:   -0.054127   -0.105642
   3 Au:    0.082575   -0.072372
   4 Au:    0.082382   -0.072526
   5 Au:    0.094510   -0.104524
   6 Au:   -0.003834   -0.012038
   7 Au:    0.094318   -0.104845
   8 Au:    0.094393   -0.104377
   9 Au:   -0.004100   -0.012187
  10 Au:    0.059265   -0.026033
  11 Au:    0.094294   -0.104611
  12 Au:    0.062770   -0.123606
  13 Au:   -0.055016   -0.101461
  14 Fe:   -0.668798    3.090387

  Mayer bond orders larger than 0.100000
B(  0-Au,  1-Au) :   0.1223 B(  0-Au,  5-Au) :   0.1632 B(  0-Au,  7-Au) :   0.1605
B(  0-Au, 10-Au) :   0.1258 B(  0-Au, 12-Au) :   0.2638 B(  0-Au, 14-Fe) :   0.4325
B(  1-Au,  6-Au) :   0.3116 B(  1-Au,  7-Au) :   0.1330 B(  1-Au,  8-Au) :   0.1317
B(  1-Au, 12-Au) :   0.1287 B(  1-Au, 14-Fe) :   0.4446 B(  2-Au,  3-Au) :   0.3006
B(  2-Au,  4-Au) :   0.3001 B(  2-Au,  5-Au) :   0.2697 B(  2-Au,  6-Au) :   0.1215
B(  2-Au,  7-Au) :   0.2654 B(  2-Au,  9-Au) :   0.1212 B(  2-Au, 13-Au) :   0.1722
B(  2-Au, 14-Fe) :   0.4128 B(  3-Au,  4-Au) :   0.1491 B(  3-Au,  6-Au) :   0.3557
B(  3-Au, 13-Au) :   0.2995 B(  4-Au,  9-Au) :   0.3563 B(  4-Au, 13-Au) :   0.2988
B(  5-Au,  7-Au) :   0.1764 B(  5-Au, 10-Au) :   0.1288 B(  5-Au, 14-Fe) :   0.4884
B(  6-Au, 13-Au) :   0.1188 B(  6-Au, 14-Fe) :   0.4886 B(  7-Au, 14-Fe) :   0.4883
B(  8-Au, 11-Au) :   0.1765 B(  8-Au, 12-Au) :   0.1590 B(  8-Au, 13-Au) :   0.2727
B(  8-Au, 14-Fe) :   0.4891 B(  9-Au, 10-Au) :   0.3120 B(  9-Au, 13-Au) :   0.1188
B(  9-Au, 14-Fe) :   0.4885 B( 10-Au, 11-Au) :   0.1353 B( 10-Au, 12-Au) :   0.1264
B( 10-Au, 14-Fe) :   0.4443 B( 11-Au, 12-Au) :   0.1563 B( 11-Au, 13-Au) :   0.2687
B( 11-Au, 14-Fe) :   0.4885 B( 12-Au, 14-Fe) :   0.4306 B( 13-Au, 14-Fe) :   0.4137

FINAL SINGLE POINT ENERGY     -3165.559954829540

DIPOLE MOMENT
-------------
                                X             Y             Z
Electronic contribution:    -15.52855       7.06005     -12.65025
Nuclear contribution   :     15.60088      -7.09262      12.71077
                        -----------------------------------------
Total Dipole Moment    :      0.07233      -0.03257       0.06052
                        -----------------------------------------
Magnitude (a.u.)       :      0.09977
Magnitude (Debye)      :      0.25360

Rotational constants in cm-1:     0.001295     0.000988     0.000931
Rotational constants in MHz :    38.810907    29.619749    27.909082

                             ****ORCA TERMINATED NORMALLY****
TOTAL RUN TIME: 0 days 0 hours 6 minutes 18 seconds 378 msec
