                         Program Version 5.0.3 -  RELEASE  -
|  1> !RI-B2PLYP def2-TZVP def2-TZVP/C
|  2> !RIJCOSX VERYSLOWCONV
|  3>
|  4> %scf
|  5>   AutoTRAHIter 200
|  6>   maxiter 400
|  7> end
|  8>
|  9>
| 10> %pal nprocs 6 end
| 11>
| 12> *xyzfile 0 5 pbe.xyz
| 13>
| 14> $new_job
| 15>
| 16> !RI-B2PLYP def2-TZVP def2-TZVP/C
| 17> !RIJCOSX VERYSLOWCONV
| 18>
| 19> %scf
| 20>   AutoTRAHIter 200
| 21>   maxiter 400
| 22> end
| 23>
| 24>
| 25> %pal nprocs 6 end
| 26>
| 27> *xyzfile 0 3 pbe.xyz
| 28>
| 29>
| 30>
| 31>
| 32>
| 33>                          ****END OF INPUT****
 Total Charge           Charge          ....    0
 Multiplicity           Mult            ....    5
 Number of Electrons    NEL             ....  290
MP2 TOTAL ENERGY:    -2942.505577226 Eh
FINAL SINGLE POINT ENERGY     -2942.505577225764

CARTESIAN COORDINATES (ANGSTROEM)
---------------------------------
  Au     9.028935   10.595957    5.983178
  Au    11.495132    7.997151    6.959634
  Au     6.151757   10.627535    5.861381
  Au    10.162649    8.596231    4.507448
  Au     7.354983    8.523824    4.546806
  Au     7.438273   10.577203    8.312559
  Au     6.129728    8.104077    7.088306
  Au     7.594631    5.866290    7.825779
  Au     7.600523    8.120461    9.525949
  Au    10.121894    7.020827    9.249551
  Au    10.200756    5.232472    7.166417
  Au    10.069224    9.760165    8.561309
  Au     8.518820    6.111357    5.079949
  Au    11.394727    6.154484    4.847112
  Cr     8.810124    8.070580    6.910861

 Multiplicity           Mult            ....    3
 Number of Electrons    NEL             ....  290
 Basis Dimension        Dim             ....  605

ORBITAL ENERGIES
----------------
                 SPIN UP ORBITALS
  NO   OCC          E(Eh)            E(eV)
   0   1.0000    -217.764618     -5925.6765
   1   1.0000     -25.451062      -692.5586
   2   1.0000     -21.590665      -587.5119
   3   1.0000     -21.590626      -587.5108
   4   1.0000     -21.584323      -587.3393
   5   1.0000      -4.401530      -119.7717
   6   1.0000      -4.401430      -119.7690
   7   1.0000      -4.401083      -119.7595
   8   1.0000      -4.401019      -119.7578
   9   1.0000      -4.399425      -119.7144
  10   1.0000      -4.399297      -119.7110
  11   1.0000      -4.398737      -119.6957
  12   1.0000      -4.398612      -119.6923
  13   1.0000      -4.394348      -119.5763
  14   1.0000      -4.394168      -119.5714
  15   1.0000      -4.389845      -119.4538
  16   1.0000      -4.389696      -119.4497
  17   1.0000      -4.385436      -119.3338
  18   1.0000      -4.385391      -119.3325
  19   1.0000      -3.238546       -88.1253
  20   1.0000      -2.523045       -68.6556
  21   1.0000      -2.522986       -68.6539
  22   1.0000      -2.521422       -68.6114
  23   1.0000      -2.521236       -68.6063
  24   1.0000      -2.521164       -68.6044
  25   1.0000      -2.520694       -68.5916
  26   1.0000      -2.520008       -68.5729
  27   1.0000      -2.519921       -68.5705
  28   1.0000      -2.518766       -68.5391
  29   1.0000      -2.518714       -68.5377
  30   1.0000      -2.518197       -68.5236
  31   1.0000      -2.517688       -68.5098
  32   1.0000      -2.517117       -68.4942
  33   1.0000      -2.516937       -68.4893
  34   1.0000      -2.516766       -68.4847
  35   1.0000      -2.515864       -68.4601
  36   1.0000      -2.515695       -68.4555
  37   1.0000      -2.515241       -68.4432
  38   1.0000      -2.515100       -68.4394
  39   1.0000      -2.514841       -68.4323
  40   1.0000      -2.514212       -68.4152
  41   1.0000      -2.513738       -68.4023
  42   1.0000      -2.513702       -68.4013
  43   1.0000      -2.513258       -68.3892
  44   1.0000      -2.512989       -68.3819
  45   1.0000      -2.512978       -68.3816
  46   1.0000      -2.511900       -68.3523
  47   1.0000      -2.511260       -68.3349
  48   1.0000      -2.510295       -68.3086
  49   1.0000      -2.508514       -68.2601
  50   1.0000      -2.507933       -68.2443
  51   1.0000      -2.507805       -68.2409
  52   1.0000      -2.506979       -68.2184
  53   1.0000      -2.506839       -68.2146
  54   1.0000      -2.505117       -68.1677
  55   1.0000      -2.505001       -68.1645
  56   1.0000      -2.503218       -68.1160
  57   1.0000      -2.503166       -68.1146
  58   1.0000      -2.501986       -68.0825
  59   1.0000      -2.501961       -68.0818
  60   1.0000      -2.501015       -68.0561
  61   1.0000      -2.500944       -68.0542
  62   1.0000      -2.130045       -57.9615
  63   1.0000      -2.120864       -57.7117
  64   1.0000      -2.119068       -57.6628
  65   1.0000      -0.501599       -13.6492
  66   1.0000      -0.486635       -13.2420
  67   1.0000      -0.480260       -13.0685
  68   1.0000      -0.475408       -12.9365
  69   1.0000      -0.472855       -12.8670
  70   1.0000      -0.464909       -12.6508
  71   1.0000      -0.460991       -12.5442
  72   1.0000      -0.458980       -12.4895
  73   1.0000      -0.457842       -12.4585
  74   1.0000      -0.456084       -12.4107
  75   1.0000      -0.452893       -12.3239
  76   1.0000      -0.451931       -12.2977
  77   1.0000      -0.449061       -12.2196
  78   1.0000      -0.449000       -12.2179
  79   1.0000      -0.448676       -12.2091
  80   1.0000      -0.447491       -12.1768
  81   1.0000      -0.446114       -12.1394
  82   1.0000      -0.442871       -12.0511
  83   1.0000      -0.442029       -12.0282
  84   1.0000      -0.437561       -11.9066
  85   1.0000      -0.436580       -11.8800
  86   1.0000      -0.435174       -11.8417
  87   1.0000      -0.432801       -11.7771
  88   1.0000      -0.429408       -11.6848
  89   1.0000      -0.426687       -11.6107
  90   1.0000      -0.426052       -11.5935
  91   1.0000      -0.425286       -11.5726
  92   1.0000      -0.418595       -11.3906
  93   1.0000      -0.417497       -11.3607
  94   1.0000      -0.415567       -11.3082
  95   1.0000      -0.412440       -11.2231
  96   1.0000      -0.412283       -11.2188
  97   1.0000      -0.409128       -11.1329
  98   1.0000      -0.404840       -11.0163
  99   1.0000      -0.402373       -10.9491
 100   1.0000      -0.401283       -10.9195
 101   1.0000      -0.395921       -10.7735
 102   1.0000      -0.394400       -10.7322
 103   1.0000      -0.393065       -10.6958
 104   1.0000      -0.390194       -10.6177
 105   1.0000      -0.385258       -10.4834
 106   1.0000      -0.383925       -10.4471
 107   1.0000      -0.378920       -10.3109
 108   1.0000      -0.372649       -10.1403
 109   1.0000      -0.372094       -10.1252
 110   1.0000      -0.368933       -10.0392
 111   1.0000      -0.367662       -10.0046
 112   1.0000      -0.366281        -9.9670
 113   1.0000      -0.365379        -9.9425
 114   1.0000      -0.363281        -9.8854
 115   1.0000      -0.362516        -9.8646
 116   1.0000      -0.362365        -9.8605
 117   1.0000      -0.359579        -9.7846
 118   1.0000      -0.357822        -9.7368
 119   1.0000      -0.356740        -9.7074
 120   1.0000      -0.355461        -9.6726
 121   1.0000      -0.354327        -9.6417
 122   1.0000      -0.353799        -9.6274
 123   1.0000      -0.351210        -9.5569
 124   1.0000      -0.350198        -9.5294
 125   1.0000      -0.348898        -9.4940
 126   1.0000      -0.347079        -9.4445
 127   1.0000      -0.345556        -9.4031
 128   1.0000      -0.345352        -9.3975
 129   1.0000      -0.342832        -9.3289
 130   1.0000      -0.341528        -9.2935
 131   1.0000      -0.338607        -9.2140
 132   1.0000      -0.338251        -9.2043
 133   1.0000      -0.334153        -9.0928
 134   1.0000      -0.334131        -9.0922
 135   1.0000      -0.332934        -9.0596
 136   1.0000      -0.332251        -9.0410
 137   1.0000      -0.325986        -8.8705
 138   1.0000      -0.323191        -8.7945
 139   1.0000      -0.320758        -8.7283
 140   1.0000      -0.311286        -8.4705
 141   1.0000      -0.302395        -8.2286
 142   1.0000      -0.288726        -7.8566
 143   1.0000      -0.235445        -6.4068
 144   1.0000      -0.229952        -6.2573
 145   1.0000      -0.223968        -6.0945
 146   0.0000      -0.116705        -3.1757
 147   0.0000      -0.112895        -3.0720
 148   0.0000      -0.078055        -2.1240
 149   0.0000      -0.072015        -1.9596
 150   0.0000      -0.065170        -1.7734

                 SPIN DOWN ORBITALS
  NO   OCC          E(Eh)            E(eV)
   0   1.0000    -217.763322     -5925.6413
   1   1.0000     -25.381393      -690.6628
   2   1.0000     -21.532218      -585.9214
   3   1.0000     -21.529353      -585.8435
   4   1.0000     -21.511027      -585.3448
   5   1.0000      -4.401813      -119.7794
   6   1.0000      -4.401764      -119.7781
   7   1.0000      -4.401540      -119.7720
   8   1.0000      -4.401453      -119.7696
   9   1.0000      -4.399629      -119.7200
  10   1.0000      -4.399509      -119.7167
  11   1.0000      -4.399038      -119.7039
  12   1.0000      -4.398915      -119.7006
  13   1.0000      -4.395006      -119.5942
  14   1.0000      -4.394823      -119.5892
  15   1.0000      -4.390177      -119.4628
  16   1.0000      -4.390030      -119.4588
  17   1.0000      -4.385636      -119.3392
  18   1.0000      -4.385588      -119.3379
  19   1.0000      -3.025562       -82.3297
  20   1.0000      -2.522719       -68.6467
  21   1.0000      -2.522675       -68.6455
  22   1.0000      -2.521088       -68.6023
  23   1.0000      -2.520434       -68.5845
  24   1.0000      -2.520337       -68.5819
  25   1.0000      -2.520332       -68.5817
  26   1.0000      -2.519841       -68.5684
  27   1.0000      -2.519783       -68.5668
  28   1.0000      -2.518382       -68.5287
  29   1.0000      -2.518324       -68.5271
  30   1.0000      -2.517773       -68.5121
  31   1.0000      -2.517462       -68.5036
  32   1.0000      -2.516794       -68.4855
  33   1.0000      -2.516707       -68.4831
  34   1.0000      -2.516543       -68.4786
  35   1.0000      -2.515597       -68.4529
  36   1.0000      -2.515505       -68.4504
  37   1.0000      -2.515329       -68.4456
  38   1.0000      -2.515295       -68.4447
  39   1.0000      -2.514700       -68.4285
  40   1.0000      -2.514141       -68.4132
  41   1.0000      -2.513969       -68.4086
  42   1.0000      -2.513529       -68.3966
  43   1.0000      -2.513191       -68.3874
  44   1.0000      -2.512776       -68.3761
  45   1.0000      -2.512736       -68.3750
  46   1.0000      -2.512244       -68.3616
  47   1.0000      -2.511680       -68.3463
  48   1.0000      -2.510821       -68.3229
  49   1.0000      -2.508942       -68.2718
  50   1.0000      -2.508538       -68.2608
  51   1.0000      -2.508424       -68.2577
  52   1.0000      -2.506979       -68.2184
  53   1.0000      -2.506862       -68.2152
  54   1.0000      -2.505166       -68.1690
  55   1.0000      -2.505054       -68.1660
  56   1.0000      -2.503671       -68.1284
  57   1.0000      -2.503610       -68.1267
  58   1.0000      -2.502037       -68.0839
  59   1.0000      -2.502010       -68.0832
  60   1.0000      -2.501613       -68.0724
  61   1.0000      -2.501528       -68.0700
  62   1.0000      -1.896513       -51.6067
  63   1.0000      -1.890129       -51.4330
  64   1.0000      -1.848995       -50.3137
  65   1.0000      -0.498321       -13.5600
  66   1.0000      -0.466656       -12.6984
  67   1.0000      -0.466493       -12.6939
  68   1.0000      -0.464558       -12.6413
  69   1.0000      -0.462750       -12.5921
  70   1.0000      -0.462253       -12.5785
  71   1.0000      -0.460568       -12.5327
  72   1.0000      -0.459550       -12.5050
  73   1.0000      -0.456716       -12.4279
  74   1.0000      -0.455471       -12.3940
  75   1.0000      -0.452816       -12.3217
  76   1.0000      -0.451462       -12.2849
  77   1.0000      -0.450308       -12.2535
  78   1.0000      -0.450102       -12.2479
  79   1.0000      -0.449303       -12.2262
  80   1.0000      -0.449003       -12.2180
  81   1.0000      -0.445519       -12.1232
  82   1.0000      -0.445507       -12.1229
  83   1.0000      -0.441351       -12.0098
  84   1.0000      -0.438983       -11.9453
  85   1.0000      -0.438209       -11.9243
  86   1.0000      -0.435371       -11.8470
  87   1.0000      -0.434197       -11.8151
  88   1.0000      -0.429617       -11.6905
  89   1.0000      -0.429238       -11.6802
  90   1.0000      -0.426021       -11.5926
  91   1.0000      -0.423803       -11.5323
  92   1.0000      -0.419246       -11.4083
  93   1.0000      -0.418525       -11.3886
  94   1.0000      -0.417241       -11.3537
  95   1.0000      -0.410813       -11.1788
  96   1.0000      -0.410519       -11.1708
  97   1.0000      -0.403901       -10.9907
  98   1.0000      -0.402867       -10.9626
  99   1.0000      -0.398248       -10.8369
 100   1.0000      -0.394029       -10.7221
 101   1.0000      -0.389354       -10.5948
 102   1.0000      -0.389005       -10.5854
 103   1.0000      -0.387416       -10.5421
 104   1.0000      -0.383267       -10.4292
 105   1.0000      -0.382595       -10.4109
 106   1.0000      -0.382000       -10.3947
 107   1.0000      -0.373894       -10.1742
 108   1.0000      -0.372377       -10.1329
 109   1.0000      -0.370497       -10.0817
 110   1.0000      -0.369761       -10.0617
 111   1.0000      -0.367753       -10.0071
 112   1.0000      -0.366037        -9.9604
 113   1.0000      -0.365418        -9.9435
 114   1.0000      -0.363481        -9.8908
 115   1.0000      -0.362444        -9.8626
 116   1.0000      -0.362088        -9.8529
 117   1.0000      -0.359837        -9.7917
 118   1.0000      -0.358433        -9.7534
 119   1.0000      -0.357653        -9.7322
 120   1.0000      -0.356932        -9.7126
 121   1.0000      -0.356747        -9.7076
 122   1.0000      -0.352015        -9.5788
 123   1.0000      -0.351218        -9.5571
 124   1.0000      -0.349665        -9.5149
 125   1.0000      -0.346669        -9.4333
 126   1.0000      -0.346166        -9.4197
 127   1.0000      -0.345091        -9.3904
 128   1.0000      -0.344925        -9.3859
 129   1.0000      -0.341142        -9.2830
 130   1.0000      -0.339508        -9.2385
 131   1.0000      -0.338547        -9.2123
 132   1.0000      -0.335501        -9.1295
 133   1.0000      -0.334280        -9.0962
 134   1.0000      -0.328176        -8.9301
 135   1.0000      -0.325398        -8.8545
 136   1.0000      -0.317599        -8.6423
 137   1.0000      -0.314769        -8.5653
 138   1.0000      -0.307786        -8.3753
 139   1.0000      -0.242746        -6.6055
 140   1.0000      -0.237406        -6.4602
 141   1.0000      -0.226632        -6.1670
 142   1.0000      -0.218499        -5.9457
 143   1.0000      -0.210106        -5.7173
 144   0.0000      -0.080083        -2.1792
 145   0.0000      -0.071940        -1.9576
 146   0.0000      -0.056727        -1.5436
 147   0.0000      -0.053619        -1.4590
 148   0.0000      -0.047391        -1.2896

MULLIKEN ATOMIC CHARGES AND SPIN POPULATIONS
--------------------------------------------
   0 Au:    0.399118   -0.098596
   1 Au:    0.381015   -0.062153
   2 Au:    0.300949    0.042228
   3 Au:    0.418368   -0.122512
   4 Au:    0.419945   -0.123819
   5 Au:    0.380537    0.017829
   6 Au:    0.375940   -0.062222
   7 Au:    0.497456   -0.099787
   8 Au:    0.491922   -0.149475
   9 Au:    0.494420   -0.147685
  10 Au:    0.382897    0.017007
  11 Au:    0.497736   -0.098609
  12 Au:    0.403581   -0.098253
  13 Au:    0.303307    0.040741
  14 Cr:   -5.747189    2.945306
Sum of atomic charges         :   -0.0000000

LOEWDIN ATOMIC CHARGES AND SPIN POPULATIONS
-------------------------------------------
   0 Au:    0.086518   -0.125389
   1 Au:    0.079943   -0.100248
   2 Au:    0.116089   -0.011651
   3 Au:    0.089046   -0.147334
   4 Au:    0.088633   -0.147890
   5 Au:    0.058479   -0.027032
   6 Au:    0.079108   -0.100065
   7 Au:    0.122364   -0.142408
   8 Au:    0.107934   -0.161757
   9 Au:    0.108620   -0.161507
  10 Au:    0.058655   -0.027777
  11 Au:    0.122243   -0.142190
  12 Au:    0.087854   -0.126158
  13 Au:    0.115910   -0.012222
  14 Cr:   -1.321396    3.433627

  Mayer bond orders larger than 0.100000
B(  0-Au,  2-Au) :   0.1491 B(  0-Au,  3-Au) :   0.1934 B(  0-Au,  5-Au) :   0.2038
B(  0-Au, 11-Au) :   0.1406 B(  0-Au, 14-Cr) :   0.4956 B(  1-Au,  3-Au) :   0.1330
B(  1-Au,  9-Au) :   0.1732 B(  1-Au, 10-Au) :   0.1187 B(  1-Au, 11-Au) :   0.2322
B(  1-Au, 13-Au) :   0.2460 B(  1-Au, 14-Cr) :   0.5673 B(  2-Au,  4-Au) :   0.2087
B(  2-Au,  5-Au) :   0.2010 B(  2-Au,  6-Au) :   0.2470 B(  2-Au, 14-Cr) :   0.4348
B(  3-Au,  4-Au) :   0.1842 B(  3-Au, 13-Au) :   0.2092 B(  3-Au, 14-Cr) :   0.4955
B(  4-Au,  6-Au) :   0.1338 B(  4-Au, 12-Au) :   0.1930 B(  4-Au, 14-Cr) :   0.4945
B(  5-Au,  6-Au) :   0.1203 B(  5-Au,  8-Au) :   0.1896 B(  5-Au, 11-Au) :   0.1696
B(  5-Au, 14-Cr) :   0.3701 B(  6-Au,  7-Au) :   0.2330 B(  6-Au,  8-Au) :   0.1719
B(  6-Au, 14-Cr) :   0.5684 B(  7-Au,  8-Au) :   0.1372 B(  7-Au, 10-Au) :   0.1708
B(  7-Au, 12-Au) :   0.1387 B(  7-Au, 14-Cr) :   0.5657 B(  8-Au,  9-Au) :   0.1757
B(  8-Au, 14-Cr) :   0.4415 B(  9-Au, 10-Au) :   0.1882 B(  9-Au, 11-Au) :   0.1378
B(  9-Au, 14-Cr) :   0.4404 B( 10-Au, 12-Au) :   0.2053 B( 10-Au, 13-Au) :   0.2021
B( 10-Au, 14-Cr) :   0.3682 B( 11-Au, 14-Cr) :   0.5657 B( 12-Au, 13-Au) :   0.1470
B( 12-Au, 14-Cr) :   0.4970 B( 13-Au, 14-Cr) :   0.4334

MP2 TOTAL ENERGY:    -2942.519274476 Eh
FINAL SINGLE POINT ENERGY     -2942.519274476439

DIPOLE MOMENT
-------------
                                X             Y             Z
Electronic contribution:     -0.20302       0.77136      -3.18957
Nuclear contribution   :      0.20045      -0.75431       3.11028
                        -----------------------------------------
Total Dipole Moment    :     -0.00257       0.01705      -0.07929
                        -----------------------------------------
Magnitude (a.u.)       :      0.08114
Magnitude (Debye)      :      0.20625

Rotational constants in cm-1:     0.001286     0.000987     0.000882
Rotational constants in MHz :    38.566472    29.594202    26.454133

                             ****ORCA TERMINATED NORMALLY****
TOTAL RUN TIME: 0 days 3 hours 56 minutes 59 seconds 856 msec
