                         Program Version 5.0.3 -  RELEASE  -
|  1> !PBE def2-TZVP VERYSLOWCONV
|  2>
|  3> %scf
|  4>   AutoTRAHIter 200
|  5>   maxiter 400
|  6> end
|  7>
|  8>
|  9> %pal nprocs 6 end
| 10>
| 11> *xyzfile 0 5 pbe.xyz
| 12>
| 13> $new_job
| 14>
| 15> !PBE def2-TZVP VERYSLOWCONV
| 16>
| 17> %scf
| 18>   AutoTRAHIter 200
| 19>   maxiter 400
| 20> end
| 21>
| 22>
| 23> %pal nprocs 6 end
| 24>
| 25> *xyzfile 0 3 pbe.xyz
| 26>
| 27>
| 28>
| 29>
| 30>
| 31>                          ****END OF INPUT****
 Total Charge           Charge          ....    0
 Multiplicity           Mult            ....    5
 Number of Electrons    NEL             ....  290
FINAL SINGLE POINT ENERGY     -2945.822555387116

CARTESIAN COORDINATES (ANGSTROEM)
---------------------------------
  Au     9.028935   10.595957    5.983178
  Au    11.495132    7.997151    6.959634
  Au     6.151757   10.627535    5.861381
  Au    10.162649    8.596231    4.507448
  Au     7.354983    8.523824    4.546806
  Au     7.438273   10.577203    8.312559
  Au     6.129728    8.104077    7.088306
  Au     7.594631    5.866290    7.825779
  Au     7.600523    8.120461    9.525949
  Au    10.121894    7.020827    9.249551
  Au    10.200756    5.232472    7.166417
  Au    10.069224    9.760165    8.561309
  Au     8.518820    6.111357    5.079949
  Au    11.394727    6.154484    4.847112
  Cr     8.810124    8.070580    6.910861

 Multiplicity           Mult            ....    3
 Number of Electrons    NEL             ....  290
 Basis Dimension        Dim             ....  605

ORBITAL ENERGIES
----------------
                 SPIN UP ORBITALS
  NO   OCC          E(Eh)            E(eV)
   0   1.0000    -214.506917     -5837.0300
   1   1.0000     -24.307991      -661.4541
   2   1.0000     -20.674775      -562.5892
   3   1.0000     -20.670057      -562.4608
   4   1.0000     -20.669971      -562.4585
   5   1.0000      -4.031447      -109.7013
   6   1.0000      -4.031375      -109.6993
   7   1.0000      -4.031061      -109.6908
   8   1.0000      -4.031002      -109.6891
   9   1.0000      -4.028967      -109.6338
  10   1.0000      -4.028841      -109.6303
  11   1.0000      -4.027554      -109.5953
  12   1.0000      -4.027438      -109.5921
  13   1.0000      -4.023608      -109.4880
  14   1.0000      -4.023466      -109.4841
  15   1.0000      -4.020475      -109.4027
  16   1.0000      -4.020326      -109.3986
  17   1.0000      -4.015729      -109.2735
  18   1.0000      -4.015681      -109.2722
  19   1.0000      -2.807325       -76.3912
  20   1.0000      -2.248659       -61.1891
  21   1.0000      -2.248613       -61.1879
  22   1.0000      -2.246432       -61.1285
  23   1.0000      -2.246378       -61.1271
  24   1.0000      -2.246120       -61.1200
  25   1.0000      -2.245675       -61.1079
  26   1.0000      -2.245502       -61.1032
  27   1.0000      -2.245453       -61.1019
  28   1.0000      -2.244238       -61.0688
  29   1.0000      -2.244179       -61.0672
  30   1.0000      -2.243591       -61.0512
  31   1.0000      -2.243212       -61.0409
  32   1.0000      -2.241701       -60.9998
  33   1.0000      -2.241175       -60.9855
  34   1.0000      -2.240946       -60.9792
  35   1.0000      -2.240915       -60.9784
  36   1.0000      -2.240502       -60.9671
  37   1.0000      -2.240286       -60.9613
  38   1.0000      -2.239928       -60.9515
  39   1.0000      -2.239860       -60.9497
  40   1.0000      -2.238756       -60.9196
  41   1.0000      -2.238463       -60.9117
  42   1.0000      -2.238253       -60.9060
  43   1.0000      -2.237793       -60.8934
  44   1.0000      -2.237462       -60.8844
  45   1.0000      -2.237329       -60.8808
  46   1.0000      -2.236424       -60.8562
  47   1.0000      -2.236128       -60.8481
  48   1.0000      -2.235644       -60.8350
  49   1.0000      -2.235091       -60.8199
  50   1.0000      -2.234460       -60.8027
  51   1.0000      -2.233676       -60.7814
  52   1.0000      -2.232986       -60.7626
  53   1.0000      -2.232861       -60.7592
  54   1.0000      -2.231041       -60.7097
  55   1.0000      -2.230913       -60.7062
  56   1.0000      -2.229566       -60.6696
  57   1.0000      -2.229544       -60.6690
  58   1.0000      -2.228630       -60.6441
  59   1.0000      -2.228609       -60.6435
  60   1.0000      -2.227094       -60.6023
  61   1.0000      -2.227016       -60.6002
  62   1.0000      -1.800192       -48.9857
  63   1.0000      -1.795098       -48.8471
  64   1.0000      -1.794846       -48.8402
  65   1.0000      -0.429168       -11.6783
  66   1.0000      -0.385490       -10.4897
  67   1.0000      -0.382167       -10.3993
  68   1.0000      -0.377947       -10.2845
  69   1.0000      -0.372467       -10.1353
  70   1.0000      -0.369243       -10.0476
  71   1.0000      -0.365761        -9.9529
  72   1.0000      -0.364587        -9.9209
  73   1.0000      -0.364272        -9.9124
  74   1.0000      -0.358375        -9.7519
  75   1.0000      -0.351129        -9.5547
  76   1.0000      -0.350984        -9.5508
  77   1.0000      -0.349029        -9.4976
  78   1.0000      -0.347866        -9.4659
  79   1.0000      -0.345826        -9.4104
  80   1.0000      -0.344693        -9.3796
  81   1.0000      -0.343040        -9.3346
  82   1.0000      -0.342867        -9.3299
  83   1.0000      -0.338004        -9.1975
  84   1.0000      -0.336145        -9.1470
  85   1.0000      -0.335557        -9.1310
  86   1.0000      -0.333974        -9.0879
  87   1.0000      -0.330399        -8.9906
  88   1.0000      -0.328090        -8.9278
  89   1.0000      -0.327946        -8.9239
  90   1.0000      -0.326541        -8.8856
  91   1.0000      -0.324203        -8.8220
  92   1.0000      -0.321847        -8.7579
  93   1.0000      -0.317497        -8.6395
  94   1.0000      -0.315628        -8.5887
  95   1.0000      -0.311872        -8.4865
  96   1.0000      -0.311419        -8.4741
  97   1.0000      -0.309267        -8.4156
  98   1.0000      -0.305556        -8.3146
  99   1.0000      -0.300092        -8.1659
 100   1.0000      -0.297370        -8.0918
 101   1.0000      -0.296454        -8.0669
 102   1.0000      -0.293680        -7.9914
 103   1.0000      -0.291455        -7.9309
 104   1.0000      -0.287389        -7.8203
 105   1.0000      -0.286758        -7.8031
 106   1.0000      -0.285055        -7.7567
 107   1.0000      -0.281436        -7.6583
 108   1.0000      -0.279183        -7.5970
 109   1.0000      -0.275833        -7.5058
 110   1.0000      -0.273768        -7.4496
 111   1.0000      -0.272064        -7.4032
 112   1.0000      -0.271066        -7.3761
 113   1.0000      -0.269091        -7.3223
 114   1.0000      -0.268554        -7.3077
 115   1.0000      -0.267013        -7.2658
 116   1.0000      -0.266288        -7.2461
 117   1.0000      -0.264257        -7.1908
 118   1.0000      -0.263034        -7.1575
 119   1.0000      -0.262132        -7.1330
 120   1.0000      -0.261510        -7.1160
 121   1.0000      -0.261454        -7.1145
 122   1.0000      -0.258602        -7.0369
 123   1.0000      -0.258565        -7.0359
 124   1.0000      -0.255600        -6.9552
 125   1.0000      -0.254236        -6.9181
 126   1.0000      -0.253836        -6.9072
 127   1.0000      -0.253565        -6.8999
 128   1.0000      -0.252846        -6.8803
 129   1.0000      -0.250103        -6.8056
 130   1.0000      -0.250040        -6.8039
 131   1.0000      -0.249176        -6.7804
 132   1.0000      -0.246122        -6.6973
 133   1.0000      -0.244987        -6.6664
 134   1.0000      -0.244525        -6.6539
 135   1.0000      -0.243389        -6.6230
 136   1.0000      -0.240123        -6.5341
 137   1.0000      -0.238598        -6.4926
 138   1.0000      -0.231255        -6.2928
 139   1.0000      -0.223822        -6.0905
 140   1.0000      -0.221553        -6.0288
 141   1.0000      -0.216025        -5.8783
 142   1.0000      -0.214526        -5.8376
 143   1.0000      -0.213631        -5.8132
 144   1.0000      -0.201606        -5.4860
 145   1.0000      -0.194254        -5.2859
 146   0.0000      -0.177891        -4.8407
 147   0.0000      -0.172599        -4.6967
 148   0.0000      -0.170910        -4.6507
 149   0.0000      -0.138782        -3.7765
 150   0.0000      -0.136442        -3.7128

                 SPIN DOWN ORBITALS
  NO   OCC          E(Eh)            E(eV)
   0   1.0000    -214.506518     -5837.0191
   1   1.0000     -24.263970      -660.2562
   2   1.0000     -20.644411      -561.7630
   3   1.0000     -20.635638      -561.5242
   4   1.0000     -20.633859      -561.4758
   5   1.0000      -4.031471      -109.7019
   6   1.0000      -4.031400      -109.7000
   7   1.0000      -4.030947      -109.6876
   8   1.0000      -4.030887      -109.6860
   9   1.0000      -4.028760      -109.6281
  10   1.0000      -4.028640      -109.6249
  11   1.0000      -4.027525      -109.5945
  12   1.0000      -4.027411      -109.5914
  13   1.0000      -4.023873      -109.4951
  14   1.0000      -4.023729      -109.4912
  15   1.0000      -4.020679      -109.4082
  16   1.0000      -4.020538      -109.4044
  17   1.0000      -4.016138      -109.2847
  18   1.0000      -4.016090      -109.2834
  19   1.0000      -2.689122       -73.1747
  20   1.0000      -2.248513       -61.1852
  21   1.0000      -2.248465       -61.1839
  22   1.0000      -2.246017       -61.1172
  23   1.0000      -2.245974       -61.1161
  24   1.0000      -2.245924       -61.1147
  25   1.0000      -2.245442       -61.1016
  26   1.0000      -2.245431       -61.1013
  27   1.0000      -2.245413       -61.1008
  28   1.0000      -2.244408       -61.0735
  29   1.0000      -2.244337       -61.0715
  30   1.0000      -2.243130       -61.0387
  31   1.0000      -2.242856       -61.0312
  32   1.0000      -2.241825       -61.0032
  33   1.0000      -2.241227       -60.9869
  34   1.0000      -2.240972       -60.9800
  35   1.0000      -2.240949       -60.9793
  36   1.0000      -2.240505       -60.9672
  37   1.0000      -2.240249       -60.9603
  38   1.0000      -2.239972       -60.9527
  39   1.0000      -2.239739       -60.9464
  40   1.0000      -2.239103       -60.9291
  41   1.0000      -2.238386       -60.9096
  42   1.0000      -2.238299       -60.9072
  43   1.0000      -2.237844       -60.8948
  44   1.0000      -2.237428       -60.8835
  45   1.0000      -2.237303       -60.8801
  46   1.0000      -2.236509       -60.8585
  47   1.0000      -2.236243       -60.8513
  48   1.0000      -2.235992       -60.8444
  49   1.0000      -2.235485       -60.8307
  50   1.0000      -2.234744       -60.8105
  51   1.0000      -2.233992       -60.7900
  52   1.0000      -2.233396       -60.7738
  53   1.0000      -2.233279       -60.7706
  54   1.0000      -2.230994       -60.7084
  55   1.0000      -2.230883       -60.7054
  56   1.0000      -2.229987       -60.6810
  57   1.0000      -2.229964       -60.6804
  58   1.0000      -2.228877       -60.6508
  59   1.0000      -2.228865       -60.6505
  60   1.0000      -2.227694       -60.6186
  61   1.0000      -2.227613       -60.6164
  62   1.0000      -1.694568       -46.1115
  63   1.0000      -1.675656       -45.5969
  64   1.0000      -1.670663       -45.4610
  65   1.0000      -0.423811       -11.5325
  66   1.0000      -0.384805       -10.4711
  67   1.0000      -0.381765       -10.3884
  68   1.0000      -0.378050       -10.2873
  69   1.0000      -0.368656       -10.0316
  70   1.0000      -0.365826        -9.9546
  71   1.0000      -0.364019        -9.9055
  72   1.0000      -0.361666        -9.8414
  73   1.0000      -0.360860        -9.8195
  74   1.0000      -0.356496        -9.7007
  75   1.0000      -0.350877        -9.5478
  76   1.0000      -0.350697        -9.5430
  77   1.0000      -0.350086        -9.5263
  78   1.0000      -0.348302        -9.4778
  79   1.0000      -0.346075        -9.4172
  80   1.0000      -0.345715        -9.4074
  81   1.0000      -0.343555        -9.3486
  82   1.0000      -0.342804        -9.3282
  83   1.0000      -0.338598        -9.2137
  84   1.0000      -0.337199        -9.1757
  85   1.0000      -0.335930        -9.1411
  86   1.0000      -0.333991        -9.0884
  87   1.0000      -0.331211        -9.0127
  88   1.0000      -0.328450        -8.9376
  89   1.0000      -0.328133        -8.9289
  90   1.0000      -0.327036        -8.8991
  91   1.0000      -0.324543        -8.8313
  92   1.0000      -0.322101        -8.7648
  93   1.0000      -0.317330        -8.6350
  94   1.0000      -0.316176        -8.6036
  95   1.0000      -0.311562        -8.4780
  96   1.0000      -0.310068        -8.4374
  97   1.0000      -0.309040        -8.4094
  98   1.0000      -0.304147        -8.2763
  99   1.0000      -0.300385        -8.1739
 100   1.0000      -0.296911        -8.0794
 101   1.0000      -0.294531        -8.0146
 102   1.0000      -0.293632        -7.9901
 103   1.0000      -0.291055        -7.9200
 104   1.0000      -0.286586        -7.7984
 105   1.0000      -0.285647        -7.7728
 106   1.0000      -0.285389        -7.7658
 107   1.0000      -0.282443        -7.6857
 108   1.0000      -0.278722        -7.5844
 109   1.0000      -0.276249        -7.5171
 110   1.0000      -0.274383        -7.4664
 111   1.0000      -0.272717        -7.4210
 112   1.0000      -0.271655        -7.3921
 113   1.0000      -0.269943        -7.3455
 114   1.0000      -0.268788        -7.3141
 115   1.0000      -0.267822        -7.2878
 116   1.0000      -0.267282        -7.2731
 117   1.0000      -0.264959        -7.2099
 118   1.0000      -0.264271        -7.1912
 119   1.0000      -0.262959        -7.1555
 120   1.0000      -0.262804        -7.1513
 121   1.0000      -0.262552        -7.1444
 122   1.0000      -0.259489        -7.0610
 123   1.0000      -0.259366        -7.0577
 124   1.0000      -0.256635        -6.9834
 125   1.0000      -0.255334        -6.9480
 126   1.0000      -0.255183        -6.9439
 127   1.0000      -0.254178        -6.9165
 128   1.0000      -0.253904        -6.9091
 129   1.0000      -0.250880        -6.8268
 130   1.0000      -0.250636        -6.8201
 131   1.0000      -0.249964        -6.8019
 132   1.0000      -0.246856        -6.7173
 133   1.0000      -0.246036        -6.6950
 134   1.0000      -0.245343        -6.6761
 135   1.0000      -0.244131        -6.6431
 136   1.0000      -0.240382        -6.5411
 137   1.0000      -0.240210        -6.5364
 138   1.0000      -0.231460        -6.2983
 139   1.0000      -0.217226        -5.9110
 140   1.0000      -0.214173        -5.8280
 141   1.0000      -0.206063        -5.6073
 142   1.0000      -0.198699        -5.4069
 143   1.0000      -0.192922        -5.2497
 144   0.0000      -0.143297        -3.8993
 145   0.0000      -0.137859        -3.7513
 146   0.0000      -0.123083        -3.3493
 147   0.0000      -0.120292        -3.2733
 148   0.0000      -0.118812        -3.2330

MULLIKEN ATOMIC CHARGES AND SPIN POPULATIONS
--------------------------------------------
   0 Au:    0.403252   -0.050917
   1 Au:    0.397978   -0.054692
   2 Au:    0.321534    0.009271
   3 Au:    0.431472   -0.057165
   4 Au:    0.433119   -0.058039
   5 Au:    0.379016   -0.001641
   6 Au:    0.392490   -0.054910
   7 Au:    0.499540   -0.049840
   8 Au:    0.509415   -0.086245
   9 Au:    0.511684   -0.085110
  10 Au:    0.381534   -0.001766
  11 Au:    0.500734   -0.048905
  12 Au:    0.408452   -0.050521
  13 Au:    0.323679    0.007851
  14 Cr:   -5.893898    2.582630
Sum of atomic charges         :   -0.0000000

LOEWDIN ATOMIC CHARGES AND SPIN POPULATIONS
-------------------------------------------
   0 Au:    0.106228   -0.076089
   1 Au:    0.105404   -0.076442
   2 Au:    0.105929   -0.027941
   3 Au:    0.096880   -0.083642
   4 Au:    0.096142   -0.083858
   5 Au:    0.065454   -0.032369
   6 Au:    0.104667   -0.076228
   7 Au:    0.138795   -0.092264
   8 Au:    0.112453   -0.102236
   9 Au:    0.113014   -0.101893
  10 Au:    0.065730   -0.032561
  11 Au:    0.138755   -0.091963
  12 Au:    0.107673   -0.076786
  13 Au:    0.106063   -0.028771
  14 Cr:   -1.463187    2.983042

  Mayer bond orders larger than 0.100000
B(  0-Au,  2-Au) :   0.2034 B(  0-Au,  3-Au) :   0.2327 B(  0-Au,  4-Au) :   0.1071
B(  0-Au,  5-Au) :   0.2216 B(  0-Au, 11-Au) :   0.1724 B(  0-Au, 14-Cr) :   0.5885
B(  1-Au,  3-Au) :   0.1624 B(  1-Au,  9-Au) :   0.2059 B(  1-Au, 10-Au) :   0.1369
B(  1-Au, 11-Au) :   0.2694 B(  1-Au, 13-Au) :   0.2741 B(  1-Au, 14-Cr) :   0.6318
B(  2-Au,  4-Au) :   0.2551 B(  2-Au,  5-Au) :   0.2580 B(  2-Au,  6-Au) :   0.2749
B(  2-Au, 14-Cr) :   0.3804 B(  3-Au,  4-Au) :   0.2207 B(  3-Au, 12-Au) :   0.1056
B(  3-Au, 13-Au) :   0.2556 B(  3-Au, 14-Cr) :   0.5536 B(  4-Au,  6-Au) :   0.1631
B(  4-Au, 12-Au) :   0.2326 B(  4-Au, 14-Cr) :   0.5509 B(  5-Au,  6-Au) :   0.1391
B(  5-Au,  8-Au) :   0.2567 B(  5-Au, 11-Au) :   0.2078 B(  5-Au, 14-Cr) :   0.3559
B(  6-Au,  7-Au) :   0.2704 B(  6-Au,  8-Au) :   0.2043 B(  6-Au, 14-Cr) :   0.6322
B(  7-Au,  8-Au) :   0.1775 B(  7-Au, 10-Au) :   0.2095 B(  7-Au, 12-Au) :   0.1703
B(  7-Au, 14-Cr) :   0.6718 B(  8-Au,  9-Au) :   0.2220 B(  8-Au, 14-Cr) :   0.4977
B(  9-Au, 10-Au) :   0.2549 B(  9-Au, 11-Au) :   0.1777 B(  9-Au, 14-Cr) :   0.4969
B( 10-Au, 12-Au) :   0.2231 B( 10-Au, 13-Au) :   0.2598 B( 10-Au, 14-Cr) :   0.3547
B( 11-Au, 14-Cr) :   0.6722 B( 12-Au, 13-Au) :   0.2008 B( 12-Au, 14-Cr) :   0.5918
B( 13-Au, 14-Cr) :   0.3794

FINAL SINGLE POINT ENERGY     -2945.836130445394

DIPOLE MOMENT
-------------
                                X             Y             Z
Electronic contribution:     -0.20204       0.76801      -3.17937
Nuclear contribution   :      0.20045      -0.75431       3.11028
                        -----------------------------------------
Total Dipole Moment    :     -0.00158       0.01371      -0.06908
                        -----------------------------------------
Magnitude (a.u.)       :      0.07045
Magnitude (Debye)      :      0.17907

Rotational constants in cm-1:     0.001286     0.000987     0.000882
Rotational constants in MHz :    38.566472    29.594202    26.454133

                             ****ORCA TERMINATED NORMALLY****
TOTAL RUN TIME: 0 days 1 hours 58 minutes 5 seconds 447 msec
