                         Program Version 5.0.3 -  RELEASE  -
|  1> !R2SCAN def2-TZVP VERYSLOWCONV
|  2> !KDIIS
|  3> %scf
|  4>   AutoTRAHIter 200
|  5>   maxiter 400
|  6> end
|  7>
|  8> %pal nprocs 6 end
|  9>
| 10> *xyzfile 0 5 pbe.xyz
| 11>
| 12> $new_job
| 13>
| 14> !R2SCAN def2-TZVP VERYSLOWCONV
| 15> !KDIIS
| 16> %scf
| 17>   AutoTRAHIter 200
| 18>   maxiter 400
| 19> end
| 20>
| 21>
| 22> %pal nprocs 6 end
| 23>
| 24> *xyzfile 0 3 pbe.xyz
| 25>
| 26>
| 27>
| 28>
| 29>
| 30>                          ****END OF INPUT****
 Total Charge           Charge          ....    0
 Multiplicity           Mult            ....    5
 Number of Electrons    NEL             ....  290
FINAL SINGLE POINT ENERGY     -2946.306974769879

CARTESIAN COORDINATES (ANGSTROEM)
---------------------------------
  Au     9.028935   10.595957    5.983178
  Au    11.495132    7.997151    6.959634
  Au     6.151757   10.627535    5.861381
  Au    10.162649    8.596231    4.507448
  Au     7.354983    8.523824    4.546806
  Au     7.438273   10.577203    8.312559
  Au     6.129728    8.104077    7.088306
  Au     7.594631    5.866290    7.825779
  Au     7.600523    8.120461    9.525949
  Au    10.121894    7.020827    9.249551
  Au    10.200756    5.232472    7.166417
  Au    10.069224    9.760165    8.561309
  Au     8.518820    6.111357    5.079949
  Au    11.394727    6.154484    4.847112
  Cr     8.810124    8.070580    6.910861

 Multiplicity           Mult            ....    3
 Number of Electrons    NEL             ....  290
 Basis Dimension        Dim             ....  605

ORBITAL ENERGIES
----------------
                 SPIN UP ORBITALS
  NO   OCC          E(Eh)            E(eV)
   0   1.0000    -215.302210     -5858.6710
   1   1.0000     -24.603295      -669.4897
   2   1.0000     -20.872006      -567.9561
   3   1.0000     -20.869159      -567.8787
   4   1.0000     -20.867751      -567.8404
   5   1.0000      -4.122118      -112.1685
   6   1.0000      -4.122052      -112.1667
   7   1.0000      -4.121667      -112.1563
   8   1.0000      -4.121603      -112.1545
   9   1.0000      -4.119439      -112.0956
  10   1.0000      -4.119308      -112.0921
  11   1.0000      -4.117996      -112.0564
  12   1.0000      -4.117869      -112.0529
  13   1.0000      -4.113947      -111.9462
  14   1.0000      -4.113787      -111.9418
  15   1.0000      -4.110922      -111.8639
  16   1.0000      -4.110774      -111.8599
  17   1.0000      -4.106332      -111.7390
  18   1.0000      -4.106278      -111.7375
  19   1.0000      -2.920605       -79.4737
  20   1.0000      -2.312139       -62.9165
  21   1.0000      -2.312096       -62.9153
  22   1.0000      -2.309790       -62.8526
  23   1.0000      -2.309734       -62.8511
  24   1.0000      -2.309442       -62.8431
  25   1.0000      -2.309015       -62.8315
  26   1.0000      -2.308955       -62.8299
  27   1.0000      -2.308879       -62.8278
  28   1.0000      -2.307605       -62.7931
  29   1.0000      -2.307544       -62.7915
  30   1.0000      -2.306850       -62.7726
  31   1.0000      -2.306511       -62.7634
  32   1.0000      -2.304942       -62.7207
  33   1.0000      -2.304670       -62.7133
  34   1.0000      -2.304620       -62.7119
  35   1.0000      -2.304207       -62.7007
  36   1.0000      -2.304077       -62.6971
  37   1.0000      -2.303902       -62.6924
  38   1.0000      -2.303305       -62.6761
  39   1.0000      -2.303254       -62.6747
  40   1.0000      -2.302063       -62.6423
  41   1.0000      -2.301973       -62.6399
  42   1.0000      -2.301735       -62.6334
  43   1.0000      -2.301077       -62.6155
  44   1.0000      -2.300852       -62.6094
  45   1.0000      -2.300733       -62.6061
  46   1.0000      -2.299672       -62.5772
  47   1.0000      -2.299516       -62.5730
  48   1.0000      -2.298807       -62.5537
  49   1.0000      -2.298127       -62.5352
  50   1.0000      -2.297686       -62.5232
  51   1.0000      -2.296879       -62.5013
  52   1.0000      -2.296195       -62.4827
  53   1.0000      -2.296070       -62.4793
  54   1.0000      -2.294378       -62.4332
  55   1.0000      -2.294253       -62.4298
  56   1.0000      -2.292837       -62.3913
  57   1.0000      -2.292805       -62.3904
  58   1.0000      -2.291917       -62.3662
  59   1.0000      -2.291897       -62.3657
  60   1.0000      -2.290437       -62.3260
  61   1.0000      -2.290356       -62.3237
  62   1.0000      -1.868602       -50.8472
  63   1.0000      -1.866565       -50.7918
  64   1.0000      -1.866546       -50.7913
  65   1.0000      -0.433529       -11.7969
  66   1.0000      -0.389881       -10.6092
  67   1.0000      -0.387374       -10.5410
  68   1.0000      -0.384119       -10.4524
  69   1.0000      -0.380718       -10.3598
  70   1.0000      -0.377441       -10.2707
  71   1.0000      -0.373960       -10.1760
  72   1.0000      -0.372967       -10.1490
  73   1.0000      -0.372430       -10.1343
  74   1.0000      -0.366624        -9.9764
  75   1.0000      -0.359957        -9.7949
  76   1.0000      -0.359780        -9.7901
  77   1.0000      -0.357929        -9.7397
  78   1.0000      -0.356920        -9.7123
  79   1.0000      -0.354781        -9.6541
  80   1.0000      -0.353460        -9.6181
  81   1.0000      -0.351925        -9.5764
  82   1.0000      -0.351752        -9.5717
  83   1.0000      -0.347034        -9.4433
  84   1.0000      -0.344852        -9.3839
  85   1.0000      -0.344478        -9.3737
  86   1.0000      -0.342846        -9.3293
  87   1.0000      -0.339266        -9.2319
  88   1.0000      -0.336545        -9.1579
  89   1.0000      -0.336425        -9.1546
  90   1.0000      -0.335069        -9.1177
  91   1.0000      -0.333100        -9.0641
  92   1.0000      -0.330646        -8.9973
  93   1.0000      -0.325921        -8.8688
  94   1.0000      -0.324530        -8.8309
  95   1.0000      -0.320579        -8.7234
  96   1.0000      -0.319561        -8.6957
  97   1.0000      -0.317936        -8.6515
  98   1.0000      -0.314141        -8.5482
  99   1.0000      -0.308705        -8.4003
 100   1.0000      -0.305773        -8.3205
 101   1.0000      -0.304496        -8.2858
 102   1.0000      -0.301749        -8.2110
 103   1.0000      -0.299817        -8.1584
 104   1.0000      -0.295720        -8.0470
 105   1.0000      -0.295183        -8.0323
 106   1.0000      -0.293217        -7.9788
 107   1.0000      -0.288854        -7.8601
 108   1.0000      -0.287273        -7.8171
 109   1.0000      -0.283729        -7.7207
 110   1.0000      -0.281658        -7.6643
 111   1.0000      -0.279907        -7.6167
 112   1.0000      -0.279137        -7.5957
 113   1.0000      -0.277082        -7.5398
 114   1.0000      -0.276239        -7.5168
 115   1.0000      -0.274768        -7.4768
 116   1.0000      -0.274292        -7.4639
 117   1.0000      -0.272042        -7.4026
 118   1.0000      -0.270574        -7.3627
 119   1.0000      -0.269718        -7.3394
 120   1.0000      -0.269157        -7.3241
 121   1.0000      -0.268938        -7.3182
 122   1.0000      -0.266044        -7.2394
 123   1.0000      -0.265843        -7.2340
 124   1.0000      -0.263093        -7.1591
 125   1.0000      -0.261622        -7.1191
 126   1.0000      -0.260967        -7.1013
 127   1.0000      -0.260358        -7.0847
 128   1.0000      -0.259987        -7.0746
 129   1.0000      -0.257341        -7.0026
 130   1.0000      -0.257252        -7.0002
 131   1.0000      -0.256164        -6.9706
 132   1.0000      -0.253100        -6.8872
 133   1.0000      -0.251863        -6.8535
 134   1.0000      -0.250867        -6.8264
 135   1.0000      -0.250056        -6.8044
 136   1.0000      -0.246254        -6.7009
 137   1.0000      -0.243405        -6.6234
 138   1.0000      -0.237712        -6.4685
 139   1.0000      -0.234890        -6.3917
 140   1.0000      -0.229100        -6.2341
 141   1.0000      -0.222850        -6.0640
 142   1.0000      -0.218579        -5.9478
 143   1.0000      -0.217175        -5.9096
 144   1.0000      -0.206298        -5.6137
 145   1.0000      -0.199144        -5.4190
 146   0.0000      -0.175979        -4.7886
 147   0.0000      -0.171160        -4.6575
 148   0.0000      -0.168421        -4.5830
 149   0.0000      -0.133982        -3.6458
 150   0.0000      -0.132623        -3.6088

                 SPIN DOWN ORBITALS
  NO   OCC          E(Eh)            E(eV)
   0   1.0000    -215.301621     -5858.6550
   1   1.0000     -24.542818      -667.8440
   2   1.0000     -20.829067      -566.7877
   3   1.0000     -20.820382      -566.5514
   4   1.0000     -20.819768      -566.5347
   5   1.0000      -4.122427      -112.1769
   6   1.0000      -4.122360      -112.1751
   7   1.0000      -4.121702      -112.1572
   8   1.0000      -4.121638      -112.1555
   9   1.0000      -4.119449      -112.0959
  10   1.0000      -4.119326      -112.0926
  11   1.0000      -4.118107      -112.0594
  12   1.0000      -4.117982      -112.0560
  13   1.0000      -4.114435      -111.9595
  14   1.0000      -4.114274      -111.9551
  15   1.0000      -4.111225      -111.8721
  16   1.0000      -4.111083      -111.8683
  17   1.0000      -4.106766      -111.7508
  18   1.0000      -4.106714      -111.7494
  19   1.0000      -2.762835       -75.1806
  20   1.0000      -2.312120       -62.9160
  21   1.0000      -2.312075       -62.9148
  22   1.0000      -2.309514       -62.8451
  23   1.0000      -2.309466       -62.8438
  24   1.0000      -2.309293       -62.8391
  25   1.0000      -2.308980       -62.8305
  26   1.0000      -2.308962       -62.8300
  27   1.0000      -2.308762       -62.8246
  28   1.0000      -2.307738       -62.7967
  29   1.0000      -2.307661       -62.7947
  30   1.0000      -2.306494       -62.7629
  31   1.0000      -2.306246       -62.7561
  32   1.0000      -2.305016       -62.7227
  33   1.0000      -2.304739       -62.7151
  34   1.0000      -2.304715       -62.7145
  35   1.0000      -2.304250       -62.7018
  36   1.0000      -2.304088       -62.6974
  37   1.0000      -2.303891       -62.6921
  38   1.0000      -2.303297       -62.6759
  39   1.0000      -2.303124       -62.6712
  40   1.0000      -2.302457       -62.6530
  41   1.0000      -2.301945       -62.6391
  42   1.0000      -2.301728       -62.6332
  43   1.0000      -2.301275       -62.6209
  44   1.0000      -2.300926       -62.6114
  45   1.0000      -2.300761       -62.6069
  46   1.0000      -2.299926       -62.5842
  47   1.0000      -2.299717       -62.5785
  48   1.0000      -2.299296       -62.5670
  49   1.0000      -2.298583       -62.5476
  50   1.0000      -2.298089       -62.5342
  51   1.0000      -2.297275       -62.5120
  52   1.0000      -2.296676       -62.4957
  53   1.0000      -2.296559       -62.4926
  54   1.0000      -2.294403       -62.4339
  55   1.0000      -2.294293       -62.4309
  56   1.0000      -2.293315       -62.4043
  57   1.0000      -2.293283       -62.4034
  58   1.0000      -2.292199       -62.3739
  59   1.0000      -2.292185       -62.3735
  60   1.0000      -2.291131       -62.3448
  61   1.0000      -2.291047       -62.3426
  62   1.0000      -1.722794       -46.8796
  63   1.0000      -1.703525       -46.3553
  64   1.0000      -1.702921       -46.3388
  65   1.0000      -0.428217       -11.6524
  66   1.0000      -0.389808       -10.6072
  67   1.0000      -0.387610       -10.5474
  68   1.0000      -0.384653       -10.4669
  69   1.0000      -0.376253       -10.2384
  70   1.0000      -0.373580       -10.1656
  71   1.0000      -0.372355       -10.1323
  72   1.0000      -0.369652       -10.0588
  73   1.0000      -0.368738       -10.0339
  74   1.0000      -0.364792        -9.9265
  75   1.0000      -0.360017        -9.7966
  76   1.0000      -0.359704        -9.7880
  77   1.0000      -0.359444        -9.7810
  78   1.0000      -0.357489        -9.7278
  79   1.0000      -0.355215        -9.6659
  80   1.0000      -0.354935        -9.6583
  81   1.0000      -0.352847        -9.6015
  82   1.0000      -0.351810        -9.5732
  83   1.0000      -0.347783        -9.4636
  84   1.0000      -0.346336        -9.4243
  85   1.0000      -0.345022        -9.3885
  86   1.0000      -0.343019        -9.3340
  87   1.0000      -0.340400        -9.2627
  88   1.0000      -0.337399        -9.1811
  89   1.0000      -0.337300        -9.1784
  90   1.0000      -0.336022        -9.1436
  91   1.0000      -0.333818        -9.0837
  92   1.0000      -0.331364        -9.0169
  93   1.0000      -0.326317        -8.8795
  94   1.0000      -0.325360        -8.8535
  95   1.0000      -0.320351        -8.7172
  96   1.0000      -0.319387        -8.6910
  97   1.0000      -0.317261        -8.6331
  98   1.0000      -0.312861        -8.5134
  99   1.0000      -0.309229        -8.4145
 100   1.0000      -0.305677        -8.3179
 101   1.0000      -0.302538        -8.2325
 102   1.0000      -0.301970        -8.2170
 103   1.0000      -0.299610        -8.1528
 104   1.0000      -0.295005        -8.0275
 105   1.0000      -0.293958        -7.9990
 106   1.0000      -0.293793        -7.9945
 107   1.0000      -0.290596        -7.9075
 108   1.0000      -0.286717        -7.8020
 109   1.0000      -0.284530        -7.7425
 110   1.0000      -0.282694        -7.6925
 111   1.0000      -0.281001        -7.6464
 112   1.0000      -0.280003        -7.6193
 113   1.0000      -0.278385        -7.5752
 114   1.0000      -0.276775        -7.5314
 115   1.0000      -0.275953        -7.5091
 116   1.0000      -0.275725        -7.5029
 117   1.0000      -0.273177        -7.4335
 118   1.0000      -0.272438        -7.4134
 119   1.0000      -0.271395        -7.3850
 120   1.0000      -0.271001        -7.3743
 121   1.0000      -0.270867        -7.3707
 122   1.0000      -0.267543        -7.2802
 123   1.0000      -0.267085        -7.2677
 124   1.0000      -0.264757        -7.2044
 125   1.0000      -0.263056        -7.1581
 126   1.0000      -0.262943        -7.1550
 127   1.0000      -0.261821        -7.1245
 128   1.0000      -0.261625        -7.1192
 129   1.0000      -0.258378        -7.0308
 130   1.0000      -0.258000        -7.0205
 131   1.0000      -0.257272        -7.0007
 132   1.0000      -0.254171        -6.9163
 133   1.0000      -0.253212        -6.8903
 134   1.0000      -0.252297        -6.8653
 135   1.0000      -0.251262        -6.8372
 136   1.0000      -0.246997        -6.7211
 137   1.0000      -0.246748        -6.7144
 138   1.0000      -0.237932        -6.4745
 139   1.0000      -0.219428        -5.9709
 140   1.0000      -0.216066        -5.8795
 141   1.0000      -0.207642        -5.6502
 142   1.0000      -0.199657        -5.4330
 143   1.0000      -0.193556        -5.2669
 144   0.0000      -0.138667        -3.7733
 145   0.0000      -0.134074        -3.6483
 146   0.0000      -0.115196        -3.1346
 147   0.0000      -0.114017        -3.1026
 148   0.0000      -0.110922        -3.0184

MULLIKEN ATOMIC CHARGES AND SPIN POPULATIONS
--------------------------------------------
   0 Au:    0.364583   -0.086827
   1 Au:    0.358311   -0.088240
   2 Au:    0.286639    0.010749
   3 Au:    0.389408   -0.083595
   4 Au:    0.390976   -0.084644
   5 Au:    0.335519   -0.003558
   6 Au:    0.353584   -0.088463
   7 Au:    0.453437   -0.079848
   8 Au:    0.455489   -0.118871
   9 Au:    0.457394   -0.117514
  10 Au:    0.337848   -0.003920
  11 Au:    0.454299   -0.078950
  12 Au:    0.368634   -0.086572
  13 Au:    0.288669    0.009163
  14 Cr:   -5.294791    2.901091
Sum of atomic charges         :   -0.0000000

LOEWDIN ATOMIC CHARGES AND SPIN POPULATIONS
-------------------------------------------
   0 Au:    0.102065   -0.098484
   1 Au:    0.101520   -0.094713
   2 Au:    0.103531   -0.032069
   3 Au:    0.093245   -0.102899
   4 Au:    0.092576   -0.103190
   5 Au:    0.062173   -0.039756
   6 Au:    0.100775   -0.094557
   7 Au:    0.134710   -0.113035
   8 Au:    0.108001   -0.122975
   9 Au:    0.108553   -0.122573
  10 Au:    0.062411   -0.040049
  11 Au:    0.134684   -0.112720
  12 Au:    0.103446   -0.099302
  13 Au:    0.103649   -0.032904
  14 Cr:   -1.411341    3.209226

  Mayer bond orders larger than 0.100000
B(  0-Au,  2-Au) :   0.1902 B(  0-Au,  3-Au) :   0.2353 B(  0-Au,  5-Au) :   0.2116
B(  0-Au, 11-Au) :   0.1628 B(  0-Au, 14-Cr) :   0.6100 B(  1-Au,  3-Au) :   0.1481
B(  1-Au,  9-Au) :   0.1983 B(  1-Au, 10-Au) :   0.1240 B(  1-Au, 11-Au) :   0.2669
B(  1-Au, 13-Au) :   0.2661 B(  1-Au, 14-Cr) :   0.6545 B(  2-Au,  4-Au) :   0.2479
B(  2-Au,  5-Au) :   0.2462 B(  2-Au,  6-Au) :   0.2668 B(  2-Au, 14-Cr) :   0.3605
B(  3-Au,  4-Au) :   0.2138 B(  3-Au, 13-Au) :   0.2485 B(  3-Au, 14-Cr) :   0.5677
B(  4-Au,  6-Au) :   0.1488 B(  4-Au, 12-Au) :   0.2352 B(  4-Au, 14-Cr) :   0.5649
B(  5-Au,  6-Au) :   0.1260 B(  5-Au,  8-Au) :   0.2534 B(  5-Au, 11-Au) :   0.2060
B(  5-Au, 14-Cr) :   0.3550 B(  6-Au,  7-Au) :   0.2680 B(  6-Au,  8-Au) :   0.1964
B(  6-Au, 14-Cr) :   0.6548 B(  7-Au,  8-Au) :   0.1689 B(  7-Au, 10-Au) :   0.2077
B(  7-Au, 12-Au) :   0.1608 B(  7-Au, 14-Cr) :   0.6861 B(  8-Au,  9-Au) :   0.2139
B(  8-Au, 14-Cr) :   0.5110 B(  9-Au, 10-Au) :   0.2515 B(  9-Au, 11-Au) :   0.1691
B(  9-Au, 14-Cr) :   0.5106 B( 10-Au, 12-Au) :   0.2131 B( 10-Au, 13-Au) :   0.2480
B( 10-Au, 14-Cr) :   0.3543 B( 11-Au, 14-Cr) :   0.6876 B( 12-Au, 13-Au) :   0.1875
B( 12-Au, 14-Cr) :   0.6139 B( 13-Au, 14-Cr) :   0.3598

FINAL SINGLE POINT ENERGY     -2946.318056525746

DIPOLE MOMENT
-------------
                                X             Y             Z
Electronic contribution:     -0.20235       0.76933      -3.18520
Nuclear contribution   :      0.20045      -0.75431       3.11028
                        -----------------------------------------
Total Dipole Moment    :     -0.00190       0.01502      -0.07492
                        -----------------------------------------
Magnitude (a.u.)       :      0.07643
Magnitude (Debye)      :      0.19428

Rotational constants in cm-1:     0.001286     0.000987     0.000882
Rotational constants in MHz :    38.566472    29.594202    26.454133

                             ****ORCA TERMINATED NORMALLY****
TOTAL RUN TIME: 0 days 0 hours 34 minutes 40 seconds 458 msec
