                         Program Version 5.0.3 -  RELEASE  -
|  1> !RI-B2PLYP def2-TZVP def2-TZVP/C
|  2> !RIJCOSX VERYSLOWCONV
|  3>
|  4> %scf
|  5>   AutoTRAHIter 200
|  6>   maxiter 400
|  7> end
|  8>
|  9>
| 10> %pal nprocs 6 end
| 11>
| 12> *xyzfile 0 5 pbe.xyz
| 13>
| 14> $new_job
| 15>
| 16> !RI-B2PLYP def2-TZVP def2-TZVP/C
| 17> !RIJCOSX VERYSLOWCONV
| 18>
| 19> %scf
| 20>   AutoTRAHIter 200
| 21>   maxiter 400
| 22> end
| 23>
| 24>
| 25> %pal nprocs 6 end
| 26>
| 27> *xyzfile 0 3 pbe.xyz
| 28>
| 29>
| 30>
| 31>
| 32>
| 33>                          ****END OF INPUT****
 Total Charge           Charge          ....    0
 Multiplicity           Mult            ....    5
 Number of Electrons    NEL             ....  216
MP2 TOTAL ENERGY:    -2619.353531459 Eh
FINAL SINGLE POINT ENERGY     -2619.353531458703

CARTESIAN COORDINATES (ANGSTROEM)
---------------------------------
  Au     6.110258    7.753569    8.464928
  Au     7.021975    5.341953    9.459248
  Au     8.850913    4.597930    5.778213
  Au     7.021015    6.477830    6.188066
  Au     8.846101    3.610362    8.607351
  Au    13.404123    6.222639    7.950417
  Au    11.069018    7.477487    8.360565
  Au    11.248834    4.808644    7.440264
  Au    10.391012    2.427915    6.609431
  Au     8.694286    8.555076    8.727019
  Fe     8.870056    6.161367    7.910426

 Multiplicity           Mult            ....    3
 Number of Electrons    NEL             ....  216
 Basis Dimension        Dim             ....  445

ORBITAL ENERGIES
----------------
                 SPIN UP ORBITALS
  NO   OCC          E(Eh)            E(eV)
   0   1.0000    -258.329019     -7029.4900
   1   1.0000     -30.892710      -840.6334
   2   1.0000     -26.609261      -724.0748
   3   1.0000     -26.587261      -723.4761
   4   1.0000     -26.575530      -723.1569
   5   1.0000      -4.403379      -119.8220
   6   1.0000      -4.399888      -119.7270
   7   1.0000      -4.399274      -119.7103
   8   1.0000      -4.396802      -119.6431
   9   1.0000      -4.395229      -119.6003
  10   1.0000      -4.394716      -119.5863
  11   1.0000      -4.394405      -119.5779
  12   1.0000      -4.390993      -119.4850
  13   1.0000      -4.385472      -119.3347
  14   1.0000      -4.379214      -119.1645
  15   1.0000      -3.905747      -106.2808
  16   1.0000      -2.652042       -72.1657
  17   1.0000      -2.608170       -70.9719
  18   1.0000      -2.582579       -70.2755
  19   1.0000      -2.525589       -68.7248
  20   1.0000      -2.523167       -68.6589
  21   1.0000      -2.522219       -68.6331
  22   1.0000      -2.520609       -68.5893
  23   1.0000      -2.519759       -68.5661
  24   1.0000      -2.518883       -68.5423
  25   1.0000      -2.518722       -68.5379
  26   1.0000      -2.517408       -68.5022
  27   1.0000      -2.516868       -68.4875
  28   1.0000      -2.515852       -68.4598
  29   1.0000      -2.515124       -68.4400
  30   1.0000      -2.514631       -68.4266
  31   1.0000      -2.514483       -68.4226
  32   1.0000      -2.512097       -68.3576
  33   1.0000      -2.511094       -68.3303
  34   1.0000      -2.510423       -68.3121
  35   1.0000      -2.510168       -68.3051
  36   1.0000      -2.509621       -68.2902
  37   1.0000      -2.509086       -68.2757
  38   1.0000      -2.507418       -68.2303
  39   1.0000      -2.507114       -68.2221
  40   1.0000      -2.506125       -68.1951
  41   1.0000      -2.505779       -68.1857
  42   1.0000      -2.505426       -68.1761
  43   1.0000      -2.505226       -68.1707
  44   1.0000      -2.502170       -68.0875
  45   1.0000      -2.499658       -68.0191
  46   1.0000      -2.496479       -67.9327
  47   1.0000      -2.495759       -67.9131
  48   1.0000      -2.491758       -67.8042
  49   1.0000      -0.554226       -15.0812
  50   1.0000      -0.550527       -14.9806
  51   1.0000      -0.541151       -14.7255
  52   1.0000      -0.530412       -14.4332
  53   1.0000      -0.496587       -13.5128
  54   1.0000      -0.484902       -13.1949
  55   1.0000      -0.475819       -12.9477
  56   1.0000      -0.463963       -12.6251
  57   1.0000      -0.454183       -12.3589
  58   1.0000      -0.452727       -12.3193
  59   1.0000      -0.445042       -12.1102
  60   1.0000      -0.442208       -12.0331
  61   1.0000      -0.439996       -11.9729
  62   1.0000      -0.437133       -11.8950
  63   1.0000      -0.432399       -11.7662
  64   1.0000      -0.431192       -11.7333
  65   1.0000      -0.427953       -11.6452
  66   1.0000      -0.422479       -11.4962
  67   1.0000      -0.418919       -11.3994
  68   1.0000      -0.414873       -11.2893
  69   1.0000      -0.411620       -11.2008
  70   1.0000      -0.410882       -11.1807
  71   1.0000      -0.405881       -11.0446
  72   1.0000      -0.404901       -11.0179
  73   1.0000      -0.396298       -10.7838
  74   1.0000      -0.393216       -10.7000
  75   1.0000      -0.392697       -10.6858
  76   1.0000      -0.390191       -10.6176
  77   1.0000      -0.386897       -10.5280
  78   1.0000      -0.385112       -10.4794
  79   1.0000      -0.381133       -10.3712
  80   1.0000      -0.380588       -10.3563
  81   1.0000      -0.377020       -10.2592
  82   1.0000      -0.373950       -10.1757
  83   1.0000      -0.372640       -10.1401
  84   1.0000      -0.371412       -10.1066
  85   1.0000      -0.370450       -10.0805
  86   1.0000      -0.369367       -10.0510
  87   1.0000      -0.368879       -10.0377
  88   1.0000      -0.366947        -9.9851
  89   1.0000      -0.366586        -9.9753
  90   1.0000      -0.366347        -9.9688
  91   1.0000      -0.363194        -9.8830
  92   1.0000      -0.360490        -9.8094
  93   1.0000      -0.359465        -9.7815
  94   1.0000      -0.357348        -9.7239
  95   1.0000      -0.353208        -9.6113
  96   1.0000      -0.351351        -9.5607
  97   1.0000      -0.349603        -9.5132
  98   1.0000      -0.344595        -9.3769
  99   1.0000      -0.339622        -9.2416
 100   1.0000      -0.336386        -9.1535
 101   1.0000      -0.335227        -9.1220
 102   1.0000      -0.332747        -9.0545
 103   1.0000      -0.325811        -8.8658
 104   1.0000      -0.318459        -8.6657
 105   1.0000      -0.310300        -8.4437
 106   1.0000      -0.306648        -8.3443
 107   1.0000      -0.247470        -6.7340
 108   1.0000      -0.237926        -6.4743
 109   0.0000      -0.144116        -3.9216
 110   0.0000      -0.084759        -2.3064
 111   0.0000      -0.078163        -2.1269
 112   0.0000      -0.059329        -1.6144
 113   0.0000      -0.043854        -1.1933

                 SPIN DOWN ORBITALS
  NO   OCC          E(Eh)            E(eV)
   0   1.0000    -258.327162     -7029.4395
   1   1.0000     -30.799763      -838.1041
   2   1.0000     -26.510934      -721.3992
   3   1.0000     -26.504392      -721.2212
   4   1.0000     -26.501810      -721.1509
   5   1.0000      -4.404587      -119.8549
   6   1.0000      -4.401971      -119.7837
   7   1.0000      -4.398787      -119.6971
   8   1.0000      -4.397183      -119.6534
   9   1.0000      -4.394698      -119.5858
  10   1.0000      -4.393899      -119.5641
  11   1.0000      -4.393747      -119.5599
  12   1.0000      -4.393537      -119.5542
  13   1.0000      -4.386013      -119.3495
  14   1.0000      -4.380405      -119.1969
  15   1.0000      -3.660956       -99.6197
  16   1.0000      -2.527398       -68.7740
  17   1.0000      -2.522716       -68.6466
  18   1.0000      -2.522279       -68.6347
  19   1.0000      -2.521448       -68.6121
  20   1.0000      -2.519560       -68.5607
  21   1.0000      -2.519118       -68.5487
  22   1.0000      -2.518674       -68.5366
  23   1.0000      -2.517836       -68.5138
  24   1.0000      -2.516388       -68.4744
  25   1.0000      -2.516131       -68.4674
  26   1.0000      -2.515367       -68.4466
  27   1.0000      -2.513551       -68.3972
  28   1.0000      -2.513206       -68.3878
  29   1.0000      -2.512202       -68.3605
  30   1.0000      -2.511917       -68.3527
  31   1.0000      -2.509706       -68.2926
  32   1.0000      -2.509615       -68.2901
  33   1.0000      -2.509360       -68.2831
  34   1.0000      -2.509332       -68.2824
  35   1.0000      -2.508230       -68.2524
  36   1.0000      -2.507796       -68.2406
  37   1.0000      -2.506903       -68.2163
  38   1.0000      -2.505361       -68.1743
  39   1.0000      -2.504508       -68.1511
  40   1.0000      -2.503812       -68.1322
  41   1.0000      -2.503177       -68.1149
  42   1.0000      -2.501473       -68.0685
  43   1.0000      -2.497147       -67.9508
  44   1.0000      -2.496338       -67.9288
  45   1.0000      -2.492210       -67.8165
  46   1.0000      -2.340494       -63.6881
  47   1.0000      -2.336272       -63.5732
  48   1.0000      -2.325985       -63.2933
  49   1.0000      -0.494933       -13.4678
  50   1.0000      -0.478461       -13.0196
  51   1.0000      -0.472150       -12.8479
  52   1.0000      -0.461921       -12.5695
  53   1.0000      -0.459717       -12.5095
  54   1.0000      -0.456584       -12.4243
  55   1.0000      -0.450804       -12.2670
  56   1.0000      -0.447902       -12.1880
  57   1.0000      -0.442943       -12.0531
  58   1.0000      -0.439587       -11.9618
  59   1.0000      -0.436382       -11.8746
  60   1.0000      -0.430623       -11.7179
  61   1.0000      -0.428710       -11.6658
  62   1.0000      -0.425700       -11.5839
  63   1.0000      -0.423302       -11.5186
  64   1.0000      -0.419553       -11.4166
  65   1.0000      -0.418776       -11.3955
  66   1.0000      -0.415452       -11.3050
  67   1.0000      -0.409494       -11.1429
  68   1.0000      -0.406055       -11.0493
  69   1.0000      -0.405457       -11.0330
  70   1.0000      -0.399260       -10.8644
  71   1.0000      -0.394529       -10.7357
  72   1.0000      -0.391465       -10.6523
  73   1.0000      -0.390600       -10.6288
  74   1.0000      -0.387222       -10.5369
  75   1.0000      -0.382942       -10.4204
  76   1.0000      -0.381456       -10.3799
  77   1.0000      -0.380526       -10.3546
  78   1.0000      -0.379997       -10.3403
  79   1.0000      -0.375442       -10.2163
  80   1.0000      -0.374059       -10.1787
  81   1.0000      -0.373185       -10.1549
  82   1.0000      -0.372903       -10.1472
  83   1.0000      -0.371538       -10.1101
  84   1.0000      -0.370459       -10.0807
  85   1.0000      -0.368720       -10.0334
  86   1.0000      -0.368079       -10.0159
  87   1.0000      -0.365643        -9.9497
  88   1.0000      -0.362053        -9.8520
  89   1.0000      -0.361268        -9.8306
  90   1.0000      -0.354366        -9.6428
  91   1.0000      -0.353394        -9.6163
  92   1.0000      -0.352095        -9.5810
  93   1.0000      -0.345279        -9.3955
  94   1.0000      -0.344657        -9.3786
  95   1.0000      -0.342743        -9.3265
  96   1.0000      -0.339464        -9.2373
  97   1.0000      -0.338785        -9.2188
  98   1.0000      -0.333037        -9.0624
  99   1.0000      -0.327861        -8.9215
 100   1.0000      -0.322618        -8.7789
 101   1.0000      -0.320220        -8.7136
 102   1.0000      -0.308123        -8.3845
 103   1.0000      -0.267120        -7.2687
 104   1.0000      -0.254465        -6.9243
 105   1.0000      -0.239697        -6.5225
 106   1.0000      -0.171471        -4.6660
 107   0.0000      -0.093159        -2.5350
 108   0.0000      -0.076523        -2.0823
 109   0.0000      -0.062819        -1.7094
 110   0.0000      -0.035501        -0.9660
 111   0.0000      -0.033718        -0.9175

MULLIKEN ATOMIC CHARGES AND SPIN POPULATIONS
--------------------------------------------
   0 Au:    0.327134   -0.519427
   1 Au:   -0.016919   -0.135118
   2 Au:    0.064456   -0.241455
   3 Au:    0.095033    0.072994
   4 Au:    0.144532   -0.009333
   5 Au:    0.387032   -0.151623
   6 Au:   -0.036801   -0.080358
   7 Au:   -0.559490   -0.052305
   8 Au:    0.388680   -0.458610
   9 Au:    0.107243    0.047647
  10 Fe:   -0.900898    3.527588
Sum of atomic charges         :   -0.0000000

LOEWDIN ATOMIC CHARGES AND SPIN POPULATIONS
-------------------------------------------
   0 Au:    0.056339   -0.340332
   1 Au:   -0.003456   -0.158927
   2 Au:   -0.038141   -0.183031
   3 Au:    0.039893   -0.063449
   4 Au:    0.002932   -0.097488
   5 Au:    0.118314   -0.109401
   6 Au:   -0.048135   -0.070267
   7 Au:   -0.155001   -0.143895
   8 Au:    0.101462   -0.341924
   9 Au:    0.034524   -0.075355
  10 Fe:   -0.108732    3.584069

  Mayer bond orders larger than 0.100000
B(  0-Au,  1-Au) :   0.1861 B(  0-Au,  3-Au) :   0.2250 B(  0-Au,  9-Au) :   0.1908
B(  0-Au, 10-Fe) :   0.1691 B(  1-Au,  4-Au) :   0.3936 B(  1-Au, 10-Fe) :   0.5151
B(  2-Au,  3-Au) :   0.4393 B(  2-Au,  7-Au) :   0.1418 B(  2-Au,  8-Au) :   0.3375
B(  2-Au, 10-Fe) :   0.4184 B(  3-Au, 10-Fe) :   0.5892 B(  4-Au,  7-Au) :   0.3107
B(  4-Au,  8-Au) :   0.1656 B(  4-Au, 10-Fe) :   0.5218 B(  5-Au,  6-Au) :   0.3769
B(  5-Au,  7-Au) :   0.5774 B(  6-Au,  7-Au) :   0.3727 B(  6-Au,  9-Au) :   0.4978
B(  6-Au, 10-Fe) :   0.4542 B(  7-Au,  8-Au) :   0.3053 B(  7-Au, 10-Fe) :   0.3770
B(  9-Au, 10-Fe) :   0.5643

MP2 TOTAL ENERGY:    -2619.306803296 Eh
FINAL SINGLE POINT ENERGY     -2619.306803295982

DIPOLE MOMENT
-------------
                                X             Y             Z
Electronic contribution:     14.85512     -16.29530      -5.54731
Nuclear contribution   :    -14.98823      16.44007       5.75276
                        -----------------------------------------
Total Dipole Moment    :     -0.13312       0.14477       0.20545
                        -----------------------------------------
Magnitude (a.u.)       :      0.28441
Magnitude (Debye)      :      0.72292

Rotational constants in cm-1:     0.002027     0.001391     0.001034
Rotational constants in MHz :    60.776815    41.706928    31.000835

                             ****ORCA TERMINATED NORMALLY****
TOTAL RUN TIME: 0 days 0 hours 16 minutes 3 seconds 502 msec
