                         Program Version 5.0.3 -  RELEASE  -
|  1> !PBE def2-TZVP VERYSLOWCONV
|  2>
|  3> %scf
|  4>   AutoTRAHIter 200
|  5>   maxiter 400
|  6> end
|  7>
|  8>
|  9> %pal nprocs 6 end
| 10>
| 11> *xyzfile 0 5 pbe.xyz
| 12>
| 13> $new_job
| 14>
| 15> !PBE def2-TZVP VERYSLOWCONV
| 16>
| 17> %scf
| 18>   AutoTRAHIter 200
| 19>   maxiter 400
| 20> end
| 21>
| 22>
| 23> %pal nprocs 6 end
| 24>
| 25> *xyzfile 0 3 pbe.xyz
| 26>
| 27>
| 28>
| 29>
| 30>
| 31>                          ****END OF INPUT****
 Total Charge           Charge          ....    0
 Multiplicity           Mult            ....    5
 Number of Electrons    NEL             ....  216
FINAL SINGLE POINT ENERGY     -2621.732519769714

CARTESIAN COORDINATES (ANGSTROEM)
---------------------------------
  Au     6.110258    7.753569    8.464928
  Au     7.021975    5.341953    9.459248
  Au     8.850913    4.597930    5.778213
  Au     7.021015    6.477830    6.188066
  Au     8.846101    3.610362    8.607351
  Au    13.404123    6.222639    7.950417
  Au    11.069018    7.477487    8.360565
  Au    11.248834    4.808644    7.440264
  Au    10.391012    2.427915    6.609431
  Au     8.694286    8.555076    8.727019
  Fe     8.870056    6.161367    7.910426

 Multiplicity           Mult            ....    3
 Number of Electrons    NEL             ....  216
 Basis Dimension        Dim             ....  445

ORBITAL ENERGIES
----------------
                 SPIN UP ORBITALS
  NO   OCC          E(Eh)            E(eV)
   0   1.0000    -254.734301     -6931.6727
   1   1.0000     -29.570139      -804.6444
   2   1.0000     -25.511355      -694.1993
   3   1.0000     -25.505664      -694.0444
   4   1.0000     -25.501882      -693.9415
   5   1.0000      -4.033412      -109.7547
   6   1.0000      -4.026776      -109.5741
   7   1.0000      -4.020924      -109.4149
   8   1.0000      -4.019561      -109.3778
   9   1.0000      -4.018821      -109.3577
  10   1.0000      -4.018770      -109.3563
  11   1.0000      -4.016929      -109.3062
  12   1.0000      -4.012955      -109.1981
  13   1.0000      -4.012891      -109.1963
  14   1.0000      -4.011308      -109.1532
  15   1.0000      -3.344756       -91.0154
  16   1.0000      -2.253301       -61.3154
  17   1.0000      -2.247328       -61.1529
  18   1.0000      -2.246855       -61.1400
  19   1.0000      -2.241487       -60.9940
  20   1.0000      -2.239215       -60.9321
  21   1.0000      -2.238703       -60.9182
  22   1.0000      -2.237684       -60.8905
  23   1.0000      -2.236784       -60.8660
  24   1.0000      -2.235887       -60.8416
  25   1.0000      -2.234724       -60.8099
  26   1.0000      -2.233549       -60.7779
  27   1.0000      -2.233333       -60.7721
  28   1.0000      -2.232718       -60.7554
  29   1.0000      -2.231901       -60.7331
  30   1.0000      -2.231586       -60.7245
  31   1.0000      -2.231351       -60.7182
  32   1.0000      -2.230806       -60.7033
  33   1.0000      -2.230755       -60.7019
  34   1.0000      -2.230323       -60.6902
  35   1.0000      -2.230184       -60.6864
  36   1.0000      -2.229894       -60.6785
  37   1.0000      -2.226776       -60.5937
  38   1.0000      -2.226685       -60.5912
  39   1.0000      -2.225601       -60.5617
  40   1.0000      -2.225046       -60.5466
  41   1.0000      -2.224584       -60.5340
  42   1.0000      -2.221447       -60.4486
  43   1.0000      -2.218603       -60.3713
  44   1.0000      -2.218504       -60.3686
  45   1.0000      -2.216966       -60.3267
  46   1.0000      -2.169653       -59.0393
  47   1.0000      -2.157377       -58.7052
  48   1.0000      -2.149460       -58.4898
  49   1.0000      -0.408880       -11.1262
  50   1.0000      -0.380324       -10.3491
  51   1.0000      -0.375985       -10.2311
  52   1.0000      -0.359739        -9.7890
  53   1.0000      -0.359256        -9.7759
  54   1.0000      -0.355901        -9.6846
  55   1.0000      -0.349526        -9.5111
  56   1.0000      -0.340837        -9.2747
  57   1.0000      -0.339552        -9.2397
  58   1.0000      -0.332143        -9.0381
  59   1.0000      -0.330297        -8.9879
  60   1.0000      -0.323669        -8.8075
  61   1.0000      -0.322688        -8.7808
  62   1.0000      -0.320391        -8.7183
  63   1.0000      -0.319850        -8.7036
  64   1.0000      -0.318048        -8.6545
  65   1.0000      -0.317421        -8.6375
  66   1.0000      -0.314633        -8.5616
  67   1.0000      -0.308997        -8.4082
  68   1.0000      -0.308329        -8.3901
  69   1.0000      -0.307873        -8.3777
  70   1.0000      -0.300118        -8.1666
  71   1.0000      -0.296824        -8.0770
  72   1.0000      -0.293063        -7.9746
  73   1.0000      -0.291894        -7.9429
  74   1.0000      -0.289190        -7.8693
  75   1.0000      -0.285193        -7.7605
  76   1.0000      -0.283674        -7.7192
  77   1.0000      -0.281857        -7.6697
  78   1.0000      -0.278772        -7.5858
  79   1.0000      -0.276214        -7.5162
  80   1.0000      -0.275590        -7.4992
  81   1.0000      -0.272856        -7.4248
  82   1.0000      -0.272526        -7.4158
  83   1.0000      -0.269347        -7.3293
  84   1.0000      -0.268649        -7.3103
  85   1.0000      -0.267515        -7.2795
  86   1.0000      -0.265557        -7.2262
  87   1.0000      -0.264377        -7.1941
  88   1.0000      -0.262827        -7.1519
  89   1.0000      -0.262714        -7.1488
  90   1.0000      -0.261209        -7.1079
  91   1.0000      -0.257266        -7.0006
  92   1.0000      -0.254561        -6.9269
  93   1.0000      -0.253459        -6.8970
  94   1.0000      -0.252395        -6.8680
  95   1.0000      -0.249656        -6.7935
  96   1.0000      -0.246288        -6.7018
  97   1.0000      -0.246070        -6.6959
  98   1.0000      -0.242684        -6.6038
  99   1.0000      -0.242519        -6.5993
 100   1.0000      -0.241681        -6.5765
 101   1.0000      -0.240886        -6.5549
 102   1.0000      -0.238418        -6.4877
 103   1.0000      -0.235605        -6.4111
 104   1.0000      -0.229034        -6.2323
 105   1.0000      -0.219642        -5.9768
 106   1.0000      -0.218600        -5.9484
 107   1.0000      -0.211058        -5.7432
 108   1.0000      -0.207646        -5.6503
 109   0.0000      -0.200158        -5.4466
 110   0.0000      -0.151042        -4.1101
 111   0.0000      -0.143951        -3.9171
 112   0.0000      -0.129777        -3.5314
 113   0.0000      -0.116033        -3.1574

                 SPIN DOWN ORBITALS
  NO   OCC          E(Eh)            E(eV)
   0   1.0000    -254.733718     -6931.6569
   1   1.0000     -29.519011      -803.2531
   2   1.0000     -25.468168      -693.0241
   3   1.0000     -25.468015      -693.0199
   4   1.0000     -25.466909      -692.9898
   5   1.0000      -4.034181      -109.7756
   6   1.0000      -4.025872      -109.5495
   7   1.0000      -4.021956      -109.4430
   8   1.0000      -4.020870      -109.4134
   9   1.0000      -4.018709      -109.3546
  10   1.0000      -4.018664      -109.3534
  11   1.0000      -4.016101      -109.2837
  12   1.0000      -4.012301      -109.1803
  13   1.0000      -4.012230      -109.1783
  14   1.0000      -4.011795      -109.1665
  15   1.0000      -3.228250       -87.8452
  16   1.0000      -2.254638       -61.3518
  17   1.0000      -2.247968       -61.1703
  18   1.0000      -2.245949       -61.1154
  19   1.0000      -2.240467       -60.9662
  20   1.0000      -2.239993       -60.9533
  21   1.0000      -2.239108       -60.9292
  22   1.0000      -2.237488       -60.8851
  23   1.0000      -2.236987       -60.8715
  24   1.0000      -2.236179       -60.8495
  25   1.0000      -2.235142       -60.8213
  26   1.0000      -2.233710       -60.7823
  27   1.0000      -2.233423       -60.7745
  28   1.0000      -2.233249       -60.7698
  29   1.0000      -2.232821       -60.7581
  30   1.0000      -2.232476       -60.7488
  31   1.0000      -2.232158       -60.7401
  32   1.0000      -2.231430       -60.7203
  33   1.0000      -2.229878       -60.6781
  34   1.0000      -2.229479       -60.6672
  35   1.0000      -2.229347       -60.6636
  36   1.0000      -2.229237       -60.6606
  37   1.0000      -2.226432       -60.5843
  38   1.0000      -2.226350       -60.5821
  39   1.0000      -2.225432       -60.5571
  40   1.0000      -2.225304       -60.5536
  41   1.0000      -2.224812       -60.5402
  42   1.0000      -2.220536       -60.4239
  43   1.0000      -2.217884       -60.3517
  44   1.0000      -2.217777       -60.3488
  45   1.0000      -2.217157       -60.3319
  46   1.0000      -2.047161       -55.7061
  47   1.0000      -2.045386       -55.6578
  48   1.0000      -2.041686       -55.5571
  49   1.0000      -0.408922       -11.1273
  50   1.0000      -0.377092       -10.2612
  51   1.0000      -0.376565       -10.2468
  52   1.0000      -0.359232        -9.7752
  53   1.0000      -0.356232        -9.6936
  54   1.0000      -0.354401        -9.6437
  55   1.0000      -0.349649        -9.5144
  56   1.0000      -0.337797        -9.1919
  57   1.0000      -0.335965        -9.1421
  58   1.0000      -0.332153        -9.0383
  59   1.0000      -0.329993        -8.9796
  60   1.0000      -0.323228        -8.7955
  61   1.0000      -0.323151        -8.7934
  62   1.0000      -0.316671        -8.6170
  63   1.0000      -0.316475        -8.6117
  64   1.0000      -0.316269        -8.6061
  65   1.0000      -0.311149        -8.4668
  66   1.0000      -0.310462        -8.4481
  67   1.0000      -0.305838        -8.3223
  68   1.0000      -0.305449        -8.3117
  69   1.0000      -0.303432        -8.2568
  70   1.0000      -0.300006        -8.1636
  71   1.0000      -0.294088        -8.0025
  72   1.0000      -0.291739        -7.9386
  73   1.0000      -0.290690        -7.9101
  74   1.0000      -0.287040        -7.8108
  75   1.0000      -0.283948        -7.7266
  76   1.0000      -0.282293        -7.6816
  77   1.0000      -0.279217        -7.5979
  78   1.0000      -0.278820        -7.5871
  79   1.0000      -0.274735        -7.4759
  80   1.0000      -0.274644        -7.4735
  81   1.0000      -0.272430        -7.4132
  82   1.0000      -0.271811        -7.3964
  83   1.0000      -0.269104        -7.3227
  84   1.0000      -0.268420        -7.3041
  85   1.0000      -0.268379        -7.3030
  86   1.0000      -0.265238        -7.2175
  87   1.0000      -0.265172        -7.2157
  88   1.0000      -0.263089        -7.1590
  89   1.0000      -0.262516        -7.1434
  90   1.0000      -0.261526        -7.1165
  91   1.0000      -0.257294        -7.0013
  92   1.0000      -0.255153        -6.9431
  93   1.0000      -0.253992        -6.9115
  94   1.0000      -0.248761        -6.7691
  95   1.0000      -0.247512        -6.7352
  96   1.0000      -0.246548        -6.7089
  97   1.0000      -0.245108        -6.6697
  98   1.0000      -0.243448        -6.6246
  99   1.0000      -0.243159        -6.6167
 100   1.0000      -0.239221        -6.5095
 101   1.0000      -0.236218        -6.4278
 102   1.0000      -0.221023        -6.0143
 103   1.0000      -0.220834        -6.0092
 104   1.0000      -0.212080        -5.7710
 105   1.0000      -0.173931        -4.7329
 106   1.0000      -0.173415        -4.7189
 107   0.0000      -0.155884        -4.2418
 108   0.0000      -0.144181        -3.9234
 109   0.0000      -0.142299        -3.8722
 110   0.0000      -0.139493        -3.7958
 111   0.0000      -0.137413        -3.7392

MULLIKEN ATOMIC CHARGES AND SPIN POPULATIONS
--------------------------------------------
   0 Au:    0.329740   -0.370830
   1 Au:    0.117022    0.019899
   2 Au:    0.097349   -0.054330
   3 Au:    0.115593    0.020384
   4 Au:    0.094659   -0.056207
   5 Au:    0.358148   -0.039693
   6 Au:   -0.005576   -0.002719
   7 Au:   -0.384635   -0.071502
   8 Au:    0.424014   -0.221654
   9 Au:    0.123853    0.057431
  10 Fe:   -1.270167    2.719223
Sum of atomic charges         :    0.0000000

LOEWDIN ATOMIC CHARGES AND SPIN POPULATIONS
-------------------------------------------
   0 Au:    0.044078   -0.278322
   1 Au:    0.062890   -0.034436
   2 Au:    0.017818   -0.052190
   3 Au:    0.062256   -0.033460
   4 Au:    0.017880   -0.053157
   5 Au:    0.117813   -0.044502
   6 Au:    0.015083    0.016548
   7 Au:   -0.109971   -0.104015
   8 Au:    0.118062   -0.184013
   9 Au:    0.069080   -0.012820
  10 Fe:   -0.414989    2.780367

  Mayer bond orders larger than 0.100000
B(  0-Au,  1-Au) :   0.2801 B(  0-Au,  3-Au) :   0.2795 B(  0-Au,  9-Au) :   0.2809
B(  0-Au, 10-Fe) :   0.2342 B(  1-Au,  4-Au) :   0.4424 B(  1-Au, 10-Fe) :   0.6421
B(  2-Au,  3-Au) :   0.4428 B(  2-Au,  7-Au) :   0.1953 B(  2-Au,  8-Au) :   0.2652
B(  2-Au, 10-Fe) :   0.6102 B(  3-Au, 10-Fe) :   0.6432 B(  4-Au,  7-Au) :   0.1942
B(  4-Au,  8-Au) :   0.2658 B(  4-Au, 10-Fe) :   0.6117 B(  5-Au,  6-Au) :   0.4052
B(  5-Au,  7-Au) :   0.6432 B(  6-Au,  7-Au) :   0.3265 B(  6-Au,  9-Au) :   0.4829
B(  6-Au, 10-Fe) :   0.5522 B(  7-Au,  8-Au) :   0.4514 B(  7-Au, 10-Fe) :   0.3648
B(  8-Au, 10-Fe) :   0.1250 B(  9-Au, 10-Fe) :   0.5937

FINAL SINGLE POINT ENERGY     -2621.706386207966

DIPOLE MOMENT
-------------
                                X             Y             Z
Electronic contribution:     15.20962     -16.56481      -5.79159
Nuclear contribution   :    -14.98823      16.44007       5.75276
                        -----------------------------------------
Total Dipole Moment    :      0.22138      -0.12473      -0.03882
                        -----------------------------------------
Magnitude (a.u.)       :      0.25705
Magnitude (Debye)      :      0.65338

Rotational constants in cm-1:     0.002027     0.001391     0.001034
Rotational constants in MHz :    60.776815    41.706928    31.000835

                             ****ORCA TERMINATED NORMALLY****
TOTAL RUN TIME: 0 days 0 hours 3 minutes 0 seconds 64 msec
