                         Program Version 5.0.3 -  RELEASE  -
|  1> !R2SCAN def2-TZVP VERYSLOWCONV
|  2>
|  3> %scf
|  4>   AutoTRAHIter 400
|  5>   maxiter 800
|  6> end
|  7>
|  8> %pal nprocs 6 end
|  9>
| 10> *xyzfile 0 5 pbe.xyz
| 11>
| 12> $new_job
| 13>
| 14> !R2SCAN def2-TZVP VERYSLOWCONV
| 15> %scf
| 16>   AutoTRAHIter 400
| 17>   maxiter 800
| 18> end
| 19>
| 20>
| 21> %pal nprocs 6 end
| 22>
| 23> *xyzfile 0 3 pbe.xyz
| 24>
| 25>
| 26>
| 27>
| 28>
| 29>                          ****END OF INPUT****
 Total Charge           Charge          ....    0
 Multiplicity           Mult            ....    5
 Number of Electrons    NEL             ....  216
FINAL SINGLE POINT ENERGY     -2622.134701332753

CARTESIAN COORDINATES (ANGSTROEM)
---------------------------------
  Au     6.110258    7.753569    8.464928
  Au     7.021975    5.341953    9.459248
  Au     8.850913    4.597930    5.778213
  Au     7.021015    6.477830    6.188066
  Au     8.846101    3.610362    8.607351
  Au    13.404123    6.222639    7.950417
  Au    11.069018    7.477487    8.360565
  Au    11.248834    4.808644    7.440264
  Au    10.391012    2.427915    6.609431
  Au     8.694286    8.555076    8.727019
  Fe     8.870056    6.161367    7.910426

 Multiplicity           Mult            ....    3
 Number of Electrons    NEL             ....  216
 Basis Dimension        Dim             ....  445

ORBITAL ENERGIES
----------------
                 SPIN UP ORBITALS
  NO   OCC          E(Eh)            E(eV)
   0   1.0000    -255.610730     -6955.5216
   1   1.0000     -29.908092      -813.8405
   2   1.0000     -25.743688      -700.5214
   3   1.0000     -25.737049      -700.3407
   4   1.0000     -25.735902      -700.3095
   5   1.0000      -4.122613      -112.1820
   6   1.0000      -4.117186      -112.0343
   7   1.0000      -4.111278      -111.8735
   8   1.0000      -4.111180      -111.8709
   9   1.0000      -4.109268      -111.8189
  10   1.0000      -4.109190      -111.8167
  11   1.0000      -4.107849      -111.7803
  12   1.0000      -4.104147      -111.6795
  13   1.0000      -4.104047      -111.6768
  14   1.0000      -4.102418      -111.6325
  15   1.0000      -3.486577       -94.8746
  16   1.0000      -2.315032       -62.9952
  17   1.0000      -2.309927       -62.8563
  18   1.0000      -2.309339       -62.8403
  19   1.0000      -2.304417       -62.7064
  20   1.0000      -2.302243       -62.6472
  21   1.0000      -2.301442       -62.6254
  22   1.0000      -2.300953       -62.6121
  23   1.0000      -2.299960       -62.5851
  24   1.0000      -2.299657       -62.5769
  25   1.0000      -2.298982       -62.5585
  26   1.0000      -2.297959       -62.5307
  27   1.0000      -2.296561       -62.4926
  28   1.0000      -2.296549       -62.4923
  29   1.0000      -2.295815       -62.4723
  30   1.0000      -2.294900       -62.4474
  31   1.0000      -2.294711       -62.4422
  32   1.0000      -2.294431       -62.4346
  33   1.0000      -2.294189       -62.4280
  34   1.0000      -2.293812       -62.4178
  35   1.0000      -2.293663       -62.4137
  36   1.0000      -2.293360       -62.4055
  37   1.0000      -2.290607       -62.3306
  38   1.0000      -2.290511       -62.3280
  39   1.0000      -2.289238       -62.2933
  40   1.0000      -2.288659       -62.2776
  41   1.0000      -2.288099       -62.2623
  42   1.0000      -2.285423       -62.1895
  43   1.0000      -2.282579       -62.1121
  44   1.0000      -2.282444       -62.1085
  45   1.0000      -2.281167       -62.0737
  46   1.0000      -2.261524       -61.5392
  47   1.0000      -2.248659       -61.1891
  48   1.0000      -2.245386       -61.1001
  49   1.0000      -0.413916       -11.2632
  50   1.0000      -0.387531       -10.5452
  51   1.0000      -0.383088       -10.4243
  52   1.0000      -0.370119       -10.0715
  53   1.0000      -0.368102       -10.0166
  54   1.0000      -0.365663        -9.9502
  55   1.0000      -0.356640        -9.7047
  56   1.0000      -0.352088        -9.5808
  57   1.0000      -0.349245        -9.5034
  58   1.0000      -0.340851        -9.2750
  59   1.0000      -0.339355        -9.2343
  60   1.0000      -0.334398        -9.0994
  61   1.0000      -0.331473        -9.0198
  62   1.0000      -0.331030        -9.0078
  63   1.0000      -0.330473        -8.9926
  64   1.0000      -0.327742        -8.9183
  65   1.0000      -0.327096        -8.9007
  66   1.0000      -0.323582        -8.8051
  67   1.0000      -0.317994        -8.6531
  68   1.0000      -0.317647        -8.6436
  69   1.0000      -0.316312        -8.6073
  70   1.0000      -0.309234        -8.4147
  71   1.0000      -0.305829        -8.3220
  72   1.0000      -0.301668        -8.2088
  73   1.0000      -0.301500        -8.2042
  74   1.0000      -0.296863        -8.0781
  75   1.0000      -0.294431        -8.0119
  76   1.0000      -0.291355        -7.9282
  77   1.0000      -0.291172        -7.9232
  78   1.0000      -0.287103        -7.8125
  79   1.0000      -0.285211        -7.7610
  80   1.0000      -0.283918        -7.7258
  81   1.0000      -0.281634        -7.6637
  82   1.0000      -0.281468        -7.6591
  83   1.0000      -0.279029        -7.5928
  84   1.0000      -0.277012        -7.5379
  85   1.0000      -0.276002        -7.5104
  86   1.0000      -0.273008        -7.4289
  87   1.0000      -0.272984        -7.4283
  88   1.0000      -0.271705        -7.3935
  89   1.0000      -0.270302        -7.3553
  90   1.0000      -0.269007        -7.3200
  91   1.0000      -0.266322        -7.2470
  92   1.0000      -0.264125        -7.1872
  93   1.0000      -0.261775        -7.1233
  94   1.0000      -0.261453        -7.1145
  95   1.0000      -0.259674        -7.0661
  96   1.0000      -0.258115        -7.0237
  97   1.0000      -0.253918        -6.9095
  98   1.0000      -0.250446        -6.8150
  99   1.0000      -0.250038        -6.8039
 100   1.0000      -0.249859        -6.7990
 101   1.0000      -0.249390        -6.7863
 102   1.0000      -0.246727        -6.7138
 103   1.0000      -0.242848        -6.6082
 104   1.0000      -0.239006        -6.5037
 105   1.0000      -0.231122        -6.2892
 106   1.0000      -0.230947        -6.2844
 107   1.0000      -0.214697        -5.8422
 108   1.0000      -0.212267        -5.7761
 109   0.0000      -0.199231        -5.4214
 110   0.0000      -0.145793        -3.9672
 111   0.0000      -0.139852        -3.8056
 112   0.0000      -0.123578        -3.3627
 113   0.0000      -0.108423        -2.9503

                 SPIN DOWN ORBITALS
  NO   OCC          E(Eh)            E(eV)
   0   1.0000    -255.609818     -6955.4968
   1   1.0000     -29.834462      -811.8370
   2   1.0000     -25.683971      -698.8964
   3   1.0000     -25.682501      -698.8564
   4   1.0000     -25.681694      -698.8344
   5   1.0000      -4.123519      -112.2067
   6   1.0000      -4.116322      -112.0108
   7   1.0000      -4.113261      -111.9275
   8   1.0000      -4.112820      -111.9155
   9   1.0000      -4.109407      -111.8227
  10   1.0000      -4.109335      -111.8207
  11   1.0000      -4.107317      -111.7658
  12   1.0000      -4.103897      -111.6727
  13   1.0000      -4.103784      -111.6697
  14   1.0000      -4.103072      -111.6503
  15   1.0000      -3.321985       -90.3958
  16   1.0000      -2.316571       -63.0371
  17   1.0000      -2.309894       -62.8554
  18   1.0000      -2.308949       -62.8297
  19   1.0000      -2.303810       -62.6898
  20   1.0000      -2.303043       -62.6690
  21   1.0000      -2.301972       -62.6399
  22   1.0000      -2.301868       -62.6370
  23   1.0000      -2.301043       -62.6146
  24   1.0000      -2.300320       -62.5949
  25   1.0000      -2.299722       -62.5786
  26   1.0000      -2.298198       -62.5372
  27   1.0000      -2.297684       -62.5232
  28   1.0000      -2.296711       -62.4967
  29   1.0000      -2.296216       -62.4832
  30   1.0000      -2.296013       -62.4777
  31   1.0000      -2.295546       -62.4650
  32   1.0000      -2.295049       -62.4515
  33   1.0000      -2.293490       -62.4090
  34   1.0000      -2.293171       -62.4004
  35   1.0000      -2.293106       -62.3986
  36   1.0000      -2.292986       -62.3953
  37   1.0000      -2.290772       -62.3351
  38   1.0000      -2.290648       -62.3317
  39   1.0000      -2.289153       -62.2910
  40   1.0000      -2.289041       -62.2880
  41   1.0000      -2.288500       -62.2733
  42   1.0000      -2.284631       -62.1680
  43   1.0000      -2.282033       -62.0973
  44   1.0000      -2.281891       -62.0934
  45   1.0000      -2.281470       -62.0820
  46   1.0000      -2.091194       -56.9043
  47   1.0000      -2.090567       -56.8872
  48   1.0000      -2.089270       -56.8519
  49   1.0000      -0.415053       -11.2942
  50   1.0000      -0.385071       -10.4783
  51   1.0000      -0.384369       -10.4592
  52   1.0000      -0.368251       -10.0206
  53   1.0000      -0.364637        -9.9223
  54   1.0000      -0.363148        -9.8818
  55   1.0000      -0.358320        -9.7504
  56   1.0000      -0.347957        -9.4684
  57   1.0000      -0.344861        -9.3841
  58   1.0000      -0.340675        -9.2702
  59   1.0000      -0.340589        -9.2679
  60   1.0000      -0.332451        -9.0464
  61   1.0000      -0.331936        -9.0324
  62   1.0000      -0.326258        -8.8779
  63   1.0000      -0.325495        -8.8572
  64   1.0000      -0.325257        -8.8507
  65   1.0000      -0.320185        -8.7127
  66   1.0000      -0.320068        -8.7095
  67   1.0000      -0.314897        -8.5688
  68   1.0000      -0.314119        -8.5476
  69   1.0000      -0.311464        -8.4754
  70   1.0000      -0.309338        -8.4175
  71   1.0000      -0.302523        -8.2321
  72   1.0000      -0.299839        -8.1590
  73   1.0000      -0.299798        -8.1579
  74   1.0000      -0.295099        -8.0301
  75   1.0000      -0.291713        -7.9379
  76   1.0000      -0.291207        -7.9241
  77   1.0000      -0.287893        -7.8340
  78   1.0000      -0.287571        -7.8252
  79   1.0000      -0.283445        -7.7129
  80   1.0000      -0.283010        -7.7011
  81   1.0000      -0.281192        -7.6516
  82   1.0000      -0.280400        -7.6301
  83   1.0000      -0.277917        -7.5625
  84   1.0000      -0.277579        -7.5533
  85   1.0000      -0.277536        -7.5521
  86   1.0000      -0.274091        -7.4584
  87   1.0000      -0.273207        -7.4343
  88   1.0000      -0.271338        -7.3835
  89   1.0000      -0.270435        -7.3589
  90   1.0000      -0.270139        -7.3509
  91   1.0000      -0.265531        -7.2255
  92   1.0000      -0.263161        -7.1610
  93   1.0000      -0.262321        -7.1381
  94   1.0000      -0.256651        -6.9838
  95   1.0000      -0.254446        -6.9238
  96   1.0000      -0.254010        -6.9120
  97   1.0000      -0.253589        -6.9005
  98   1.0000      -0.251332        -6.8391
  99   1.0000      -0.251026        -6.8308
 100   1.0000      -0.246758        -6.7146
 101   1.0000      -0.242520        -6.5993
 102   1.0000      -0.225717        -6.1421
 103   1.0000      -0.224239        -6.1018
 104   1.0000      -0.215443        -5.8625
 105   1.0000      -0.173275        -4.7151
 106   1.0000      -0.168415        -4.5828
 107   0.0000      -0.149453        -4.0668
 108   0.0000      -0.135557        -3.6887
 109   0.0000      -0.133449        -3.6313
 110   0.0000      -0.121996        -3.3197
 111   0.0000      -0.121483        -3.3057

MULLIKEN ATOMIC CHARGES AND SPIN POPULATIONS
--------------------------------------------
   0 Au:    0.316390   -0.460020
   1 Au:    0.092393   -0.002671
   2 Au:    0.087003   -0.071282
   3 Au:    0.091018   -0.001458
   4 Au:    0.084359   -0.073160
   5 Au:    0.347842   -0.041607
   6 Au:   -0.003706   -0.002845
   7 Au:   -0.366652   -0.067297
   8 Au:    0.386130   -0.301913
   9 Au:    0.105308    0.038811
  10 Fe:   -1.140085    2.983443
Sum of atomic charges         :   -0.0000000

LOEWDIN ATOMIC CHARGES AND SPIN POPULATIONS
-------------------------------------------
   0 Au:    0.046052   -0.331309
   1 Au:    0.054970   -0.071777
   2 Au:    0.011849   -0.078248
   3 Au:    0.054289   -0.070560
   4 Au:    0.011780   -0.079189
   5 Au:    0.118757   -0.041209
   6 Au:    0.007408    0.004082
   7 Au:   -0.114872   -0.109266
   8 Au:    0.112720   -0.233746
   9 Au:    0.061422   -0.045472
  10 Fe:   -0.364375    3.056693

  Mayer bond orders larger than 0.100000
B(  0-Au,  1-Au) :   0.2634 B(  0-Au,  3-Au) :   0.2624 B(  0-Au,  9-Au) :   0.2489
B(  0-Au, 10-Fe) :   0.1824 B(  1-Au,  4-Au) :   0.4360 B(  1-Au, 10-Fe) :   0.6105
B(  2-Au,  3-Au) :   0.4368 B(  2-Au,  7-Au) :   0.1782 B(  2-Au,  8-Au) :   0.2555
B(  2-Au, 10-Fe) :   0.5849 B(  3-Au, 10-Fe) :   0.6107 B(  4-Au,  7-Au) :   0.1767
B(  4-Au,  8-Au) :   0.2563 B(  4-Au, 10-Fe) :   0.5873 B(  5-Au,  6-Au) :   0.4016
B(  5-Au,  7-Au) :   0.6296 B(  5-Au,  9-Au) :   0.1040 B(  6-Au,  7-Au) :   0.3117
B(  6-Au,  9-Au) :   0.4828 B(  6-Au, 10-Fe) :   0.5295 B(  7-Au,  8-Au) :   0.4231
B(  7-Au, 10-Fe) :   0.3536 B(  8-Au, 10-Fe) :   0.1274 B(  9-Au, 10-Fe) :   0.5803

FINAL SINGLE POINT ENERGY     -2622.103591265123

DIPOLE MOMENT
-------------
                                X             Y             Z
Electronic contribution:     15.20186     -16.50221      -5.77006
Nuclear contribution   :    -14.98823      16.44007       5.75276
                        -----------------------------------------
Total Dipole Moment    :      0.21363      -0.06214      -0.01730
                        -----------------------------------------
Magnitude (a.u.)       :      0.22315
Magnitude (Debye)      :      0.56721

Rotational constants in cm-1:     0.002027     0.001391     0.001034
Rotational constants in MHz :    60.776815    41.706928    31.000835

                             ****ORCA TERMINATED NORMALLY****
TOTAL RUN TIME: 0 days 0 hours 5 minutes 50 seconds 983 msec
