                         Program Version 5.0.3 -  RELEASE  -
|  1> !RI-B2PLYP def2-TZVP def2-TZVP/C
|  2> !RIJCOSX VERYSLOWCONV
|  3>
|  4> %scf
|  5>   AutoTRAHIter 200
|  6>   maxiter 400
|  7> end
|  8>
|  9>
| 10> %pal nprocs 6 end
| 11>
| 12> *xyzfile 0 5 pbe.xyz
| 13>
| 14> $new_job
| 15>
| 16> !RI-B2PLYP def2-TZVP def2-TZVP/C
| 17> !RIJCOSX VERYSLOWCONV
| 18>
| 19> %scf
| 20>   AutoTRAHIter 200
| 21>   maxiter 400
| 22> end
| 23>
| 24>
| 25> %pal nprocs 6 end
| 26>
| 27> *xyzfile 0 3 pbe.xyz
| 28>
| 29>
| 30>
| 31>
| 32>
| 33>                          ****END OF INPUT****
 Total Charge           Charge          ....    0
 Multiplicity           Mult            ....    5
 Number of Electrons    NEL             ....  330
MP2 TOTAL ENERGY:    -3432.978466305 Eh
FINAL SINGLE POINT ENERGY     -3432.978466304698

CARTESIAN COORDINATES (ANGSTROEM)
---------------------------------
  Au    10.957578    6.031971    7.021700
  Au     5.361030    9.046427   10.530731
  Au     7.533380    7.294619   11.001785
  Au     9.341546    6.680263    9.140317
  Au     9.555219    8.362764    6.907185
  Au     7.433026    9.969783    6.351829
  Au     5.113603    9.796674    7.925486
  Au     7.812672    9.194024    8.980092
  Au     5.194151    8.640084    5.393103
  Au     7.656368    7.421276    5.056093
  Au     8.312161    5.373539    6.809477
  Au     4.972714    6.288429   10.917855
  Au     3.551985    7.436970    7.224629
  Au     7.018729    4.997384    9.237041
  Au     5.709743    5.874611    6.282554
  Au     4.287731    5.113419    8.529789
  Fe     5.926053    7.311350    8.560386

 Multiplicity           Mult            ....    3
 Number of Electrons    NEL             ....  330
 Basis Dimension        Dim             ....  685

ORBITAL ENERGIES
----------------
                 SPIN UP ORBITALS
  NO   OCC          E(Eh)            E(eV)
   0   1.0000    -258.344234     -7029.9040
   1   1.0000     -30.902333      -840.8952
   2   1.0000     -26.618582      -724.3284
   3   1.0000     -26.598812      -723.7905
   4   1.0000     -26.584512      -723.4014
   5   1.0000      -4.413097      -120.0865
   6   1.0000      -4.413007      -120.0840
   7   1.0000      -4.412012      -120.0569
   8   1.0000      -4.409596      -119.9912
   9   1.0000      -4.405737      -119.8862
  10   1.0000      -4.405395      -119.8769
  11   1.0000      -4.402402      -119.7955
  12   1.0000      -4.399813      -119.7250
  13   1.0000      -4.399524      -119.7171
  14   1.0000      -4.398345      -119.6851
  15   1.0000      -4.395723      -119.6137
  16   1.0000      -4.393906      -119.5643
  17   1.0000      -4.391712      -119.5046
  18   1.0000      -4.390154      -119.4622
  19   1.0000      -4.388922      -119.4286
  20   1.0000      -4.381989      -119.2400
  21   1.0000      -3.914932      -106.5307
  22   1.0000      -2.661786       -72.4309
  23   1.0000      -2.620066       -71.2956
  24   1.0000      -2.589272       -70.4577
  25   1.0000      -2.533629       -68.9436
  26   1.0000      -2.532584       -68.9151
  27   1.0000      -2.531895       -68.8964
  28   1.0000      -2.531033       -68.8729
  29   1.0000      -2.530526       -68.8591
  30   1.0000      -2.530385       -68.8553
  31   1.0000      -2.529326       -68.8265
  32   1.0000      -2.529277       -68.8251
  33   1.0000      -2.527811       -68.7852
  34   1.0000      -2.527709       -68.7825
  35   1.0000      -2.527331       -68.7722
  36   1.0000      -2.526311       -68.7444
  37   1.0000      -2.524926       -68.7067
  38   1.0000      -2.524538       -68.6962
  39   1.0000      -2.523598       -68.6706
  40   1.0000      -2.522865       -68.6507
  41   1.0000      -2.522008       -68.6273
  42   1.0000      -2.521064       -68.6016
  43   1.0000      -2.520513       -68.5866
  44   1.0000      -2.519276       -68.5530
  45   1.0000      -2.519074       -68.5475
  46   1.0000      -2.518291       -68.5262
  47   1.0000      -2.516942       -68.4895
  48   1.0000      -2.516815       -68.4860
  49   1.0000      -2.515992       -68.4636
  50   1.0000      -2.515872       -68.4604
  51   1.0000      -2.515186       -68.4417
  52   1.0000      -2.514467       -68.4221
  53   1.0000      -2.514271       -68.4168
  54   1.0000      -2.514114       -68.4125
  55   1.0000      -2.513813       -68.4043
  56   1.0000      -2.513661       -68.4002
  57   1.0000      -2.512414       -68.3663
  58   1.0000      -2.511997       -68.3549
  59   1.0000      -2.510622       -68.3175
  60   1.0000      -2.510337       -68.3097
  61   1.0000      -2.509407       -68.2844
  62   1.0000      -2.509218       -68.2793
  63   1.0000      -2.508095       -68.2487
  64   1.0000      -2.506932       -68.2171
  65   1.0000      -2.506442       -68.2038
  66   1.0000      -2.506197       -68.1971
  67   1.0000      -2.505787       -68.1859
  68   1.0000      -2.504161       -68.1417
  69   1.0000      -2.503862       -68.1335
  70   1.0000      -2.500715       -68.0479
  71   1.0000      -2.497717       -67.9663
  72   1.0000      -2.496362       -67.9295
  73   1.0000      -0.568180       -15.4610
  74   1.0000      -0.564751       -15.3676
  75   1.0000      -0.551715       -15.0129
  76   1.0000      -0.534888       -14.5550
  77   1.0000      -0.518980       -14.1222
  78   1.0000      -0.490569       -13.3491
  79   1.0000      -0.480389       -13.0721
  80   1.0000      -0.477074       -12.9818
  81   1.0000      -0.470833       -12.8120
  82   1.0000      -0.468786       -12.7563
  83   1.0000      -0.467243       -12.7143
  84   1.0000      -0.466330       -12.6895
  85   1.0000      -0.463826       -12.6213
  86   1.0000      -0.463509       -12.6127
  87   1.0000      -0.460373       -12.5274
  88   1.0000      -0.457851       -12.4588
  89   1.0000      -0.457562       -12.4509
  90   1.0000      -0.456843       -12.4313
  91   1.0000      -0.455995       -12.4083
  92   1.0000      -0.454067       -12.3558
  93   1.0000      -0.451640       -12.2898
  94   1.0000      -0.450580       -12.2609
  95   1.0000      -0.449719       -12.2375
  96   1.0000      -0.447348       -12.1730
  97   1.0000      -0.445549       -12.1240
  98   1.0000      -0.444977       -12.1084
  99   1.0000      -0.442226       -12.0336
 100   1.0000      -0.438455       -11.9310
 101   1.0000      -0.437511       -11.9053
 102   1.0000      -0.434884       -11.8338
 103   1.0000      -0.434545       -11.8246
 104   1.0000      -0.432393       -11.7660
 105   1.0000      -0.429890       -11.6979
 106   1.0000      -0.427087       -11.6216
 107   1.0000      -0.426813       -11.6142
 108   1.0000      -0.425003       -11.5649
 109   1.0000      -0.420930       -11.4541
 110   1.0000      -0.419927       -11.4268
 111   1.0000      -0.415916       -11.3176
 112   1.0000      -0.410271       -11.1640
 113   1.0000      -0.407126       -11.0785
 114   1.0000      -0.403701       -10.9853
 115   1.0000      -0.399938       -10.8829
 116   1.0000      -0.396733       -10.7957
 117   1.0000      -0.395355       -10.7582
 118   1.0000      -0.392782       -10.6882
 119   1.0000      -0.391130       -10.6432
 120   1.0000      -0.389486       -10.5985
 121   1.0000      -0.387022       -10.5314
 122   1.0000      -0.386506       -10.5174
 123   1.0000      -0.383197       -10.4273
 124   1.0000      -0.379894       -10.3375
 125   1.0000      -0.378402       -10.2968
 126   1.0000      -0.377736       -10.2787
 127   1.0000      -0.376122       -10.2348
 128   1.0000      -0.375227       -10.2104
 129   1.0000      -0.374025       -10.1777
 130   1.0000      -0.371916       -10.1203
 131   1.0000      -0.371075       -10.0975
 132   1.0000      -0.369885       -10.0651
 133   1.0000      -0.368696       -10.0327
 134   1.0000      -0.367235        -9.9930
 135   1.0000      -0.365814        -9.9543
 136   1.0000      -0.364997        -9.9321
 137   1.0000      -0.362455        -9.8629
 138   1.0000      -0.361381        -9.8337
 139   1.0000      -0.360637        -9.8134
 140   1.0000      -0.358958        -9.7677
 141   1.0000      -0.357312        -9.7230
 142   1.0000      -0.355257        -9.6670
 143   1.0000      -0.353900        -9.6301
 144   1.0000      -0.351577        -9.5669
 145   1.0000      -0.350692        -9.5428
 146   1.0000      -0.349227        -9.5029
 147   1.0000      -0.347224        -9.4485
 148   1.0000      -0.345957        -9.4140
 149   1.0000      -0.343532        -9.3480
 150   1.0000      -0.341766        -9.2999
 151   1.0000      -0.341106        -9.2820
 152   1.0000      -0.336867        -9.1666
 153   1.0000      -0.336101        -9.1458
 154   1.0000      -0.334992        -9.1156
 155   1.0000      -0.332393        -9.0449
 156   1.0000      -0.329024        -8.9532
 157   1.0000      -0.326130        -8.8744
 158   1.0000      -0.320002        -8.7077
 159   1.0000      -0.316790        -8.6203
 160   1.0000      -0.314560        -8.5596
 161   1.0000      -0.307398        -8.3647
 162   1.0000      -0.252005        -6.8574
 163   1.0000      -0.241336        -6.5671
 164   1.0000      -0.237150        -6.4532
 165   1.0000      -0.226520        -6.1639
 166   0.0000      -0.143781        -3.9125
 167   0.0000      -0.088009        -2.3948
 168   0.0000      -0.077598        -2.1116
 169   0.0000      -0.076295        -2.0761
 170   0.0000      -0.069501        -1.8912

                 SPIN DOWN ORBITALS
  NO   OCC          E(Eh)            E(eV)
   0   1.0000    -258.342318     -7029.8519
   1   1.0000     -30.810064      -838.3845
   2   1.0000     -26.521246      -721.6798
   3   1.0000     -26.515927      -721.5351
   4   1.0000     -26.511903      -721.4256
   5   1.0000      -4.413484      -120.0970
   6   1.0000      -4.412985      -120.0834
   7   1.0000      -4.411218      -120.0353
   8   1.0000      -4.409875      -119.9988
   9   1.0000      -4.406299      -119.9015
  10   1.0000      -4.405501      -119.8798
  11   1.0000      -4.402079      -119.7867
  12   1.0000      -4.400527      -119.7444
  13   1.0000      -4.400424      -119.7416
  14   1.0000      -4.398067      -119.6775
  15   1.0000      -4.396875      -119.6450
  16   1.0000      -4.394498      -119.5804
  17   1.0000      -4.393151      -119.5437
  18   1.0000      -4.391933      -119.5106
  19   1.0000      -4.389448      -119.4429
  20   1.0000      -4.383880      -119.2914
  21   1.0000      -3.671691       -99.9118
  22   1.0000      -2.532593       -68.9154
  23   1.0000      -2.532126       -68.9027
  24   1.0000      -2.531043       -68.8732
  25   1.0000      -2.530267       -68.8521
  26   1.0000      -2.529919       -68.8426
  27   1.0000      -2.529644       -68.8351
  28   1.0000      -2.529105       -68.8205
  29   1.0000      -2.528478       -68.8034
  30   1.0000      -2.527867       -68.7868
  31   1.0000      -2.527420       -68.7746
  32   1.0000      -2.526964       -68.7622
  33   1.0000      -2.525954       -68.7347
  34   1.0000      -2.524519       -68.6956
  35   1.0000      -2.524008       -68.6817
  36   1.0000      -2.523606       -68.6708
  37   1.0000      -2.522956       -68.6531
  38   1.0000      -2.521953       -68.6258
  39   1.0000      -2.520803       -68.5945
  40   1.0000      -2.520299       -68.5808
  41   1.0000      -2.519537       -68.5601
  42   1.0000      -2.519333       -68.5545
  43   1.0000      -2.518443       -68.5303
  44   1.0000      -2.517592       -68.5072
  45   1.0000      -2.516868       -68.4875
  46   1.0000      -2.516726       -68.4836
  47   1.0000      -2.516484       -68.4770
  48   1.0000      -2.515993       -68.4636
  49   1.0000      -2.515570       -68.4522
  50   1.0000      -2.515269       -68.4440
  51   1.0000      -2.514967       -68.4357
  52   1.0000      -2.514711       -68.4288
  53   1.0000      -2.514209       -68.4151
  54   1.0000      -2.512610       -68.3716
  55   1.0000      -2.512196       -68.3603
  56   1.0000      -2.511361       -68.3376
  57   1.0000      -2.511147       -68.3318
  58   1.0000      -2.510630       -68.3177
  59   1.0000      -2.510466       -68.3133
  60   1.0000      -2.509606       -68.2898
  61   1.0000      -2.508235       -68.2526
  62   1.0000      -2.507802       -68.2407
  63   1.0000      -2.507248       -68.2257
  64   1.0000      -2.506816       -68.2139
  65   1.0000      -2.505234       -68.1709
  66   1.0000      -2.504371       -68.1474
  67   1.0000      -2.502934       -68.1083
  68   1.0000      -2.499555       -68.0163
  69   1.0000      -2.497365       -67.9568
  70   1.0000      -2.351628       -63.9910
  71   1.0000      -2.347569       -63.8806
  72   1.0000      -2.338583       -63.6361
  73   1.0000      -0.514604       -14.0031
  74   1.0000      -0.484499       -13.1839
  75   1.0000      -0.479966       -13.0605
  76   1.0000      -0.474913       -12.9230
  77   1.0000      -0.472777       -12.8649
  78   1.0000      -0.471487       -12.8298
  79   1.0000      -0.470053       -12.7908
  80   1.0000      -0.469637       -12.7795
  81   1.0000      -0.469148       -12.7662
  82   1.0000      -0.466808       -12.7025
  83   1.0000      -0.464304       -12.6343
  84   1.0000      -0.463853       -12.6221
  85   1.0000      -0.461307       -12.5528
  86   1.0000      -0.459993       -12.5170
  87   1.0000      -0.458724       -12.4825
  88   1.0000      -0.457831       -12.4582
  89   1.0000      -0.455686       -12.3999
  90   1.0000      -0.453978       -12.3534
  91   1.0000      -0.452812       -12.3216
  92   1.0000      -0.449903       -12.2425
  93   1.0000      -0.449111       -12.2209
  94   1.0000      -0.446970       -12.1627
  95   1.0000      -0.444323       -12.0906
  96   1.0000      -0.441052       -12.0016
  97   1.0000      -0.440426       -11.9846
  98   1.0000      -0.438492       -11.9320
  99   1.0000      -0.437202       -11.8969
 100   1.0000      -0.433959       -11.8086
 101   1.0000      -0.432301       -11.7635
 102   1.0000      -0.430904       -11.7255
 103   1.0000      -0.428063       -11.6482
 104   1.0000      -0.424562       -11.5529
 105   1.0000      -0.423043       -11.5116
 106   1.0000      -0.418710       -11.3937
 107   1.0000      -0.415023       -11.2934
 108   1.0000      -0.413329       -11.2473
 109   1.0000      -0.405579       -11.0364
 110   1.0000      -0.405223       -11.0267
 111   1.0000      -0.402183       -10.9440
 112   1.0000      -0.400532       -10.8990
 113   1.0000      -0.399105       -10.8602
 114   1.0000      -0.396003       -10.7758
 115   1.0000      -0.392588       -10.6829
 116   1.0000      -0.389961       -10.6114
 117   1.0000      -0.388025       -10.5587
 118   1.0000      -0.387282       -10.5385
 119   1.0000      -0.384797       -10.4709
 120   1.0000      -0.381872       -10.3913
 121   1.0000      -0.380192       -10.3455
 122   1.0000      -0.378533       -10.3004
 123   1.0000      -0.378029       -10.2867
 124   1.0000      -0.375889       -10.2285
 125   1.0000      -0.374655       -10.1949
 126   1.0000      -0.374377       -10.1873
 127   1.0000      -0.373477       -10.1628
 128   1.0000      -0.371347       -10.1049
 129   1.0000      -0.369453       -10.0533
 130   1.0000      -0.368345       -10.0232
 131   1.0000      -0.366421        -9.9708
 132   1.0000      -0.365799        -9.9539
 133   1.0000      -0.363110        -9.8807
 134   1.0000      -0.362512        -9.8645
 135   1.0000      -0.360808        -9.8181
 136   1.0000      -0.360165        -9.8006
 137   1.0000      -0.358077        -9.7438
 138   1.0000      -0.355401        -9.6709
 139   1.0000      -0.355303        -9.6683
 140   1.0000      -0.353705        -9.6248
 141   1.0000      -0.352280        -9.5860
 142   1.0000      -0.349427        -9.5084
 143   1.0000      -0.348153        -9.4737
 144   1.0000      -0.346331        -9.4241
 145   1.0000      -0.345321        -9.3967
 146   1.0000      -0.344844        -9.3837
 147   1.0000      -0.342585        -9.3222
 148   1.0000      -0.338872        -9.2212
 149   1.0000      -0.337172        -9.1749
 150   1.0000      -0.336364        -9.1529
 151   1.0000      -0.334098        -9.0913
 152   1.0000      -0.331238        -9.0134
 153   1.0000      -0.328688        -8.9441
 154   1.0000      -0.325009        -8.8439
 155   1.0000      -0.322168        -8.7666
 156   1.0000      -0.320565        -8.7230
 157   1.0000      -0.315739        -8.5917
 158   1.0000      -0.265813        -7.2331
 159   1.0000      -0.247869        -6.7449
 160   1.0000      -0.245092        -6.6693
 161   1.0000      -0.238697        -6.4953
 162   1.0000      -0.234820        -6.3898
 163   1.0000      -0.170935        -4.6514
 164   0.0000      -0.083064        -2.2603
 165   0.0000      -0.081103        -2.2069
 166   0.0000      -0.073203        -1.9919
 167   0.0000      -0.068978        -1.8770
 168   0.0000      -0.065687        -1.7874

MULLIKEN ATOMIC CHARGES AND SPIN POPULATIONS
--------------------------------------------
   0 Au:    0.471816   -0.312771
   1 Au:    0.319808   -0.000679
   2 Au:    0.294868   -0.085005
   3 Au:   -0.344106    0.007285
   4 Au:   -0.194808   -0.040042
   5 Au:    0.193780   -0.098494
   6 Au:    0.211704   -0.251012
   7 Au:   -0.172169   -0.072809
   8 Au:    0.053167   -0.113682
   9 Au:    0.175912   -0.018915
  10 Au:   -0.209497    0.019528
  11 Au:    0.262029    0.049887
  12 Au:    0.258319   -0.134960
  13 Au:    0.210885   -0.218773
  14 Au:   -0.057606   -0.115957
  15 Au:    0.244159   -0.098503
  16 Fe:   -1.718261    3.484903
Sum of atomic charges         :    0.0000000

LOEWDIN ATOMIC CHARGES AND SPIN POPULATIONS
-------------------------------------------
   0 Au:    0.110102   -0.209566
   1 Au:    0.077143   -0.064182
   2 Au:    0.021285   -0.079864
   3 Au:   -0.073152   -0.082888
   4 Au:   -0.072476   -0.052500
   5 Au:    0.008727   -0.108742
   6 Au:    0.013449   -0.168961
   7 Au:   -0.008927   -0.068741
   8 Au:   -0.020262   -0.137866
   9 Au:    0.008047   -0.028849
  10 Au:   -0.075920   -0.074250
  11 Au:    0.049312   -0.003664
  12 Au:    0.070548   -0.142499
  13 Au:    0.048012   -0.116735
  14 Au:   -0.024811   -0.078658
  15 Au:    0.065569   -0.122604
  16 Fe:   -0.196646    3.540569

  Mayer bond orders larger than 0.100000
B(  0-Au,  3-Au) :   0.3639 B(  0-Au,  4-Au) :   0.2395 B(  0-Au, 10-Au) :   0.2600
B(  1-Au,  2-Au) :   0.1616 B(  1-Au,  6-Au) :   0.2483 B(  1-Au,  7-Au) :   0.1725
B(  1-Au, 11-Au) :   0.1685 B(  1-Au, 16-Fe) :   0.4154 B(  2-Au,  3-Au) :   0.4034
B(  2-Au,  7-Au) :   0.1722 B(  2-Au, 11-Au) :   0.2272 B(  2-Au, 13-Au) :   0.1058
B(  2-Au, 16-Fe) :   0.2476 B(  3-Au,  4-Au) :   0.3237 B(  3-Au,  7-Au) :   0.1971
B(  3-Au, 10-Au) :   0.2767 B(  3-Au, 13-Au) :   0.2463 B(  3-Au, 16-Fe) :   0.1890
B(  4-Au,  5-Au) :   0.3295 B(  4-Au,  7-Au) :   0.2820 B(  4-Au,  9-Au) :   0.2326
B(  4-Au, 10-Au) :   0.2592 B(  5-Au,  6-Au) :   0.2223 B(  5-Au,  7-Au) :   0.2836
B(  5-Au,  8-Au) :   0.2762 B(  5-Au,  9-Au) :   0.1923 B(  6-Au,  7-Au) :   0.1257
B(  6-Au,  8-Au) :   0.2254 B(  6-Au, 12-Au) :   0.1604 B(  6-Au, 16-Fe) :   0.4161
B(  7-Au, 16-Fe) :   0.4706 B(  8-Au,  9-Au) :   0.2705 B(  8-Au, 12-Au) :   0.2715
B(  8-Au, 14-Au) :   0.1727 B(  8-Au, 16-Fe) :   0.1345 B(  9-Au, 10-Au) :   0.2310
B(  9-Au, 14-Au) :   0.2828 B( 10-Au, 13-Au) :   0.2321 B( 10-Au, 14-Au) :   0.3791
B( 10-Au, 16-Fe) :   0.2098 B( 11-Au, 13-Au) :   0.1249 B( 11-Au, 15-Au) :   0.1953
B( 11-Au, 16-Fe) :   0.3835 B( 12-Au, 14-Au) :   0.1206 B( 12-Au, 15-Au) :   0.1321
B( 12-Au, 16-Fe) :   0.4476 B( 13-Au, 15-Au) :   0.1737 B( 13-Au, 16-Fe) :   0.4164
B( 14-Au, 15-Au) :   0.2920 B( 14-Au, 16-Fe) :   0.4324 B( 15-Au, 16-Fe) :   0.3760

MP2 TOTAL ENERGY:    -3432.929106022 Eh
FINAL SINGLE POINT ENERGY     -3432.929106022112

DIPOLE MOMENT
-------------
                                X             Y             Z
Electronic contribution:     35.41197       1.12572     -22.68180
Nuclear contribution   :    -35.86919      -1.29328      23.09945
                        -----------------------------------------
Total Dipole Moment    :     -0.45722      -0.16756       0.41765
                        -----------------------------------------
Magnitude (a.u.)       :      0.64153
Magnitude (Debye)      :      1.63063

Rotational constants in cm-1:     0.000938     0.000796     0.000699
Rotational constants in MHz :    28.122525    23.874549    20.955644

                             ****ORCA TERMINATED NORMALLY****
TOTAL RUN TIME: 0 days 0 hours 56 minutes 22 seconds 561 msec
