                         Program Version 5.0.3 -  RELEASE  -
|  1> !PBE def2-TZVP VERYSLOWCONV
|  2>
|  3> %scf
|  4>   AutoTRAHIter 200
|  5>   maxiter 400
|  6> end
|  7>
|  8>
|  9> %pal nprocs 6 end
| 10>
| 11> *xyzfile 0 5 pbe.xyz
| 12>
| 13> $new_job
| 14>
| 15> !PBE def2-TZVP VERYSLOWCONV
| 16>
| 17> %scf
| 18>   AutoTRAHIter 200
| 19>   maxiter 400
| 20> end
| 21>
| 22>
| 23> %pal nprocs 6 end
| 24>
| 25> *xyzfile 0 3 pbe.xyz
| 26>
| 27>
| 28>
| 29>
| 30>
| 31>                          ****END OF INPUT****
 Total Charge           Charge          ....    0
 Multiplicity           Mult            ....    5
 Number of Electrons    NEL             ....  330
FINAL SINGLE POINT ENERGY     -3436.756939311186

CARTESIAN COORDINATES (ANGSTROEM)
---------------------------------
  Au    10.957578    6.031971    7.021700
  Au     5.361030    9.046427   10.530731
  Au     7.533380    7.294619   11.001785
  Au     9.341546    6.680263    9.140317
  Au     9.555219    8.362764    6.907185
  Au     7.433026    9.969783    6.351829
  Au     5.113603    9.796674    7.925486
  Au     7.812672    9.194024    8.980092
  Au     5.194151    8.640084    5.393103
  Au     7.656368    7.421276    5.056093
  Au     8.312161    5.373539    6.809477
  Au     4.972714    6.288429   10.917855
  Au     3.551985    7.436970    7.224629
  Au     7.018729    4.997384    9.237041
  Au     5.709743    5.874611    6.282554
  Au     4.287731    5.113419    8.529789
  Fe     5.926053    7.311350    8.560386

 Multiplicity           Mult            ....    3
 Number of Electrons    NEL             ....  330
 Basis Dimension        Dim             ....  685

ORBITAL ENERGIES
----------------
                 SPIN UP ORBITALS
  NO   OCC          E(Eh)            E(eV)
   0   1.0000    -254.738998     -6931.8005
   1   1.0000     -29.565159      -804.5089
   2   1.0000     -25.504537      -694.0137
   3   1.0000     -25.502564      -693.9601
   4   1.0000     -25.500530      -693.9047
   5   1.0000      -4.039192      -109.9120
   6   1.0000      -4.037053      -109.8538
   7   1.0000      -4.034044      -109.7719
   8   1.0000      -4.033508      -109.7573
   9   1.0000      -4.032398      -109.7271
  10   1.0000      -4.030909      -109.6866
  11   1.0000      -4.029290      -109.6426
  12   1.0000      -4.027698      -109.5992
  13   1.0000      -4.027012      -109.5806
  14   1.0000      -4.026298      -109.5611
  15   1.0000      -4.025523      -109.5401
  16   1.0000      -4.024186      -109.5037
  17   1.0000      -4.024123      -109.5020
  18   1.0000      -4.023414      -109.4827
  19   1.0000      -4.020345      -109.3992
  20   1.0000      -4.019159      -109.3669
  21   1.0000      -3.336120       -90.7804
  22   1.0000      -2.255132       -61.3652
  23   1.0000      -2.252533       -61.2945
  24   1.0000      -2.251310       -61.2613
  25   1.0000      -2.250619       -61.2425
  26   1.0000      -2.250065       -61.2274
  27   1.0000      -2.249930       -61.2237
  28   1.0000      -2.249438       -61.2103
  29   1.0000      -2.248436       -61.1831
  30   1.0000      -2.247812       -61.1661
  31   1.0000      -2.247130       -61.1475
  32   1.0000      -2.246606       -61.1333
  33   1.0000      -2.246024       -61.1174
  34   1.0000      -2.245507       -61.1034
  35   1.0000      -2.245141       -61.0934
  36   1.0000      -2.244912       -61.0872
  37   1.0000      -2.244340       -61.0716
  38   1.0000      -2.244211       -61.0681
  39   1.0000      -2.244178       -61.0672
  40   1.0000      -2.243030       -61.0360
  41   1.0000      -2.242897       -61.0323
  42   1.0000      -2.242663       -61.0260
  43   1.0000      -2.242140       -61.0117
  44   1.0000      -2.241587       -60.9967
  45   1.0000      -2.241029       -60.9815
  46   1.0000      -2.240784       -60.9748
  47   1.0000      -2.240637       -60.9708
  48   1.0000      -2.240214       -60.9593
  49   1.0000      -2.239723       -60.9460
  50   1.0000      -2.238744       -60.9193
  51   1.0000      -2.238423       -60.9106
  52   1.0000      -2.238185       -60.9041
  53   1.0000      -2.237747       -60.8922
  54   1.0000      -2.237699       -60.8909
  55   1.0000      -2.237543       -60.8867
  56   1.0000      -2.237236       -60.8783
  57   1.0000      -2.236729       -60.8645
  58   1.0000      -2.236361       -60.8545
  59   1.0000      -2.235431       -60.8292
  60   1.0000      -2.235020       -60.8180
  61   1.0000      -2.234919       -60.8152
  62   1.0000      -2.234047       -60.7915
  63   1.0000      -2.233847       -60.7861
  64   1.0000      -2.233365       -60.7729
  65   1.0000      -2.232945       -60.7615
  66   1.0000      -2.232268       -60.7431
  67   1.0000      -2.231031       -60.7094
  68   1.0000      -2.229423       -60.6657
  69   1.0000      -2.228963       -60.6532
  70   1.0000      -2.155832       -58.6632
  71   1.0000      -2.151431       -58.5434
  72   1.0000      -2.145312       -58.3769
  73   1.0000      -0.430646       -11.7185
  74   1.0000      -0.397414       -10.8142
  75   1.0000      -0.392635       -10.6841
  76   1.0000      -0.387778       -10.5520
  77   1.0000      -0.374940       -10.2026
  78   1.0000      -0.373760       -10.1705
  79   1.0000      -0.370609       -10.0848
  80   1.0000      -0.369557       -10.0562
  81   1.0000      -0.368685       -10.0324
  82   1.0000      -0.365872        -9.9559
  83   1.0000      -0.361935        -9.8488
  84   1.0000      -0.359779        -9.7901
  85   1.0000      -0.356763        -9.7080
  86   1.0000      -0.356202        -9.6927
  87   1.0000      -0.353873        -9.6294
  88   1.0000      -0.352140        -9.5822
  89   1.0000      -0.349276        -9.5043
  90   1.0000      -0.348893        -9.4939
  91   1.0000      -0.348340        -9.4788
  92   1.0000      -0.346965        -9.4414
  93   1.0000      -0.345713        -9.4073
  94   1.0000      -0.343367        -9.3435
  95   1.0000      -0.339999        -9.2518
  96   1.0000      -0.339291        -9.2326
  97   1.0000      -0.336684        -9.1616
  98   1.0000      -0.335323        -9.1246
  99   1.0000      -0.333799        -9.0831
 100   1.0000      -0.330937        -9.0053
 101   1.0000      -0.330743        -9.0000
 102   1.0000      -0.327245        -8.9048
 103   1.0000      -0.325607        -8.8602
 104   1.0000      -0.322151        -8.7662
 105   1.0000      -0.320877        -8.7315
 106   1.0000      -0.319959        -8.7065
 107   1.0000      -0.315802        -8.5934
 108   1.0000      -0.314411        -8.5555
 109   1.0000      -0.311968        -8.4891
 110   1.0000      -0.306436        -8.3386
 111   1.0000      -0.305374        -8.3096
 112   1.0000      -0.303425        -8.2566
 113   1.0000      -0.301592        -8.2067
 114   1.0000      -0.297043        -8.0830
 115   1.0000      -0.296087        -8.0569
 116   1.0000      -0.292662        -7.9637
 117   1.0000      -0.291147        -7.9225
 118   1.0000      -0.288015        -7.8373
 119   1.0000      -0.287358        -7.8194
 120   1.0000      -0.285462        -7.7678
 121   1.0000      -0.284285        -7.7358
 122   1.0000      -0.282826        -7.6961
 123   1.0000      -0.280755        -7.6397
 124   1.0000      -0.278797        -7.5865
 125   1.0000      -0.277137        -7.5413
 126   1.0000      -0.276537        -7.5249
 127   1.0000      -0.275422        -7.4946
 128   1.0000      -0.274319        -7.4646
 129   1.0000      -0.272889        -7.4257
 130   1.0000      -0.272202        -7.4070
 131   1.0000      -0.270841        -7.3700
 132   1.0000      -0.270674        -7.3654
 133   1.0000      -0.268773        -7.3137
 134   1.0000      -0.268422        -7.3041
 135   1.0000      -0.267150        -7.2695
 136   1.0000      -0.265581        -7.2268
 137   1.0000      -0.264270        -7.1911
 138   1.0000      -0.262738        -7.1495
 139   1.0000      -0.260575        -7.0906
 140   1.0000      -0.258580        -7.0363
 141   1.0000      -0.257709        -7.0126
 142   1.0000      -0.256798        -6.9878
 143   1.0000      -0.256022        -6.9667
 144   1.0000      -0.253896        -6.9089
 145   1.0000      -0.253039        -6.8855
 146   1.0000      -0.251250        -6.8369
 147   1.0000      -0.250992        -6.8298
 148   1.0000      -0.248757        -6.7690
 149   1.0000      -0.247625        -6.7382
 150   1.0000      -0.246726        -6.7137
 151   1.0000      -0.246006        -6.6942
 152   1.0000      -0.244350        -6.6491
 153   1.0000      -0.243813        -6.6345
 154   1.0000      -0.243305        -6.6207
 155   1.0000      -0.242475        -6.5981
 156   1.0000      -0.240235        -6.5371
 157   1.0000      -0.237382        -6.4595
 158   1.0000      -0.235723        -6.4143
 159   1.0000      -0.233074        -6.3423
 160   1.0000      -0.228580        -6.2200
 161   1.0000      -0.223291        -6.0760
 162   1.0000      -0.221518        -6.0278
 163   1.0000      -0.214099        -5.8259
 164   1.0000      -0.210526        -5.7287
 165   1.0000      -0.204707        -5.5704
 166   0.0000      -0.190616        -5.1869
 167   0.0000      -0.153113        -4.1664
 168   0.0000      -0.139345        -3.7918
 169   0.0000      -0.137618        -3.7448
 170   0.0000      -0.132964        -3.6181

                 SPIN DOWN ORBITALS
  NO   OCC          E(Eh)            E(eV)
   0   1.0000    -254.738502     -6931.7870
   1   1.0000     -29.521987      -803.3341
   2   1.0000     -25.472805      -693.1503
   3   1.0000     -25.471440      -693.1131
   4   1.0000     -25.465648      -692.9555
   5   1.0000      -4.038996      -109.9067
   6   1.0000      -4.036290      -109.8330
   7   1.0000      -4.034700      -109.7898
   8   1.0000      -4.033664      -109.7616
   9   1.0000      -4.032339      -109.7255
  10   1.0000      -4.030384      -109.6723
  11   1.0000      -4.029486      -109.6479
  12   1.0000      -4.027280      -109.5879
  13   1.0000      -4.026714      -109.5725
  14   1.0000      -4.026466      -109.5657
  15   1.0000      -4.025829      -109.5484
  16   1.0000      -4.024268      -109.5059
  17   1.0000      -4.023724      -109.4911
  18   1.0000      -4.023521      -109.4856
  19   1.0000      -4.020435      -109.4016
  20   1.0000      -4.019470      -109.3753
  21   1.0000      -3.236890       -88.0803
  22   1.0000      -2.255097       -61.3643
  23   1.0000      -2.251819       -61.2751
  24   1.0000      -2.251025       -61.2535
  25   1.0000      -2.250568       -61.2411
  26   1.0000      -2.250455       -61.2380
  27   1.0000      -2.249589       -61.2144
  28   1.0000      -2.248852       -61.1944
  29   1.0000      -2.248508       -61.1850
  30   1.0000      -2.247458       -61.1564
  31   1.0000      -2.247380       -61.1543
  32   1.0000      -2.247158       -61.1483
  33   1.0000      -2.246072       -61.1187
  34   1.0000      -2.245381       -61.0999
  35   1.0000      -2.245048       -61.0909
  36   1.0000      -2.244904       -61.0869
  37   1.0000      -2.244567       -61.0778
  38   1.0000      -2.244050       -61.0637
  39   1.0000      -2.243681       -61.0537
  40   1.0000      -2.243124       -61.0385
  41   1.0000      -2.242955       -61.0339
  42   1.0000      -2.242365       -61.0179
  43   1.0000      -2.241634       -60.9980
  44   1.0000      -2.241193       -60.9860
  45   1.0000      -2.241046       -60.9820
  46   1.0000      -2.240383       -60.9639
  47   1.0000      -2.240309       -60.9619
  48   1.0000      -2.240264       -60.9607
  49   1.0000      -2.239865       -60.9498
  50   1.0000      -2.238818       -60.9213
  51   1.0000      -2.238716       -60.9186
  52   1.0000      -2.238015       -60.8995
  53   1.0000      -2.237746       -60.8922
  54   1.0000      -2.237593       -60.8880
  55   1.0000      -2.237490       -60.8852
  56   1.0000      -2.236704       -60.8638
  57   1.0000      -2.236592       -60.8608
  58   1.0000      -2.236419       -60.8561
  59   1.0000      -2.235852       -60.8406
  60   1.0000      -2.235168       -60.8220
  61   1.0000      -2.235065       -60.8192
  62   1.0000      -2.234011       -60.7905
  63   1.0000      -2.233545       -60.7779
  64   1.0000      -2.233468       -60.7757
  65   1.0000      -2.233096       -60.7656
  66   1.0000      -2.232535       -60.7504
  67   1.0000      -2.231443       -60.7206
  68   1.0000      -2.229488       -60.6674
  69   1.0000      -2.229112       -60.6572
  70   1.0000      -2.060706       -56.0747
  71   1.0000      -2.057507       -55.9876
  72   1.0000      -2.042168       -55.5702
  73   1.0000      -0.428094       -11.6490
  74   1.0000      -0.396588       -10.7917
  75   1.0000      -0.392373       -10.6770
  76   1.0000      -0.388050       -10.5594
  77   1.0000      -0.373254       -10.1568
  78   1.0000      -0.372906       -10.1473
  79   1.0000      -0.369330       -10.0500
  80   1.0000      -0.367506       -10.0003
  81   1.0000      -0.366782        -9.9806
  82   1.0000      -0.365043        -9.9333
  83   1.0000      -0.361298        -9.8314
  84   1.0000      -0.359550        -9.7839
  85   1.0000      -0.356408        -9.6983
  86   1.0000      -0.356072        -9.6892
  87   1.0000      -0.353753        -9.6261
  88   1.0000      -0.351859        -9.5746
  89   1.0000      -0.348888        -9.4937
  90   1.0000      -0.348829        -9.4921
  91   1.0000      -0.347628        -9.4594
  92   1.0000      -0.346531        -9.4296
  93   1.0000      -0.345820        -9.4102
  94   1.0000      -0.343209        -9.3392
  95   1.0000      -0.339236        -9.2311
  96   1.0000      -0.337715        -9.1897
  97   1.0000      -0.336292        -9.1510
  98   1.0000      -0.335003        -9.1159
  99   1.0000      -0.333655        -9.0792
 100   1.0000      -0.330129        -8.9833
 101   1.0000      -0.329110        -8.9555
 102   1.0000      -0.326295        -8.8789
 103   1.0000      -0.325839        -8.8665
 104   1.0000      -0.321652        -8.7526
 105   1.0000      -0.320612        -8.7243
 106   1.0000      -0.317233        -8.6324
 107   1.0000      -0.315085        -8.5739
 108   1.0000      -0.312229        -8.4962
 109   1.0000      -0.307711        -8.3732
 110   1.0000      -0.304873        -8.2960
 111   1.0000      -0.304435        -8.2841
 112   1.0000      -0.301823        -8.2130
 113   1.0000      -0.299298        -8.1443
 114   1.0000      -0.296974        -8.0811
 115   1.0000      -0.295749        -8.0477
 116   1.0000      -0.291926        -7.9437
 117   1.0000      -0.290636        -7.9086
 118   1.0000      -0.287733        -7.8296
 119   1.0000      -0.286487        -7.7957
 120   1.0000      -0.284311        -7.7365
 121   1.0000      -0.282973        -7.7001
 122   1.0000      -0.280847        -7.6422
 123   1.0000      -0.279356        -7.6017
 124   1.0000      -0.278732        -7.5847
 125   1.0000      -0.276742        -7.5305
 126   1.0000      -0.276494        -7.5238
 127   1.0000      -0.275852        -7.5063
 128   1.0000      -0.274510        -7.4698
 129   1.0000      -0.272364        -7.4114
 130   1.0000      -0.271865        -7.3978
 131   1.0000      -0.270811        -7.3691
 132   1.0000      -0.270345        -7.3565
 133   1.0000      -0.268822        -7.3150
 134   1.0000      -0.267539        -7.2801
 135   1.0000      -0.266809        -7.2602
 136   1.0000      -0.265139        -7.2148
 137   1.0000      -0.264105        -7.1867
 138   1.0000      -0.263251        -7.1634
 139   1.0000      -0.260700        -7.0940
 140   1.0000      -0.258717        -7.0401
 141   1.0000      -0.257896        -7.0177
 142   1.0000      -0.256846        -6.9891
 143   1.0000      -0.255920        -6.9639
 144   1.0000      -0.254026        -6.9124
 145   1.0000      -0.252732        -6.8772
 146   1.0000      -0.251217        -6.8360
 147   1.0000      -0.250531        -6.8173
 148   1.0000      -0.247811        -6.7433
 149   1.0000      -0.246746        -6.7143
 150   1.0000      -0.246161        -6.6984
 151   1.0000      -0.244569        -6.6551
 152   1.0000      -0.244419        -6.6510
 153   1.0000      -0.243265        -6.6196
 154   1.0000      -0.240307        -6.5391
 155   1.0000      -0.236614        -6.4386
 156   1.0000      -0.233244        -6.3469
 157   1.0000      -0.226788        -6.1712
 158   1.0000      -0.219830        -5.9819
 159   1.0000      -0.217925        -5.9300
 160   1.0000      -0.215631        -5.8676
 161   1.0000      -0.211297        -5.7497
 162   1.0000      -0.181122        -4.9286
 163   1.0000      -0.180137        -4.9018
 164   0.0000      -0.156633        -4.2622
 165   0.0000      -0.152632        -4.1533
 166   0.0000      -0.150081        -4.0839
 167   0.0000      -0.142975        -3.8906
 168   0.0000      -0.135147        -3.6775

MULLIKEN ATOMIC CHARGES AND SPIN POPULATIONS
--------------------------------------------
   0 Au:    0.535364   -0.065058
   1 Au:    0.356967    0.020796
   2 Au:    0.304202   -0.009083
   3 Au:   -0.282568    0.001972
   4 Au:   -0.145853    0.015083
   5 Au:    0.198414   -0.088659
   6 Au:    0.173443   -0.126072
   7 Au:   -0.166388    0.004149
   8 Au:    0.122270   -0.000482
   9 Au:    0.158909    0.006769
  10 Au:   -0.208386    0.011458
  11 Au:    0.313516    0.042869
  12 Au:    0.303815   -0.002950
  13 Au:    0.159152   -0.159307
  14 Au:   -0.038962   -0.069234
  15 Au:    0.325031    0.017772
  16 Fe:   -2.108923    2.399978
Sum of atomic charges         :   -0.0000000

LOEWDIN ATOMIC CHARGES AND SPIN POPULATIONS
-------------------------------------------
   0 Au:    0.143653   -0.048303
   1 Au:    0.102217   -0.002269
   2 Au:    0.043200   -0.014823
   3 Au:   -0.067778   -0.030085
   4 Au:   -0.062973    0.000837
   5 Au:    0.013299   -0.053059
   6 Au:    0.042783   -0.096371
   7 Au:    0.018567    0.010648
   8 Au:   -0.000228   -0.038786
   9 Au:    0.014433    0.000339
  10 Au:   -0.068987   -0.030614
  11 Au:    0.067078    0.019799
  12 Au:    0.097554   -0.013479
  13 Au:    0.056103   -0.082775
  14 Au:    0.012940   -0.025940
  15 Au:    0.093877   -0.006148
  16 Fe:   -0.505738    2.411029

  Mayer bond orders larger than 0.100000
B(  0-Au,  3-Au) :   0.3551 B(  0-Au,  4-Au) :   0.3240 B(  0-Au, 10-Au) :   0.3133
B(  1-Au,  2-Au) :   0.1831 B(  1-Au,  6-Au) :   0.2903 B(  1-Au,  7-Au) :   0.1731
B(  1-Au, 11-Au) :   0.1997 B(  1-Au, 16-Fe) :   0.4387 B(  2-Au,  3-Au) :   0.4603
B(  2-Au,  7-Au) :   0.1996 B(  2-Au, 11-Au) :   0.2641 B(  2-Au, 13-Au) :   0.1132
B(  2-Au, 16-Fe) :   0.2876 B(  3-Au,  4-Au) :   0.3362 B(  3-Au,  7-Au) :   0.2423
B(  3-Au, 10-Au) :   0.2878 B(  3-Au, 13-Au) :   0.2432 B(  3-Au, 16-Fe) :   0.1852
B(  4-Au,  5-Au) :   0.3864 B(  4-Au,  7-Au) :   0.3259 B(  4-Au,  9-Au) :   0.2486
B(  4-Au, 10-Au) :   0.2457 B(  5-Au,  6-Au) :   0.2762 B(  5-Au,  7-Au) :   0.2809
B(  5-Au,  8-Au) :   0.2620 B(  5-Au,  9-Au) :   0.2158 B(  5-Au, 16-Fe) :   0.1103
B(  6-Au,  7-Au) :   0.1263 B(  6-Au,  8-Au) :   0.2492 B(  6-Au, 12-Au) :   0.1342
B(  6-Au, 16-Fe) :   0.4552 B(  7-Au, 16-Fe) :   0.5015 B(  8-Au,  9-Au) :   0.3364
B(  8-Au, 12-Au) :   0.3397 B(  8-Au, 14-Au) :   0.1711 B(  8-Au, 16-Fe) :   0.1890
B(  9-Au, 10-Au) :   0.2562 B(  9-Au, 14-Au) :   0.3230 B(  9-Au, 16-Fe) :   0.1000
B( 10-Au, 13-Au) :   0.3040 B( 10-Au, 14-Au) :   0.3805 B( 10-Au, 16-Fe) :   0.2249
B( 11-Au, 13-Au) :   0.1430 B( 11-Au, 15-Au) :   0.2384 B( 11-Au, 16-Fe) :   0.4208
B( 12-Au, 14-Au) :   0.1993 B( 12-Au, 15-Au) :   0.2150 B( 12-Au, 16-Fe) :   0.4099
B( 13-Au, 15-Au) :   0.1975 B( 13-Au, 16-Fe) :   0.4734 B( 14-Au, 15-Au) :   0.2625
B( 14-Au, 16-Fe) :   0.4627 B( 15-Au, 16-Fe) :   0.3971

FINAL SINGLE POINT ENERGY     -3436.728384737247

DIPOLE MOMENT
-------------
                                X             Y             Z
Electronic contribution:     35.75233       1.14387     -22.92448
Nuclear contribution   :    -35.86919      -1.29328      23.09945
                        -----------------------------------------
Total Dipole Moment    :     -0.11685      -0.14940       0.17497
                        -----------------------------------------
Magnitude (a.u.)       :      0.25805
Magnitude (Debye)      :      0.65591

Rotational constants in cm-1:     0.000938     0.000796     0.000699
Rotational constants in MHz :    28.122525    23.874549    20.955644

                             ****ORCA TERMINATED NORMALLY****
TOTAL RUN TIME: 0 days 0 hours 45 minutes 14 seconds 746 msec
