                         Program Version 5.0.3 -  RELEASE  -
|  1> !R2SCAN def2-TZVP VERYSLOWCONV
|  2>
|  3> %scf
|  4>   AutoTRAHIter 400
|  5>   maxiter 600
|  6> end
|  7>
|  8> %pal nprocs 6 end
|  9>
| 10> *xyzfile 0 5 pbe.xyz
| 11>
| 12> $new_job
| 13>
| 14> !R2SCAN def2-TZVP VERYSLOWCONV
| 15> %scf
| 16>   AutoTRAHIter 400
| 17>   maxiter 600
| 18> end
| 19>
| 20>
| 21> %pal nprocs 6 end
| 22>
| 23> *xyzfile 0 3 pbe.xyz
| 24>
| 25>
| 26>
| 27>
| 28>
| 29>                          ****END OF INPUT****
 Total Charge           Charge          ....    0
 Multiplicity           Mult            ....    5
 Number of Electrons    NEL             ....  330
FINAL SINGLE POINT ENERGY     -3437.300532657630

CARTESIAN COORDINATES (ANGSTROEM)
---------------------------------
  Au    10.957578    6.031971    7.021700
  Au     5.361030    9.046427   10.530731
  Au     7.533380    7.294619   11.001785
  Au     9.341546    6.680263    9.140317
  Au     9.555219    8.362764    6.907185
  Au     7.433026    9.969783    6.351829
  Au     5.113603    9.796674    7.925486
  Au     7.812672    9.194024    8.980092
  Au     5.194151    8.640084    5.393103
  Au     7.656368    7.421276    5.056093
  Au     8.312161    5.373539    6.809477
  Au     4.972714    6.288429   10.917855
  Au     3.551985    7.436970    7.224629
  Au     7.018729    4.997384    9.237041
  Au     5.709743    5.874611    6.282554
  Au     4.287731    5.113419    8.529789
  Fe     5.926053    7.311350    8.560386

 Multiplicity           Mult            ....    3
 Number of Electrons    NEL             ....  330
 Basis Dimension        Dim             ....  685

ORBITAL ENERGIES
----------------
                 SPIN UP ORBITALS
  NO   OCC          E(Eh)            E(eV)
   0   1.0000    -255.614871     -6955.6343
   1   1.0000     -29.897369      -813.5488
   2   1.0000     -25.732683      -700.2219
   3   1.0000     -25.730870      -700.1726
   4   1.0000     -25.727987      -700.0941
   5   1.0000      -4.130362      -112.3929
   6   1.0000      -4.127702      -112.3205
   7   1.0000      -4.124520      -112.2339
   8   1.0000      -4.123802      -112.2144
   9   1.0000      -4.122122      -112.1686
  10   1.0000      -4.121642      -112.1556
  11   1.0000      -4.119333      -112.0927
  12   1.0000      -4.118191      -112.0617
  13   1.0000      -4.117374      -112.0394
  14   1.0000      -4.116758      -112.0227
  15   1.0000      -4.115977      -112.0014
  16   1.0000      -4.114858      -111.9710
  17   1.0000      -4.113781      -111.9417
  18   1.0000      -4.113453      -111.9327
  19   1.0000      -4.110685      -111.8574
  20   1.0000      -4.110353      -111.8484
  21   1.0000      -3.465281       -94.2951
  22   1.0000      -2.318902       -63.1005
  23   1.0000      -2.315880       -63.0183
  24   1.0000      -2.315344       -63.0037
  25   1.0000      -2.313995       -62.9670
  26   1.0000      -2.313729       -62.9598
  27   1.0000      -2.313156       -62.9442
  28   1.0000      -2.312715       -62.9322
  29   1.0000      -2.311645       -62.9031
  30   1.0000      -2.311265       -62.8927
  31   1.0000      -2.310291       -62.8662
  32   1.0000      -2.309782       -62.8524
  33   1.0000      -2.308942       -62.8295
  34   1.0000      -2.308733       -62.8238
  35   1.0000      -2.308481       -62.8170
  36   1.0000      -2.308172       -62.8085
  37   1.0000      -2.307644       -62.7942
  38   1.0000      -2.307253       -62.7835
  39   1.0000      -2.306889       -62.7737
  40   1.0000      -2.306094       -62.7520
  41   1.0000      -2.305983       -62.7490
  42   1.0000      -2.305525       -62.7365
  43   1.0000      -2.305389       -62.7328
  44   1.0000      -2.304693       -62.7139
  45   1.0000      -2.304167       -62.6996
  46   1.0000      -2.303750       -62.6882
  47   1.0000      -2.303508       -62.6816
  48   1.0000      -2.303271       -62.6752
  49   1.0000      -2.302865       -62.6641
  50   1.0000      -2.301834       -62.6361
  51   1.0000      -2.301532       -62.6279
  52   1.0000      -2.301126       -62.6168
  53   1.0000      -2.300883       -62.6102
  54   1.0000      -2.300715       -62.6056
  55   1.0000      -2.300340       -62.5954
  56   1.0000      -2.299866       -62.5825
  57   1.0000      -2.299705       -62.5782
  58   1.0000      -2.299306       -62.5673
  59   1.0000      -2.298993       -62.5588
  60   1.0000      -2.298078       -62.5339
  61   1.0000      -2.298008       -62.5320
  62   1.0000      -2.297319       -62.5132
  63   1.0000      -2.296713       -62.4967
  64   1.0000      -2.296619       -62.4942
  65   1.0000      -2.296418       -62.4887
  66   1.0000      -2.295302       -62.4584
  67   1.0000      -2.294906       -62.4476
  68   1.0000      -2.293049       -62.3970
  69   1.0000      -2.292841       -62.3914
  70   1.0000      -2.237757       -60.8925
  71   1.0000      -2.232665       -60.7539
  72   1.0000      -2.224788       -60.5395
  73   1.0000      -0.434884       -11.8338
  74   1.0000      -0.403171       -10.9708
  75   1.0000      -0.398146       -10.8341
  76   1.0000      -0.392816       -10.6891
  77   1.0000      -0.383576       -10.4376
  78   1.0000      -0.381494       -10.3810
  79   1.0000      -0.379016       -10.3136
  80   1.0000      -0.377479       -10.2717
  81   1.0000      -0.376997       -10.2586
  82   1.0000      -0.374439       -10.1890
  83   1.0000      -0.370549       -10.0832
  84   1.0000      -0.368372       -10.0239
  85   1.0000      -0.365232        -9.9385
  86   1.0000      -0.364792        -9.9265
  87   1.0000      -0.362489        -9.8638
  88   1.0000      -0.360901        -9.8206
  89   1.0000      -0.357900        -9.7389
  90   1.0000      -0.357675        -9.7328
  91   1.0000      -0.357355        -9.7241
  92   1.0000      -0.355839        -9.6829
  93   1.0000      -0.354695        -9.6517
  94   1.0000      -0.352448        -9.5906
  95   1.0000      -0.348647        -9.4872
  96   1.0000      -0.348510        -9.4834
  97   1.0000      -0.345442        -9.3999
  98   1.0000      -0.344168        -9.3653
  99   1.0000      -0.342592        -9.3224
 100   1.0000      -0.339978        -9.2513
 101   1.0000      -0.339531        -9.2391
 102   1.0000      -0.336322        -9.1518
 103   1.0000      -0.334138        -9.0923
 104   1.0000      -0.330912        -9.0046
 105   1.0000      -0.329916        -8.9775
 106   1.0000      -0.329089        -8.9550
 107   1.0000      -0.324527        -8.8308
 108   1.0000      -0.323259        -8.7963
 109   1.0000      -0.320684        -8.7263
 110   1.0000      -0.315092        -8.5741
 111   1.0000      -0.313901        -8.5417
 112   1.0000      -0.311922        -8.4878
 113   1.0000      -0.309805        -8.4302
 114   1.0000      -0.305532        -8.3139
 115   1.0000      -0.304494        -8.2857
 116   1.0000      -0.301136        -8.1943
 117   1.0000      -0.299689        -8.1549
 118   1.0000      -0.296521        -8.0687
 119   1.0000      -0.295984        -8.0541
 120   1.0000      -0.294092        -8.0027
 121   1.0000      -0.292191        -7.9509
 122   1.0000      -0.291174        -7.9233
 123   1.0000      -0.289400        -7.8750
 124   1.0000      -0.287246        -7.8164
 125   1.0000      -0.285108        -7.7582
 126   1.0000      -0.284814        -7.7502
 127   1.0000      -0.283644        -7.7184
 128   1.0000      -0.282460        -7.6861
 129   1.0000      -0.280687        -7.6379
 130   1.0000      -0.279801        -7.6138
 131   1.0000      -0.278870        -7.5884
 132   1.0000      -0.278538        -7.5794
 133   1.0000      -0.276521        -7.5245
 134   1.0000      -0.276215        -7.5162
 135   1.0000      -0.274954        -7.4819
 136   1.0000      -0.273699        -7.4477
 137   1.0000      -0.272195        -7.4068
 138   1.0000      -0.270311        -7.3555
 139   1.0000      -0.268324        -7.3015
 140   1.0000      -0.266408        -7.2493
 141   1.0000      -0.265238        -7.2175
 142   1.0000      -0.264171        -7.1885
 143   1.0000      -0.263831        -7.1792
 144   1.0000      -0.261814        -7.1243
 145   1.0000      -0.260957        -7.1010
 146   1.0000      -0.259708        -7.0670
 147   1.0000      -0.258302        -7.0288
 148   1.0000      -0.257892        -7.0176
 149   1.0000      -0.255296        -6.9470
 150   1.0000      -0.254009        -6.9119
 151   1.0000      -0.252830        -6.8798
 152   1.0000      -0.252199        -6.8627
 153   1.0000      -0.251306        -6.8384
 154   1.0000      -0.250747        -6.8232
 155   1.0000      -0.249731        -6.7955
 156   1.0000      -0.248035        -6.7494
 157   1.0000      -0.245751        -6.6872
 158   1.0000      -0.242317        -6.5938
 159   1.0000      -0.238886        -6.5004
 160   1.0000      -0.233806        -6.3622
 161   1.0000      -0.226307        -6.1581
 162   1.0000      -0.223708        -6.0874
 163   1.0000      -0.216875        -5.9015
 164   1.0000      -0.213174        -5.8008
 165   1.0000      -0.205652        -5.5961
 166   0.0000      -0.188505        -5.1295
 167   0.0000      -0.149465        -4.0672
 168   0.0000      -0.135615        -3.6903
 169   0.0000      -0.133957        -3.6451
 170   0.0000      -0.129180        -3.5152

                 SPIN DOWN ORBITALS
  NO   OCC          E(Eh)            E(eV)
   0   1.0000    -255.614155     -6955.6148
   1   1.0000     -29.841191      -812.0201
   2   1.0000     -25.692025      -699.1155
   3   1.0000     -25.688968      -699.0323
   4   1.0000     -25.681959      -698.8416
   5   1.0000      -4.130170      -112.3877
   6   1.0000      -4.127050      -112.3028
   7   1.0000      -4.125369      -112.2570
   8   1.0000      -4.124205      -112.2253
   9   1.0000      -4.121994      -112.1652
  10   1.0000      -4.121116      -112.1413
  11   1.0000      -4.119478      -112.0967
  12   1.0000      -4.117756      -112.0498
  13   1.0000      -4.117083      -112.0315
  14   1.0000      -4.116818      -112.0243
  15   1.0000      -4.116326      -112.0109
  16   1.0000      -4.115038      -111.9759
  17   1.0000      -4.113779      -111.9416
  18   1.0000      -4.113250      -111.9272
  19   1.0000      -4.110830      -111.8614
  20   1.0000      -4.110741      -111.8590
  21   1.0000      -3.333241       -90.7021
  22   1.0000      -2.318737       -63.0960
  23   1.0000      -2.315166       -62.9989
  24   1.0000      -2.315024       -62.9950
  25   1.0000      -2.313819       -62.9622
  26   1.0000      -2.313563       -62.9553
  27   1.0000      -2.313259       -62.9470
  28   1.0000      -2.312323       -62.9215
  29   1.0000      -2.311926       -62.9107
  30   1.0000      -2.311012       -62.8858
  31   1.0000      -2.310819       -62.8806
  32   1.0000      -2.310609       -62.8749
  33   1.0000      -2.308921       -62.8289
  34   1.0000      -2.308634       -62.8211
  35   1.0000      -2.308300       -62.8120
  36   1.0000      -2.308211       -62.8096
  37   1.0000      -2.307558       -62.7918
  38   1.0000      -2.307119       -62.7799
  39   1.0000      -2.306649       -62.7671
  40   1.0000      -2.306092       -62.7520
  41   1.0000      -2.305731       -62.7421
  42   1.0000      -2.305367       -62.7322
  43   1.0000      -2.304895       -62.7194
  44   1.0000      -2.304149       -62.6991
  45   1.0000      -2.303982       -62.6945
  46   1.0000      -2.303538       -62.6824
  47   1.0000      -2.303306       -62.6761
  48   1.0000      -2.303200       -62.6733
  49   1.0000      -2.303016       -62.6682
  50   1.0000      -2.301963       -62.6396
  51   1.0000      -2.301737       -62.6334
  52   1.0000      -2.301130       -62.6169
  53   1.0000      -2.300840       -62.6090
  54   1.0000      -2.300486       -62.5994
  55   1.0000      -2.300435       -62.5980
  56   1.0000      -2.299722       -62.5786
  57   1.0000      -2.299482       -62.5721
  58   1.0000      -2.299315       -62.5675
  59   1.0000      -2.298952       -62.5577
  60   1.0000      -2.298285       -62.5395
  61   1.0000      -2.298205       -62.5373
  62   1.0000      -2.297474       -62.5174
  63   1.0000      -2.296822       -62.4997
  64   1.0000      -2.296623       -62.4943
  65   1.0000      -2.296157       -62.4816
  66   1.0000      -2.295652       -62.4679
  67   1.0000      -2.295363       -62.4600
  68   1.0000      -2.293229       -62.4019
  69   1.0000      -2.292925       -62.3936
  70   1.0000      -2.112269       -57.4778
  71   1.0000      -2.107655       -57.3522
  72   1.0000      -2.090269       -56.8791
  73   1.0000      -0.432610       -11.7719
  74   1.0000      -0.402511       -10.9529
  75   1.0000      -0.397966       -10.8292
  76   1.0000      -0.393240       -10.7006
  77   1.0000      -0.381230       -10.3738
  78   1.0000      -0.380182       -10.3453
  79   1.0000      -0.377487       -10.2719
  80   1.0000      -0.375464       -10.2169
  81   1.0000      -0.374117       -10.1802
  82   1.0000      -0.373566       -10.1652
  83   1.0000      -0.369300       -10.0492
  84   1.0000      -0.368121       -10.0171
  85   1.0000      -0.365007        -9.9324
  86   1.0000      -0.364721        -9.9246
  87   1.0000      -0.362691        -9.8693
  88   1.0000      -0.360540        -9.8108
  89   1.0000      -0.357749        -9.7348
  90   1.0000      -0.357585        -9.7304
  91   1.0000      -0.356327        -9.6962
  92   1.0000      -0.355088        -9.6624
  93   1.0000      -0.354823        -9.6552
  94   1.0000      -0.352144        -9.5823
  95   1.0000      -0.348039        -9.4706
  96   1.0000      -0.346296        -9.4232
  97   1.0000      -0.345132        -9.3915
  98   1.0000      -0.343819        -9.3558
  99   1.0000      -0.342474        -9.3192
 100   1.0000      -0.338759        -9.2181
 101   1.0000      -0.337856        -9.1935
 102   1.0000      -0.335083        -9.1181
 103   1.0000      -0.334566        -9.1040
 104   1.0000      -0.330191        -8.9850
 105   1.0000      -0.329008        -8.9528
 106   1.0000      -0.326009        -8.8711
 107   1.0000      -0.323658        -8.8072
 108   1.0000      -0.320762        -8.7284
 109   1.0000      -0.315870        -8.5952
 110   1.0000      -0.313061        -8.5188
 111   1.0000      -0.312674        -8.5083
 112   1.0000      -0.309974        -8.4348
 113   1.0000      -0.307700        -8.3729
 114   1.0000      -0.305294        -8.3075
 115   1.0000      -0.303768        -8.2659
 116   1.0000      -0.300296        -8.1715
 117   1.0000      -0.298863        -8.1325
 118   1.0000      -0.296206        -8.0602
 119   1.0000      -0.294449        -8.0124
 120   1.0000      -0.292212        -7.9515
 121   1.0000      -0.291097        -7.9211
 122   1.0000      -0.288854        -7.8601
 123   1.0000      -0.287493        -7.8231
 124   1.0000      -0.286765        -7.8033
 125   1.0000      -0.284861        -7.7515
 126   1.0000      -0.284561        -7.7433
 127   1.0000      -0.283927        -7.7260
 128   1.0000      -0.282708        -7.6929
 129   1.0000      -0.280098        -7.6219
 130   1.0000      -0.279854        -7.6152
 131   1.0000      -0.278786        -7.5861
 132   1.0000      -0.278070        -7.5667
 133   1.0000      -0.276687        -7.5290
 134   1.0000      -0.275162        -7.4875
 135   1.0000      -0.274188        -7.4610
 136   1.0000      -0.272896        -7.4259
 137   1.0000      -0.271939        -7.3998
 138   1.0000      -0.270941        -7.3727
 139   1.0000      -0.268468        -7.3054
 140   1.0000      -0.266435        -7.2501
 141   1.0000      -0.265446        -7.2232
 142   1.0000      -0.263993        -7.1836
 143   1.0000      -0.263387        -7.1671
 144   1.0000      -0.261244        -7.1088
 145   1.0000      -0.260077        -7.0771
 146   1.0000      -0.258501        -7.0342
 147   1.0000      -0.257617        -7.0101
 148   1.0000      -0.254383        -6.9221
 149   1.0000      -0.253678        -6.9029
 150   1.0000      -0.252942        -6.8829
 151   1.0000      -0.251243        -6.8367
 152   1.0000      -0.250711        -6.8222
 153   1.0000      -0.250076        -6.8049
 154   1.0000      -0.246916        -6.7189
 155   1.0000      -0.242988        -6.6120
 156   1.0000      -0.239078        -6.5057
 157   1.0000      -0.229719        -6.2510
 158   1.0000      -0.222167        -6.0455
 159   1.0000      -0.219611        -5.9759
 160   1.0000      -0.219311        -5.9678
 161   1.0000      -0.211536        -5.7562
 162   1.0000      -0.186623        -5.0783
 163   1.0000      -0.184159        -5.0112
 164   0.0000      -0.151101        -4.1117
 165   0.0000      -0.142643        -3.8815
 166   0.0000      -0.139787        -3.8038
 167   0.0000      -0.134766        -3.6672
 168   0.0000      -0.127751        -3.4763

MULLIKEN ATOMIC CHARGES AND SPIN POPULATIONS
--------------------------------------------
   0 Au:    0.499119   -0.062928
   1 Au:    0.323773    0.013253
   2 Au:    0.276377    0.003170
   3 Au:   -0.265421    0.006907
   4 Au:   -0.136406    0.010476
   5 Au:    0.188495   -0.078682
   6 Au:    0.154254   -0.125409
   7 Au:   -0.149995   -0.021818
   8 Au:    0.101991   -0.026730
   9 Au:    0.146833    0.017709
  10 Au:   -0.202401    0.018660
  11 Au:    0.275104    0.022927
  12 Au:    0.270190    0.002241
  13 Au:    0.151765   -0.174008
  14 Au:   -0.028008   -0.073933
  15 Au:    0.294544    0.015050
  16 Fe:   -1.900215    2.453116
Sum of atomic charges         :   -0.0000000

LOEWDIN ATOMIC CHARGES AND SPIN POPULATIONS
-------------------------------------------
   0 Au:    0.144904   -0.044003
   1 Au:    0.095804   -0.004395
   2 Au:    0.036960   -0.009382
   3 Au:   -0.069014   -0.027806
   4 Au:   -0.062741   -0.001242
   5 Au:    0.014070   -0.053188
   6 Au:    0.038916   -0.095407
   7 Au:    0.015227   -0.000809
   8 Au:   -0.005225   -0.050059
   9 Au:    0.013360    0.001728
  10 Au:   -0.070073   -0.025931
  11 Au:    0.058459    0.005527
  12 Au:    0.092848   -0.010269
  13 Au:    0.052260   -0.089404
  14 Au:    0.010423   -0.023570
  15 Au:    0.089874   -0.010192
  16 Fe:   -0.456052    2.438404

  Mayer bond orders larger than 0.100000
B(  0-Au,  3-Au) :   0.3465 B(  0-Au,  4-Au) :   0.3273 B(  0-Au, 10-Au) :   0.3102
B(  1-Au,  2-Au) :   0.1673 B(  1-Au,  6-Au) :   0.2914 B(  1-Au,  7-Au) :   0.1599
B(  1-Au, 11-Au) :   0.1945 B(  1-Au, 16-Fe) :   0.4308 B(  2-Au,  3-Au) :   0.4652
B(  2-Au,  7-Au) :   0.1846 B(  2-Au, 11-Au) :   0.2536 B(  2-Au, 16-Fe) :   0.2723
B(  3-Au,  4-Au) :   0.3089 B(  3-Au,  7-Au) :   0.2292 B(  3-Au, 10-Au) :   0.2523
B(  3-Au, 13-Au) :   0.2245 B(  3-Au, 16-Fe) :   0.1709 B(  4-Au,  5-Au) :   0.3802
B(  4-Au,  7-Au) :   0.3177 B(  4-Au,  9-Au) :   0.2285 B(  4-Au, 10-Au) :   0.2098
B(  5-Au,  6-Au) :   0.2543 B(  5-Au,  7-Au) :   0.2798 B(  5-Au,  8-Au) :   0.2452
B(  5-Au,  9-Au) :   0.2022 B(  5-Au, 16-Fe) :   0.1056 B(  6-Au,  7-Au) :   0.1173
B(  6-Au,  8-Au) :   0.2274 B(  6-Au, 12-Au) :   0.1127 B(  6-Au, 16-Fe) :   0.4587
B(  7-Au, 16-Fe) :   0.4877 B(  8-Au,  9-Au) :   0.3292 B(  8-Au, 12-Au) :   0.3373
B(  8-Au, 14-Au) :   0.1515 B(  8-Au, 16-Fe) :   0.1663 B(  9-Au, 10-Au) :   0.2465
B(  9-Au, 14-Au) :   0.3154 B( 10-Au, 13-Au) :   0.3012 B( 10-Au, 14-Au) :   0.3813
B( 10-Au, 16-Fe) :   0.2095 B( 11-Au, 13-Au) :   0.1290 B( 11-Au, 15-Au) :   0.2295
B( 11-Au, 16-Fe) :   0.3944 B( 12-Au, 14-Au) :   0.1956 B( 12-Au, 15-Au) :   0.2087
B( 12-Au, 16-Fe) :   0.3875 B( 13-Au, 15-Au) :   0.1920 B( 13-Au, 16-Fe) :   0.4663
B( 14-Au, 15-Au) :   0.2481 B( 14-Au, 16-Fe) :   0.4604 B( 15-Au, 16-Fe) :   0.3878

FINAL SINGLE POINT ENERGY     -3437.266749808598

DIPOLE MOMENT
-------------
                                X             Y             Z
Electronic contribution:     35.78081       1.13550     -22.95049
Nuclear contribution   :    -35.86919      -1.29328      23.09945
                        -----------------------------------------
Total Dipole Moment    :     -0.08838      -0.15777       0.14895
                        -----------------------------------------
Magnitude (a.u.)       :      0.23429
Magnitude (Debye)      :      0.59551

Rotational constants in cm-1:     0.000938     0.000796     0.000699
Rotational constants in MHz :    28.122525    23.874549    20.955644

                             ****ORCA TERMINATED NORMALLY****
TOTAL RUN TIME: 0 days 1 hours 19 minutes 58 seconds 884 msec
