                         Program Version 5.0.3 -  RELEASE  -
|  1> %pal nprocs 1 end
|  2>
|  3> !PBE def2-TZVP OPT UNO
|  4> !SLOWCONV KDIIS
|  5>
|  6> %geom maxiter 300 end
|  7>
|  8> *xyzfile 0 5 0.xyz                           ****END OF INPUT****
 Total Charge           Charge          ....    0
 Multiplicity           Mult            ....    5
 Number of Electrons    NEL             ....  252
FINAL SINGLE POINT ENERGY     -2674.142422910826
FINAL SINGLE POINT ENERGY     -2674.143850791476
FINAL SINGLE POINT ENERGY     -2674.144920741958
FINAL SINGLE POINT ENERGY     -2674.145428203552
FINAL SINGLE POINT ENERGY     -2674.145987188419
FINAL SINGLE POINT ENERGY     -2674.146681841951
FINAL SINGLE POINT ENERGY     -2674.147465610320
FINAL SINGLE POINT ENERGY     -2674.148146405076
FINAL SINGLE POINT ENERGY     -2674.148726593014
FINAL SINGLE POINT ENERGY     -2674.149289807828
FINAL SINGLE POINT ENERGY     -2674.154597350926
FINAL SINGLE POINT ENERGY     -2674.154713257363
FINAL SINGLE POINT ENERGY     -2674.154778062328
FINAL SINGLE POINT ENERGY     -2674.154849929402
FINAL SINGLE POINT ENERGY     -2674.154873681448
FINAL SINGLE POINT ENERGY     -2674.154881603614
FINAL SINGLE POINT ENERGY     -2674.154893993822
FINAL SINGLE POINT ENERGY     -2674.154897241707
FINAL SINGLE POINT ENERGY     -2674.154898355722
                    ***********************HURRAY********************

CARTESIAN COORDINATES (ANGSTROEM)
---------------------------------
  Au     9.386940    5.728801    7.843885
  Au    10.273835    8.212097    7.564707
  Au     7.437424    8.732975   10.362498
  Au     6.833620    4.546686    7.648327
  Au     7.264957    6.119023    9.949129
  Au     5.512945    9.353732    8.284120
  Au     8.340844    8.837399    5.500481
  Au     5.141913    6.804867    7.655593
  Au     6.640568   11.369831    9.865901
  Au     8.289310   10.374708    8.037885
  Au     7.270648    6.412021    5.575452
  Au    10.266582   10.708446    6.297309
  Cr     7.616236    7.670856    7.859150

 Multiplicity           Mult            ....    5
 Number of Electrons    NEL             ....  252
 Basis Dimension        Dim             ....  525

ORBITAL ENERGIES
----------------
                 SPIN UP ORBITALS
  NO   OCC          E(Eh)            E(eV)
   0   1.0000    -214.485824     -5836.4560
   1   1.0000     -24.289002      -660.9373
   2   1.0000     -20.654188      -562.0290
   3   1.0000     -20.651967      -561.9686
   4   1.0000     -20.650382      -561.9255
   5   1.0000      -4.037026      -109.8531
   6   1.0000      -4.022862      -109.4676
   7   1.0000      -4.022776      -109.4653
   8   1.0000      -4.022770      -109.4651
   9   1.0000      -4.022665      -109.4623
  10   1.0000      -4.022540      -109.4589
  11   1.0000      -4.022434      -109.4560
  12   1.0000      -4.017189      -109.3133
  13   1.0000      -4.017163      -109.3125
  14   1.0000      -4.017059      -109.3097
  15   1.0000      -4.017037      -109.3091
  16   1.0000      -4.016495      -109.2944
  17   1.0000      -2.792704       -75.9933
  18   1.0000      -2.257035       -61.4170
  19   1.0000      -2.249552       -61.2134
  20   1.0000      -2.243797       -61.0568
  21   1.0000      -2.241966       -61.0070
  22   1.0000      -2.241580       -60.9965
  23   1.0000      -2.240768       -60.9744
  24   1.0000      -2.240675       -60.9719
  25   1.0000      -2.239745       -60.9466
  26   1.0000      -2.239336       -60.9354
  27   1.0000      -2.238084       -60.9014
  28   1.0000      -2.237961       -60.8980
  29   1.0000      -2.237251       -60.8787
  30   1.0000      -2.237130       -60.8754
  31   1.0000      -2.234105       -60.7931
  32   1.0000      -2.233974       -60.7895
  33   1.0000      -2.233847       -60.7861
  34   1.0000      -2.233737       -60.7831
  35   1.0000      -2.232850       -60.7589
  36   1.0000      -2.232842       -60.7587
  37   1.0000      -2.232652       -60.7536
  38   1.0000      -2.232530       -60.7502
  39   1.0000      -2.232362       -60.7457
  40   1.0000      -2.232244       -60.7424
  41   1.0000      -2.231549       -60.7235
  42   1.0000      -2.230760       -60.7021
  43   1.0000      -2.229944       -60.6799
  44   1.0000      -2.229888       -60.6783
  45   1.0000      -2.229365       -60.6641
  46   1.0000      -2.228905       -60.6516
  47   1.0000      -2.228825       -60.6494
  48   1.0000      -2.228270       -60.6343
  49   1.0000      -2.227575       -60.6154
  50   1.0000      -2.224316       -60.5267
  51   1.0000      -2.223933       -60.5163
  52   1.0000      -2.223663       -60.5089
  53   1.0000      -2.223340       -60.5002
  54   1.0000      -1.784507       -48.5589
  55   1.0000      -1.781972       -48.4899
  56   1.0000      -1.780666       -48.4544
  57   1.0000      -0.417605       -11.3636
  58   1.0000      -0.390053       -10.6139
  59   1.0000      -0.381647       -10.3851
  60   1.0000      -0.363222        -9.8838
  61   1.0000      -0.361516        -9.8373
  62   1.0000      -0.358721        -9.7613
  63   1.0000      -0.357901        -9.7390
  64   1.0000      -0.355129        -9.6635
  65   1.0000      -0.341536        -9.2937
  66   1.0000      -0.341297        -9.2872
  67   1.0000      -0.340762        -9.2726
  68   1.0000      -0.339610        -9.2413
  69   1.0000      -0.334140        -9.0924
  70   1.0000      -0.331353        -9.0166
  71   1.0000      -0.330671        -8.9980
  72   1.0000      -0.328361        -8.9351
  73   1.0000      -0.326585        -8.8868
  74   1.0000      -0.324636        -8.8338
  75   1.0000      -0.323306        -8.7976
  76   1.0000      -0.320770        -8.7286
  77   1.0000      -0.318194        -8.6585
  78   1.0000      -0.310434        -8.4473
  79   1.0000      -0.310299        -8.4437
  80   1.0000      -0.307451        -8.3662
  81   1.0000      -0.306060        -8.3283
  82   1.0000      -0.303264        -8.2522
  83   1.0000      -0.301542        -8.2054
  84   1.0000      -0.301021        -8.1912
  85   1.0000      -0.297313        -8.0903
  86   1.0000      -0.295795        -8.0490
  87   1.0000      -0.288725        -7.8566
  88   1.0000      -0.287855        -7.8329
  89   1.0000      -0.287587        -7.8256
  90   1.0000      -0.283808        -7.7228
  91   1.0000      -0.282365        -7.6835
  92   1.0000      -0.281807        -7.6684
  93   1.0000      -0.279827        -7.6145
  94   1.0000      -0.278625        -7.5818
  95   1.0000      -0.278446        -7.5769
  96   1.0000      -0.277756        -7.5581
  97   1.0000      -0.272733        -7.4215
  98   1.0000      -0.270961        -7.3732
  99   1.0000      -0.270718        -7.3666
 100   1.0000      -0.270061        -7.3487
 101   1.0000      -0.267863        -7.2889
 102   1.0000      -0.267795        -7.2871
 103   1.0000      -0.266465        -7.2509
 104   1.0000      -0.264677        -7.2022
 105   1.0000      -0.261968        -7.1285
 106   1.0000      -0.259898        -7.0722
 107   1.0000      -0.256404        -6.9771
 108   1.0000      -0.253349        -6.8940
 109   1.0000      -0.253208        -6.8901
 110   1.0000      -0.252587        -6.8732
 111   1.0000      -0.249900        -6.8001
 112   1.0000      -0.249445        -6.7877
 113   1.0000      -0.247160        -6.7256
 114   1.0000      -0.246619        -6.7108
 115   1.0000      -0.243134        -6.6160
 116   1.0000      -0.242980        -6.6118
 117   1.0000      -0.241727        -6.5777
 118   1.0000      -0.241680        -6.5764
 119   1.0000      -0.230236        -6.2650
 120   1.0000      -0.225680        -6.1411
 121   1.0000      -0.219241        -5.9659
 122   1.0000      -0.216856        -5.9010
 123   1.0000      -0.210818        -5.7366
 124   1.0000      -0.207782        -5.6540
 125   1.0000      -0.197272        -5.3681
 126   1.0000      -0.191845        -5.2204
 127   1.0000      -0.185175        -5.0389
 128   0.0000      -0.158738        -4.3195
 129   0.0000      -0.154460        -4.2031
 130   0.0000      -0.154169        -4.1951
 131   0.0000      -0.133449        -3.6313
 132   0.0000      -0.122321        -3.3285

                 SPIN DOWN ORBITALS
  NO   OCC          E(Eh)            E(eV)
   0   1.0000    -214.485371     -5836.4437
   1   1.0000     -24.242665      -659.6764
   2   1.0000     -20.620313      -561.1072
   3   1.0000     -20.617352      -561.0267
   4   1.0000     -20.612634      -560.8983
   5   1.0000      -4.035288      -109.8058
   6   1.0000      -4.021934      -109.4424
   7   1.0000      -4.021832      -109.4396
   8   1.0000      -4.021606      -109.4335
   9   1.0000      -4.021560      -109.4322
  10   1.0000      -4.021537      -109.4316
  11   1.0000      -4.021456      -109.4294
  12   1.0000      -4.016131      -109.2845
  13   1.0000      -4.016096      -109.2835
  14   1.0000      -4.015992      -109.2807
  15   1.0000      -4.015960      -109.2798
  16   1.0000      -4.015641      -109.2711
  17   1.0000      -2.667606       -72.5892
  18   1.0000      -2.255210       -61.3674
  19   1.0000      -2.246879       -61.1407
  20   1.0000      -2.242768       -61.0288
  21   1.0000      -2.240885       -60.9776
  22   1.0000      -2.240425       -60.9651
  23   1.0000      -2.239510       -60.9402
  24   1.0000      -2.239433       -60.9381
  25   1.0000      -2.238542       -60.9138
  26   1.0000      -2.238165       -60.9036
  27   1.0000      -2.236504       -60.8584
  28   1.0000      -2.236375       -60.8549
  29   1.0000      -2.235527       -60.8318
  30   1.0000      -2.235418       -60.8288
  31   1.0000      -2.232786       -60.7572
  32   1.0000      -2.232706       -60.7550
  33   1.0000      -2.232660       -60.7538
  34   1.0000      -2.232550       -60.7508
  35   1.0000      -2.232038       -60.7368
  36   1.0000      -2.231831       -60.7312
  37   1.0000      -2.231825       -60.7310
  38   1.0000      -2.231710       -60.7279
  39   1.0000      -2.231328       -60.7175
  40   1.0000      -2.231273       -60.7160
  41   1.0000      -2.230455       -60.6938
  42   1.0000      -2.229544       -60.6690
  43   1.0000      -2.229023       -60.6548
  44   1.0000      -2.228977       -60.6535
  45   1.0000      -2.228321       -60.6357
  46   1.0000      -2.227995       -60.6268
  47   1.0000      -2.227918       -60.6247
  48   1.0000      -2.227075       -60.6018
  49   1.0000      -2.226943       -60.5982
  50   1.0000      -2.223401       -60.5018
  51   1.0000      -2.223018       -60.4914
  52   1.0000      -2.222744       -60.4840
  53   1.0000      -2.222422       -60.4752
  54   1.0000      -1.666257       -45.3412
  55   1.0000      -1.661073       -45.2001
  56   1.0000      -1.650071       -44.9007
  57   1.0000      -0.413125       -11.2417
  58   1.0000      -0.383575       -10.4376
  59   1.0000      -0.379377       -10.3234
  60   1.0000      -0.359187        -9.7740
  61   1.0000      -0.357779        -9.7357
  62   1.0000      -0.356096        -9.6899
  63   1.0000      -0.354159        -9.6372
  64   1.0000      -0.352081        -9.5806
  65   1.0000      -0.338358        -9.2072
  66   1.0000      -0.338130        -9.2010
  67   1.0000      -0.337845        -9.1932
  68   1.0000      -0.337201        -9.1757
  69   1.0000      -0.329467        -8.9652
  70   1.0000      -0.328005        -8.9255
  71   1.0000      -0.325947        -8.8695
  72   1.0000      -0.323802        -8.8111
  73   1.0000      -0.323461        -8.8018
  74   1.0000      -0.321781        -8.7561
  75   1.0000      -0.319410        -8.6916
  76   1.0000      -0.318275        -8.6607
  77   1.0000      -0.317180        -8.6309
  78   1.0000      -0.308943        -8.4068
  79   1.0000      -0.304965        -8.2985
  80   1.0000      -0.303604        -8.2615
  81   1.0000      -0.303216        -8.2509
  82   1.0000      -0.302368        -8.2278
  83   1.0000      -0.299988        -8.1631
  84   1.0000      -0.297966        -8.1081
  85   1.0000      -0.295588        -8.0434
  86   1.0000      -0.294278        -8.0077
  87   1.0000      -0.287829        -7.8322
  88   1.0000      -0.286954        -7.8084
  89   1.0000      -0.285589        -7.7713
  90   1.0000      -0.282544        -7.6884
  91   1.0000      -0.281490        -7.6597
  92   1.0000      -0.278219        -7.5707
  93   1.0000      -0.277941        -7.5632
  94   1.0000      -0.277533        -7.5520
  95   1.0000      -0.277314        -7.5461
  96   1.0000      -0.276768        -7.5312
  97   1.0000      -0.271628        -7.3914
  98   1.0000      -0.270087        -7.3495
  99   1.0000      -0.269671        -7.3381
 100   1.0000      -0.269353        -7.3295
 101   1.0000      -0.266914        -7.2631
 102   1.0000      -0.266773        -7.2593
 103   1.0000      -0.264462        -7.1964
 104   1.0000      -0.263982        -7.1833
 105   1.0000      -0.261013        -7.1025
 106   1.0000      -0.258798        -7.0423
 107   1.0000      -0.255433        -6.9507
 108   1.0000      -0.252662        -6.8753
 109   1.0000      -0.251977        -6.8566
 110   1.0000      -0.251631        -6.8472
 111   1.0000      -0.249128        -6.7791
 112   1.0000      -0.247709        -6.7405
 113   1.0000      -0.245349        -6.6763
 114   1.0000      -0.245280        -6.6744
 115   1.0000      -0.242210        -6.5909
 116   1.0000      -0.241797        -6.5796
 117   1.0000      -0.240330        -6.5397
 118   1.0000      -0.240297        -6.5388
 119   1.0000      -0.229110        -6.2344
 120   1.0000      -0.224981        -6.1220
 121   1.0000      -0.216446        -5.8898
 122   1.0000      -0.209292        -5.6951
 123   1.0000      -0.199005        -5.4152
 124   0.0000      -0.170837        -4.6487
 125   0.0000      -0.156909        -4.2697
 126   0.0000      -0.141819        -3.8591
 127   0.0000      -0.125276        -3.4089
 128   0.0000      -0.115180        -3.1342

MULLIKEN ATOMIC CHARGES AND SPIN POPULATIONS
--------------------------------------------
   0 Au:    0.305670    0.015501
   1 Au:    0.248335    0.008627
   2 Au:    0.246447    0.009820
   3 Au:    0.416986    0.061342
   4 Au:    0.297254    0.016325
   5 Au:    0.253355    0.009224
   6 Au:    0.257135    0.008539
   7 Au:    0.299328    0.015284
   8 Au:    0.414532    0.147029
   9 Au:   -0.242123    0.038683
  10 Au:    0.309539    0.014466
  11 Au:    0.413852    0.147196
  12 Cr:   -3.220310    3.507965
Sum of atomic charges         :   -0.0000000

LOEWDIN ATOMIC CHARGES AND SPIN POPULATIONS
-------------------------------------------
   0 Au:    0.106123    0.016599
   1 Au:    0.086103    0.031968
   2 Au:    0.086340    0.032742
   3 Au:    0.079537    0.049981
   4 Au:    0.107258    0.017359
   5 Au:    0.086104    0.032082
   6 Au:    0.086113    0.031569
   7 Au:    0.106505    0.016567
   8 Au:    0.148968    0.101715
   9 Au:   -0.063934    0.100702
  10 Au:    0.105574    0.015824
  11 Au:    0.148853    0.101676
  12 Cr:   -1.083545    3.451216

  Mayer bond orders larger than 0.100000
B(  0-Au,  1-Au) :   0.4961 B(  0-Au,  3-Au) :   0.2262 B(  0-Au,  4-Au) :   0.1470
B(  0-Au, 12-Cr) :   0.6515 B(  1-Au,  6-Au) :   0.1279 B(  1-Au,  9-Au) :   0.1524
B(  1-Au, 11-Au) :   0.2380 B(  1-Au, 12-Cr) :   0.6183 B(  2-Au,  4-Au) :   0.5008
B(  2-Au,  5-Au) :   0.1257 B(  2-Au,  8-Au) :   0.2379 B(  2-Au,  9-Au) :   0.1527
B(  2-Au, 12-Cr) :   0.6151 B(  3-Au,  4-Au) :   0.2266 B(  3-Au,  7-Au) :   0.2259
B(  3-Au, 10-Au) :   0.2251 B(  3-Au, 12-Cr) :   0.3455 B(  4-Au, 12-Cr) :   0.6499
B(  5-Au,  7-Au) :   0.4946 B(  5-Au,  8-Au) :   0.2391 B(  5-Au,  9-Au) :   0.1518
B(  5-Au, 12-Cr) :   0.6231 B(  6-Au,  9-Au) :   0.1520 B(  6-Au, 10-Au) :   0.4889
B(  6-Au, 11-Au) :   0.2384 B(  6-Au, 12-Cr) :   0.6252 B(  7-Au, 10-Au) :   0.1528
B(  7-Au, 12-Cr) :   0.6504 B(  8-Au,  9-Au) :   0.5578 B(  8-Au, 12-Cr) :   0.2288
B(  9-Au, 11-Au) :   0.5598 B(  9-Au, 12-Cr) :   0.2816 B( 10-Au, 12-Cr) :   0.6531
B( 11-Au, 12-Cr) :   0.2267

FINAL SINGLE POINT ENERGY     -2674.154899067512

DIPOLE MOMENT
-------------
                                X             Y             Z
Electronic contribution:      3.78714      15.43157       0.82979
Nuclear contribution   :     -3.69964     -15.06560      -0.80586
                        -----------------------------------------
Total Dipole Moment    :      0.08750       0.36597       0.02393
                        -----------------------------------------
Magnitude (a.u.)       :      0.37704
Magnitude (Debye)      :      0.95836

Rotational constants in cm-1:     0.001505     0.001183     0.000929
Rotational constants in MHz :    45.132017    35.453009    27.859791

                             ****ORCA TERMINATED NORMALLY****
TOTAL RUN TIME: 0 days 5 hours 0 minutes 7 seconds 468 msec
