                         Program Version 5.0.3 -  RELEASE  -
|  1> !CASSCF def2-TZVP def2-TZVP/C
|  2> !MOREAD RIJCOSX
|  3> %maxcore 6000
|  4> %moinp "pbe.qro"
|  5> %pal nprocs 2 end
|  6>
|  7> %casscf
|  8>  mult 5,3
|  9>  bweight 1,1
| 10>  nroots 5,45
| 11>  nel 6
| 12>  norb 5
| 13> end
| 14>
| 15>
| 16> *xyzfile 0 5 pbe.xyz
| 17>
| 18>
| 19>                          ****END OF INPUT****

CARTESIAN COORDINATES (ANGSTROEM)
---------------------------------
  Au     6.513322    8.842332    3.910751
  Au     8.236344    6.749745    4.132713
  Au     7.563026    4.798717    5.794669
  Au     6.230482    3.520495    7.820631
  Au     4.808190    5.594234    6.808095
  Au     4.528511   10.509245    4.726152
  Au     4.296739    8.006768    5.768552
  Au     5.362129    7.848761    8.444327
  Au     7.367239    5.900811    8.595750
  Au     8.175991    8.448817    8.218433
  Au     8.676341    9.240011    5.596556
  Au     6.302923   10.035504    6.803983
  Fe     6.827670    7.307423    6.247159

 Total Charge           Charge          ....    0
 Multiplicity           Mult            ....    5
 Number of Electrons    NEL             ....  254
 Basis Dimension        Dim             ....  525

ORBITAL ENERGIES
----------------

  NO   OCC          E(Eh)            E(eV)
   0   2.0000    -261.394115     -7112.8955
   1   2.0000     -31.957033      -869.5951
   2   2.0000     -27.437361      -746.6085
   3   2.0000     -27.436711      -746.5909
   4   2.0000     -27.436570      -746.5870
   5   2.0000      -4.732672      -128.7825
   6   2.0000      -4.732330      -128.7733
   7   2.0000      -4.728155      -128.6596
   8   2.0000      -4.717260      -128.3632
   9   2.0000      -4.715872      -128.3254
  10   2.0000      -4.713034      -128.2482
  11   2.0000      -4.708101      -128.1139
  12   2.0000      -4.707395      -128.0947
  13   2.0000      -4.707105      -128.0868
  14   2.0000      -4.704904      -128.0269
  15   2.0000      -4.699615      -127.8830
  16   2.0000      -4.694622      -127.7472
  17   2.0000      -4.190844      -114.0387
  18   2.0000      -2.775509       -75.5254
  19   2.0000      -2.773524       -75.4714
  20   2.0000      -2.770507       -75.3893
  21   2.0000      -2.769754       -75.3689
  22   2.0000      -2.769314       -75.3569
  23   2.0000      -2.768677       -75.3395
  24   2.0000      -2.768542       -75.3358
  25   2.0000      -2.766934       -75.2921
  26   2.0000      -2.765031       -75.2403
  27   2.0000      -2.764730       -75.2321
  28   2.0000      -2.763188       -75.1902
  29   2.0000      -2.762515       -75.1718
  30   2.0000      -2.755202       -74.9729
  31   2.0000      -2.753539       -74.9276
  32   2.0000      -2.752941       -74.9113
  33   2.0000      -2.752463       -74.8983
  34   2.0000      -2.751083       -74.8608
  35   2.0000      -2.750677       -74.8497
  36   2.0000      -2.749032       -74.8050
  37   2.0000      -2.748124       -74.7803
  38   2.0000      -2.747521       -74.7639
  39   2.0000      -2.746520       -74.7366
  40   2.0000      -2.745814       -74.7174
  41   2.0000      -2.744469       -74.6808
  42   2.0000      -2.742704       -74.6328
  43   2.0000      -2.742620       -74.6305
  44   2.0000      -2.741904       -74.6110
  45   2.0000      -2.741686       -74.6051
  46   2.0000      -2.740149       -74.5632
  47   2.0000      -2.739829       -74.5545
  48   2.0000      -2.739626       -74.5490
  49   2.0000      -2.738000       -74.5048
  50   2.0000      -2.737320       -74.4863
  51   2.0000      -2.736373       -74.4605
  52   2.0000      -2.734006       -74.3961
  53   2.0000      -2.732799       -74.3632
  54   2.0000      -2.730568       -74.3025
  55   2.0000      -2.726904       -74.2028
  56   2.0000      -2.724935       -74.1493
  57   2.0000      -0.589731       -16.0474
  58   2.0000      -0.567370       -15.4389
  59   2.0000      -0.559676       -15.2296
  60   2.0000      -0.559432       -15.2229
  61   2.0000      -0.552382       -15.0311
  62   2.0000      -0.551872       -15.0172
  63   2.0000      -0.546270       -14.8648
  64   2.0000      -0.544839       -14.8258
  65   2.0000      -0.542825       -14.7710
  66   2.0000      -0.541438       -14.7333
  67   2.0000      -0.536166       -14.5898
  68   2.0000      -0.533079       -14.5058
  69   2.0000      -0.528917       -14.3926
  70   2.0000      -0.526817       -14.3354
  71   2.0000      -0.525639       -14.3034
  72   2.0000      -0.524297       -14.2669
  73   2.0000      -0.519693       -14.1416
  74   2.0000      -0.515844       -14.0368
  75   2.0000      -0.513440       -13.9714
  76   2.0000      -0.509700       -13.8697
  77   2.0000      -0.508267       -13.8306
  78   2.0000      -0.506355       -13.7786
  79   2.0000      -0.504027       -13.7153
  80   2.0000      -0.498120       -13.5545
  81   2.0000      -0.494996       -13.4695
  82   2.0000      -0.489833       -13.3290
  83   2.0000      -0.488220       -13.2851
  84   2.0000      -0.484672       -13.1886
  85   2.0000      -0.482006       -13.1160
  86   2.0000      -0.480202       -13.0669
  87   2.0000      -0.474587       -12.9142
  88   2.0000      -0.471554       -12.8316
  89   2.0000      -0.469115       -12.7653
  90   2.0000      -0.466001       -12.6805
  91   2.0000      -0.462481       -12.5848
  92   2.0000      -0.461073       -12.5464
  93   2.0000      -0.458326       -12.4717
  94   2.0000      -0.455609       -12.3978
  95   2.0000      -0.454137       -12.3577
  96   2.0000      -0.453892       -12.3510
  97   2.0000      -0.451001       -12.2724
  98   2.0000      -0.449646       -12.2355
  99   2.0000      -0.447314       -12.1720
 100   2.0000      -0.446962       -12.1625
 101   2.0000      -0.442381       -12.0378
 102   2.0000      -0.439450       -11.9580
 103   2.0000      -0.437846       -11.9144
 104   2.0000      -0.437328       -11.9003
 105   2.0000      -0.435614       -11.8537
 106   2.0000      -0.434053       -11.8112
 107   2.0000      -0.431199       -11.7335
 108   2.0000      -0.430519       -11.7150
 109   2.0000      -0.429118       -11.6769
 110   2.0000      -0.426063       -11.5938
 111   2.0000      -0.425432       -11.5766
 112   2.0000      -0.421878       -11.4799
 113   2.0000      -0.417381       -11.3575
 114   2.0000      -0.415843       -11.3157
 115   2.0000      -0.400135       -10.8882
 116   2.0000      -0.392280       -10.6745
 117   2.0000      -0.390537       -10.6271
 118   2.0000      -0.378441       -10.2979
 119   2.0000      -0.334578        -9.1043
 120   2.0000      -0.326182        -8.8759
 121   2.0000      -0.265968        -7.2374
 122   2.0000      -0.230504        -6.2723
 123   2.0000      -0.217295        -5.9129
 124   1.2000      -0.271014        -7.3747
 125   1.2000      -0.268413        -7.3039
 126   1.2000      -0.268468        -7.3054
 127   1.2000      -0.270636        -7.3644
 128   1.2000      -0.260290        -7.0829
 129   0.0000      -0.038647        -1.0516
 130   0.0000      -0.018311        -0.4983
 131   0.0000      -0.009388        -0.2555
 132   0.0000      -0.004416        -0.1202
 133   0.0000       0.022397         0.6095

MULLIKEN ATOMIC CHARGES AND SPIN DENSITIES
------------------------------------------
   0 Au:   -0.071082    0.008396
   1 Au:    0.334498    0.007962
   2 Au:   -0.111465    0.011792
   3 Au:    0.399056    0.003348
   4 Au:   -0.009770    0.007812
   5 Au:    0.437745    0.002911
   6 Au:   -0.068147    0.007962
   7 Au:    0.414859    0.005889
   8 Au:   -0.163004    0.009461
   9 Au:    0.421941    0.007256
  10 Au:    0.252963    0.006705
  11 Au:   -0.128521    0.007446
  12 Fe:   -1.709074    2.913061
Sum of atomic charges       :    0.0000000

LOEWDIN ATOMIC CHARGES AND SPIN DENSITIES
-----------------------------------------
   0 Au:   -0.081056    0.010152
   1 Au:    0.050506    0.011826
   2 Au:   -0.082237    0.013730
   3 Au:    0.122219    0.004383
   4 Au:   -0.040684    0.010937
   5 Au:    0.144159    0.003873
   6 Au:    0.017815    0.010808
   7 Au:    0.088625    0.007496
   8 Au:   -0.084885    0.010965
   9 Au:    0.089740    0.011087
  10 Au:    0.053150    0.009126
  11 Au:   -0.087942    0.008694
  12 Fe:   -0.189410    2.886922

  Mayer bond orders larger than 0.100000
B(  0-Au,  1-Au) :   0.2498 B(  0-Au,  5-Au) :   0.2952 B(  0-Au,  6-Au) :   0.1942
B(  0-Au, 10-Au) :   0.2272 B(  0-Au, 11-Au) :   0.1650 B(  0-Au, 12-Fe) :   0.3559
B(  1-Au,  2-Au) :   0.3650 B(  1-Au, 12-Fe) :   0.5000 B(  2-Au,  3-Au) :   0.2713
B(  2-Au,  4-Au) :   0.1525 B(  2-Au, 12-Fe) :   0.5284 B(  3-Au,  4-Au) :   0.3708
B(  3-Au,  8-Au) :   0.2730 B(  4-Au,  6-Au) :   0.4196 B(  4-Au,  7-Au) :   0.1100
B(  4-Au,  8-Au) :   0.1924 B(  4-Au, 12-Fe) :   0.3570 B(  5-Au,  6-Au) :   0.3739
B(  5-Au, 11-Au) :   0.2507 B(  6-Au,  7-Au) :   0.1594 B(  6-Au, 11-Au) :   0.2366
B(  6-Au, 12-Fe) :   0.3749 B(  7-Au,  8-Au) :   0.2358 B(  7-Au,  9-Au) :   0.1320
B(  7-Au, 12-Fe) :   0.4379 B(  8-Au,  9-Au) :   0.3126 B(  8-Au, 12-Fe) :   0.4198
B(  9-Au, 10-Au) :   0.1568 B(  9-Au, 11-Au) :   0.2686 B(  9-Au, 12-Fe) :   0.2950
B( 10-Au, 11-Au) :   0.2784 B( 10-Au, 12-Fe) :   0.3921 B( 11-Au, 12-Fe) :   0.3866

FINAL SINGLE POINT ENERGY     -2880.106649864435

DIPOLE MOMENT
-------------
                                X             Y             Z
Electronic contribution:    -12.74302       6.26368       5.62417
Nuclear contribution   :     12.27459      -5.72813      -5.24719
                        -----------------------------------------
Total Dipole Moment    :     -0.46843       0.53556       0.37698
                        -----------------------------------------
Magnitude (a.u.)       :      0.80521
Magnitude (Debye)      :      2.04668

Rotational constants in cm-1:     0.001747     0.001060     0.001012
Rotational constants in MHz :    52.374164    31.789072    30.329337

                             ****ORCA TERMINATED NORMALLY****
TOTAL RUN TIME: 0 days 3 hours 41 minutes 6 seconds 872 msec
