                         Program Version 5.0.3 -  RELEASE  -
|  1> !RI-B2PLYP def2-TZVP def2-TZVP/C
|  2> !RIJCOSX VERYSLOWCONV
|  3>
|  4> %scf
|  5>   AutoTRAHIter 200
|  6>   maxiter 400
|  7> end
|  8>
|  9>
| 10> %pal nprocs 6 end
| 11>
| 12> *xyzfile 0 6 pbe.xyz
| 13>
| 14> $new_job
| 15>
| 16> !RI-B2PLYP def2-TZVP def2-TZVP/C
| 17> !RIJCOSX VERYSLOWCONV
| 18>
| 19> %scf
| 20>   AutoTRAHIter 200
| 21>   maxiter 400
| 22> end
| 23>
| 24>
| 25> %pal nprocs 6 end
| 26>
| 27> *xyzfile 0 4 pbe.xyz
| 28>
| 29>
| 30>
| 31>
| 32>
| 33>                          ****END OF INPUT****
 Total Charge           Charge          ....    0
 Multiplicity           Mult            ....    6
 Number of Electrons    NEL             ....  311
MP2 TOTAL ENERGY:    -3297.360374537 Eh
FINAL SINGLE POINT ENERGY     -3297.360374537264

CARTESIAN COORDINATES (ANGSTROEM)
---------------------------------
  Au     5.839519    7.640475    6.352083
  Au     8.487067    7.712724    5.479422
  Au     9.787321    9.930869    6.866947
  Au     7.064485   10.158374    6.330896
  Au    10.399795    7.256073    7.543557
  Au     7.975602    5.674376    7.342465
  Au     5.506384    9.537731    8.518293
  Au     8.035081   10.845354    8.910250
  Au     3.913629    7.250806    8.374083
  Au     6.366360    6.308195    9.603727
  Au     5.286864    5.076011    7.316375
  Au     4.791247    8.204616   10.870980
  Au     7.472520    8.790877   10.773149
  Au     9.088841    6.383742    9.863883
  Au    10.032202    9.038419    9.720428
  Fe     7.937782    8.259554    8.123400

 Multiplicity           Mult            ....    4
 Number of Electrons    NEL             ....  311
 Basis Dimension        Dim             ....  645

ORBITAL ENERGIES
----------------
                 SPIN UP ORBITALS
  NO   OCC          E(Eh)            E(eV)
   0   1.0000    -258.345275     -7029.9323
   1   1.0000     -30.904459      -840.9531
   2   1.0000     -26.621041      -724.3953
   3   1.0000     -26.602295      -723.8853
   4   1.0000     -26.584846      -723.4104
   5   1.0000      -4.406949      -119.9192
   6   1.0000      -4.405585      -119.8821
   7   1.0000      -4.404821      -119.8613
   8   1.0000      -4.403803      -119.8336
   9   1.0000      -4.401546      -119.7722
  10   1.0000      -4.401131      -119.7609
  11   1.0000      -4.400831      -119.7527
  12   1.0000      -4.400305      -119.7384
  13   1.0000      -4.400159      -119.7344
  14   1.0000      -4.396825      -119.6437
  15   1.0000      -4.396770      -119.6422
  16   1.0000      -4.394707      -119.5861
  17   1.0000      -4.393206      -119.5452
  18   1.0000      -4.392612      -119.5291
  19   1.0000      -4.390453      -119.4703
  20   1.0000      -3.918401      -106.6251
  21   1.0000      -2.664975       -72.5176
  22   1.0000      -2.626078       -71.4592
  23   1.0000      -2.590764       -70.4983
  24   1.0000      -2.527086       -68.7655
  25   1.0000      -2.526796       -68.7576
  26   1.0000      -2.525794       -68.7304
  27   1.0000      -2.525164       -68.7132
  28   1.0000      -2.523560       -68.6696
  29   1.0000      -2.523370       -68.6644
  30   1.0000      -2.523191       -68.6595
  31   1.0000      -2.522310       -68.6356
  32   1.0000      -2.521838       -68.6227
  33   1.0000      -2.521516       -68.6139
  34   1.0000      -2.521119       -68.6031
  35   1.0000      -2.520987       -68.5995
  36   1.0000      -2.520773       -68.5937
  37   1.0000      -2.519856       -68.5688
  38   1.0000      -2.519714       -68.5649
  39   1.0000      -2.519334       -68.5545
  40   1.0000      -2.518945       -68.5440
  41   1.0000      -2.518705       -68.5374
  42   1.0000      -2.518438       -68.5302
  43   1.0000      -2.517875       -68.5149
  44   1.0000      -2.517513       -68.5050
  45   1.0000      -2.517088       -68.4934
  46   1.0000      -2.516759       -68.4845
  47   1.0000      -2.516034       -68.4648
  48   1.0000      -2.515497       -68.4502
  49   1.0000      -2.515293       -68.4446
  50   1.0000      -2.514945       -68.4351
  51   1.0000      -2.514691       -68.4282
  52   1.0000      -2.513867       -68.4058
  53   1.0000      -2.513754       -68.4027
  54   1.0000      -2.512797       -68.3767
  55   1.0000      -2.512381       -68.3654
  56   1.0000      -2.511942       -68.3534
  57   1.0000      -2.511703       -68.3469
  58   1.0000      -2.511377       -68.3380
  59   1.0000      -2.511106       -68.3307
  60   1.0000      -2.510970       -68.3270
  61   1.0000      -2.510245       -68.3072
  62   1.0000      -2.509750       -68.2938
  63   1.0000      -2.508827       -68.2687
  64   1.0000      -2.508613       -68.2628
  65   1.0000      -2.508479       -68.2592
  66   1.0000      -2.507610       -68.2355
  67   1.0000      -2.507056       -68.2205
  68   1.0000      -2.505848       -68.1876
  69   1.0000      -0.569944       -15.5090
  70   1.0000      -0.566254       -15.4086
  71   1.0000      -0.558221       -15.1900
  72   1.0000      -0.544673       -14.8213
  73   1.0000      -0.526544       -14.3280
  74   1.0000      -0.512919       -13.9572
  75   1.0000      -0.479020       -13.0348
  76   1.0000      -0.474412       -12.9094
  77   1.0000      -0.473157       -12.8753
  78   1.0000      -0.468855       -12.7582
  79   1.0000      -0.466225       -12.6866
  80   1.0000      -0.463528       -12.6132
  81   1.0000      -0.461033       -12.5454
  82   1.0000      -0.460000       -12.5172
  83   1.0000      -0.458881       -12.4868
  84   1.0000      -0.456201       -12.4139
  85   1.0000      -0.454532       -12.3685
  86   1.0000      -0.453648       -12.3444
  87   1.0000      -0.451008       -12.2725
  88   1.0000      -0.449873       -12.2417
  89   1.0000      -0.448567       -12.2061
  90   1.0000      -0.447249       -12.1703
  91   1.0000      -0.446518       -12.1504
  92   1.0000      -0.444218       -12.0878
  93   1.0000      -0.443047       -12.0559
  94   1.0000      -0.440294       -11.9810
  95   1.0000      -0.439696       -11.9647
  96   1.0000      -0.437592       -11.9075
  97   1.0000      -0.433961       -11.8087
  98   1.0000      -0.431842       -11.7510
  99   1.0000      -0.429740       -11.6938
 100   1.0000      -0.428892       -11.6708
 101   1.0000      -0.424562       -11.5529
 102   1.0000      -0.421629       -11.4731
 103   1.0000      -0.417039       -11.3482
 104   1.0000      -0.413321       -11.2470
 105   1.0000      -0.411847       -11.2069
 106   1.0000      -0.409144       -11.1334
 107   1.0000      -0.407392       -11.0857
 108   1.0000      -0.406709       -11.0671
 109   1.0000      -0.402375       -10.9492
 110   1.0000      -0.397437       -10.8148
 111   1.0000      -0.394184       -10.7263
 112   1.0000      -0.388743       -10.5782
 113   1.0000      -0.383981       -10.4486
 114   1.0000      -0.383130       -10.4255
 115   1.0000      -0.381546       -10.3824
 116   1.0000      -0.379306       -10.3214
 117   1.0000      -0.377482       -10.2718
 118   1.0000      -0.375009       -10.2045
 119   1.0000      -0.374038       -10.1781
 120   1.0000      -0.373366       -10.1598
 121   1.0000      -0.372564       -10.1380
 122   1.0000      -0.371184       -10.1004
 123   1.0000      -0.369887       -10.0651
 124   1.0000      -0.368935       -10.0392
 125   1.0000      -0.368430       -10.0255
 126   1.0000      -0.366986        -9.9862
 127   1.0000      -0.364948        -9.9307
 128   1.0000      -0.364876        -9.9288
 129   1.0000      -0.363638        -9.8951
 130   1.0000      -0.362909        -9.8753
 131   1.0000      -0.361861        -9.8467
 132   1.0000      -0.360722        -9.8157
 133   1.0000      -0.359270        -9.7762
 134   1.0000      -0.357102        -9.7172
 135   1.0000      -0.356344        -9.6966
 136   1.0000      -0.353811        -9.6277
 137   1.0000      -0.351272        -9.5586
 138   1.0000      -0.350090        -9.5264
 139   1.0000      -0.346633        -9.4324
 140   1.0000      -0.346193        -9.4204
 141   1.0000      -0.344987        -9.3876
 142   1.0000      -0.343745        -9.3538
 143   1.0000      -0.342785        -9.3276
 144   1.0000      -0.340561        -9.2671
 145   1.0000      -0.335533        -9.1303
 146   1.0000      -0.334422        -9.1001
 147   1.0000      -0.331371        -9.0171
 148   1.0000      -0.328099        -8.9280
 149   1.0000      -0.324611        -8.8331
 150   1.0000      -0.317990        -8.6529
 151   1.0000      -0.312367        -8.4999
 152   1.0000      -0.308699        -8.4001
 153   1.0000      -0.246795        -6.7156
 154   1.0000      -0.240185        -6.5358
 155   1.0000      -0.217887        -5.9290
 156   1.0000      -0.207754        -5.6533
 157   0.0000      -0.121850        -3.3157
 158   0.0000      -0.090888        -2.4732
 159   0.0000      -0.077683        -2.1139
 160   0.0000      -0.073943        -2.0121
 161   0.0000      -0.061024        -1.6606

                 SPIN DOWN ORBITALS
  NO   OCC          E(Eh)            E(eV)
   0   1.0000    -258.343299     -7029.8785
   1   1.0000     -30.811818      -838.4322
   2   1.0000     -26.523048      -721.7288
   3   1.0000     -26.518134      -721.5951
   4   1.0000     -26.513256      -721.4624
   5   1.0000      -4.407210      -119.9263
   6   1.0000      -4.405535      -119.8807
   7   1.0000      -4.404569      -119.8544
   8   1.0000      -4.403610      -119.8283
   9   1.0000      -4.401141      -119.7611
  10   1.0000      -4.400855      -119.7533
  11   1.0000      -4.400717      -119.7496
  12   1.0000      -4.400446      -119.7422
  13   1.0000      -4.399990      -119.7298
  14   1.0000      -4.396774      -119.6423
  15   1.0000      -4.396384      -119.6317
  16   1.0000      -4.395349      -119.6035
  17   1.0000      -4.393048      -119.5409
  18   1.0000      -4.392797      -119.5341
  19   1.0000      -4.390159      -119.4623
  20   1.0000      -3.674145       -99.9786
  21   1.0000      -2.526366       -68.7459
  22   1.0000      -2.526247       -68.7427
  23   1.0000      -2.525435       -68.7206
  24   1.0000      -2.524586       -68.6975
  25   1.0000      -2.523288       -68.6622
  26   1.0000      -2.522694       -68.6460
  27   1.0000      -2.522379       -68.6374
  28   1.0000      -2.522126       -68.6305
  29   1.0000      -2.521441       -68.6119
  30   1.0000      -2.520882       -68.5967
  31   1.0000      -2.520624       -68.5897
  32   1.0000      -2.520151       -68.5768
  33   1.0000      -2.519927       -68.5707
  34   1.0000      -2.519616       -68.5622
  35   1.0000      -2.519133       -68.5491
  36   1.0000      -2.518834       -68.5410
  37   1.0000      -2.518245       -68.5249
  38   1.0000      -2.518127       -68.5217
  39   1.0000      -2.517994       -68.5181
  40   1.0000      -2.517629       -68.5082
  41   1.0000      -2.517058       -68.4926
  42   1.0000      -2.516844       -68.4868
  43   1.0000      -2.516595       -68.4800
  44   1.0000      -2.515657       -68.4545
  45   1.0000      -2.515091       -68.4391
  46   1.0000      -2.514979       -68.4360
  47   1.0000      -2.514749       -68.4298
  48   1.0000      -2.514583       -68.4253
  49   1.0000      -2.514050       -68.4108
  50   1.0000      -2.513914       -68.4071
  51   1.0000      -2.512836       -68.3778
  52   1.0000      -2.512177       -68.3598
  53   1.0000      -2.511805       -68.3497
  54   1.0000      -2.511536       -68.3424
  55   1.0000      -2.511321       -68.3365
  56   1.0000      -2.511216       -68.3337
  57   1.0000      -2.511028       -68.3285
  58   1.0000      -2.510326       -68.3095
  59   1.0000      -2.510116       -68.3037
  60   1.0000      -2.508800       -68.2679
  61   1.0000      -2.508779       -68.2673
  62   1.0000      -2.508515       -68.2602
  63   1.0000      -2.508178       -68.2510
  64   1.0000      -2.506896       -68.2161
  65   1.0000      -2.505687       -68.1832
  66   1.0000      -2.356416       -64.1213
  67   1.0000      -2.348733       -63.9123
  68   1.0000      -2.340226       -63.6808
  69   1.0000      -0.523551       -14.2466
  70   1.0000      -0.481337       -13.0978
  71   1.0000      -0.479532       -13.0487
  72   1.0000      -0.476682       -12.9712
  73   1.0000      -0.473757       -12.8916
  74   1.0000      -0.471971       -12.8430
  75   1.0000      -0.468088       -12.7373
  76   1.0000      -0.466835       -12.7032
  77   1.0000      -0.465975       -12.6798
  78   1.0000      -0.465274       -12.6608
  79   1.0000      -0.460844       -12.5402
  80   1.0000      -0.460079       -12.5194
  81   1.0000      -0.457910       -12.4604
  82   1.0000      -0.457356       -12.4453
  83   1.0000      -0.456315       -12.4170
  84   1.0000      -0.453569       -12.3422
  85   1.0000      -0.453005       -12.3269
  86   1.0000      -0.451633       -12.2896
  87   1.0000      -0.449921       -12.2430
  88   1.0000      -0.448900       -12.2152
  89   1.0000      -0.445845       -12.1320
  90   1.0000      -0.444528       -12.0962
  91   1.0000      -0.442029       -12.0282
  92   1.0000      -0.440623       -11.9900
  93   1.0000      -0.434299       -11.8179
  94   1.0000      -0.433498       -11.7961
  95   1.0000      -0.431509       -11.7420
  96   1.0000      -0.425676       -11.5832
  97   1.0000      -0.423733       -11.5304
  98   1.0000      -0.421027       -11.4567
  99   1.0000      -0.415986       -11.3196
 100   1.0000      -0.414405       -11.2765
 101   1.0000      -0.410850       -11.1798
 102   1.0000      -0.410705       -11.1758
 103   1.0000      -0.408907       -11.1269
 104   1.0000      -0.404563       -11.0087
 105   1.0000      -0.401609       -10.9284
 106   1.0000      -0.398179       -10.8350
 107   1.0000      -0.390774       -10.6335
 108   1.0000      -0.389533       -10.5997
 109   1.0000      -0.386705       -10.5228
 110   1.0000      -0.385453       -10.4887
 111   1.0000      -0.384064       -10.4509
 112   1.0000      -0.382767       -10.4156
 113   1.0000      -0.381461       -10.3801
 114   1.0000      -0.378016       -10.2863
 115   1.0000      -0.377011       -10.2590
 116   1.0000      -0.375978       -10.2309
 117   1.0000      -0.372973       -10.1491
 118   1.0000      -0.372507       -10.1364
 119   1.0000      -0.370795       -10.0898
 120   1.0000      -0.368840       -10.0366
 121   1.0000      -0.368274       -10.0212
 122   1.0000      -0.366187        -9.9644
 123   1.0000      -0.365383        -9.9426
 124   1.0000      -0.365030        -9.9330
 125   1.0000      -0.364368        -9.9150
 126   1.0000      -0.363408        -9.8888
 127   1.0000      -0.361497        -9.8368
 128   1.0000      -0.360378        -9.8064
 129   1.0000      -0.358771        -9.7627
 130   1.0000      -0.358265        -9.7489
 131   1.0000      -0.355661        -9.6780
 132   1.0000      -0.352503        -9.5921
 133   1.0000      -0.350835        -9.5467
 134   1.0000      -0.348361        -9.4794
 135   1.0000      -0.346998        -9.4423
 136   1.0000      -0.346179        -9.4200
 137   1.0000      -0.344653        -9.3785
 138   1.0000      -0.343533        -9.3480
 139   1.0000      -0.341565        -9.2945
 140   1.0000      -0.336180        -9.1479
 141   1.0000      -0.335198        -9.1212
 142   1.0000      -0.333320        -9.0701
 143   1.0000      -0.331524        -9.0212
 144   1.0000      -0.327878        -8.9220
 145   1.0000      -0.325911        -8.8685
 146   1.0000      -0.318977        -8.6798
 147   1.0000      -0.318370        -8.6633
 148   1.0000      -0.316993        -8.6258
 149   1.0000      -0.251992        -6.8570
 150   1.0000      -0.244285        -6.6473
 151   1.0000      -0.227496        -6.1905
 152   1.0000      -0.219212        -5.9650
 153   1.0000      -0.203212        -5.5297
 154   0.0000      -0.091822        -2.4986
 155   0.0000      -0.082467        -2.2440
 156   0.0000      -0.077672        -2.1136
 157   0.0000      -0.062516        -1.7011
 158   0.0000      -0.054926        -1.4946

MULLIKEN ATOMIC CHARGES AND SPIN POPULATIONS
--------------------------------------------
   0 Au:   -0.210311   -0.031307
   1 Au:    0.268760   -0.009813
   2 Au:    0.187279    0.001183
   3 Au:    0.342391   -0.054131
   4 Au:    0.312591   -0.070193
   5 Au:    0.057381   -0.207882
   6 Au:   -0.212401   -0.166169
   7 Au:    0.333383   -0.116617
   8 Au:    0.290593    0.072365
   9 Au:   -0.373605   -0.030615
  10 Au:    0.383196    0.065435
  11 Au:    0.381980    0.021432
  12 Au:   -0.028841   -0.000563
  13 Au:    0.254974   -0.033857
  14 Au:    0.308275    0.000082
  15 Fe:   -2.295645    3.560648
Sum of atomic charges         :   -0.0000000

LOEWDIN ATOMIC CHARGES AND SPIN POPULATIONS
-------------------------------------------
   0 Au:   -0.056854   -0.020216
   1 Au:    0.061857   -0.067427
   2 Au:    0.031678   -0.025033
   3 Au:    0.052858   -0.080522
   4 Au:    0.052480   -0.064630
   5 Au:   -0.017071   -0.086470
   6 Au:   -0.044054   -0.077984
   7 Au:    0.056410   -0.077413
   8 Au:    0.025616    0.040660
   9 Au:   -0.106338   -0.019452
  10 Au:    0.111664    0.036917
  11 Au:    0.120525   -0.016536
  12 Au:   -0.015319   -0.043634
  13 Au:    0.064590   -0.067664
  14 Au:    0.042965   -0.021010
  15 Fe:   -0.381008    3.590416

  Mayer bond orders larger than 0.100000
B(  0-Au,  1-Au) :   0.2325 B(  0-Au,  3-Au) :   0.1810 B(  0-Au,  5-Au) :   0.1557
B(  0-Au,  6-Au) :   0.1893 B(  0-Au,  8-Au) :   0.2781 B(  0-Au,  9-Au) :   0.1160
B(  0-Au, 10-Au) :   0.2517 B(  0-Au, 15-Fe) :   0.4535 B(  1-Au,  2-Au) :   0.1277
B(  1-Au,  4-Au) :   0.1282 B(  1-Au,  5-Au) :   0.1862 B(  1-Au, 15-Fe) :   0.4297
B(  2-Au,  3-Au) :   0.2367 B(  2-Au,  4-Au) :   0.1680 B(  2-Au,  7-Au) :   0.1839
B(  2-Au, 15-Fe) :   0.3884 B(  3-Au,  6-Au) :   0.2586 B(  3-Au,  7-Au) :   0.1192
B(  3-Au, 15-Fe) :   0.4063 B(  4-Au,  5-Au) :   0.1636 B(  4-Au, 13-Au) :   0.1721
B(  4-Au, 14-Au) :   0.1787 B(  4-Au, 15-Fe) :   0.3697 B(  5-Au,  9-Au) :   0.2187
B(  5-Au, 10-Au) :   0.2751 B(  5-Au, 13-Au) :   0.1237 B(  5-Au, 15-Fe) :   0.4278
B(  6-Au,  7-Au) :   0.1516 B(  6-Au,  8-Au) :   0.2754 B(  6-Au,  9-Au) :   0.1200
B(  6-Au, 11-Au) :   0.2523 B(  6-Au, 12-Au) :   0.1251 B(  6-Au, 15-Fe) :   0.4265
B(  7-Au, 12-Au) :   0.1741 B(  7-Au, 14-Au) :   0.1473 B(  7-Au, 15-Fe) :   0.3987
B(  8-Au,  9-Au) :   0.2018 B(  8-Au, 10-Au) :   0.1880 B(  8-Au, 11-Au) :   0.1571
B(  9-Au, 10-Au) :   0.2679 B(  9-Au, 11-Au) :   0.2867 B(  9-Au, 12-Au) :   0.1417
B(  9-Au, 13-Au) :   0.3112 B(  9-Au, 15-Fe) :   0.3121 B( 11-Au, 12-Au) :   0.3178
B( 12-Au, 14-Au) :   0.2779 B( 12-Au, 15-Fe) :   0.4737 B( 13-Au, 14-Au) :   0.1470
B( 13-Au, 15-Fe) :   0.4672 B( 14-Au, 15-Fe) :   0.3973

MP2 TOTAL ENERGY:    -3297.355692228 Eh
FINAL SINGLE POINT ENERGY     -3297.355692228209

DIPOLE MOMENT
-------------
                                X             Y             Z
Electronic contribution:    -23.17808     -10.54920       5.24027
Nuclear contribution   :     22.98813      10.41028      -5.13684
                        -----------------------------------------
Total Dipole Moment    :     -0.18995      -0.13892       0.10344
                        -----------------------------------------
Magnitude (a.u.)       :      0.25706
Magnitude (Debye)      :      0.65340

Rotational constants in cm-1:     0.001134     0.000887     0.000825
Rotational constants in MHz :    33.996785    26.579139    24.735057

                             ****ORCA TERMINATED NORMALLY****
TOTAL RUN TIME: 0 days 0 hours 40 minutes 5 seconds 121 msec
