                         Program Version 5.0.3 -  RELEASE  -
|  1> !R2SCAN def2-TZVP VERYSLOWCONV
|  2>
|  3> %scf
|  4>   AutoTRAHIter 200
|  5>   maxiter 400
|  6> end
|  7>
|  8> %pal nprocs 6 end
|  9>
| 10> *xyzfile 0 6 pbe.xyz
| 11>
| 12> $new_job
| 13>
| 14> !R2SCAN def2-TZVP VERYSLOWCONV
| 15> %scf
| 16>   AutoTRAHIter 200
| 17>   maxiter 400
| 18> end
| 19>
| 20>
| 21> %pal nprocs 6 end
| 22>
| 23> *xyzfile 0 4 pbe.xyz
| 24>
| 25>
| 26>
| 27>
| 28>
| 29>                          ****END OF INPUT****
 Total Charge           Charge          ....    0
 Multiplicity           Mult            ....    6
 Number of Electrons    NEL             ....  311
FINAL SINGLE POINT ENERGY     -3301.438544586340

CARTESIAN COORDINATES (ANGSTROEM)
---------------------------------
  Au     5.839519    7.640475    6.352083
  Au     8.487067    7.712724    5.479422
  Au     9.787321    9.930869    6.866947
  Au     7.064485   10.158374    6.330896
  Au    10.399795    7.256073    7.543557
  Au     7.975602    5.674376    7.342465
  Au     5.506384    9.537731    8.518293
  Au     8.035081   10.845354    8.910250
  Au     3.913629    7.250806    8.374083
  Au     6.366360    6.308195    9.603727
  Au     5.286864    5.076011    7.316375
  Au     4.791247    8.204616   10.870980
  Au     7.472520    8.790877   10.773149
  Au     9.088841    6.383742    9.863883
  Au    10.032202    9.038419    9.720428
  Fe     7.937782    8.259554    8.123400

 Multiplicity           Mult            ....    4
 Number of Electrons    NEL             ....  311
 Basis Dimension        Dim             ....  645

ORBITAL ENERGIES
----------------
                 SPIN UP ORBITALS
  NO   OCC          E(Eh)            E(eV)
   0   1.0000    -255.635241     -6956.1885
   1   1.0000     -29.932228      -814.4973
   2   1.0000     -25.769511      -701.2240
   3   1.0000     -25.766350      -701.1380
   4   1.0000     -25.751879      -700.7442
   5   1.0000      -4.129012      -112.3561
   6   1.0000      -4.124599      -112.2360
   7   1.0000      -4.123239      -112.1990
   8   1.0000      -4.122509      -112.1792
   9   1.0000      -4.122084      -112.1676
  10   1.0000      -4.121982      -112.1648
  11   1.0000      -4.121658      -112.1560
  12   1.0000      -4.121041      -112.1392
  13   1.0000      -4.118496      -112.0700
  14   1.0000      -4.118476      -112.0694
  15   1.0000      -4.117679      -112.0478
  16   1.0000      -4.115304      -111.9831
  17   1.0000      -4.111260      -111.8731
  18   1.0000      -4.109527      -111.8259
  19   1.0000      -4.108786      -111.8058
  20   1.0000      -3.513307       -95.6019
  21   1.0000      -2.317506       -63.0625
  22   1.0000      -2.315459       -63.0068
  23   1.0000      -2.314768       -62.9880
  24   1.0000      -2.312918       -62.9377
  25   1.0000      -2.312520       -62.9269
  26   1.0000      -2.311356       -62.8952
  27   1.0000      -2.310643       -62.8758
  28   1.0000      -2.310524       -62.8726
  29   1.0000      -2.309938       -62.8566
  30   1.0000      -2.309642       -62.8486
  31   1.0000      -2.309159       -62.8354
  32   1.0000      -2.308748       -62.8242
  33   1.0000      -2.308712       -62.8232
  34   1.0000      -2.308272       -62.8113
  35   1.0000      -2.307739       -62.7968
  36   1.0000      -2.307383       -62.7871
  37   1.0000      -2.307179       -62.7815
  38   1.0000      -2.306811       -62.7715
  39   1.0000      -2.306606       -62.7659
  40   1.0000      -2.306378       -62.7597
  41   1.0000      -2.305901       -62.7467
  42   1.0000      -2.305511       -62.7362
  43   1.0000      -2.305280       -62.7299
  44   1.0000      -2.304928       -62.7203
  45   1.0000      -2.304547       -62.7099
  46   1.0000      -2.304448       -62.7072
  47   1.0000      -2.303764       -62.6886
  48   1.0000      -2.303470       -62.6806
  49   1.0000      -2.302953       -62.6665
  50   1.0000      -2.302807       -62.6626
  51   1.0000      -2.302200       -62.6461
  52   1.0000      -2.302172       -62.6453
  53   1.0000      -2.301756       -62.6340
  54   1.0000      -2.301197       -62.6188
  55   1.0000      -2.300681       -62.6047
  56   1.0000      -2.299195       -62.5643
  57   1.0000      -2.297990       -62.5315
  58   1.0000      -2.297461       -62.5171
  59   1.0000      -2.296722       -62.4970
  60   1.0000      -2.295828       -62.4727
  61   1.0000      -2.295783       -62.4714
  62   1.0000      -2.294964       -62.4491
  63   1.0000      -2.294554       -62.4380
  64   1.0000      -2.293031       -62.3965
  65   1.0000      -2.292578       -62.3842
  66   1.0000      -2.292433       -62.3803
  67   1.0000      -2.286414       -62.2165
  68   1.0000      -2.256091       -61.3914
  69   1.0000      -0.448556       -12.2058
  70   1.0000      -0.402489       -10.9523
  71   1.0000      -0.399298       -10.8654
  72   1.0000      -0.396797       -10.7974
  73   1.0000      -0.394132       -10.7249
  74   1.0000      -0.390215       -10.6183
  75   1.0000      -0.387644       -10.5483
  76   1.0000      -0.384468       -10.4619
  77   1.0000      -0.380609       -10.3569
  78   1.0000      -0.375352       -10.2138
  79   1.0000      -0.372014       -10.1230
  80   1.0000      -0.371174       -10.1002
  81   1.0000      -0.364842        -9.9279
  82   1.0000      -0.363763        -9.8985
  83   1.0000      -0.362480        -9.8636
  84   1.0000      -0.361074        -9.8253
  85   1.0000      -0.358919        -9.7667
  86   1.0000      -0.356929        -9.7125
  87   1.0000      -0.355602        -9.6764
  88   1.0000      -0.353558        -9.6208
  89   1.0000      -0.352268        -9.5857
  90   1.0000      -0.350657        -9.5419
  91   1.0000      -0.349099        -9.4995
  92   1.0000      -0.346801        -9.4369
  93   1.0000      -0.342918        -9.3313
  94   1.0000      -0.341933        -9.3045
  95   1.0000      -0.340714        -9.2713
  96   1.0000      -0.336763        -9.1638
  97   1.0000      -0.333530        -9.0758
  98   1.0000      -0.330657        -8.9976
  99   1.0000      -0.329581        -8.9683
 100   1.0000      -0.327865        -8.9217
 101   1.0000      -0.324497        -8.8300
 102   1.0000      -0.322454        -8.7744
 103   1.0000      -0.320580        -8.7234
 104   1.0000      -0.319192        -8.6857
 105   1.0000      -0.315414        -8.5829
 106   1.0000      -0.314659        -8.5623
 107   1.0000      -0.311992        -8.4897
 108   1.0000      -0.310833        -8.4582
 109   1.0000      -0.307078        -8.3560
 110   1.0000      -0.301293        -8.1986
 111   1.0000      -0.298998        -8.1362
 112   1.0000      -0.297092        -8.0843
 113   1.0000      -0.294737        -8.0202
 114   1.0000      -0.293165        -7.9774
 115   1.0000      -0.292995        -7.9728
 116   1.0000      -0.290958        -7.9174
 117   1.0000      -0.287115        -7.8128
 118   1.0000      -0.286788        -7.8039
 119   1.0000      -0.285595        -7.7714
 120   1.0000      -0.284363        -7.7379
 121   1.0000      -0.283552        -7.7158
 122   1.0000      -0.280948        -7.6450
 123   1.0000      -0.279705        -7.6112
 124   1.0000      -0.279368        -7.6020
 125   1.0000      -0.277824        -7.5600
 126   1.0000      -0.277652        -7.5553
 127   1.0000      -0.276638        -7.5277
 128   1.0000      -0.274163        -7.4603
 129   1.0000      -0.272958        -7.4276
 130   1.0000      -0.272470        -7.4143
 131   1.0000      -0.271520        -7.3884
 132   1.0000      -0.270484        -7.3602
 133   1.0000      -0.270250        -7.3539
 134   1.0000      -0.267887        -7.2896
 135   1.0000      -0.266430        -7.2499
 136   1.0000      -0.265528        -7.2254
 137   1.0000      -0.263463        -7.1692
 138   1.0000      -0.263085        -7.1589
 139   1.0000      -0.261766        -7.1230
 140   1.0000      -0.260852        -7.0981
 141   1.0000      -0.260364        -7.0849
 142   1.0000      -0.259200        -7.0532
 143   1.0000      -0.258316        -7.0291
 144   1.0000      -0.255759        -6.9595
 145   1.0000      -0.254722        -6.9313
 146   1.0000      -0.252687        -6.8760
 147   1.0000      -0.251329        -6.8390
 148   1.0000      -0.249686        -6.7943
 149   1.0000      -0.248654        -6.7662
 150   1.0000      -0.246838        -6.7168
 151   1.0000      -0.245165        -6.6713
 152   1.0000      -0.240158        -6.5350
 153   1.0000      -0.221712        -6.0331
 154   1.0000      -0.215473        -5.8633
 155   1.0000      -0.202104        -5.4995
 156   1.0000      -0.194227        -5.2852
 157   0.0000      -0.184504        -5.0206
 158   0.0000      -0.145944        -3.9713
 159   0.0000      -0.137076        -3.7300
 160   0.0000      -0.133054        -3.6206
 161   0.0000      -0.121400        -3.3035

                 SPIN DOWN ORBITALS
  NO   OCC          E(Eh)            E(eV)
   0   1.0000    -255.634282     -6956.1625
   1   1.0000     -29.854337      -812.3778
   2   1.0000     -25.706450      -699.5081
   3   1.0000     -25.704697      -699.4604
   4   1.0000     -25.698386      -699.2886
   5   1.0000      -4.128780      -112.3498
   6   1.0000      -4.124652      -112.2375
   7   1.0000      -4.122571      -112.1809
   8   1.0000      -4.122381      -112.1757
   9   1.0000      -4.122299      -112.1735
  10   1.0000      -4.121820      -112.1604
  11   1.0000      -4.121767      -112.1590
  12   1.0000      -4.120920      -112.1359
  13   1.0000      -4.118343      -112.0658
  14   1.0000      -4.118174      -112.0612
  15   1.0000      -4.117710      -112.0486
  16   1.0000      -4.116090      -112.0045
  17   1.0000      -4.111610      -111.8826
  18   1.0000      -4.109618      -111.8284
  19   1.0000      -4.108647      -111.8020
  20   1.0000      -3.340350       -90.8955
  21   1.0000      -2.316794       -63.0432
  22   1.0000      -2.314933       -62.9925
  23   1.0000      -2.314780       -62.9884
  24   1.0000      -2.312514       -62.9267
  25   1.0000      -2.311964       -62.9117
  26   1.0000      -2.311428       -62.8971
  27   1.0000      -2.310874       -62.8821
  28   1.0000      -2.310048       -62.8596
  29   1.0000      -2.309705       -62.8503
  30   1.0000      -2.309603       -62.8475
  31   1.0000      -2.308849       -62.8270
  32   1.0000      -2.308298       -62.8120
  33   1.0000      -2.308027       -62.8046
  34   1.0000      -2.307870       -62.8003
  35   1.0000      -2.307323       -62.7854
  36   1.0000      -2.307182       -62.7816
  37   1.0000      -2.307071       -62.7786
  38   1.0000      -2.306669       -62.7676
  39   1.0000      -2.306513       -62.7634
  40   1.0000      -2.306439       -62.7614
  41   1.0000      -2.305779       -62.7434
  42   1.0000      -2.305146       -62.7262
  43   1.0000      -2.304994       -62.7221
  44   1.0000      -2.304646       -62.7126
  45   1.0000      -2.304418       -62.7064
  46   1.0000      -2.304349       -62.7045
  47   1.0000      -2.303859       -62.6912
  48   1.0000      -2.303611       -62.6844
  49   1.0000      -2.302920       -62.6656
  50   1.0000      -2.302763       -62.6614
  51   1.0000      -2.302577       -62.6563
  52   1.0000      -2.302170       -62.6452
  53   1.0000      -2.301877       -62.6373
  54   1.0000      -2.301463       -62.6260
  55   1.0000      -2.300787       -62.6076
  56   1.0000      -2.300372       -62.5963
  57   1.0000      -2.298051       -62.5331
  58   1.0000      -2.297803       -62.5264
  59   1.0000      -2.296913       -62.5022
  60   1.0000      -2.296326       -62.4862
  61   1.0000      -2.295697       -62.4691
  62   1.0000      -2.294968       -62.4493
  63   1.0000      -2.294664       -62.4410
  64   1.0000      -2.293075       -62.3978
  65   1.0000      -2.292289       -62.3763
  66   1.0000      -2.114237       -57.5313
  67   1.0000      -2.112232       -57.4768
  68   1.0000      -2.098941       -57.1151
  69   1.0000      -0.445589       -12.1251
  70   1.0000      -0.402130       -10.9425
  71   1.0000      -0.399678       -10.8758
  72   1.0000      -0.396427       -10.7873
  73   1.0000      -0.385026       -10.4771
  74   1.0000      -0.380636       -10.3576
  75   1.0000      -0.378726       -10.3057
  76   1.0000      -0.376857       -10.2548
  77   1.0000      -0.376205       -10.2371
  78   1.0000      -0.373602       -10.1662
  79   1.0000      -0.369615       -10.0577
  80   1.0000      -0.367313        -9.9951
  81   1.0000      -0.364373        -9.9151
  82   1.0000      -0.362071        -9.8525
  83   1.0000      -0.361362        -9.8332
  84   1.0000      -0.361091        -9.8258
  85   1.0000      -0.357527        -9.7288
  86   1.0000      -0.355260        -9.6671
  87   1.0000      -0.354120        -9.6361
  88   1.0000      -0.352948        -9.6042
  89   1.0000      -0.352135        -9.5821
  90   1.0000      -0.350460        -9.5365
  91   1.0000      -0.348622        -9.4865
  92   1.0000      -0.347231        -9.4486
  93   1.0000      -0.342867        -9.3299
  94   1.0000      -0.340961        -9.2780
  95   1.0000      -0.340195        -9.2572
  96   1.0000      -0.335580        -9.1316
  97   1.0000      -0.333371        -9.0715
  98   1.0000      -0.329232        -8.9589
  99   1.0000      -0.325561        -8.8590
 100   1.0000      -0.324679        -8.8350
 101   1.0000      -0.322277        -8.7696
 102   1.0000      -0.320260        -8.7147
 103   1.0000      -0.317842        -8.6489
 104   1.0000      -0.314251        -8.5512
 105   1.0000      -0.312791        -8.5115
 106   1.0000      -0.307928        -8.3792
 107   1.0000      -0.302604        -8.2343
 108   1.0000      -0.301002        -8.1907
 109   1.0000      -0.299004        -8.1363
 110   1.0000      -0.295567        -8.0428
 111   1.0000      -0.295210        -8.0331
 112   1.0000      -0.293435        -7.9848
 113   1.0000      -0.292890        -7.9700
 114   1.0000      -0.291282        -7.9262
 115   1.0000      -0.290205        -7.8969
 116   1.0000      -0.289244        -7.8707
 117   1.0000      -0.285528        -7.7696
 118   1.0000      -0.285345        -7.7646
 119   1.0000      -0.283209        -7.7065
 120   1.0000      -0.282563        -7.6889
 121   1.0000      -0.281632        -7.6636
 122   1.0000      -0.279507        -7.6058
 123   1.0000      -0.279198        -7.5974
 124   1.0000      -0.278290        -7.5727
 125   1.0000      -0.277252        -7.5444
 126   1.0000      -0.276762        -7.5311
 127   1.0000      -0.275607        -7.4996
 128   1.0000      -0.273032        -7.4296
 129   1.0000      -0.272513        -7.4154
 130   1.0000      -0.271478        -7.3873
 131   1.0000      -0.270778        -7.3682
 132   1.0000      -0.269253        -7.3268
 133   1.0000      -0.266223        -7.2443
 134   1.0000      -0.264265        -7.1910
 135   1.0000      -0.263181        -7.1615
 136   1.0000      -0.261675        -7.1205
 137   1.0000      -0.261190        -7.1073
 138   1.0000      -0.259662        -7.0658
 139   1.0000      -0.258894        -7.0449
 140   1.0000      -0.256064        -6.9679
 141   1.0000      -0.255204        -6.9444
 142   1.0000      -0.253317        -6.8931
 143   1.0000      -0.251744        -6.8503
 144   1.0000      -0.249945        -6.8013
 145   1.0000      -0.247973        -6.7477
 146   1.0000      -0.246766        -6.7148
 147   1.0000      -0.240969        -6.5571
 148   1.0000      -0.225597        -6.1388
 149   1.0000      -0.222076        -6.0430
 150   1.0000      -0.209451        -5.6995
 151   1.0000      -0.205162        -5.5828
 152   1.0000      -0.202565        -5.5121
 153   1.0000      -0.180182        -4.9030
 154   0.0000      -0.152563        -4.1515
 155   0.0000      -0.150889        -4.1059
 156   0.0000      -0.148758        -4.0479
 157   0.0000      -0.140514        -3.8236
 158   0.0000      -0.134464        -3.6590

MULLIKEN ATOMIC CHARGES AND SPIN POPULATIONS
--------------------------------------------
   0 Au:   -0.189900    0.016768
   1 Au:    0.287185    0.040534
   2 Au:    0.199881    0.002981
   3 Au:    0.359852   -0.003097
   4 Au:    0.322512   -0.040063
   5 Au:    0.085315   -0.091994
   6 Au:   -0.165411   -0.068313
   7 Au:    0.349259   -0.056183
   8 Au:    0.252826   -0.024105
   9 Au:   -0.319572    0.004921
  10 Au:    0.366885    0.036495
  11 Au:    0.377960   -0.009020
  12 Au:   -0.001449    0.067209
  13 Au:    0.275396    0.008438
  14 Au:    0.305944    0.021100
  15 Fe:   -2.506682    3.094330
Sum of atomic charges         :   -0.0000000

LOEWDIN ATOMIC CHARGES AND SPIN POPULATIONS
-------------------------------------------
   0 Au:   -0.032038   -0.001102
   1 Au:    0.083879   -0.014011
   2 Au:    0.040994   -0.017183
   3 Au:    0.077975   -0.029868
   4 Au:    0.065311   -0.031197
   5 Au:    0.018430   -0.027891
   6 Au:   -0.015576   -0.036784
   7 Au:    0.079968   -0.028172
   8 Au:    0.002403   -0.008064
   9 Au:   -0.078305   -0.014292
  10 Au:    0.092286    0.023991
  11 Au:    0.108719   -0.026036
  12 Au:    0.013656    0.011566
  13 Au:    0.085079   -0.025270
  14 Au:    0.055754    0.005285
  15 Fe:   -0.598533    3.219027

  Mayer bond orders larger than 0.100000
B(  0-Au,  1-Au) :   0.2395 B(  0-Au,  3-Au) :   0.1908 B(  0-Au,  5-Au) :   0.1448
B(  0-Au,  6-Au) :   0.2021 B(  0-Au,  8-Au) :   0.2745 B(  0-Au, 10-Au) :   0.2596
B(  0-Au, 15-Fe) :   0.4531 B(  1-Au,  2-Au) :   0.1405 B(  1-Au,  4-Au) :   0.1467
B(  1-Au,  5-Au) :   0.2007 B(  1-Au, 15-Fe) :   0.4539 B(  2-Au,  3-Au) :   0.2424
B(  2-Au,  4-Au) :   0.1861 B(  2-Au,  7-Au) :   0.2101 B(  2-Au, 15-Fe) :   0.3895
B(  3-Au,  6-Au) :   0.2923 B(  3-Au,  7-Au) :   0.1361 B(  3-Au, 15-Fe) :   0.4270
B(  4-Au,  5-Au) :   0.1627 B(  4-Au, 13-Au) :   0.1894 B(  4-Au, 14-Au) :   0.1957
B(  4-Au, 15-Fe) :   0.3991 B(  5-Au,  9-Au) :   0.2407 B(  5-Au, 10-Au) :   0.3127
B(  5-Au, 13-Au) :   0.1488 B(  5-Au, 15-Fe) :   0.4766 B(  6-Au,  7-Au) :   0.1468
B(  6-Au,  8-Au) :   0.2833 B(  6-Au, 11-Au) :   0.2611 B(  6-Au, 12-Au) :   0.1173
B(  6-Au, 15-Fe) :   0.4740 B(  7-Au, 12-Au) :   0.1758 B(  7-Au, 14-Au) :   0.1657
B(  7-Au, 15-Fe) :   0.4439 B(  8-Au,  9-Au) :   0.2044 B(  8-Au, 10-Au) :   0.2343
B(  8-Au, 11-Au) :   0.2021 B(  9-Au, 10-Au) :   0.2871 B(  9-Au, 11-Au) :   0.3115
B(  9-Au, 12-Au) :   0.1350 B(  9-Au, 13-Au) :   0.3188 B(  9-Au, 15-Fe) :   0.3211
B( 11-Au, 12-Au) :   0.3485 B( 12-Au, 14-Au) :   0.2867 B( 12-Au, 15-Fe) :   0.4932
B( 13-Au, 14-Au) :   0.1611 B( 13-Au, 15-Fe) :   0.4766 B( 14-Au, 15-Fe) :   0.3976

FINAL SINGLE POINT ENERGY     -3301.431985279060

DIPOLE MOMENT
-------------
                                X             Y             Z
Electronic contribution:    -23.01090     -10.45869       5.20489
Nuclear contribution   :     22.98813      10.41028      -5.13684
                        -----------------------------------------
Total Dipole Moment    :     -0.02277      -0.04841       0.06806
                        -----------------------------------------
Magnitude (a.u.)       :      0.08657
Magnitude (Debye)      :      0.22003

Rotational constants in cm-1:     0.001134     0.000887     0.000825
Rotational constants in MHz :    33.996785    26.579139    24.735057

                             ****ORCA TERMINATED NORMALLY****
TOTAL RUN TIME: 0 days 0 hours 24 minutes 36 seconds 433 msec
