                         Program Version 5.0.3 -  RELEASE  -
|  1> %pal nprocs 1 end
|  2>
|  3> !PBE def2-TZVP OPT UNO
|  4> !SLOWCONV KDIIS
|  5>
|  6> %geom maxiter 300 end
|  7>
|  8> *xyzfile 0 4 6.xyz                           ****END OF INPUT****
 Total Charge           Charge          ....    0
 Multiplicity           Mult            ....    4
 Number of Electrons    NEL             ....  215
FINAL SINGLE POINT ENERGY     -2509.011075692304
FINAL SINGLE POINT ENERGY     -2509.015609270481
FINAL SINGLE POINT ENERGY     -2509.017773987281
FINAL SINGLE POINT ENERGY     -2509.019259539919
FINAL SINGLE POINT ENERGY     -2509.020483810933
FINAL SINGLE POINT ENERGY     -2509.021400540119
FINAL SINGLE POINT ENERGY     -2509.022481900660
FINAL SINGLE POINT ENERGY     -2509.023736586900
FINAL SINGLE POINT ENERGY     -2509.024918624911
FINAL SINGLE POINT ENERGY     -2509.026010831892
FINAL SINGLE POINT ENERGY     -2509.028723099437
FINAL SINGLE POINT ENERGY     -2509.028726400482
FINAL SINGLE POINT ENERGY     -2509.028729268315
FINAL SINGLE POINT ENERGY     -2509.028731992419
FINAL SINGLE POINT ENERGY     -2509.028734487679
FINAL SINGLE POINT ENERGY     -2509.028736444070
FINAL SINGLE POINT ENERGY     -2509.028737852312
FINAL SINGLE POINT ENERGY     -2509.028738744193
FINAL SINGLE POINT ENERGY     -2509.028739373649
                    ***********************HURRAY********************

CARTESIAN COORDINATES (ANGSTROEM)
---------------------------------
  Au     9.898630    7.702690    6.750761
  Au     8.143455    3.532617    7.652584
  Au     7.898520    3.105893    5.063051
  Au    10.402065    6.949415    9.599401
  Au    10.764024    9.491392    8.708126
  Au     9.380735    4.486247    9.882164
  Au     8.109880    8.868008    8.728121
  Au     6.504944    4.740800    9.526088
  Au     5.960169    7.345586    9.115632
  Au     8.927661    5.511312    5.704715
  Mn     8.224343    6.245705    8.183661

 Multiplicity           Mult            ....    4
 Number of Electrons    NEL             ....  215
 Basis Dimension        Dim             ....  445

ORBITAL ENERGIES
----------------
                 SPIN UP ORBITALS
  NO   OCC          E(Eh)            E(eV)
   0   1.0000    -234.201250     -6372.9400
   1   1.0000     -26.898272      -731.9392
   2   1.0000     -23.048163      -627.1724
   3   1.0000     -23.046687      -627.1322
   4   1.0000     -23.045553      -627.1014
   5   1.0000      -4.028169      -109.6120
   6   1.0000      -4.027259      -109.5873
   7   1.0000      -4.025481      -109.5389
   8   1.0000      -4.023483      -109.4845
   9   1.0000      -4.022264      -109.4514
  10   1.0000      -4.021753      -109.4375
  11   1.0000      -4.020626      -109.4068
  12   1.0000      -4.020201      -109.3952
  13   1.0000      -4.016463      -109.2935
  14   1.0000      -4.005180      -108.9865
  15   1.0000      -3.105644       -84.5089
  16   1.0000      -2.248031       -61.1720
  17   1.0000      -2.246791       -61.1383
  18   1.0000      -2.243042       -61.0363
  19   1.0000      -2.242080       -61.0101
  20   1.0000      -2.241310       -60.9891
  21   1.0000      -2.240802       -60.9753
  22   1.0000      -2.240741       -60.9737
  23   1.0000      -2.240121       -60.9568
  24   1.0000      -2.238735       -60.9191
  25   1.0000      -2.238272       -60.9065
  26   1.0000      -2.238144       -60.9030
  27   1.0000      -2.237177       -60.8767
  28   1.0000      -2.236005       -60.8448
  29   1.0000      -2.235194       -60.8227
  30   1.0000      -2.234971       -60.8167
  31   1.0000      -2.234153       -60.7944
  32   1.0000      -2.232969       -60.7622
  33   1.0000      -2.232879       -60.7597
  34   1.0000      -2.232418       -60.7472
  35   1.0000      -2.231323       -60.7174
  36   1.0000      -2.231249       -60.7154
  37   1.0000      -2.230615       -60.6981
  38   1.0000      -2.230037       -60.6824
  39   1.0000      -2.228556       -60.6421
  40   1.0000      -2.228115       -60.6301
  41   1.0000      -2.225051       -60.5467
  42   1.0000      -2.223983       -60.5177
  43   1.0000      -2.223079       -60.4931
  44   1.0000      -2.218733       -60.3748
  45   1.0000      -2.211221       -60.1704
  46   1.0000      -2.011352       -54.7317
  47   1.0000      -2.007828       -54.6358
  48   1.0000      -2.005021       -54.5594
  49   1.0000      -0.407162       -11.0795
  50   1.0000      -0.383489       -10.4353
  51   1.0000      -0.373734       -10.1698
  52   1.0000      -0.370144       -10.0721
  53   1.0000      -0.361130        -9.8269
  54   1.0000      -0.358189        -9.7468
  55   1.0000      -0.350403        -9.5349
  56   1.0000      -0.348710        -9.4889
  57   1.0000      -0.340112        -9.2549
  58   1.0000      -0.337074        -9.1722
  59   1.0000      -0.333853        -9.0846
  60   1.0000      -0.331786        -9.0284
  61   1.0000      -0.329617        -8.9693
  62   1.0000      -0.325687        -8.8624
  63   1.0000      -0.323649        -8.8069
  64   1.0000      -0.322040        -8.7632
  65   1.0000      -0.319228        -8.6866
  66   1.0000      -0.317806        -8.6479
  67   1.0000      -0.314318        -8.5530
  68   1.0000      -0.310586        -8.4515
  69   1.0000      -0.305408        -8.3106
  70   1.0000      -0.300301        -8.1716
  71   1.0000      -0.297869        -8.1054
  72   1.0000      -0.295322        -8.0361
  73   1.0000      -0.293164        -7.9774
  74   1.0000      -0.290651        -7.9090
  75   1.0000      -0.288718        -7.8564
  76   1.0000      -0.285602        -7.7716
  77   1.0000      -0.282673        -7.6919
  78   1.0000      -0.279048        -7.5933
  79   1.0000      -0.278088        -7.5672
  80   1.0000      -0.274339        -7.4652
  81   1.0000      -0.273844        -7.4517
  82   1.0000      -0.273712        -7.4481
  83   1.0000      -0.271755        -7.3948
  84   1.0000      -0.270278        -7.3546
  85   1.0000      -0.267830        -7.2880
  86   1.0000      -0.266616        -7.2550
  87   1.0000      -0.265804        -7.2329
  88   1.0000      -0.262458        -7.1418
  89   1.0000      -0.261879        -7.1261
  90   1.0000      -0.259694        -7.0666
  91   1.0000      -0.259484        -7.0609
  92   1.0000      -0.256679        -6.9846
  93   1.0000      -0.256440        -6.9781
  94   1.0000      -0.254251        -6.9185
  95   1.0000      -0.251489        -6.8434
  96   1.0000      -0.251019        -6.8306
  97   1.0000      -0.247244        -6.7279
  98   1.0000      -0.246616        -6.7108
  99   1.0000      -0.245092        -6.6693
 100   1.0000      -0.243362        -6.6222
 101   1.0000      -0.242679        -6.6036
 102   1.0000      -0.239190        -6.5087
 103   1.0000      -0.236207        -6.4275
 104   1.0000      -0.235437        -6.4066
 105   1.0000      -0.233309        -6.3487
 106   1.0000      -0.229456        -6.2438
 107   1.0000      -0.224730        -6.1152
 108   1.0000      -0.208746        -5.6803
 109   0.0000      -0.187336        -5.0977
 110   0.0000      -0.164553        -4.4777
 111   0.0000      -0.134310        -3.6548
 112   0.0000      -0.127923        -3.4810
 113   0.0000      -0.123471        -3.3598

                 SPIN DOWN ORBITALS
  NO   OCC          E(Eh)            E(eV)
   0   1.0000    -234.200511     -6372.9199
   1   1.0000     -26.833369      -730.1731
   2   1.0000     -22.998451      -625.8197
   3   1.0000     -22.997467      -625.7929
   4   1.0000     -22.996580      -625.7688
   5   1.0000      -4.028099      -109.6101
   6   1.0000      -4.027115      -109.5834
   7   1.0000      -4.025884      -109.5499
   8   1.0000      -4.023363      -109.4813
   9   1.0000      -4.021541      -109.4317
  10   1.0000      -4.021294      -109.4250
  11   1.0000      -4.021109      -109.4199
  12   1.0000      -4.019378      -109.3728
  13   1.0000      -4.016401      -109.2918
  14   1.0000      -4.005486      -108.9948
  15   1.0000      -2.946363       -80.1746
  16   1.0000      -2.248180       -61.1761
  17   1.0000      -2.246498       -61.1303
  18   1.0000      -2.243179       -61.0400
  19   1.0000      -2.241754       -61.0012
  20   1.0000      -2.241524       -60.9950
  21   1.0000      -2.240436       -60.9654
  22   1.0000      -2.240261       -60.9606
  23   1.0000      -2.239321       -60.9350
  24   1.0000      -2.238740       -60.9192
  25   1.0000      -2.238343       -60.9084
  26   1.0000      -2.237290       -60.8798
  27   1.0000      -2.236537       -60.8593
  28   1.0000      -2.235496       -60.8309
  29   1.0000      -2.235155       -60.8217
  30   1.0000      -2.234977       -60.8168
  31   1.0000      -2.232818       -60.7581
  32   1.0000      -2.232700       -60.7549
  33   1.0000      -2.232656       -60.7537
  34   1.0000      -2.232370       -60.7459
  35   1.0000      -2.232215       -60.7417
  36   1.0000      -2.231236       -60.7150
  37   1.0000      -2.231092       -60.7111
  38   1.0000      -2.230542       -60.6961
  39   1.0000      -2.228231       -60.6332
  40   1.0000      -2.227881       -60.6237
  41   1.0000      -2.224346       -60.5275
  42   1.0000      -2.224101       -60.5209
  43   1.0000      -2.222624       -60.4807
  44   1.0000      -2.219122       -60.3854
  45   1.0000      -2.211431       -60.1761
  46   1.0000      -1.854959       -50.4760
  47   1.0000      -1.850980       -50.3677
  48   1.0000      -1.849172       -50.3185
  49   1.0000      -0.403247       -10.9729
  50   1.0000      -0.383925       -10.4471
  51   1.0000      -0.371591       -10.1115
  52   1.0000      -0.365648        -9.9498
  53   1.0000      -0.361185        -9.8283
  54   1.0000      -0.354151        -9.6369
  55   1.0000      -0.347085        -9.4447
  56   1.0000      -0.343568        -9.3490
  57   1.0000      -0.339059        -9.2263
  58   1.0000      -0.333150        -9.0655
  59   1.0000      -0.331723        -9.0267
  60   1.0000      -0.327991        -8.9251
  61   1.0000      -0.324777        -8.8376
  62   1.0000      -0.321076        -8.7369
  63   1.0000      -0.319869        -8.7041
  64   1.0000      -0.315839        -8.5944
  65   1.0000      -0.313724        -8.5369
  66   1.0000      -0.312593        -8.5061
  67   1.0000      -0.310744        -8.4558
  68   1.0000      -0.308102        -8.3839
  69   1.0000      -0.305218        -8.3054
  70   1.0000      -0.300607        -8.1799
  71   1.0000      -0.297240        -8.0883
  72   1.0000      -0.294996        -8.0272
  73   1.0000      -0.291430        -7.9302
  74   1.0000      -0.290357        -7.9010
  75   1.0000      -0.285988        -7.7821
  76   1.0000      -0.284962        -7.7542
  77   1.0000      -0.283658        -7.7187
  78   1.0000      -0.279047        -7.5932
  79   1.0000      -0.275433        -7.4949
  80   1.0000      -0.274228        -7.4621
  81   1.0000      -0.273636        -7.4460
  82   1.0000      -0.272342        -7.4108
  83   1.0000      -0.271811        -7.3963
  84   1.0000      -0.269833        -7.3425
  85   1.0000      -0.268197        -7.2980
  86   1.0000      -0.266583        -7.2541
  87   1.0000      -0.264123        -7.1871
  88   1.0000      -0.262446        -7.1415
  89   1.0000      -0.262303        -7.1376
  90   1.0000      -0.260183        -7.0799
  91   1.0000      -0.259446        -7.0599
  92   1.0000      -0.256880        -6.9901
  93   1.0000      -0.253922        -6.9096
  94   1.0000      -0.252720        -6.8768
  95   1.0000      -0.250291        -6.8108
  96   1.0000      -0.248326        -6.7573
  97   1.0000      -0.247231        -6.7275
  98   1.0000      -0.244448        -6.6518
  99   1.0000      -0.240340        -6.5400
 100   1.0000      -0.239328        -6.5124
 101   1.0000      -0.235804        -6.4166
 102   1.0000      -0.232451        -6.3253
 103   1.0000      -0.217491        -5.9182
 104   1.0000      -0.204370        -5.5612
 105   1.0000      -0.183605        -4.9962
 106   0.0000      -0.144460        -3.9310
 107   0.0000      -0.142007        -3.8642
 108   0.0000      -0.140231        -3.8159
 109   0.0000      -0.129899        -3.5347
 110   0.0000      -0.124785        -3.3956

MULLIKEN ATOMIC CHARGES AND SPIN POPULATIONS
--------------------------------------------
   0 Au:    0.120058   -0.079450
   1 Au:   -0.037884   -0.107096
   2 Au:    0.290607   -0.058537
   3 Au:   -0.023169   -0.240259
   4 Au:    0.361665   -0.086349
   5 Au:    0.252447   -0.074215
   6 Au:    0.035558   -0.182257
   7 Au:    0.209048   -0.261843
   8 Au:    0.207922   -0.085030
   9 Au:   -0.056460    0.039504
  10 Mn:   -1.359793    4.135533
Sum of atomic charges         :   -0.0000000

LOEWDIN ATOMIC CHARGES AND SPIN POPULATIONS
-------------------------------------------
   0 Au:    0.012305   -0.064396
   1 Au:   -0.071872   -0.074963
   2 Au:    0.076085   -0.052416
   3 Au:    0.002277   -0.131223
   4 Au:    0.082992   -0.120460
   5 Au:    0.103974   -0.152840
   6 Au:   -0.018683   -0.108960
   7 Au:    0.054847   -0.197726
   8 Au:    0.093054   -0.137498
   9 Au:    0.003298    0.023754
  10 Mn:   -0.338278    4.016728

  Mayer bond orders larger than 0.100000
B(  0-Au,  3-Au) :   0.1473 B(  0-Au,  4-Au) :   0.2908 B(  0-Au,  6-Au) :   0.1474
B(  0-Au,  9-Au) :   0.5152 B(  0-Au, 10-Mn) :   0.5751 B(  1-Au,  2-Au) :   0.5649
B(  1-Au,  5-Au) :   0.3153 B(  1-Au,  7-Au) :   0.2256 B(  1-Au,  9-Au) :   0.2410
B(  1-Au, 10-Mn) :   0.3962 B(  2-Au,  9-Au) :   0.4497 B(  3-Au,  4-Au) :   0.4071
B(  3-Au,  5-Au) :   0.3698 B(  3-Au, 10-Mn) :   0.5649 B(  4-Au,  6-Au) :   0.3603
B(  5-Au,  7-Au) :   0.1311 B(  5-Au, 10-Mn) :   0.5007 B(  6-Au,  8-Au) :   0.3948
B(  6-Au, 10-Mn) :   0.5847 B(  7-Au,  8-Au) :   0.3239 B(  7-Au, 10-Mn) :   0.6087
B(  8-Au, 10-Mn) :   0.5612 B(  9-Au, 10-Mn) :   0.6057

FINAL SINGLE POINT ENERGY     -2509.028739604631

DIPOLE MOMENT
-------------
                                X             Y             Z
Electronic contribution:     13.63273      -2.58347      -3.81322
Nuclear contribution   :    -13.56961       2.61888       4.00560
                        -----------------------------------------
Total Dipole Moment    :      0.06311       0.03542       0.19238
                        -----------------------------------------
Magnitude (a.u.)       :      0.20554
Magnitude (Debye)      :      0.52245

Rotational constants in cm-1:     0.002112     0.001263     0.001095
Rotational constants in MHz :    63.318924    37.860975    32.842216

                             ****ORCA TERMINATED NORMALLY****
TOTAL RUN TIME: 0 days 3 hours 47 minutes 23 seconds 67 msec
