                         Program Version 5.0.3 -  RELEASE  -
|  1> !CASSCF def2-TZVP def2-TZVP/C
|  2> !MOREAD RIJCOSX
|  3> %maxcore 6000
|  4> %moinp "pbe.qro"
|  5> %pal nprocs 2 end
|  6>
|  7> %casscf
|  8>  mult 5,3
|  9>  bweight 1,1
| 10>  nroots 5,45
| 11>  nel 6
| 12>  norb 5
| 13> end
| 14>
| 15>
| 16> *xyzfile 0 5 pbe.xyz
| 17>
| 18>
| 19>                          ****END OF INPUT****

CARTESIAN COORDINATES (ANGSTROEM)
---------------------------------
  Au     7.601548    6.389867    9.609934
  Au     5.727820    8.487832    9.220021
  Au     9.772119    7.507355    6.931755
  Au     9.624628   10.301767    6.795076
  Au     8.499877    8.976350    8.979840
  Au     9.804725    8.773597    4.427493
  Au     8.113453   11.041506    4.587198
  Au     6.881474   10.079631    7.001247
  Au     8.562744    5.079395    7.339004
  Au     7.270663    8.652696    3.281239
  Au     8.154414    6.529438    4.834599
  Au     5.437340   10.300877    4.646408
  Au     5.412480    7.473066    4.976204
  Au     4.496381    6.506011    7.640148
  Au     4.251838    9.208038    6.913606
  Au     6.108609    4.993887    6.001953
  Fe     7.008060    7.297289    7.234636

 Total Charge           Charge          ....    0
 Multiplicity           Mult            ....    5
 Number of Electrons    NEL             ....  330
 Basis Dimension        Dim             ....  685

ORBITAL ENERGIES
----------------

  NO   OCC          E(Eh)            E(eV)
   0   2.0000    -261.406160     -7113.2232
   1   2.0000     -31.967937      -869.8918
   2   2.0000     -27.448532      -746.9125
   3   2.0000     -27.447853      -746.8940
   4   2.0000     -27.447566      -746.8863
   5   2.0000      -4.722644      -128.5097
   6   2.0000      -4.721368      -128.4749
   7   2.0000      -4.720112      -128.4408
   8   2.0000      -4.719876      -128.4344
   9   2.0000      -4.719789      -128.4320
  10   2.0000      -4.719533      -128.4250
  11   2.0000      -4.718862      -128.4068
  12   2.0000      -4.718003      -128.3834
  13   2.0000      -4.717824      -128.3785
  14   2.0000      -4.714606      -128.2910
  15   2.0000      -4.711180      -128.1977
  16   2.0000      -4.710729      -128.1855
  17   2.0000      -4.709925      -128.1636
  18   2.0000      -4.707500      -128.0976
  19   2.0000      -4.704844      -128.0253
  20   2.0000      -4.703549      -127.9901
  21   2.0000      -4.201587      -114.3310
  22   2.0000      -2.781139       -75.6786
  23   2.0000      -2.780661       -75.6656
  24   2.0000      -2.780254       -75.6545
  25   2.0000      -2.761263       -75.1378
  26   2.0000      -2.760617       -75.1202
  27   2.0000      -2.760363       -75.1133
  28   2.0000      -2.759867       -75.0998
  29   2.0000      -2.759386       -75.0867
  30   2.0000      -2.759021       -75.0768
  31   2.0000      -2.758527       -75.0633
  32   2.0000      -2.757559       -75.0370
  33   2.0000      -2.757296       -75.0298
  34   2.0000      -2.756915       -75.0195
  35   2.0000      -2.756242       -75.0012
  36   2.0000      -2.755925       -74.9925
  37   2.0000      -2.755495       -74.9808
  38   2.0000      -2.755331       -74.9764
  39   2.0000      -2.755174       -74.9721
  40   2.0000      -2.754858       -74.9635
  41   2.0000      -2.754545       -74.9550
  42   2.0000      -2.754356       -74.9498
  43   2.0000      -2.754006       -74.9403
  44   2.0000      -2.753431       -74.9247
  45   2.0000      -2.752767       -74.9066
  46   2.0000      -2.752462       -74.8983
  47   2.0000      -2.752052       -74.8871
  48   2.0000      -2.751543       -74.8733
  49   2.0000      -2.750795       -74.8529
  50   2.0000      -2.750587       -74.8473
  51   2.0000      -2.750275       -74.8388
  52   2.0000      -2.750158       -74.8356
  53   2.0000      -2.749906       -74.8287
  54   2.0000      -2.749176       -74.8089
  55   2.0000      -2.747710       -74.7690
  56   2.0000      -2.747511       -74.7636
  57   2.0000      -2.747268       -74.7570
  58   2.0000      -2.746677       -74.7409
  59   2.0000      -2.746236       -74.7289
  60   2.0000      -2.745689       -74.7140
  61   2.0000      -2.745376       -74.7055
  62   2.0000      -2.745089       -74.6977
  63   2.0000      -2.744608       -74.6846
  64   2.0000      -2.744222       -74.6741
  65   2.0000      -2.743494       -74.6543
  66   2.0000      -2.742497       -74.6271
  67   2.0000      -2.741307       -74.5947
  68   2.0000      -2.740038       -74.5602
  69   2.0000      -2.739865       -74.5555
  70   2.0000      -2.738430       -74.5165
  71   2.0000      -2.738406       -74.5158
  72   2.0000      -2.737115       -74.4807
  73   2.0000      -0.589026       -16.0282
  74   2.0000      -0.562267       -15.3001
  75   2.0000      -0.559187       -15.2163
  76   2.0000      -0.558711       -15.2033
  77   2.0000      -0.556353       -15.1391
  78   2.0000      -0.553635       -15.0652
  79   2.0000      -0.552337       -15.0299
  80   2.0000      -0.550796       -14.9879
  81   2.0000      -0.549933       -14.9644
  82   2.0000      -0.548495       -14.9253
  83   2.0000      -0.547388       -14.8952
  84   2.0000      -0.543869       -14.7994
  85   2.0000      -0.542460       -14.7611
  86   2.0000      -0.540846       -14.7172
  87   2.0000      -0.538125       -14.6431
  88   2.0000      -0.537966       -14.6388
  89   2.0000      -0.535934       -14.5835
  90   2.0000      -0.533844       -14.5266
  91   2.0000      -0.533386       -14.5142
  92   2.0000      -0.532419       -14.4879
  93   2.0000      -0.531557       -14.4644
  94   2.0000      -0.527603       -14.3568
  95   2.0000      -0.525875       -14.3098
  96   2.0000      -0.524260       -14.2658
  97   2.0000      -0.523758       -14.2522
  98   2.0000      -0.521831       -14.1997
  99   2.0000      -0.518415       -14.1068
 100   2.0000      -0.515205       -14.0195
 101   2.0000      -0.514052       -13.9881
 102   2.0000      -0.510005       -13.8779
 103   2.0000      -0.508458       -13.8359
 104   2.0000      -0.500261       -13.6128
 105   2.0000      -0.499405       -13.5895
 106   2.0000      -0.496083       -13.4991
 107   2.0000      -0.494458       -13.4549
 108   2.0000      -0.493244       -13.4219
 109   2.0000      -0.488617       -13.2959
 110   2.0000      -0.486560       -13.2400
 111   2.0000      -0.484326       -13.1792
 112   2.0000      -0.482726       -13.1356
 113   2.0000      -0.482056       -13.1174
 114   2.0000      -0.478778       -13.0282
 115   2.0000      -0.476781       -12.9739
 116   2.0000      -0.474592       -12.9143
 117   2.0000      -0.472592       -12.8599
 118   2.0000      -0.471644       -12.8341
 119   2.0000      -0.469804       -12.7840
 120   2.0000      -0.466690       -12.6993
 121   2.0000      -0.464213       -12.6319
 122   2.0000      -0.462106       -12.5745
 123   2.0000      -0.459774       -12.5111
 124   2.0000      -0.458604       -12.4793
 125   2.0000      -0.455395       -12.3919
 126   2.0000      -0.452644       -12.3171
 127   2.0000      -0.451563       -12.2877
 128   2.0000      -0.449851       -12.2411
 129   2.0000      -0.448887       -12.2148
 130   2.0000      -0.446656       -12.1541
 131   2.0000      -0.446331       -12.1453
 132   2.0000      -0.444063       -12.0836
 133   2.0000      -0.442739       -12.0475
 134   2.0000      -0.439322       -11.9545
 135   2.0000      -0.437419       -11.9028
 136   2.0000      -0.436424       -11.8757
 137   2.0000      -0.433919       -11.8075
 138   2.0000      -0.433605       -11.7990
 139   2.0000      -0.432473       -11.7682
 140   2.0000      -0.428254       -11.6534
 141   2.0000      -0.426883       -11.6161
 142   2.0000      -0.425403       -11.5758
 143   2.0000      -0.422283       -11.4909
 144   2.0000      -0.420415       -11.4401
 145   2.0000      -0.419851       -11.4247
 146   2.0000      -0.416610       -11.3365
 147   2.0000      -0.414917       -11.2905
 148   2.0000      -0.414441       -11.2775
 149   2.0000      -0.408706       -11.1215
 150   2.0000      -0.403475       -10.9791
 151   2.0000      -0.402302       -10.9472
 152   2.0000      -0.397941       -10.8285
 153   2.0000      -0.393763       -10.7148
 154   2.0000      -0.385312       -10.4849
 155   2.0000      -0.370643       -10.0857
 156   2.0000      -0.364975        -9.9315
 157   2.0000      -0.268908        -7.3174
 158   2.0000      -0.251323        -6.8389
 159   2.0000      -0.243823        -6.6348
 160   2.0000      -0.237591        -6.4652
 161   2.0000      -0.218569        -5.9476
 162   1.2000      -0.278747        -7.5851
 163   1.2000      -0.279187        -7.5971
 164   1.2000      -0.273110        -7.4317
 165   1.2000      -0.281649        -7.6641
 166   1.2000      -0.282596        -7.6898
 167   0.0000      -0.030976        -0.8429
 168   0.0000      -0.026941        -0.7331
 169   0.0000      -0.017364        -0.4725
 170   0.0000      -0.011637        -0.3167
 171   0.0000      -0.006599        -0.1796

MULLIKEN ATOMIC CHARGES AND SPIN DENSITIES
------------------------------------------
   0 Au:    0.356510    0.007890
   1 Au:    0.334035    0.007263
   2 Au:   -0.150383    0.006627
   3 Au:    0.304564    0.003026
   4 Au:    0.222219    0.005372
   5 Au:    0.253998    0.002694
   6 Au:    0.173664    0.001176
   7 Au:   -0.979619    0.008160
   8 Au:    0.358235    0.006167
   9 Au:    0.294978    0.002987
  10 Au:   -0.322460    0.007913
  11 Au:    0.261418    0.002938
  12 Au:   -0.424461    0.007374
  13 Au:    0.331531    0.007137
  14 Au:    0.254353    0.003653
  15 Au:    0.402312    0.005123
  16 Fe:   -1.670895    2.914499
Sum of atomic charges       :    0.0000000

LOEWDIN ATOMIC CHARGES AND SPIN DENSITIES
-----------------------------------------
   0 Au:    0.101627    0.009978
   1 Au:    0.027329    0.009438
   2 Au:   -0.067014    0.009283
   3 Au:    0.026188    0.003497
   4 Au:    0.004496    0.007089
   5 Au:    0.015756    0.003262
   6 Au:    0.025764    0.002325
   7 Au:   -0.138252    0.009149
   8 Au:    0.077537    0.008072
   9 Au:    0.015732    0.003281
  10 Au:   -0.078432    0.009029
  11 Au:    0.049335    0.003400
  12 Au:   -0.102009    0.009789
  13 Au:    0.064236    0.009580
  14 Au:    0.020583    0.004591
  15 Au:    0.084964    0.007017
  16 Fe:   -0.127841    2.891218

  Mayer bond orders larger than 0.100000
B(  0-Au,  4-Au) :   0.1817 B(  0-Au,  8-Au) :   0.1337 B(  0-Au, 16-Fe) :   0.4397
B(  1-Au,  4-Au) :   0.1458 B(  1-Au,  7-Au) :   0.2718 B(  1-Au, 14-Au) :   0.1805
B(  1-Au, 16-Fe) :   0.4183 B(  2-Au,  3-Au) :   0.2490 B(  2-Au,  4-Au) :   0.1530
B(  2-Au,  5-Au) :   0.2712 B(  2-Au,  8-Au) :   0.2195 B(  2-Au, 10-Au) :   0.1460
B(  2-Au, 16-Fe) :   0.3451 B(  3-Au,  4-Au) :   0.2456 B(  3-Au,  5-Au) :   0.1370
B(  3-Au,  6-Au) :   0.2243 B(  3-Au,  7-Au) :   0.3501 B(  4-Au,  7-Au) :   0.2648
B(  4-Au, 16-Fe) :   0.3385 B(  5-Au,  6-Au) :   0.2212 B(  5-Au,  9-Au) :   0.2092
B(  5-Au, 10-Au) :   0.2532 B(  6-Au,  7-Au) :   0.3876 B(  6-Au,  9-Au) :   0.1629
B(  6-Au, 11-Au) :   0.1975 B(  7-Au, 11-Au) :   0.3390 B(  7-Au, 14-Au) :   0.2894
B(  7-Au, 16-Fe) :   0.3951 B(  8-Au, 10-Au) :   0.2236 B(  8-Au, 15-Au) :   0.1154
B(  8-Au, 16-Fe) :   0.3704 B(  9-Au, 10-Au) :   0.2782 B(  9-Au, 11-Au) :   0.1281
B(  9-Au, 12-Au) :   0.3261 B( 10-Au, 12-Au) :   0.1678 B( 10-Au, 15-Au) :   0.2601
B( 10-Au, 16-Fe) :   0.4581 B( 11-Au, 12-Au) :   0.3036 B( 11-Au, 14-Au) :   0.2453
B( 12-Au, 13-Au) :   0.2125 B( 12-Au, 14-Au) :   0.1715 B( 12-Au, 15-Au) :   0.2216
B( 12-Au, 16-Fe) :   0.4001 B( 13-Au, 14-Au) :   0.2079 B( 13-Au, 15-Au) :   0.1372
B( 13-Au, 16-Fe) :   0.3644 B( 14-Au, 16-Fe) :   0.1747 B( 15-Au, 16-Fe) :   0.3470

FINAL SINGLE POINT ENERGY     -3419.389002554167

DIPOLE MOMENT
-------------
                                X             Y             Z
Electronic contribution:      8.34896      31.96939     -29.63311
Nuclear contribution   :     -8.59043     -32.40039      30.06511
                        -----------------------------------------
Total Dipole Moment    :     -0.24147      -0.43100       0.43200
                        -----------------------------------------
Magnitude (a.u.)       :      0.65627
Magnitude (Debye)      :      1.66811

Rotational constants in cm-1:     0.000957     0.000796     0.000738
Rotational constants in MHz :    28.693721    23.877524    22.123531

                             ****ORCA TERMINATED NORMALLY****
TOTAL RUN TIME: 0 days 2 hours 31 minutes 30 seconds 502 msec
