                         Program Version 5.0.3 -  RELEASE  -
|  1> %pal nprocs 1 end
|  2>
|  3> !PBE def2-TZVP OPT UNO
|  4> !SLOWCONV KDIIS
|  5>
|  6> %geom maxiter 300 end
|  7>
|  8> *xyzfile 0 5 9.xyz                           ****END OF INPUT****
 Total Charge           Charge          ....    0
 Multiplicity           Mult            ....    5
 Number of Electrons    NEL             ....  214
FINAL SINGLE POINT ENERGY     -2402.478967671666
FINAL SINGLE POINT ENERGY     -2402.480893082984
FINAL SINGLE POINT ENERGY     -2402.481223857852
FINAL SINGLE POINT ENERGY     -2402.481509112482
FINAL SINGLE POINT ENERGY     -2402.481635184818
FINAL SINGLE POINT ENERGY     -2402.481782268253
FINAL SINGLE POINT ENERGY     -2402.481872177957
FINAL SINGLE POINT ENERGY     -2402.481893226211
FINAL SINGLE POINT ENERGY     -2402.481914230668
FINAL SINGLE POINT ENERGY     -2402.481946652751
FINAL SINGLE POINT ENERGY     -2402.496407331579
FINAL SINGLE POINT ENERGY     -2402.496433531986
FINAL SINGLE POINT ENERGY     -2402.496394950218
FINAL SINGLE POINT ENERGY     -2402.496448061337
FINAL SINGLE POINT ENERGY     -2402.496451913790
FINAL SINGLE POINT ENERGY     -2402.496457210625
FINAL SINGLE POINT ENERGY     -2402.496461716610
FINAL SINGLE POINT ENERGY     -2402.496462837732
FINAL SINGLE POINT ENERGY     -2402.496463425322
                    ***********************HURRAY********************

CARTESIAN COORDINATES (ANGSTROEM)
---------------------------------
  Au     6.778316    7.747145    7.916668
  Au     8.916520    8.926192    9.226635
  Au     5.461448    7.431864   10.369730
  Au     9.349756    6.952877    7.368151
  Au    10.824300    4.616808    7.083765
  Au     8.323154    4.367711    8.157752
  Au    10.666594    5.671889    9.601332
  Au     5.911790    5.134167    8.892675
  Au    10.068135    7.440873   11.460300
  Au     7.568430    8.611152   11.662207
  Cr     8.028854    6.451043    9.967254

 Multiplicity           Mult            ....    5
 Number of Electrons    NEL             ....  214
 Basis Dimension        Dim             ....  445

ORBITAL ENERGIES
----------------
                 SPIN UP ORBITALS
  NO   OCC          E(Eh)            E(eV)
   0   1.0000    -214.478471     -5836.2559
   1   1.0000     -24.277366      -660.6207
   2   1.0000     -20.642095      -561.7000
   3   1.0000     -20.641670      -561.6884
   4   1.0000     -20.637173      -561.5660
   5   1.0000      -4.026182      -109.5580
   6   1.0000      -4.025406      -109.5369
   7   1.0000      -4.025282      -109.5335
   8   1.0000      -4.021839      -109.4398
   9   1.0000      -4.021802      -109.4388
  10   1.0000      -4.020100      -109.3925
  11   1.0000      -4.020034      -109.3907
  12   1.0000      -4.019358      -109.3723
  13   1.0000      -4.017332      -109.3172
  14   1.0000      -4.017067      -109.3100
  15   1.0000      -2.787224       -75.8442
  16   1.0000      -2.245571       -61.1051
  17   1.0000      -2.241998       -61.0079
  18   1.0000      -2.241303       -60.9890
  19   1.0000      -2.241122       -60.9840
  20   1.0000      -2.240784       -60.9748
  21   1.0000      -2.239457       -60.9387
  22   1.0000      -2.239225       -60.9324
  23   1.0000      -2.238116       -60.9022
  24   1.0000      -2.236635       -60.8619
  25   1.0000      -2.236224       -60.8507
  26   1.0000      -2.235832       -60.8401
  27   1.0000      -2.235318       -60.8261
  28   1.0000      -2.235087       -60.8198
  29   1.0000      -2.235043       -60.8186
  30   1.0000      -2.234714       -60.8097
  31   1.0000      -2.234447       -60.8024
  32   1.0000      -2.233965       -60.7893
  33   1.0000      -2.233736       -60.7830
  34   1.0000      -2.232366       -60.7458
  35   1.0000      -2.231446       -60.7207
  36   1.0000      -2.231189       -60.7137
  37   1.0000      -2.230114       -60.6845
  38   1.0000      -2.229670       -60.6724
  39   1.0000      -2.229276       -60.6617
  40   1.0000      -2.229147       -60.6582
  41   1.0000      -2.228608       -60.6435
  42   1.0000      -2.228495       -60.6404
  43   1.0000      -2.228122       -60.6303
  44   1.0000      -2.227082       -60.6020
  45   1.0000      -2.226644       -60.5901
  46   1.0000      -1.780000       -48.4363
  47   1.0000      -1.778301       -48.3900
  48   1.0000      -1.773575       -48.2614
  49   1.0000      -0.410106       -11.1595
  50   1.0000      -0.381169       -10.3721
  51   1.0000      -0.372744       -10.1429
  52   1.0000      -0.365355        -9.9418
  53   1.0000      -0.359302        -9.7771
  54   1.0000      -0.357855        -9.7377
  55   1.0000      -0.353268        -9.6129
  56   1.0000      -0.348517        -9.4836
  57   1.0000      -0.345465        -9.4006
  58   1.0000      -0.336585        -9.1589
  59   1.0000      -0.335215        -9.1217
  60   1.0000      -0.331104        -9.0098
  61   1.0000      -0.328376        -8.9356
  62   1.0000      -0.327229        -8.9043
  63   1.0000      -0.320997        -8.7348
  64   1.0000      -0.320603        -8.7241
  65   1.0000      -0.319532        -8.6949
  66   1.0000      -0.315886        -8.5957
  67   1.0000      -0.313793        -8.5388
  68   1.0000      -0.312780        -8.5112
  69   1.0000      -0.306324        -8.3355
  70   1.0000      -0.305076        -8.3015
  71   1.0000      -0.299288        -8.1440
  72   1.0000      -0.297544        -8.0966
  73   1.0000      -0.294032        -8.0010
  74   1.0000      -0.293471        -7.9858
  75   1.0000      -0.289345        -7.8735
  76   1.0000      -0.286930        -7.8078
  77   1.0000      -0.283261        -7.7079
  78   1.0000      -0.283033        -7.7017
  79   1.0000      -0.279413        -7.6032
  80   1.0000      -0.279272        -7.5994
  81   1.0000      -0.275704        -7.5023
  82   1.0000      -0.275550        -7.4981
  83   1.0000      -0.270996        -7.3742
  84   1.0000      -0.269354        -7.3295
  85   1.0000      -0.268200        -7.2981
  86   1.0000      -0.267602        -7.2818
  87   1.0000      -0.267002        -7.2655
  88   1.0000      -0.262838        -7.1522
  89   1.0000      -0.260002        -7.0750
  90   1.0000      -0.257198        -6.9987
  91   1.0000      -0.256979        -6.9927
  92   1.0000      -0.255977        -6.9655
  93   1.0000      -0.250807        -6.8248
  94   1.0000      -0.250750        -6.8233
  95   1.0000      -0.249924        -6.8008
  96   1.0000      -0.248686        -6.7671
  97   1.0000      -0.245465        -6.6794
  98   1.0000      -0.241294        -6.5659
  99   1.0000      -0.238513        -6.4903
 100   1.0000      -0.237320        -6.4578
 101   1.0000      -0.229883        -6.2554
 102   1.0000      -0.229681        -6.2499
 103   1.0000      -0.218113        -5.9352
 104   1.0000      -0.209895        -5.7115
 105   1.0000      -0.202401        -5.5076
 106   1.0000      -0.200019        -5.4428
 107   1.0000      -0.190685        -5.1888
 108   1.0000      -0.186707        -5.0806
 109   0.0000      -0.164826        -4.4851
 110   0.0000      -0.145626        -3.9627
 111   0.0000      -0.143427        -3.9029
 112   0.0000      -0.140773        -3.8306
 113   0.0000      -0.107639        -2.9290

                 SPIN DOWN ORBITALS
  NO   OCC          E(Eh)            E(eV)
   0   1.0000    -214.478004     -5836.2432
   1   1.0000     -24.227786      -659.2716
   2   1.0000     -20.606575      -560.7334
   3   1.0000     -20.605151      -560.6947
   4   1.0000     -20.595578      -560.4342
   5   1.0000      -4.025368      -109.5358
   6   1.0000      -4.024423      -109.5101
   7   1.0000      -4.024297      -109.5067
   8   1.0000      -4.020891      -109.4140
   9   1.0000      -4.020852      -109.4129
  10   1.0000      -4.019138      -109.3663
  11   1.0000      -4.019083      -109.3648
  12   1.0000      -4.019067      -109.3644
  13   1.0000      -4.016739      -109.3010
  14   1.0000      -4.016483      -109.2941
  15   1.0000      -2.652493       -72.1780
  16   1.0000      -2.244494       -61.0758
  17   1.0000      -2.240956       -60.9795
  18   1.0000      -2.240127       -60.9570
  19   1.0000      -2.240030       -60.9543
  20   1.0000      -2.239758       -60.9469
  21   1.0000      -2.238338       -60.9083
  22   1.0000      -2.237902       -60.8964
  23   1.0000      -2.237034       -60.8728
  24   1.0000      -2.235961       -60.8436
  25   1.0000      -2.235474       -60.8303
  26   1.0000      -2.235059       -60.8190
  27   1.0000      -2.234105       -60.7931
  28   1.0000      -2.233950       -60.7889
  29   1.0000      -2.233748       -60.7834
  30   1.0000      -2.233717       -60.7825
  31   1.0000      -2.233421       -60.7745
  32   1.0000      -2.233014       -60.7634
  33   1.0000      -2.232909       -60.7605
  34   1.0000      -2.231697       -60.7276
  35   1.0000      -2.230560       -60.6966
  36   1.0000      -2.230423       -60.6929
  37   1.0000      -2.229682       -60.6727
  38   1.0000      -2.229516       -60.6682
  39   1.0000      -2.228542       -60.6417
  40   1.0000      -2.228392       -60.6376
  41   1.0000      -2.227814       -60.6219
  42   1.0000      -2.227754       -60.6203
  43   1.0000      -2.227619       -60.6166
  44   1.0000      -2.226482       -60.5857
  45   1.0000      -2.226045       -60.5738
  46   1.0000      -1.654077       -45.0097
  47   1.0000      -1.650274       -44.9062
  48   1.0000      -1.628728       -44.3200
  49   1.0000      -0.404119       -10.9966
  50   1.0000      -0.377909       -10.2834
  51   1.0000      -0.369158       -10.0453
  52   1.0000      -0.363143        -9.8816
  53   1.0000      -0.355982        -9.6868
  54   1.0000      -0.355269        -9.6674
  55   1.0000      -0.350856        -9.5473
  56   1.0000      -0.344224        -9.3668
  57   1.0000      -0.342836        -9.3290
  58   1.0000      -0.334982        -9.1153
  59   1.0000      -0.333255        -9.0683
  60   1.0000      -0.329324        -8.9614
  61   1.0000      -0.326669        -8.8891
  62   1.0000      -0.325499        -8.8573
  63   1.0000      -0.320278        -8.7152
  64   1.0000      -0.320112        -8.7107
  65   1.0000      -0.316946        -8.6245
  66   1.0000      -0.313913        -8.5420
  67   1.0000      -0.311364        -8.4726
  68   1.0000      -0.310249        -8.4423
  69   1.0000      -0.304834        -8.2950
  70   1.0000      -0.302343        -8.2272
  71   1.0000      -0.297290        -8.0897
  72   1.0000      -0.295857        -8.0507
  73   1.0000      -0.290514        -7.9053
  74   1.0000      -0.288580        -7.8527
  75   1.0000      -0.287915        -7.8346
  76   1.0000      -0.285800        -7.7770
  77   1.0000      -0.282364        -7.6835
  78   1.0000      -0.282247        -7.6803
  79   1.0000      -0.278146        -7.5687
  80   1.0000      -0.277283        -7.5453
  81   1.0000      -0.274576        -7.4716
  82   1.0000      -0.274155        -7.4601
  83   1.0000      -0.270297        -7.3551
  84   1.0000      -0.268326        -7.3015
  85   1.0000      -0.268227        -7.2988
  86   1.0000      -0.267111        -7.2685
  87   1.0000      -0.266862        -7.2617
  88   1.0000      -0.260928        -7.1002
  89   1.0000      -0.259786        -7.0691
  90   1.0000      -0.256975        -6.9926
  91   1.0000      -0.256307        -6.9745
  92   1.0000      -0.254940        -6.9373
  93   1.0000      -0.249896        -6.8000
  94   1.0000      -0.249714        -6.7951
  95   1.0000      -0.249121        -6.7789
  96   1.0000      -0.247666        -6.7393
  97   1.0000      -0.244895        -6.6639
  98   1.0000      -0.239746        -6.5238
  99   1.0000      -0.238689        -6.4951
 100   1.0000      -0.236926        -6.4471
 101   1.0000      -0.228867        -6.2278
 102   1.0000      -0.225363        -6.1324
 103   1.0000      -0.211484        -5.7548
 104   1.0000      -0.196488        -5.3467
 105   0.0000      -0.154452        -4.2028
 106   0.0000      -0.151832        -4.1316
 107   0.0000      -0.146287        -3.9807
 108   0.0000      -0.107551        -2.9266
 109   0.0000      -0.100435        -2.7330

MULLIKEN ATOMIC CHARGES AND SPIN POPULATIONS
--------------------------------------------
   0 Au:    0.147261    0.034642
   1 Au:    0.147110    0.034313
   2 Au:    0.301070   -0.033482
   3 Au:   -0.021013    0.029113
   4 Au:    0.351162    0.137679
   5 Au:    0.101066   -0.061570
   6 Au:    0.100981   -0.061451
   7 Au:    0.371823    0.025225
   8 Au:    0.371314    0.025705
   9 Au:    0.302156   -0.033795
  10 Cr:   -2.172930    3.903619
Sum of atomic charges         :   -0.0000000

LOEWDIN ATOMIC CHARGES AND SPIN POPULATIONS
-------------------------------------------
   0 Au:    0.077097    0.036112
   1 Au:    0.076660    0.035764
   2 Au:    0.087457   -0.010602
   3 Au:    0.002080    0.045950
   4 Au:    0.123440    0.076696
   5 Au:    0.026422    0.005035
   6 Au:    0.026324    0.004973
   7 Au:    0.120238    0.015484
   8 Au:    0.120204    0.015991
   9 Au:    0.086799   -0.011208
  10 Cr:   -0.746722    3.785804

  Mayer bond orders larger than 0.100000
B(  0-Au,  1-Au) :   0.3260 B(  0-Au,  2-Au) :   0.2398 B(  0-Au,  3-Au) :   0.3759
B(  0-Au,  7-Au) :   0.1508 B(  0-Au, 10-Cr) :   0.4785 B(  1-Au,  3-Au) :   0.3762
B(  1-Au,  8-Au) :   0.1513 B(  1-Au,  9-Au) :   0.2405 B(  1-Au, 10-Cr) :   0.4768
B(  2-Au,  7-Au) :   0.2370 B(  2-Au,  9-Au) :   0.3164 B(  2-Au, 10-Cr) :   0.5713
B(  3-Au,  4-Au) :   0.3544 B(  3-Au,  5-Au) :   0.2134 B(  3-Au,  6-Au) :   0.2134
B(  3-Au, 10-Cr) :   0.2692 B(  4-Au,  5-Au) :   0.3536 B(  4-Au,  6-Au) :   0.3535
B(  4-Au, 10-Cr) :   0.1405 B(  5-Au,  6-Au) :   0.1065 B(  5-Au,  7-Au) :   0.4577
B(  5-Au, 10-Cr) :   0.6577 B(  6-Au,  8-Au) :   0.4582 B(  6-Au, 10-Cr) :   0.6622
B(  7-Au, 10-Cr) :   0.6314 B(  8-Au,  9-Au) :   0.2382 B(  8-Au, 10-Cr) :   0.6305
B(  9-Au, 10-Cr) :   0.5695

FINAL SINGLE POINT ENERGY     -2402.496463689812

DIPOLE MOMENT
-------------
                                X             Y             Z
Electronic contribution:     12.53720       8.51495     -27.91513
Nuclear contribution   :    -12.51235      -8.35430      27.72828
                        -----------------------------------------
Total Dipole Moment    :      0.02485       0.16066      -0.18685
                        -----------------------------------------
Magnitude (a.u.)       :      0.24767
Magnitude (Debye)      :      0.62953

Rotational constants in cm-1:     0.002236     0.001585     0.001234
Rotational constants in MHz :    67.035479    47.512746    36.986870

                             ****ORCA TERMINATED NORMALLY****
TOTAL RUN TIME: 0 days 4 hours 19 minutes 1 seconds 565 msec
