                         Program Version 5.0.3 -  RELEASE  -
|  1> %pal nprocs 8 end
|  2>
|  3> !PBE def2-TZVP OPT UNO
|  4> !SLOWCONV KDIIS
|  5>
|  6> %scf
|  7>   AutoTRAHIter 400
|  8>   maxiter 800
|  9>   DIISMaxEq 15
| 10> end
| 11>
| 12>
| 13> *xyz 0 3
| 14>   Au  8.48774062881571      8.36597681938725      9.57824774672180
| 15>   Au  5.83035361753757      7.57613667400607      9.73090845821447
| 16>   Au  6.38385824442557      9.89092417190711      8.05880800666864
| 17>   Au  9.00358739371801      9.65847618726613      7.14116822929512
| 18>   Au  7.27227670974339     11.53248605021377      6.02152523982061
| 19>   Au  9.97198061540879      6.99609503035585      7.57114403391862
| 20>   Au  4.42124142891514      7.93509207103273      7.31368988705704
| 21>   Au  5.54354130963629      5.40068497944402      7.84466110249354
| 22>   Au  8.07292258292849      5.05004351142179      6.75577700051725
| 23>   Au  8.66445939063094      7.19257890074858      5.03233080669559
| 24>   Au  6.49944336569300     11.05456280031248      3.37829425423847
| 25>   Au  10.98804314565289      8.65730712139285      5.46288999545379
| 26>   Au  6.83512942559776      8.29094272160742      3.23957695451374
| 27>   Au  8.89328327276653      9.96318185793426      4.28659345373587
| 28>   Au  5.95005474196249      6.63414168542396      5.26268462004314
| 29>   Au  5.35544475733742      9.51497437748283      5.34944323423295
| 30>   Fe  7.22291540922991      7.41735219006278      7.48805960637938
| 31> *
| 32>
| 33>
| 34>
| 35>                          ****END OF INPUT****
 Total Charge           Charge          ....    0
 Multiplicity           Mult            ....    3
 Number of Electrons    NEL             ....  330
FINAL SINGLE POINT ENERGY     -3436.732248568971
FINAL SINGLE POINT ENERGY     -3436.732760529834
FINAL SINGLE POINT ENERGY     -3436.733153913532
FINAL SINGLE POINT ENERGY     -3436.733382072217
FINAL SINGLE POINT ENERGY     -3436.733634452387
FINAL SINGLE POINT ENERGY     -3436.733864320020
FINAL SINGLE POINT ENERGY     -3436.734144985873
FINAL SINGLE POINT ENERGY     -3436.734383863440
FINAL SINGLE POINT ENERGY     -3436.734474139500
FINAL SINGLE POINT ENERGY     -3436.734564750551
FINAL SINGLE POINT ENERGY     -3436.734953740075
FINAL SINGLE POINT ENERGY     -3436.735063339177
FINAL SINGLE POINT ENERGY     -3436.735162856009
FINAL SINGLE POINT ENERGY     -3436.735222289765
FINAL SINGLE POINT ENERGY     -3436.735246814949
FINAL SINGLE POINT ENERGY     -3436.735271259909
FINAL SINGLE POINT ENERGY     -3436.735286450551
FINAL SINGLE POINT ENERGY     -3436.735295071425
FINAL SINGLE POINT ENERGY     -3436.735300726077
                    ***********************HURRAY********************

CARTESIAN COORDINATES (ANGSTROEM)
---------------------------------
  Au     8.462613    8.150554    9.455856
  Au     5.787510    7.627012    9.654160
  Au     6.406256    9.991877    8.243397
  Au     9.021972    9.635580    7.145110
  Au     7.274901   11.505329    6.093720
  Au    10.096574    7.029278    7.508187
  Au     4.269827    7.953950    7.315767
  Au     5.508208    5.485356    7.813462
  Au     8.078563    5.209808    6.924530
  Au     8.702347    7.187217    5.035746
  Au     6.451647   11.026963    3.418750
  Au    11.030553    8.705975    5.415092
  Au     6.841113    8.218167    3.266013
  Au     8.860405    9.955025    4.297236
  Au     5.948490    6.442927    5.193031
  Au     5.603112    9.368692    5.474320
  Fe     7.052183    7.637247    7.261428

 Multiplicity           Mult            ....    3
 Number of Electrons    NEL             ....  330
 Basis Dimension        Dim             ....  685

ORBITAL ENERGIES
----------------
                 SPIN UP ORBITALS
  NO   OCC          E(Eh)            E(eV)
   0   1.0000    -254.735550     -6931.7067
   1   1.0000     -29.567992      -804.5860
   2   1.0000     -25.506567      -694.0690
   3   1.0000     -25.504803      -694.0210
   4   1.0000     -25.501142      -693.9213
   5   1.0000      -4.036591      -109.8412
   6   1.0000      -4.036538      -109.8398
   7   1.0000      -4.035599      -109.8142
   8   1.0000      -4.035532      -109.8124
   9   1.0000      -4.030356      -109.6716
  10   1.0000      -4.027049      -109.5816
  11   1.0000      -4.026950      -109.5789
  12   1.0000      -4.025840      -109.5487
  13   1.0000      -4.025797      -109.5475
  14   1.0000      -4.025280      -109.5334
  15   1.0000      -4.024566      -109.5140
  16   1.0000      -4.023476      -109.4844
  17   1.0000      -4.023468      -109.4841
  18   1.0000      -4.022053      -109.4456
  19   1.0000      -4.019359      -109.3723
  20   1.0000      -4.018502      -109.3490
  21   1.0000      -3.344074       -90.9969
  22   1.0000      -2.252078       -61.2822
  23   1.0000      -2.251929       -61.2781
  24   1.0000      -2.251669       -61.2710
  25   1.0000      -2.251588       -61.2688
  26   1.0000      -2.251270       -61.2602
  27   1.0000      -2.251219       -61.2588
  28   1.0000      -2.249383       -61.2088
  29   1.0000      -2.249278       -61.2060
  30   1.0000      -2.248292       -61.1791
  31   1.0000      -2.245997       -61.1167
  32   1.0000      -2.245379       -61.0999
  33   1.0000      -2.244743       -61.0826
  34   1.0000      -2.244402       -61.0733
  35   1.0000      -2.243058       -61.0367
  36   1.0000      -2.243051       -61.0365
  37   1.0000      -2.242811       -61.0300
  38   1.0000      -2.242676       -61.0263
  39   1.0000      -2.241615       -60.9974
  40   1.0000      -2.241341       -60.9900
  41   1.0000      -2.241282       -60.9884
  42   1.0000      -2.240150       -60.9576
  43   1.0000      -2.239599       -60.9426
  44   1.0000      -2.239100       -60.9290
  45   1.0000      -2.238862       -60.9225
  46   1.0000      -2.238844       -60.9220
  47   1.0000      -2.238533       -60.9136
  48   1.0000      -2.238218       -60.9050
  49   1.0000      -2.238022       -60.8997
  50   1.0000      -2.237518       -60.8860
  51   1.0000      -2.237173       -60.8766
  52   1.0000      -2.236791       -60.8662
  53   1.0000      -2.236540       -60.8594
  54   1.0000      -2.236001       -60.8447
  55   1.0000      -2.235868       -60.8410
  56   1.0000      -2.235251       -60.8243
  57   1.0000      -2.235006       -60.8176
  58   1.0000      -2.234804       -60.8121
  59   1.0000      -2.234736       -60.8102
  60   1.0000      -2.234552       -60.8052
  61   1.0000      -2.234429       -60.8019
  62   1.0000      -2.234189       -60.7954
  63   1.0000      -2.233884       -60.7871
  64   1.0000      -2.232470       -60.7486
  65   1.0000      -2.232238       -60.7423
  66   1.0000      -2.231219       -60.7145
  67   1.0000      -2.230337       -60.6906
  68   1.0000      -2.230235       -60.6878
  69   1.0000      -2.230125       -60.6848
  70   1.0000      -2.162903       -58.8556
  71   1.0000      -2.160712       -58.7960
  72   1.0000      -2.151848       -58.5548
  73   1.0000      -0.435446       -11.8491
  74   1.0000      -0.399422       -10.8688
  75   1.0000      -0.394691       -10.7401
  76   1.0000      -0.390612       -10.6291
  77   1.0000      -0.375807       -10.2262
  78   1.0000      -0.375177       -10.2091
  79   1.0000      -0.374892       -10.2013
  80   1.0000      -0.371841       -10.1183
  81   1.0000      -0.369399       -10.0519
  82   1.0000      -0.366340        -9.9686
  83   1.0000      -0.362747        -9.8708
  84   1.0000      -0.360526        -9.8104
  85   1.0000      -0.357345        -9.7239
  86   1.0000      -0.355533        -9.6745
  87   1.0000      -0.353659        -9.6235
  88   1.0000      -0.351164        -9.5557
  89   1.0000      -0.348678        -9.4880
  90   1.0000      -0.348645        -9.4871
  91   1.0000      -0.345626        -9.4050
  92   1.0000      -0.342415        -9.3176
  93   1.0000      -0.342175        -9.3110
  94   1.0000      -0.339046        -9.2259
  95   1.0000      -0.334979        -9.1152
  96   1.0000      -0.333948        -9.0872
  97   1.0000      -0.333515        -9.0754
  98   1.0000      -0.330313        -8.9883
  99   1.0000      -0.328818        -8.9476
 100   1.0000      -0.328758        -8.9460
 101   1.0000      -0.324393        -8.8272
 102   1.0000      -0.321127        -8.7383
 103   1.0000      -0.320945        -8.7334
 104   1.0000      -0.316417        -8.6102
 105   1.0000      -0.315106        -8.5745
 106   1.0000      -0.313379        -8.5275
 107   1.0000      -0.311132        -8.4663
 108   1.0000      -0.310213        -8.4413
 109   1.0000      -0.309645        -8.4259
 110   1.0000      -0.307667        -8.3720
 111   1.0000      -0.306903        -8.3513
 112   1.0000      -0.305481        -8.3125
 113   1.0000      -0.299524        -8.1505
 114   1.0000      -0.299374        -8.1464
 115   1.0000      -0.295433        -8.0391
 116   1.0000      -0.293943        -7.9986
 117   1.0000      -0.291503        -7.9322
 118   1.0000      -0.288191        -7.8421
 119   1.0000      -0.286946        -7.8082
 120   1.0000      -0.285836        -7.7780
 121   1.0000      -0.284664        -7.7461
 122   1.0000      -0.281624        -7.6634
 123   1.0000      -0.280984        -7.6460
 124   1.0000      -0.279168        -7.5965
 125   1.0000      -0.278176        -7.5696
 126   1.0000      -0.276197        -7.5157
 127   1.0000      -0.275995        -7.5102
 128   1.0000      -0.274447        -7.4681
 129   1.0000      -0.272977        -7.4281
 130   1.0000      -0.271704        -7.3934
 131   1.0000      -0.271629        -7.3914
 132   1.0000      -0.270073        -7.3491
 133   1.0000      -0.269984        -7.3466
 134   1.0000      -0.267454        -7.2778
 135   1.0000      -0.266835        -7.2609
 136   1.0000      -0.264507        -7.1976
 137   1.0000      -0.263916        -7.1815
 138   1.0000      -0.263768        -7.1775
 139   1.0000      -0.262950        -7.1552
 140   1.0000      -0.262125        -7.1328
 141   1.0000      -0.259926        -7.0729
 142   1.0000      -0.256827        -6.9886
 143   1.0000      -0.256265        -6.9733
 144   1.0000      -0.252953        -6.8832
 145   1.0000      -0.252340        -6.8665
 146   1.0000      -0.251630        -6.8472
 147   1.0000      -0.250999        -6.8300
 148   1.0000      -0.250331        -6.8118
 149   1.0000      -0.246931        -6.7193
 150   1.0000      -0.246269        -6.7013
 151   1.0000      -0.246126        -6.6974
 152   1.0000      -0.243532        -6.6268
 153   1.0000      -0.242052        -6.5866
 154   1.0000      -0.241822        -6.5803
 155   1.0000      -0.241493        -6.5714
 156   1.0000      -0.239191        -6.5087
 157   1.0000      -0.237650        -6.4668
 158   1.0000      -0.236131        -6.4254
 159   1.0000      -0.234497        -6.3810
 160   1.0000      -0.231268        -6.2931
 161   1.0000      -0.228171        -6.2089
 162   1.0000      -0.219507        -5.9731
 163   1.0000      -0.211631        -5.7588
 164   1.0000      -0.211388        -5.7522
 165   1.0000      -0.197145        -5.3646
 166   0.0000      -0.184893        -5.0312
 167   0.0000      -0.152257        -4.1431
 168   0.0000      -0.143198        -3.8966
 169   0.0000      -0.141881        -3.8608
 170   0.0000      -0.134670        -3.6646

                 SPIN DOWN ORBITALS
  NO   OCC          E(Eh)            E(eV)
   0   1.0000    -254.734958     -6931.6906
   1   1.0000     -29.515677      -803.1624
   2   1.0000     -25.466244      -692.9717
   3   1.0000     -25.465432      -692.9496
   4   1.0000     -25.462364      -692.8662
   5   1.0000      -4.036982      -109.8519
   6   1.0000      -4.036924      -109.8503
   7   1.0000      -4.035367      -109.8079
   8   1.0000      -4.035298      -109.8060
   9   1.0000      -4.030285      -109.6696
  10   1.0000      -4.026898      -109.5775
  11   1.0000      -4.026797      -109.5747
  12   1.0000      -4.025609      -109.5424
  13   1.0000      -4.025563      -109.5411
  14   1.0000      -4.025558      -109.5410
  15   1.0000      -4.025298      -109.5339
  16   1.0000      -4.023706      -109.4906
  17   1.0000      -4.023694      -109.4903
  18   1.0000      -4.022089      -109.4466
  19   1.0000      -4.020720      -109.4094
  20   1.0000      -4.018580      -109.3511
  21   1.0000      -3.225045       -87.7579
  22   1.0000      -2.252502       -61.2937
  23   1.0000      -2.252303       -61.2883
  24   1.0000      -2.251981       -61.2795
  25   1.0000      -2.251870       -61.2765
  26   1.0000      -2.250896       -61.2500
  27   1.0000      -2.250834       -61.2483
  28   1.0000      -2.249019       -61.1989
  29   1.0000      -2.248900       -61.1957
  30   1.0000      -2.248127       -61.1747
  31   1.0000      -2.246286       -61.1246
  32   1.0000      -2.245704       -61.1087
  33   1.0000      -2.244837       -61.0851
  34   1.0000      -2.244475       -61.0753
  35   1.0000      -2.243157       -61.0394
  36   1.0000      -2.242950       -61.0338
  37   1.0000      -2.242769       -61.0288
  38   1.0000      -2.242503       -61.0216
  39   1.0000      -2.241239       -60.9872
  40   1.0000      -2.240961       -60.9797
  41   1.0000      -2.240861       -60.9769
  42   1.0000      -2.239903       -60.9509
  43   1.0000      -2.239547       -60.9412
  44   1.0000      -2.239295       -60.9343
  45   1.0000      -2.239060       -60.9279
  46   1.0000      -2.238985       -60.9259
  47   1.0000      -2.238640       -60.9165
  48   1.0000      -2.238365       -60.9090
  49   1.0000      -2.238296       -60.9071
  50   1.0000      -2.237664       -60.8899
  51   1.0000      -2.237590       -60.8879
  52   1.0000      -2.236853       -60.8679
  53   1.0000      -2.236823       -60.8670
  54   1.0000      -2.236366       -60.8546
  55   1.0000      -2.236135       -60.8483
  56   1.0000      -2.235629       -60.8346
  57   1.0000      -2.235461       -60.8300
  58   1.0000      -2.235170       -60.8221
  59   1.0000      -2.234943       -60.8159
  60   1.0000      -2.234698       -60.8092
  61   1.0000      -2.234488       -60.8035
  62   1.0000      -2.234400       -60.8011
  63   1.0000      -2.234173       -60.7949
  64   1.0000      -2.232687       -60.7545
  65   1.0000      -2.232564       -60.7512
  66   1.0000      -2.232175       -60.7406
  67   1.0000      -2.232099       -60.7385
  68   1.0000      -2.230389       -60.6920
  69   1.0000      -2.230231       -60.6877
  70   1.0000      -2.044899       -55.6445
  71   1.0000      -2.043531       -55.6073
  72   1.0000      -2.037078       -55.4317
  73   1.0000      -0.433382       -11.7929
  74   1.0000      -0.398561       -10.8454
  75   1.0000      -0.394811       -10.7433
  76   1.0000      -0.391444       -10.6517
  77   1.0000      -0.375285       -10.2120
  78   1.0000      -0.373439       -10.1618
  79   1.0000      -0.371876       -10.1193
  80   1.0000      -0.370781       -10.0895
  81   1.0000      -0.368022       -10.0144
  82   1.0000      -0.365860        -9.9555
  83   1.0000      -0.361994        -9.8504
  84   1.0000      -0.360207        -9.8017
  85   1.0000      -0.356347        -9.6967
  86   1.0000      -0.355399        -9.6709
  87   1.0000      -0.351731        -9.5711
  88   1.0000      -0.351009        -9.5514
  89   1.0000      -0.348936        -9.4950
  90   1.0000      -0.348140        -9.4734
  91   1.0000      -0.343394        -9.3442
  92   1.0000      -0.341488        -9.2924
  93   1.0000      -0.340611        -9.2685
  94   1.0000      -0.338973        -9.2239
  95   1.0000      -0.334410        -9.0998
  96   1.0000      -0.334308        -9.0970
  97   1.0000      -0.332541        -9.0489
  98   1.0000      -0.330550        -8.9947
  99   1.0000      -0.329528        -8.9669
 100   1.0000      -0.328837        -8.9481
 101   1.0000      -0.323893        -8.8136
 102   1.0000      -0.321062        -8.7365
 103   1.0000      -0.320957        -8.7337
 104   1.0000      -0.316840        -8.6217
 105   1.0000      -0.313314        -8.5257
 106   1.0000      -0.313043        -8.5183
 107   1.0000      -0.311207        -8.4684
 108   1.0000      -0.311018        -8.4632
 109   1.0000      -0.307467        -8.3666
 110   1.0000      -0.306022        -8.3273
 111   1.0000      -0.302532        -8.2323
 112   1.0000      -0.301667        -8.2088
 113   1.0000      -0.298265        -8.1162
 114   1.0000      -0.297440        -8.0938
 115   1.0000      -0.293678        -7.9914
 116   1.0000      -0.293017        -7.9734
 117   1.0000      -0.290419        -7.9027
 118   1.0000      -0.288380        -7.8472
 119   1.0000      -0.287311        -7.8181
 120   1.0000      -0.285747        -7.7756
 121   1.0000      -0.283462        -7.7134
 122   1.0000      -0.282000        -7.6736
 123   1.0000      -0.281578        -7.6621
 124   1.0000      -0.278780        -7.5860
 125   1.0000      -0.277948        -7.5634
 126   1.0000      -0.275949        -7.5090
 127   1.0000      -0.274744        -7.4762
 128   1.0000      -0.273806        -7.4506
 129   1.0000      -0.272668        -7.4197
 130   1.0000      -0.271380        -7.3846
 131   1.0000      -0.270872        -7.3708
 132   1.0000      -0.270575        -7.3627
 133   1.0000      -0.270329        -7.3560
 134   1.0000      -0.267924        -7.2906
 135   1.0000      -0.267219        -7.2714
 136   1.0000      -0.264801        -7.2056
 137   1.0000      -0.264738        -7.2039
 138   1.0000      -0.263796        -7.1783
 139   1.0000      -0.263698        -7.1756
 140   1.0000      -0.262410        -7.1405
 141   1.0000      -0.260179        -7.0798
 142   1.0000      -0.256700        -6.9852
 143   1.0000      -0.256021        -6.9667
 144   1.0000      -0.252453        -6.8696
 145   1.0000      -0.251993        -6.8571
 146   1.0000      -0.251863        -6.8535
 147   1.0000      -0.251275        -6.8375
 148   1.0000      -0.250583        -6.8187
 149   1.0000      -0.247237        -6.7277
 150   1.0000      -0.246013        -6.6944
 151   1.0000      -0.243396        -6.6231
 152   1.0000      -0.243334        -6.6214
 153   1.0000      -0.242434        -6.5970
 154   1.0000      -0.241355        -6.5676
 155   1.0000      -0.238423        -6.4878
 156   1.0000      -0.237889        -6.4733
 157   1.0000      -0.225972        -6.1490
 158   1.0000      -0.219067        -5.9611
 159   1.0000      -0.217729        -5.9247
 160   1.0000      -0.203839        -5.5467
 161   1.0000      -0.200138        -5.4460
 162   1.0000      -0.175113        -4.7651
 163   1.0000      -0.170304        -4.6342
 164   0.0000      -0.154583        -4.2064
 165   0.0000      -0.151632        -4.1261
 166   0.0000      -0.145255        -3.9526
 167   0.0000      -0.143116        -3.8944
 168   0.0000      -0.139712        -3.8018

MULLIKEN ATOMIC CHARGES AND SPIN POPULATIONS
--------------------------------------------
   0 Au:    0.375057   -0.038400
   1 Au:    0.361851   -0.041359
   2 Au:    0.195903   -0.074113
   3 Au:   -0.457182   -0.110245
   4 Au:    0.389465    0.030420
   5 Au:    0.257366   -0.027970
   6 Au:    0.422139    0.009765
   7 Au:    0.361644   -0.041254
   8 Au:    0.375768   -0.039215
   9 Au:   -0.459010   -0.110005
  10 Au:    0.546754   -0.068073
  11 Au:    0.406408   -0.208002
  12 Au:    0.387771    0.030317
  13 Au:   -0.210339    0.004890
  14 Au:    0.197377   -0.073653
  15 Au:   -0.859159   -0.003297
  16 Fe:   -2.291814    2.760195
Sum of atomic charges         :   -0.0000000

LOEWDIN ATOMIC CHARGES AND SPIN POPULATIONS
-------------------------------------------
   0 Au:    0.116312   -0.054557
   1 Au:    0.083043   -0.047751
   2 Au:    0.067288   -0.049439
   3 Au:   -0.063062   -0.069529
   4 Au:    0.052196   -0.000163
   5 Au:    0.018264   -0.091348
   6 Au:    0.081897   -0.037899
   7 Au:    0.083266   -0.047764
   8 Au:    0.116394   -0.054843
   9 Au:   -0.063489   -0.069698
  10 Au:    0.085618   -0.036734
  11 Au:    0.109925   -0.172382
  12 Au:    0.052141   -0.000327
  13 Au:   -0.080144   -0.024286
  14 Au:    0.067794   -0.049561
  15 Au:   -0.107720   -0.015847
  16 Fe:   -0.619724    2.822129

  Mayer bond orders larger than 0.100000
B(  0-Au,  1-Au) :   0.2233 B(  0-Au,  3-Au) :   0.2286 B(  0-Au,  5-Au) :   0.2031
B(  0-Au, 16-Fe) :   0.4759 B(  1-Au,  2-Au) :   0.2501 B(  1-Au,  6-Au) :   0.1921
B(  1-Au,  7-Au) :   0.1875 B(  1-Au, 16-Fe) :   0.4634 B(  2-Au,  3-Au) :   0.2462
B(  2-Au,  4-Au) :   0.3420 B(  2-Au, 15-Au) :   0.2061 B(  2-Au, 16-Fe) :   0.4613
B(  3-Au,  4-Au) :   0.3267 B(  3-Au,  5-Au) :   0.2158 B(  3-Au,  9-Au) :   0.1783
B(  3-Au, 11-Au) :   0.2703 B(  3-Au, 13-Au) :   0.3141 B(  3-Au, 16-Fe) :   0.4437
B(  4-Au, 10-Au) :   0.1812 B(  4-Au, 13-Au) :   0.1815 B(  4-Au, 15-Au) :   0.2407
B(  5-Au,  8-Au) :   0.2034 B(  5-Au,  9-Au) :   0.2153 B(  5-Au, 11-Au) :   0.2362
B(  5-Au, 16-Fe) :   0.2722 B(  6-Au,  7-Au) :   0.1928 B(  6-Au, 15-Au) :   0.4615
B(  6-Au, 16-Fe) :   0.3164 B(  7-Au,  8-Au) :   0.2226 B(  7-Au, 14-Au) :   0.2485
B(  7-Au, 16-Fe) :   0.4643 B(  8-Au,  9-Au) :   0.2275 B(  8-Au, 16-Fe) :   0.4760
B(  9-Au, 11-Au) :   0.2735 B(  9-Au, 12-Au) :   0.3257 B(  9-Au, 13-Au) :   0.3148
B(  9-Au, 14-Au) :   0.2481 B(  9-Au, 16-Fe) :   0.4441 B( 10-Au, 12-Au) :   0.1814
B( 10-Au, 13-Au) :   0.2576 B( 10-Au, 15-Au) :   0.3897 B( 11-Au, 13-Au) :   0.4148
B( 11-Au, 16-Fe) :   0.1238 B( 12-Au, 13-Au) :   0.1812 B( 12-Au, 14-Au) :   0.3421
B( 12-Au, 15-Au) :   0.2422 B( 13-Au, 15-Au) :   0.2511 B( 14-Au, 15-Au) :   0.2024
B( 14-Au, 16-Fe) :   0.4622 B( 15-Au, 16-Fe) :   0.3737

FINAL SINGLE POINT ENERGY     -3436.735303837908

DIPOLE MOMENT
-------------
                                X             Y             Z
Electronic contribution:     13.10619      26.89220     -33.15231
Nuclear contribution   :    -13.17855     -27.02548      33.31843
                        -----------------------------------------
Total Dipole Moment    :     -0.07236      -0.13327       0.16612
                        -----------------------------------------
Magnitude (a.u.)       :      0.22493
Magnitude (Debye)      :      0.57173

Rotational constants in cm-1:     0.000973     0.000783     0.000700
Rotational constants in MHz :    29.169773    23.488234    20.979870

                             ****ORCA TERMINATED NORMALLY****
TOTAL RUN TIME: 0 days 9 hours 38 minutes 50 seconds 890 msec
