                         Program Version 5.0.3 -  RELEASE  -
|  1> !CASSCF def2-TZVP def2-TZVP/C
|  2> !MOREAD RIJCOSX
|  3> %maxcore 6000
|  4> %moinp "pbe.qro"
|  5> %pal nprocs 2 end
|  6>
|  7> %casscf
|  8>  mult 5,3
|  9>  bweight 1,1
| 10>  nroots 5,45
| 11>  nel 6
| 12>  norb 5
| 13> end
| 14>
| 15>
| 16> *xyzfile 0 5 pbe.xyz
| 17>
| 18>
| 19>                          ****END OF INPUT****

CARTESIAN COORDINATES (ANGSTROEM)
---------------------------------
  Au     9.469189    6.722900    7.599332
  Au     9.107276    8.813688    9.398724
  Au     7.576726    6.545178    9.732245
  Au     5.248935    7.992222    9.739580
  Au     5.379125    5.638713    8.234522
  Au     6.739793   10.153774    8.817701
  Au     4.543889    9.213872    7.306692
  Au     6.508306    9.508077    5.279159
  Au     8.809817    9.809804    6.771544
  Au     4.889408    7.347146    5.363117
  Au     7.512275    5.358194    6.322504
  Au     8.517758    7.615280    5.000461
  Au     6.644168    6.008626    3.720563
  Au     4.933125    4.624011    5.738766
  Cr     6.950680    7.841657    7.436078

 Total Charge           Charge          ....    0
 Multiplicity           Mult            ....    5
 Number of Electrons    NEL             ....  290
 Basis Dimension        Dim             ....  605

ORBITAL ENERGIES
----------------

  NO   OCC          E(Eh)            E(eV)
   0   2.0000    -220.504704     -6000.2381
   1   2.0000     -26.342985      -716.8291
   2   2.0000     -22.277075      -606.1900
   3   2.0000     -22.276175      -606.1655
   4   2.0000     -22.262914      -605.8047
   5   2.0000      -4.722520      -128.5063
   6   2.0000      -4.716907      -128.3536
   7   2.0000      -4.714098      -128.2771
   8   2.0000      -4.713423      -128.2587
   9   2.0000      -4.711645      -128.2104
  10   2.0000      -4.710940      -128.1912
  11   2.0000      -4.710256      -128.1726
  12   2.0000      -4.710184      -128.1706
  13   2.0000      -4.707234      -128.0904
  14   2.0000      -4.705294      -128.0376
  15   2.0000      -4.705230      -128.0358
  16   2.0000      -4.705114      -128.0327
  17   2.0000      -4.705036      -128.0305
  18   2.0000      -4.695793      -127.7790
  19   2.0000      -3.397626       -92.4541
  20   2.0000      -2.762758       -75.1785
  21   2.0000      -2.758620       -75.0659
  22   2.0000      -2.758063       -75.0507
  23   2.0000      -2.755963       -74.9936
  24   2.0000      -2.755193       -74.9726
  25   2.0000      -2.753302       -74.9212
  26   2.0000      -2.752400       -74.8966
  27   2.0000      -2.752374       -74.8959
  28   2.0000      -2.751809       -74.8805
  29   2.0000      -2.751044       -74.8597
  30   2.0000      -2.750162       -74.8357
  31   2.0000      -2.749684       -74.8227
  32   2.0000      -2.749445       -74.8162
  33   2.0000      -2.748682       -74.7954
  34   2.0000      -2.748569       -74.7924
  35   2.0000      -2.747949       -74.7755
  36   2.0000      -2.747517       -74.7637
  37   2.0000      -2.747131       -74.7532
  38   2.0000      -2.746498       -74.7360
  39   2.0000      -2.745994       -74.7223
  40   2.0000      -2.745536       -74.7098
  41   2.0000      -2.745354       -74.7049
  42   2.0000      -2.744311       -74.6765
  43   2.0000      -2.743890       -74.6650
  44   2.0000      -2.743428       -74.6525
  45   2.0000      -2.742846       -74.6366
  46   2.0000      -2.742284       -74.6213
  47   2.0000      -2.742259       -74.6207
  48   2.0000      -2.741268       -74.5937
  49   2.0000      -2.740943       -74.5849
  50   2.0000      -2.740473       -74.5721
  51   2.0000      -2.740318       -74.5678
  52   2.0000      -2.739717       -74.5515
  53   2.0000      -2.739253       -74.5389
  54   2.0000      -2.738937       -74.5303
  55   2.0000      -2.738626       -74.5218
  56   2.0000      -2.738008       -74.5050
  57   2.0000      -2.737962       -74.5037
  58   2.0000      -2.737612       -74.4942
  59   2.0000      -2.732247       -74.3482
  60   2.0000      -2.731069       -74.3162
  61   2.0000      -2.730011       -74.2874
  62   2.0000      -2.163282       -58.8659
  63   2.0000      -2.162143       -58.8349
  64   2.0000      -2.150734       -58.5244
  65   2.0000      -0.558392       -15.1946
  66   2.0000      -0.554604       -15.0915
  67   2.0000      -0.551451       -15.0058
  68   2.0000      -0.550757       -14.9868
  69   2.0000      -0.547551       -14.8996
  70   2.0000      -0.547006       -14.8848
  71   2.0000      -0.543628       -14.7929
  72   2.0000      -0.541409       -14.7325
  73   2.0000      -0.537924       -14.6377
  74   2.0000      -0.535050       -14.5595
  75   2.0000      -0.533562       -14.5189
  76   2.0000      -0.532895       -14.5008
  77   2.0000      -0.529860       -14.4182
  78   2.0000      -0.528934       -14.3930
  79   2.0000      -0.527253       -14.3473
  80   2.0000      -0.525519       -14.3001
  81   2.0000      -0.525236       -14.2924
  82   2.0000      -0.523537       -14.2462
  83   2.0000      -0.520196       -14.1553
  84   2.0000      -0.517176       -14.0731
  85   2.0000      -0.516013       -14.0414
  86   2.0000      -0.515312       -14.0224
  87   2.0000      -0.511442       -13.9171
  88   2.0000      -0.507191       -13.8014
  89   2.0000      -0.505620       -13.7586
  90   2.0000      -0.502982       -13.6868
  91   2.0000      -0.501553       -13.6479
  92   2.0000      -0.498222       -13.5573
  93   2.0000      -0.494804       -13.4643
  94   2.0000      -0.490391       -13.3442
  95   2.0000      -0.488878       -13.3030
  96   2.0000      -0.484812       -13.1924
  97   2.0000      -0.482822       -13.1383
  98   2.0000      -0.477097       -12.9825
  99   2.0000      -0.474027       -12.8989
 100   2.0000      -0.473674       -12.8893
 101   2.0000      -0.470451       -12.8016
 102   2.0000      -0.468071       -12.7369
 103   2.0000      -0.466432       -12.6923
 104   2.0000      -0.463535       -12.6134
 105   2.0000      -0.463181       -12.6038
 106   2.0000      -0.458884       -12.4869
 107   2.0000      -0.457548       -12.4505
 108   2.0000      -0.454386       -12.3645
 109   2.0000      -0.453278       -12.3343
 110   2.0000      -0.452579       -12.3153
 111   2.0000      -0.450420       -12.2565
 112   2.0000      -0.447191       -12.1687
 113   2.0000      -0.446564       -12.1516
 114   2.0000      -0.444854       -12.1051
 115   2.0000      -0.444022       -12.0825
 116   2.0000      -0.440090       -11.9755
 117   2.0000      -0.438986       -11.9454
 118   2.0000      -0.436233       -11.8705
 119   2.0000      -0.435058       -11.8385
 120   2.0000      -0.434254       -11.8167
 121   2.0000      -0.429070       -11.6756
 122   2.0000      -0.428156       -11.6507
 123   2.0000      -0.426956       -11.6181
 124   2.0000      -0.423902       -11.5350
 125   2.0000      -0.422664       -11.5013
 126   2.0000      -0.422468       -11.4959
 127   2.0000      -0.421603       -11.4724
 128   2.0000      -0.419174       -11.4063
 129   2.0000      -0.418174       -11.3791
 130   2.0000      -0.415140       -11.2965
 131   2.0000      -0.412508       -11.2249
 132   2.0000      -0.407595       -11.0912
 133   2.0000      -0.403278       -10.9738
 134   2.0000      -0.392459       -10.6794
 135   2.0000      -0.382866       -10.4183
 136   2.0000      -0.371634       -10.1127
 137   2.0000      -0.341268        -9.2864
 138   2.0000      -0.335821        -9.1382
 139   2.0000      -0.255429        -6.9506
 140   2.0000      -0.237718        -6.4686
 141   2.0000      -0.232324        -6.3219
 142   1.2000      -0.163994        -4.4625
 143   1.2000      -0.117833        -3.2064
 144   1.2000      -0.085965        -2.3392
 145   1.2000      -0.085460        -2.3255
 146   1.2000      -0.086476        -2.3531
 147   0.0000      -0.017815        -0.4848
 148   0.0000      -0.013072        -0.3557
 149   0.0000      -0.002472        -0.0673
 150   0.0000       0.002599         0.0707
 151   0.0000       0.016863         0.4589

MULLIKEN ATOMIC CHARGES AND SPIN DENSITIES
------------------------------------------
   0 Au:    0.561049    0.017034
   1 Au:    0.514808    0.016562
   2 Au:    0.542825    0.039678
   3 Au:    0.560446    0.031309
   4 Au:    0.220767    0.019706
   5 Au:    0.531307    0.006760
   6 Au:    0.559087    0.015269
   7 Au:    0.686736    0.009084
   8 Au:    0.490551    0.009706
   9 Au:   -0.008903    0.022840
  10 Au:    0.178630    0.031238
  11 Au:    0.279992    0.024230
  12 Au:    0.276483    0.038228
  13 Au:    0.389497    0.015799
  14 Cr:   -5.783276    2.702558
Sum of atomic charges       :    0.0000000

LOEWDIN ATOMIC CHARGES AND SPIN DENSITIES
-----------------------------------------
   0 Au:    0.137100    0.056823
   1 Au:    0.124216    0.026676
   2 Au:    0.104039    0.068185
   3 Au:    0.136905    0.065790
   4 Au:    0.067061    0.047313
   5 Au:    0.113910    0.042004
   6 Au:    0.138030    0.050345
   7 Au:    0.107878    0.040822
   8 Au:    0.115426    0.027305
   9 Au:   -0.019950    0.037315
  10 Au:   -0.000017    0.058711
  11 Au:    0.054122    0.054245
  12 Au:    0.100916    0.040613
  13 Au:    0.139793    0.020529
  14 Cr:   -1.319431    2.363325

  Mayer bond orders larger than 0.100000
B(  0-Au,  1-Au) :   0.1634 B(  0-Au,  2-Au) :   0.1090 B(  0-Au,  6-Au) :   0.1267
B(  0-Au, 10-Au) :   0.1582 B(  0-Au, 11-Au) :   0.1011 B(  0-Au, 14-Cr) :   0.3045
B(  1-Au,  2-Au) :   0.1580 B(  1-Au,  5-Au) :   0.1412 B(  1-Au,  8-Au) :   0.1411
B(  1-Au, 14-Cr) :   0.3497 B(  2-Au,  3-Au) :   0.1439 B(  2-Au,  4-Au) :   0.1383
B(  2-Au,  7-Au) :   0.1676 B(  2-Au, 14-Cr) :   0.2189 B(  3-Au,  4-Au) :   0.1569
B(  3-Au,  5-Au) :   0.1355 B(  3-Au,  6-Au) :   0.1245 B(  3-Au, 14-Cr) :   0.3307
B(  4-Au, 10-Au) :   0.1601 B(  4-Au, 13-Au) :   0.2566 B(  4-Au, 14-Cr) :   0.4611
B(  5-Au,  6-Au) :   0.1208 B(  5-Au,  8-Au) :   0.1189 B(  5-Au, 10-Au) :   0.1512
B(  5-Au, 14-Cr) :   0.2342 B(  6-Au,  7-Au) :   0.1028 B(  6-Au,  9-Au) :   0.2127
B(  6-Au, 14-Cr) :   0.3187 B(  7-Au,  8-Au) :   0.1379 B(  7-Au,  9-Au) :   0.1771
B(  7-Au, 11-Au) :   0.1121 B(  7-Au, 14-Cr) :   0.2227 B(  8-Au, 11-Au) :   0.1527
B(  8-Au, 14-Cr) :   0.3992 B(  9-Au, 10-Au) :   0.1553 B(  9-Au, 12-Au) :   0.2344
B(  9-Au, 13-Au) :   0.1920 B(  9-Au, 14-Cr) :   0.4372 B( 10-Au, 11-Au) :   0.1746
B( 10-Au, 12-Au) :   0.1980 B( 10-Au, 13-Au) :   0.2607 B( 10-Au, 14-Cr) :   0.3295
B( 11-Au, 12-Au) :   0.2458 B( 11-Au, 14-Cr) :   0.4159 B( 12-Au, 14-Cr) :   0.3577
B( 13-Au, 14-Cr) :   0.3792

FINAL SINGLE POINT ENERGY     -2930.503687263089

DIPOLE MOMENT
-------------
                                X             Y             Z
Electronic contribution:     -3.57556     -11.09700     -12.52504
Nuclear contribution   :      3.59583      11.14589      12.77682
                        -----------------------------------------
Total Dipole Moment    :      0.02028       0.04890       0.25178
                        -----------------------------------------
Magnitude (a.u.)       :      0.25729
Magnitude (Debye)      :      0.65397

Rotational constants in cm-1:     0.001250     0.000948     0.000895
Rotational constants in MHz :    37.485101    28.412728    26.840706

                             ****ORCA TERMINATED NORMALLY****
TOTAL RUN TIME: 0 days 2 hours 16 minutes 20 seconds 974 msec
