                         Program Version 5.0.3 -  RELEASE  -
|  1> !CASSCF def2-TZVP def2-TZVP/C
|  2> !MOREAD RIJCOSX
|  3> %maxcore 6000
|  4> %moinp "pbe.qro"
|  5> %pal nprocs 16 end
|  6>
|  7> %casscf
|  8>  mult 6,4
|  9>  bweight 1,1
| 10>  nroots 1,24
| 11>  nel 5
| 12>  norb 5
| 13> end
| 14>
| 15>
| 16> *xyzfile 0 6 pbe.xyz
| 17>
| 18>
| 19>                          ****END OF INPUT****

CARTESIAN COORDINATES (ANGSTROEM)
---------------------------------
  Au     7.417110    9.258081   11.010102
  Au     9.609528    7.826416   10.099715
  Au     6.890647    6.887966    9.812046
  Au     9.910898    7.518022    7.398954
  Au     7.879064    5.601272    7.585409
  Au     5.258956    6.269961    7.672617
  Au     6.363091   10.608970    8.504176
  Au     8.927729    9.988193    8.490614
  Au     8.259902    7.075855    5.213766
  Au     4.832975    8.916559   10.096035
  Au     4.333225    8.888456    7.409754
  Au     5.596092    7.692673    5.247413
  Mn     7.148356    8.276394    7.407525

 Total Charge           Charge          ....    0
 Multiplicity           Mult            ....    6
 Number of Electrons    NEL             ....  253
 Basis Dimension        Dim             ....  525

ORBITAL ENERGIES
----------------

  NO   OCC          E(Eh)            E(eV)
   0   2.0000    -240.559788     -6545.9646
   1   2.0000     -29.135118      -792.8069
   2   2.0000     -24.840416      -675.9421
   3   2.0000     -24.839892      -675.9278
   4   2.0000     -24.839461      -675.9161
   5   2.0000      -4.728155      -128.6596
   6   2.0000      -4.725632      -128.5910
   7   2.0000      -4.725181      -128.5787
   8   2.0000      -4.714827      -128.2970
   9   2.0000      -4.714312      -128.2830
  10   2.0000      -4.711365      -128.2028
  11   2.0000      -4.710842      -128.1885
  12   2.0000      -4.709026      -128.1391
  13   2.0000      -4.708585      -128.1271
  14   2.0000      -4.704257      -128.0094
  15   2.0000      -4.704033      -128.0032
  16   2.0000      -4.703905      -127.9998
  17   2.0000      -3.840199      -104.4971
  18   2.0000      -2.769497       -75.3619
  19   2.0000      -2.764864       -75.2358
  20   2.0000      -2.764598       -75.2285
  21   2.0000      -2.764281       -75.2199
  22   2.0000      -2.762940       -75.1834
  23   2.0000      -2.762613       -75.1745
  24   2.0000      -2.759454       -75.0886
  25   2.0000      -2.759082       -75.0784
  26   2.0000      -2.757832       -75.0444
  27   2.0000      -2.756302       -75.0028
  28   2.0000      -2.752056       -74.8872
  29   2.0000      -2.751644       -74.8761
  30   2.0000      -2.749178       -74.8089
  31   2.0000      -2.749014       -74.8045
  32   2.0000      -2.748811       -74.7990
  33   2.0000      -2.748244       -74.7835
  34   2.0000      -2.747721       -74.7693
  35   2.0000      -2.747679       -74.7682
  36   2.0000      -2.746922       -74.7475
  37   2.0000      -2.745891       -74.7195
  38   2.0000      -2.744802       -74.6898
  39   2.0000      -2.744390       -74.6786
  40   2.0000      -2.743698       -74.6598
  41   2.0000      -2.743591       -74.6569
  42   2.0000      -2.743457       -74.6533
  43   2.0000      -2.742346       -74.6230
  44   2.0000      -2.741519       -74.6005
  45   2.0000      -2.740983       -74.5859
  46   2.0000      -2.739878       -74.5559
  47   2.0000      -2.739521       -74.5462
  48   2.0000      -2.738931       -74.5301
  49   2.0000      -2.738799       -74.5265
  50   2.0000      -2.738591       -74.5209
  51   2.0000      -2.738201       -74.5102
  52   2.0000      -2.737259       -74.4846
  53   2.0000      -2.736368       -74.4603
  54   2.0000      -2.508360       -68.2560
  55   2.0000      -2.508128       -68.2496
  56   2.0000      -2.507597       -68.2352
  57   2.0000      -0.573277       -15.5996
  58   2.0000      -0.567214       -15.4347
  59   2.0000      -0.553270       -15.0553
  60   2.0000      -0.552350       -15.0302
  61   2.0000      -0.545844       -14.8532
  62   2.0000      -0.544712       -14.8224
  63   2.0000      -0.544650       -14.8207
  64   2.0000      -0.540926       -14.7194
  65   2.0000      -0.540574       -14.7098
  66   2.0000      -0.538071       -14.6416
  67   2.0000      -0.536256       -14.5923
  68   2.0000      -0.530985       -14.4488
  69   2.0000      -0.529643       -14.4123
  70   2.0000      -0.526398       -14.3240
  71   2.0000      -0.525263       -14.2931
  72   2.0000      -0.519385       -14.1332
  73   2.0000      -0.517033       -14.0692
  74   2.0000      -0.516428       -14.0527
  75   2.0000      -0.512981       -13.9589
  76   2.0000      -0.512101       -13.9350
  77   2.0000      -0.509270       -13.8579
  78   2.0000      -0.507445       -13.8083
  79   2.0000      -0.506928       -13.7942
  80   2.0000      -0.503863       -13.7108
  81   2.0000      -0.499322       -13.5873
  82   2.0000      -0.494113       -13.4455
  83   2.0000      -0.490301       -13.3418
  84   2.0000      -0.489564       -13.3217
  85   2.0000      -0.482703       -13.1350
  86   2.0000      -0.479370       -13.0443
  87   2.0000      -0.476306       -12.9609
  88   2.0000      -0.475007       -12.9256
  89   2.0000      -0.473427       -12.8826
  90   2.0000      -0.471595       -12.8328
  91   2.0000      -0.467058       -12.7093
  92   2.0000      -0.465929       -12.6786
  93   2.0000      -0.460075       -12.5193
  94   2.0000      -0.457571       -12.4511
  95   2.0000      -0.456534       -12.4229
  96   2.0000      -0.455413       -12.3924
  97   2.0000      -0.452505       -12.3133
  98   2.0000      -0.451563       -12.2877
  99   2.0000      -0.447910       -12.1882
 100   2.0000      -0.446206       -12.1419
 101   2.0000      -0.443973       -12.0811
 102   2.0000      -0.441856       -12.0235
 103   2.0000      -0.440169       -11.9776
 104   2.0000      -0.436985       -11.8910
 105   2.0000      -0.434561       -11.8250
 106   2.0000      -0.433692       -11.8014
 107   2.0000      -0.429634       -11.6909
 108   2.0000      -0.425988       -11.5917
 109   2.0000      -0.423807       -11.5324
 110   2.0000      -0.423315       -11.5190
 111   2.0000      -0.421717       -11.4755
 112   2.0000      -0.419289       -11.4094
 113   2.0000      -0.417870       -11.3708
 114   2.0000      -0.415981       -11.3194
 115   2.0000      -0.407202       -11.0805
 116   2.0000      -0.400851       -10.9077
 117   2.0000      -0.390886       -10.6365
 118   2.0000      -0.366928        -9.9846
 119   2.0000      -0.352798        -9.6001
 120   2.0000      -0.305612        -8.3161
 121   2.0000      -0.244950        -6.6654
 122   2.0000      -0.239442        -6.5155
 123   2.0000      -0.227978        -6.2036
 124   1.0000      -0.164031        -4.4635
 125   1.0000      -0.156379        -4.2553
 126   1.0000      -0.152934        -4.1616
 127   1.0000      -0.159016        -4.3270
 128   1.0000      -0.155786        -4.2391
 129   0.0000      -0.035190        -0.9576
 130   0.0000      -0.026981        -0.7342
 131   0.0000      -0.006555        -0.1784
 132   0.0000       0.003763         0.1024
 133   0.0000       0.006186         0.1683

MULLIKEN ATOMIC CHARGES AND SPIN DENSITIES
------------------------------------------
   0 Au:    0.090419    0.004350
   1 Au:    0.187855    0.005298
   2 Au:   -0.278927    0.007948
   3 Au:    0.037879    0.008679
   4 Au:    0.252903    0.007086
   5 Au:    0.242835    0.007293
   6 Au:    0.115865    0.010157
   7 Au:    0.109742    0.010213
   8 Au:    0.193044    0.010049
   9 Au:    0.155200    0.005366
  10 Au:    0.076753    0.008328
  11 Au:    0.181757    0.010320
  12 Mn:   -1.365326    3.904913
Sum of atomic charges       :    0.0000000

LOEWDIN ATOMIC CHARGES AND SPIN DENSITIES
-----------------------------------------
   0 Au:   -0.016515    0.005570
   1 Au:    0.031046    0.006140
   2 Au:   -0.056654    0.012214
   3 Au:   -0.019932    0.012444
   4 Au:    0.034822    0.009907
   5 Au:    0.031336    0.010134
   6 Au:    0.003523    0.013982
   7 Au:   -0.001311    0.014020
   8 Au:    0.043267    0.013579
   9 Au:    0.019136    0.006340
  10 Au:   -0.010188    0.012062
  11 Au:    0.038809    0.013862
  12 Mn:   -0.097341    3.869746

  Mayer bond orders larger than 0.100000
B(  0-Au,  1-Au) :   0.2493 B(  0-Au,  2-Au) :   0.4850 B(  0-Au,  7-Au) :   0.1001
B(  0-Au,  9-Au) :   0.2644 B(  0-Au, 12-Mn) :   0.1349 B(  1-Au,  2-Au) :   0.2002
B(  1-Au,  3-Au) :   0.3518 B(  1-Au,  7-Au) :   0.2215 B(  1-Au, 12-Mn) :   0.1306
B(  2-Au,  4-Au) :   0.3387 B(  2-Au,  5-Au) :   0.3383 B(  2-Au,  9-Au) :   0.1930
B(  2-Au, 12-Mn) :   0.2993 B(  3-Au,  4-Au) :   0.1909 B(  3-Au,  7-Au) :   0.1272
B(  3-Au,  8-Au) :   0.2346 B(  3-Au, 12-Mn) :   0.3893 B(  4-Au,  5-Au) :   0.2698
B(  4-Au,  8-Au) :   0.1676 B(  4-Au, 12-Mn) :   0.3752 B(  5-Au, 10-Au) :   0.1983
B(  5-Au, 11-Au) :   0.1601 B(  5-Au, 12-Mn) :   0.3771 B(  6-Au,  7-Au) :   0.4197
B(  6-Au,  9-Au) :   0.2185 B(  6-Au, 10-Au) :   0.1233 B(  6-Au, 12-Mn) :   0.4875
B(  7-Au, 12-Mn) :   0.4814 B(  8-Au, 11-Au) :   0.2555 B(  8-Au, 12-Mn) :   0.4446
B(  9-Au, 10-Au) :   0.3571 B(  9-Au, 12-Mn) :   0.1480 B( 10-Au, 11-Au) :   0.2183
B( 10-Au, 12-Mn) :   0.3749 B( 11-Au, 12-Mn) :   0.4630

FINAL SINGLE POINT ENERGY     -2767.533423484049

DIPOLE MOMENT
-------------
                                X             Y             Z
Electronic contribution:     -1.61211      -8.82204      29.14369
Nuclear contribution   :      1.51912       8.44168     -29.25852
                        -----------------------------------------
Total Dipole Moment    :     -0.09299      -0.38036      -0.11483
                        -----------------------------------------
Magnitude (a.u.)       :      0.40806
Magnitude (Debye)      :      1.03719

Rotational constants in cm-1:     0.001478     0.001380     0.001033
Rotational constants in MHz :    44.305732    41.361868    30.974659

                             ****ORCA TERMINATED NORMALLY****
TOTAL RUN TIME: 0 days 0 hours 15 minutes 52 seconds 803 msec
