                         Program Version 5.0.3 -  RELEASE  -
|  1> %pal nprocs 1 end
|  2>
|  3> !PBE def2-TZVP OPT UNO
|  4> !SLOWCONV KDIIS
|  5>
|  6> %geom maxiter 300 end
|  7>
|  8> *xyzfile 0 3 1.xyz
|  9>
| 10>                          ****END OF INPUT****
 Total Charge           Charge          ....    0
 Multiplicity           Mult            ....    3
 Number of Electrons    NEL             ....  216
FINAL SINGLE POINT ENERGY     -2621.726649410092
FINAL SINGLE POINT ENERGY     -2621.727039198503
FINAL SINGLE POINT ENERGY     -2621.727312298421
FINAL SINGLE POINT ENERGY     -2621.727595882062
FINAL SINGLE POINT ENERGY     -2621.727697682793
FINAL SINGLE POINT ENERGY     -2621.727769782222
FINAL SINGLE POINT ENERGY     -2621.727793137689
FINAL SINGLE POINT ENERGY     -2621.727809196853
FINAL SINGLE POINT ENERGY     -2621.727819566165
FINAL SINGLE POINT ENERGY     -2621.727823912991
                    ***********************HURRAY********************

CARTESIAN COORDINATES (ANGSTROEM)
---------------------------------
  Au     7.434561    6.602640    6.471896
  Au     8.101300    9.139070    6.876856
  Au     6.046342    4.238871    6.544525
  Au     6.406096    5.497567    8.951324
  Au     4.482509    6.485011    6.897768
  Au     5.930557   10.688833    7.735827
  Au     6.465513    7.380443   10.819109
  Au     7.748461    9.612338    9.646551
  Au     4.934744    9.617670   10.116784
  Au     3.691781    8.922911    7.642558
  Fe     6.104069    8.048625    8.263127

 Multiplicity           Mult            ....    3
 Number of Electrons    NEL             ....  216
 Basis Dimension        Dim             ....  445

ORBITAL ENERGIES
----------------
                 SPIN UP ORBITALS
  NO   OCC          E(Eh)            E(eV)
   0   1.0000    -254.744333     -6931.9457
   1   1.0000     -29.581894      -804.9643
   2   1.0000     -25.527213      -694.6308
   3   1.0000     -25.513750      -694.2644
   4   1.0000     -25.511917      -694.2146
   5   1.0000      -4.022668      -109.4624
   6   1.0000      -4.021903      -109.4415
   7   1.0000      -4.021834      -109.4397
   8   1.0000      -4.020337      -109.3989
   9   1.0000      -4.020207      -109.3954
  10   1.0000      -4.019691      -109.3814
  11   1.0000      -4.017391      -109.3188
  12   1.0000      -4.016523      -109.2951
  13   1.0000      -4.016429      -109.2926
  14   1.0000      -4.015326      -109.2626
  15   1.0000      -3.357231       -91.3549
  16   1.0000      -2.241338       -60.9899
  17   1.0000      -2.240792       -60.9750
  18   1.0000      -2.240397       -60.9643
  19   1.0000      -2.238556       -60.9142
  20   1.0000      -2.237866       -60.8954
  21   1.0000      -2.236786       -60.8660
  22   1.0000      -2.236232       -60.8510
  23   1.0000      -2.236149       -60.8487
  24   1.0000      -2.235903       -60.8420
  25   1.0000      -2.234539       -60.8049
  26   1.0000      -2.234078       -60.7923
  27   1.0000      -2.233367       -60.7730
  28   1.0000      -2.232893       -60.7601
  29   1.0000      -2.231818       -60.7309
  30   1.0000      -2.231633       -60.7258
  31   1.0000      -2.231295       -60.7166
  32   1.0000      -2.230594       -60.6976
  33   1.0000      -2.230420       -60.6928
  34   1.0000      -2.230122       -60.6847
  35   1.0000      -2.229294       -60.6622
  36   1.0000      -2.229063       -60.6559
  37   1.0000      -2.229052       -60.6556
  38   1.0000      -2.228532       -60.6415
  39   1.0000      -2.228364       -60.6369
  40   1.0000      -2.227965       -60.6260
  41   1.0000      -2.227655       -60.6176
  42   1.0000      -2.227610       -60.6163
  43   1.0000      -2.224731       -60.5380
  44   1.0000      -2.224658       -60.5360
  45   1.0000      -2.224259       -60.5252
  46   1.0000      -2.190336       -59.6021
  47   1.0000      -2.163094       -58.8608
  48   1.0000      -2.159398       -58.7602
  49   1.0000      -0.414081       -11.2677
  50   1.0000      -0.384399       -10.4600
  51   1.0000      -0.364372        -9.9151
  52   1.0000      -0.361804        -9.8452
  53   1.0000      -0.361046        -9.8246
  54   1.0000      -0.358165        -9.7462
  55   1.0000      -0.357529        -9.7289
  56   1.0000      -0.355539        -9.6747
  57   1.0000      -0.338065        -9.1992
  58   1.0000      -0.333887        -9.0855
  59   1.0000      -0.332979        -9.0608
  60   1.0000      -0.327067        -8.8999
  61   1.0000      -0.326398        -8.8817
  62   1.0000      -0.325135        -8.8474
  63   1.0000      -0.322622        -8.7790
  64   1.0000      -0.318644        -8.6708
  65   1.0000      -0.318157        -8.6575
  66   1.0000      -0.317853        -8.6492
  67   1.0000      -0.313637        -8.5345
  68   1.0000      -0.313196        -8.5225
  69   1.0000      -0.311390        -8.4734
  70   1.0000      -0.311349        -8.4722
  71   1.0000      -0.301592        -8.2067
  72   1.0000      -0.300041        -8.1645
  73   1.0000      -0.296801        -8.0764
  74   1.0000      -0.289807        -7.8861
  75   1.0000      -0.286241        -7.7890
  76   1.0000      -0.285085        -7.7575
  77   1.0000      -0.284075        -7.7301
  78   1.0000      -0.279049        -7.5933
  79   1.0000      -0.277910        -7.5623
  80   1.0000      -0.274986        -7.4828
  81   1.0000      -0.273649        -7.4464
  82   1.0000      -0.271924        -7.3994
  83   1.0000      -0.271788        -7.3957
  84   1.0000      -0.271655        -7.3921
  85   1.0000      -0.267631        -7.2826
  86   1.0000      -0.266313        -7.2467
  87   1.0000      -0.264457        -7.1963
  88   1.0000      -0.260993        -7.1020
  89   1.0000      -0.258988        -7.0474
  90   1.0000      -0.258423        -7.0320
  91   1.0000      -0.258305        -7.0288
  92   1.0000      -0.254282        -6.9194
  93   1.0000      -0.254150        -6.9158
  94   1.0000      -0.250870        -6.8265
  95   1.0000      -0.250405        -6.8139
  96   1.0000      -0.249308        -6.7840
  97   1.0000      -0.245067        -6.6686
  98   1.0000      -0.242925        -6.6103
  99   1.0000      -0.242498        -6.5987
 100   1.0000      -0.238946        -6.5020
 101   1.0000      -0.237642        -6.4666
 102   1.0000      -0.236407        -6.4330
 103   1.0000      -0.233747        -6.3606
 104   1.0000      -0.231729        -6.3057
 105   1.0000      -0.231504        -6.2995
 106   1.0000      -0.226717        -6.1693
 107   1.0000      -0.218099        -5.9348
 108   1.0000      -0.199680        -5.4336
 109   0.0000      -0.170153        -4.6301
 110   0.0000      -0.169526        -4.6130
 111   0.0000      -0.133229        -3.6254
 112   0.0000      -0.131442        -3.5767
 113   0.0000      -0.126598        -3.4449

                 SPIN DOWN ORBITALS
  NO   OCC          E(Eh)            E(eV)
   0   1.0000    -254.743668     -6931.9276
   1   1.0000     -29.527248      -803.4773
   2   1.0000     -25.482006      -693.4006
   3   1.0000     -25.474010      -693.1831
   4   1.0000     -25.473050      -693.1569
   5   1.0000      -4.022138      -109.4479
   6   1.0000      -4.021643      -109.4345
   7   1.0000      -4.021574      -109.4326
   8   1.0000      -4.020418      -109.4011
   9   1.0000      -4.020288      -109.3976
  10   1.0000      -4.019823      -109.3849
  11   1.0000      -4.018266      -109.3426
  12   1.0000      -4.016671      -109.2992
  13   1.0000      -4.016571      -109.2965
  14   1.0000      -4.015379      -109.2640
  15   1.0000      -3.233350       -87.9839
  16   1.0000      -2.241020       -60.9813
  17   1.0000      -2.239900       -60.9508
  18   1.0000      -2.239839       -60.9491
  19   1.0000      -2.237722       -60.8915
  20   1.0000      -2.237523       -60.8861
  21   1.0000      -2.236216       -60.8505
  22   1.0000      -2.236054       -60.8461
  23   1.0000      -2.235869       -60.8411
  24   1.0000      -2.235447       -60.8296
  25   1.0000      -2.234589       -60.8063
  26   1.0000      -2.234213       -60.7960
  27   1.0000      -2.234103       -60.7930
  28   1.0000      -2.233314       -60.7716
  29   1.0000      -2.231617       -60.7254
  30   1.0000      -2.231400       -60.7195
  31   1.0000      -2.231233       -60.7149
  32   1.0000      -2.230616       -60.6982
  33   1.0000      -2.230500       -60.6950
  34   1.0000      -2.230258       -60.6884
  35   1.0000      -2.229436       -60.6660
  36   1.0000      -2.229287       -60.6620
  37   1.0000      -2.229031       -60.6550
  38   1.0000      -2.228873       -60.6507
  39   1.0000      -2.228635       -60.6442
  40   1.0000      -2.228602       -60.6433
  41   1.0000      -2.228526       -60.6413
  42   1.0000      -2.227951       -60.6256
  43   1.0000      -2.225177       -60.5502
  44   1.0000      -2.225088       -60.5477
  45   1.0000      -2.224253       -60.5250
  46   1.0000      -2.057797       -55.9955
  47   1.0000      -2.046250       -55.6813
  48   1.0000      -2.045105       -55.6501
  49   1.0000      -0.409859       -11.1528
  50   1.0000      -0.385306       -10.4847
  51   1.0000      -0.360476        -9.8090
  52   1.0000      -0.359982        -9.7956
  53   1.0000      -0.355754        -9.6806
  54   1.0000      -0.354622        -9.6498
  55   1.0000      -0.354569        -9.6483
  56   1.0000      -0.352583        -9.5943
  57   1.0000      -0.339524        -9.2389
  58   1.0000      -0.331018        -9.0075
  59   1.0000      -0.329130        -8.9561
  60   1.0000      -0.326817        -8.8932
  61   1.0000      -0.324433        -8.8283
  62   1.0000      -0.320942        -8.7333
  63   1.0000      -0.320074        -8.7097
  64   1.0000      -0.319166        -8.6849
  65   1.0000      -0.315342        -8.5809
  66   1.0000      -0.314964        -8.5706
  67   1.0000      -0.311103        -8.4655
  68   1.0000      -0.308949        -8.4069
  69   1.0000      -0.307255        -8.3608
  70   1.0000      -0.306967        -8.3530
  71   1.0000      -0.301432        -8.2024
  72   1.0000      -0.299829        -8.1588
  73   1.0000      -0.297708        -8.1010
  74   1.0000      -0.289461        -7.8766
  75   1.0000      -0.287189        -7.8148
  76   1.0000      -0.285602        -7.7716
  77   1.0000      -0.279132        -7.5956
  78   1.0000      -0.278297        -7.5728
  79   1.0000      -0.277819        -7.5598
  80   1.0000      -0.274605        -7.4724
  81   1.0000      -0.272379        -7.4118
  82   1.0000      -0.271190        -7.3795
  83   1.0000      -0.270118        -7.3503
  84   1.0000      -0.268348        -7.3021
  85   1.0000      -0.268128        -7.2961
  86   1.0000      -0.266348        -7.2477
  87   1.0000      -0.265384        -7.2215
  88   1.0000      -0.261962        -7.1283
  89   1.0000      -0.258860        -7.0439
  90   1.0000      -0.258447        -7.0327
  91   1.0000      -0.254597        -6.9279
  92   1.0000      -0.253924        -6.9096
  93   1.0000      -0.253294        -6.8925
  94   1.0000      -0.252981        -6.8840
  95   1.0000      -0.251336        -6.8392
  96   1.0000      -0.246357        -6.7037
  97   1.0000      -0.246049        -6.6953
  98   1.0000      -0.236568        -6.4373
  99   1.0000      -0.235658        -6.4126
 100   1.0000      -0.235048        -6.3960
 101   1.0000      -0.234257        -6.3745
 102   1.0000      -0.232539        -6.3277
 103   1.0000      -0.207766        -5.6536
 104   1.0000      -0.193274        -5.2592
 105   1.0000      -0.191390        -5.2080
 106   1.0000      -0.170285        -4.6337
 107   0.0000      -0.155210        -4.2235
 108   0.0000      -0.151894        -4.1332
 109   0.0000      -0.145425        -3.9572
 110   0.0000      -0.141510        -3.8507
 111   0.0000      -0.131024        -3.5653

MULLIKEN ATOMIC CHARGES AND SPIN POPULATIONS
--------------------------------------------
   0 Au:    0.065275   -0.167048
   1 Au:    0.235018   -0.014656
   2 Au:    0.343339    0.029520
   3 Au:    0.065160   -0.167184
   4 Au:    0.054830   -0.157682
   5 Au:    0.209025   -0.125265
   6 Au:    0.235543   -0.015679
   7 Au:    0.215345   -0.148902
   8 Au:    0.209532   -0.126551
   9 Au:    0.231459    0.000425
  10 Fe:   -1.864527    2.893022
Sum of atomic charges         :   -0.0000000

LOEWDIN ATOMIC CHARGES AND SPIN POPULATIONS
-------------------------------------------
   0 Au:    0.014210   -0.098776
   1 Au:    0.093722   -0.085597
   2 Au:    0.080491   -0.037889
   3 Au:    0.013430   -0.099753
   4 Au:    0.026303   -0.075516
   5 Au:    0.037117   -0.104443
   6 Au:    0.093443   -0.087182
   7 Au:    0.047079   -0.117043
   8 Au:    0.037792   -0.104983
   9 Au:    0.098756   -0.061143
  10 Fe:   -0.542343    2.872326

  Mayer bond orders larger than 0.100000
B(  0-Au,  1-Au) :   0.3884 B(  0-Au,  2-Au) :   0.3632 B(  0-Au,  3-Au) :   0.1525
B(  0-Au,  4-Au) :   0.1232 B(  0-Au, 10-Fe) :   0.6086 B(  1-Au,  5-Au) :   0.2066
B(  1-Au,  7-Au) :   0.1812 B(  1-Au,  8-Au) :   0.1010 B(  1-Au, 10-Fe) :   0.5126
B(  2-Au,  3-Au) :   0.3660 B(  2-Au,  4-Au) :   0.3382 B(  2-Au, 10-Fe) :   0.1210
B(  3-Au,  4-Au) :   0.1241 B(  3-Au,  6-Au) :   0.3895 B(  3-Au, 10-Fe) :   0.6062
B(  4-Au,  9-Au) :   0.3769 B(  4-Au, 10-Fe) :   0.6597 B(  5-Au,  6-Au) :   0.1011
B(  5-Au,  7-Au) :   0.1975 B(  5-Au,  8-Au) :   0.2479 B(  5-Au,  9-Au) :   0.1701
B(  5-Au, 10-Fe) :   0.5283 B(  6-Au,  7-Au) :   0.1833 B(  6-Au,  8-Au) :   0.2078
B(  6-Au, 10-Fe) :   0.5109 B(  7-Au,  8-Au) :   0.1942 B(  7-Au, 10-Fe) :   0.5818
B(  8-Au,  9-Au) :   0.1688 B(  8-Au, 10-Fe) :   0.5313 B(  9-Au, 10-Fe) :   0.5297

FINAL SINGLE POINT ENERGY     -2621.727825117613

DIPOLE MOMENT
-------------
                                X             Y             Z
Electronic contribution:      0.70735      -8.67261      -3.52279
Nuclear contribution   :     -0.76202       8.71534       3.51535
                        -----------------------------------------
Total Dipole Moment    :     -0.05468       0.04273      -0.00744
                        -----------------------------------------
Magnitude (a.u.)       :      0.06979
Magnitude (Debye)      :      0.17740

Rotational constants in cm-1:     0.002296     0.001381     0.001375
Rotational constants in MHz :    68.834349    41.409164    41.229294

                             ****ORCA TERMINATED NORMALLY****
TOTAL RUN TIME: 0 days 1 hours 5 minutes 23 seconds 802 msec
