                         Program Version 5.0.3 -  RELEASE  -
|  1> !PBE def2-TZVP VERYSLOWCONV
|  2>
|  3> %pal nprocs 16 end
|  4>
|  5> *xyzfile 0 5 pbe.xyz
|  6>
|  7> $new_job
|  8>
|  9> !PBE def2-TZVP VERYSLOWCONV
| 10>
| 11>
| 12> %pal nprocs 16 end
| 13>
| 14> *xyzfile 0 3 pbe.xyz
| 15>
| 16>
| 17>
| 18>
| 19>
| 20>                          ****END OF INPUT****
 Total Charge           Charge          ....    0
 Multiplicity           Mult            ....    5
 Number of Electrons    NEL             ....  292
FINAL SINGLE POINT ENERGY     -3165.076278532937

CARTESIAN COORDINATES (ANGSTROEM)
---------------------------------
  Au     7.698036   10.395998    8.651329
  Au     6.568950   10.026107    6.090403
  Au     6.899736    8.255673   10.308620
  Au     5.051799    9.502865    8.484804
  Au     9.243782    9.524036    6.510088
  Au     9.462658    8.345064    9.304271
  Au     4.842774    7.740630    6.251100
  Au     7.495042    5.599349    9.114151
  Au     5.044970    6.667613    8.801930
  Au    10.255145    5.653623    8.959514
  Au     8.754402    5.894695    6.673785
  Au     9.919812    7.440922    4.726272
  Au    11.157242    7.673831    7.234275
  Au     7.165044    7.350695    4.948235
  Fe     7.229094    7.906368    7.641625

 Multiplicity           Mult            ....    3
 Number of Electrons    NEL             ....  292
 Basis Dimension        Dim             ....  605

ORBITAL ENERGIES
----------------
                 SPIN UP ORBITALS
  NO   OCC          E(Eh)            E(eV)
   0   1.0000    -254.744475     -6931.9496
   1   1.0000     -29.578071      -804.8602
   2   1.0000     -25.523955      -694.5421
   3   1.0000     -25.511078      -694.1917
   4   1.0000     -25.506792      -694.0751
   5   1.0000      -4.034820      -109.7930
   6   1.0000      -4.031503      -109.7028
   7   1.0000      -4.031339      -109.6983
   8   1.0000      -4.031333      -109.6981
   9   1.0000      -4.031143      -109.6930
  10   1.0000      -4.030646      -109.6795
  11   1.0000      -4.030580      -109.6777
  12   1.0000      -4.029530      -109.6491
  13   1.0000      -4.024235      -109.5050
  14   1.0000      -4.024030      -109.4994
  15   1.0000      -4.019884      -109.3866
  16   1.0000      -4.019825      -109.3850
  17   1.0000      -4.019000      -109.3625
  18   1.0000      -4.014850      -109.2496
  19   1.0000      -3.355420       -91.3056
  20   1.0000      -2.249851       -61.2216
  21   1.0000      -2.249735       -61.2184
  22   1.0000      -2.249116       -61.2016
  23   1.0000      -2.248016       -61.1716
  24   1.0000      -2.247919       -61.1690
  25   1.0000      -2.247425       -61.1555
  26   1.0000      -2.246991       -61.1437
  27   1.0000      -2.246709       -61.1361
  28   1.0000      -2.246094       -61.1193
  29   1.0000      -2.246050       -61.1181
  30   1.0000      -2.245623       -61.1065
  31   1.0000      -2.244453       -61.0747
  32   1.0000      -2.244186       -61.0674
  33   1.0000      -2.244007       -61.0625
  34   1.0000      -2.242848       -61.0310
  35   1.0000      -2.242592       -61.0240
  36   1.0000      -2.242277       -61.0155
  37   1.0000      -2.242158       -61.0122
  38   1.0000      -2.241707       -60.9999
  39   1.0000      -2.241088       -60.9831
  40   1.0000      -2.241011       -60.9810
  41   1.0000      -2.239767       -60.9472
  42   1.0000      -2.239452       -60.9386
  43   1.0000      -2.239283       -60.9340
  44   1.0000      -2.238451       -60.9113
  45   1.0000      -2.238335       -60.9082
  46   1.0000      -2.237191       -60.8771
  47   1.0000      -2.236581       -60.8605
  48   1.0000      -2.234572       -60.8058
  49   1.0000      -2.234089       -60.7927
  50   1.0000      -2.233940       -60.7886
  51   1.0000      -2.233593       -60.7792
  52   1.0000      -2.233441       -60.7750
  53   1.0000      -2.232763       -60.7566
  54   1.0000      -2.232383       -60.7462
  55   1.0000      -2.231221       -60.7146
  56   1.0000      -2.230830       -60.7040
  57   1.0000      -2.230765       -60.7022
  58   1.0000      -2.230741       -60.7015
  59   1.0000      -2.229848       -60.6773
  60   1.0000      -2.228134       -60.6306
  61   1.0000      -2.223845       -60.5139
  62   1.0000      -2.189675       -59.5841
  63   1.0000      -2.163436       -58.8701
  64   1.0000      -2.155378       -58.6508
  65   1.0000      -0.433336       -11.7917
  66   1.0000      -0.392080       -10.6690
  67   1.0000      -0.386289       -10.5114
  68   1.0000      -0.386105       -10.5064
  69   1.0000      -0.375337       -10.2134
  70   1.0000      -0.371459       -10.1079
  71   1.0000      -0.371157       -10.0997
  72   1.0000      -0.366780        -9.9806
  73   1.0000      -0.364225        -9.9111
  74   1.0000      -0.361422        -9.8348
  75   1.0000      -0.355336        -9.6692
  76   1.0000      -0.351842        -9.5741
  77   1.0000      -0.349995        -9.5238
  78   1.0000      -0.349897        -9.5212
  79   1.0000      -0.348290        -9.4775
  80   1.0000      -0.345169        -9.3925
  81   1.0000      -0.343561        -9.3488
  82   1.0000      -0.343502        -9.3472
  83   1.0000      -0.340215        -9.2577
  84   1.0000      -0.338575        -9.2131
  85   1.0000      -0.337255        -9.1772
  86   1.0000      -0.336046        -9.1443
  87   1.0000      -0.335138        -9.1196
  88   1.0000      -0.328890        -8.9496
  89   1.0000      -0.328650        -8.9430
  90   1.0000      -0.327582        -8.9140
  91   1.0000      -0.323780        -8.8105
  92   1.0000      -0.320601        -8.7240
  93   1.0000      -0.317738        -8.6461
  94   1.0000      -0.316394        -8.6095
  95   1.0000      -0.315711        -8.5909
  96   1.0000      -0.309825        -8.4308
  97   1.0000      -0.305900        -8.3240
  98   1.0000      -0.304531        -8.2867
  99   1.0000      -0.301761        -8.2113
 100   1.0000      -0.296694        -8.0734
 101   1.0000      -0.295960        -8.0535
 102   1.0000      -0.295288        -8.0352
 103   1.0000      -0.289327        -7.8730
 104   1.0000      -0.286141        -7.7863
 105   1.0000      -0.284875        -7.7518
 106   1.0000      -0.284616        -7.7448
 107   1.0000      -0.284102        -7.7308
 108   1.0000      -0.282904        -7.6982
 109   1.0000      -0.280060        -7.6208
 110   1.0000      -0.279960        -7.6181
 111   1.0000      -0.276098        -7.5130
 112   1.0000      -0.275243        -7.4897
 113   1.0000      -0.274501        -7.4696
 114   1.0000      -0.272437        -7.4134
 115   1.0000      -0.270460        -7.3596
 116   1.0000      -0.268862        -7.3161
 117   1.0000      -0.268476        -7.3056
 118   1.0000      -0.267245        -7.2721
 119   1.0000      -0.264717        -7.2033
 120   1.0000      -0.264685        -7.2025
 121   1.0000      -0.263180        -7.1615
 122   1.0000      -0.261014        -7.1025
 123   1.0000      -0.260740        -7.0951
 124   1.0000      -0.259293        -7.0557
 125   1.0000      -0.259071        -7.0497
 126   1.0000      -0.257468        -7.0061
 127   1.0000      -0.255938        -6.9644
 128   1.0000      -0.252824        -6.8797
 129   1.0000      -0.251876        -6.8539
 130   1.0000      -0.251169        -6.8346
 131   1.0000      -0.251160        -6.8344
 132   1.0000      -0.250342        -6.8121
 133   1.0000      -0.248792        -6.7700
 134   1.0000      -0.248082        -6.7507
 135   1.0000      -0.246038        -6.6950
 136   1.0000      -0.245188        -6.6719
 137   1.0000      -0.242132        -6.5887
 138   1.0000      -0.240341        -6.5400
 139   1.0000      -0.240117        -6.5339
 140   1.0000      -0.238307        -6.4847
 141   1.0000      -0.236598        -6.4382
 142   1.0000      -0.228625        -6.2212
 143   1.0000      -0.227381        -6.1874
 144   1.0000      -0.215499        -5.8640
 145   1.0000      -0.206033        -5.6065
 146   1.0000      -0.192935        -5.2500
 147   0.0000      -0.191476        -5.2103
 148   0.0000      -0.171491        -4.6665
 149   0.0000      -0.140139        -3.8134
 150   0.0000      -0.132645        -3.6095
 151   0.0000      -0.129493        -3.5237

                 SPIN DOWN ORBITALS
  NO   OCC          E(Eh)            E(eV)
   0   1.0000    -254.743861     -6931.9329
   1   1.0000     -29.523401      -803.3726
   2   1.0000     -25.479106      -693.3217
   3   1.0000     -25.471579      -693.1169
   4   1.0000     -25.467341      -693.0016
   5   1.0000      -4.035198      -109.8033
   6   1.0000      -4.031438      -109.7010
   7   1.0000      -4.031377      -109.6993
   8   1.0000      -4.031260      -109.6962
   9   1.0000      -4.031199      -109.6945
  10   1.0000      -4.030792      -109.6834
  11   1.0000      -4.030762      -109.6826
  12   1.0000      -4.029908      -109.6594
  13   1.0000      -4.024243      -109.5052
  14   1.0000      -4.023993      -109.4984
  15   1.0000      -4.020726      -109.4095
  16   1.0000      -4.020600      -109.4061
  17   1.0000      -4.019578      -109.3783
  18   1.0000      -4.015199      -109.2591
  19   1.0000      -3.231048       -87.9213
  20   1.0000      -2.250233       -61.2320
  21   1.0000      -2.250175       -61.2304
  22   1.0000      -2.249475       -61.2113
  23   1.0000      -2.248025       -61.1719
  24   1.0000      -2.247851       -61.1671
  25   1.0000      -2.247343       -61.1533
  26   1.0000      -2.247281       -61.1516
  27   1.0000      -2.247115       -61.1471
  28   1.0000      -2.245917       -61.1145
  29   1.0000      -2.245681       -61.1081
  30   1.0000      -2.245306       -61.0979
  31   1.0000      -2.244422       -61.0738
  32   1.0000      -2.244339       -61.0716
  33   1.0000      -2.244173       -61.0670
  34   1.0000      -2.243063       -61.0369
  35   1.0000      -2.242627       -61.0250
  36   1.0000      -2.242382       -61.0183
  37   1.0000      -2.242166       -61.0124
  38   1.0000      -2.241804       -61.0026
  39   1.0000      -2.241022       -60.9813
  40   1.0000      -2.240951       -60.9794
  41   1.0000      -2.239884       -60.9503
  42   1.0000      -2.239728       -60.9461
  43   1.0000      -2.239576       -60.9420
  44   1.0000      -2.238425       -60.9106
  45   1.0000      -2.238036       -60.9000
  46   1.0000      -2.237822       -60.8942
  47   1.0000      -2.236246       -60.8514
  48   1.0000      -2.235073       -60.8194
  49   1.0000      -2.234968       -60.8166
  50   1.0000      -2.234820       -60.8125
  51   1.0000      -2.234186       -60.7953
  52   1.0000      -2.233697       -60.7820
  53   1.0000      -2.233314       -60.7716
  54   1.0000      -2.233106       -60.7659
  55   1.0000      -2.232181       -60.7407
  56   1.0000      -2.231931       -60.7339
  57   1.0000      -2.231809       -60.7306
  58   1.0000      -2.230767       -60.7022
  59   1.0000      -2.230409       -60.6925
  60   1.0000      -2.228531       -60.6414
  61   1.0000      -2.223997       -60.5180
  62   1.0000      -2.057645       -55.9914
  63   1.0000      -2.047184       -55.7067
  64   1.0000      -2.038229       -55.4630
  65   1.0000      -0.430554       -11.7160
  66   1.0000      -0.392652       -10.6846
  67   1.0000      -0.386283       -10.5113
  68   1.0000      -0.385980       -10.5030
  69   1.0000      -0.372089       -10.1251
  70   1.0000      -0.366748        -9.9797
  71   1.0000      -0.366391        -9.9700
  72   1.0000      -0.365880        -9.9561
  73   1.0000      -0.364339        -9.9142
  74   1.0000      -0.358383        -9.7521
  75   1.0000      -0.354315        -9.6414
  76   1.0000      -0.352608        -9.5950
  77   1.0000      -0.350532        -9.5385
  78   1.0000      -0.349553        -9.5118
  79   1.0000      -0.348282        -9.4772
  80   1.0000      -0.345185        -9.3930
  81   1.0000      -0.343758        -9.3541
  82   1.0000      -0.343118        -9.3367
  83   1.0000      -0.340172        -9.2566
  84   1.0000      -0.338683        -9.2160
  85   1.0000      -0.338277        -9.2050
  86   1.0000      -0.335678        -9.1343
  87   1.0000      -0.335334        -9.1249
  88   1.0000      -0.330149        -8.9838
  89   1.0000      -0.329379        -8.9628
  90   1.0000      -0.326801        -8.8927
  91   1.0000      -0.321094        -8.7374
  92   1.0000      -0.319921        -8.7055
  93   1.0000      -0.316719        -8.6184
  94   1.0000      -0.313531        -8.5316
  95   1.0000      -0.310091        -8.4380
  96   1.0000      -0.310017        -8.4360
  97   1.0000      -0.305581        -8.3153
  98   1.0000      -0.305193        -8.3047
  99   1.0000      -0.301045        -8.1918
 100   1.0000      -0.296483        -8.0677
 101   1.0000      -0.291584        -7.9344
 102   1.0000      -0.289093        -7.8666
 103   1.0000      -0.285625        -7.7723
 104   1.0000      -0.285178        -7.7601
 105   1.0000      -0.284587        -7.7440
 106   1.0000      -0.283844        -7.7238
 107   1.0000      -0.283235        -7.7072
 108   1.0000      -0.281042        -7.6476
 109   1.0000      -0.280307        -7.6275
 110   1.0000      -0.277242        -7.5441
 111   1.0000      -0.275293        -7.4911
 112   1.0000      -0.275120        -7.4864
 113   1.0000      -0.274104        -7.4588
 114   1.0000      -0.272827        -7.4240
 115   1.0000      -0.271046        -7.3755
 116   1.0000      -0.269065        -7.3216
 117   1.0000      -0.269012        -7.3202
 118   1.0000      -0.267959        -7.2915
 119   1.0000      -0.264908        -7.2085
 120   1.0000      -0.263867        -7.1802
 121   1.0000      -0.263170        -7.1612
 122   1.0000      -0.261697        -7.1211
 123   1.0000      -0.261374        -7.1124
 124   1.0000      -0.259881        -7.0717
 125   1.0000      -0.259778        -7.0689
 126   1.0000      -0.258067        -7.0223
 127   1.0000      -0.255681        -6.9574
 128   1.0000      -0.253908        -6.9092
 129   1.0000      -0.252573        -6.8729
 130   1.0000      -0.251599        -6.8464
 131   1.0000      -0.250565        -6.8182
 132   1.0000      -0.249066        -6.7774
 133   1.0000      -0.246329        -6.7029
 134   1.0000      -0.244448        -6.6518
 135   1.0000      -0.243571        -6.6279
 136   1.0000      -0.240423        -6.5422
 137   1.0000      -0.238789        -6.4978
 138   1.0000      -0.231175        -6.2906
 139   1.0000      -0.220804        -6.0084
 140   1.0000      -0.215533        -5.8649
 141   1.0000      -0.208158        -5.6643
 142   1.0000      -0.202954        -5.5227
 143   1.0000      -0.189226        -5.1491
 144   1.0000      -0.168155        -4.5757
 145   0.0000      -0.155903        -4.2423
 146   0.0000      -0.153005        -4.1635
 147   0.0000      -0.151241        -4.1155
 148   0.0000      -0.141791        -3.8583
 149   0.0000      -0.133692        -3.6379

MULLIKEN ATOMIC CHARGES AND SPIN POPULATIONS
--------------------------------------------
   0 Au:    0.363489   -0.073085
   1 Au:    0.312813   -0.099356
   2 Au:    0.312202   -0.092839
   3 Au:    0.200640    0.023638
   4 Au:   -0.171090   -0.087246
   5 Au:   -0.163539   -0.103746
   6 Au:    0.301552   -0.045971
   7 Au:    0.130703   -0.087679
   8 Au:    0.299419   -0.034548
   9 Au:    0.324311   -0.047588
  10 Au:   -0.132505   -0.052410
  11 Au:    0.325726   -0.036452
  12 Au:    0.161472   -0.019065
  13 Au:    0.131048   -0.088377
  14 Fe:   -2.396241    2.844724
Sum of atomic charges         :   -0.0000000

LOEWDIN ATOMIC CHARGES AND SPIN POPULATIONS
-------------------------------------------
   0 Au:    0.081256   -0.088248
   1 Au:    0.081590   -0.090303
   2 Au:    0.080958   -0.086684
   3 Au:    0.011347   -0.009428
   4 Au:    0.000564   -0.071812
   5 Au:    0.000940   -0.079990
   6 Au:    0.071104   -0.060654
   7 Au:    0.063585   -0.090835
   8 Au:    0.069821   -0.052726
   9 Au:    0.069167   -0.065464
  10 Au:   -0.029901   -0.055232
  11 Au:    0.069008   -0.055097
  12 Au:   -0.024393   -0.023772
  13 Au:    0.063789   -0.091255
  14 Fe:   -0.608834    2.921502

  Mayer bond orders larger than 0.100000
B(  0-Au,  1-Au) :   0.1621 B(  0-Au,  2-Au) :   0.1643 B(  0-Au,  3-Au) :   0.2492
B(  0-Au,  4-Au) :   0.2278 B(  0-Au,  5-Au) :   0.2278 B(  0-Au, 14-Fe) :   0.3609
B(  1-Au,  3-Au) :   0.1974 B(  1-Au,  4-Au) :   0.2142 B(  1-Au,  6-Au) :   0.1543
B(  1-Au, 13-Au) :   0.1305 B(  1-Au, 14-Fe) :   0.5041 B(  2-Au,  3-Au) :   0.2004
B(  2-Au,  5-Au) :   0.2157 B(  2-Au,  7-Au) :   0.1278 B(  2-Au,  8-Au) :   0.1514
B(  2-Au, 14-Fe) :   0.5045 B(  3-Au,  6-Au) :   0.1651 B(  3-Au,  8-Au) :   0.1641
B(  3-Au, 14-Fe) :   0.3842 B(  4-Au,  5-Au) :   0.2414 B(  4-Au, 11-Au) :   0.2371
B(  4-Au, 12-Au) :   0.3308 B(  4-Au, 13-Au) :   0.1003 B(  4-Au, 14-Fe) :   0.4962
B(  5-Au,  7-Au) :   0.1033 B(  5-Au,  9-Au) :   0.2389 B(  5-Au, 12-Au) :   0.3295
B(  5-Au, 14-Fe) :   0.4918 B(  6-Au,  8-Au) :   0.2611 B(  6-Au, 13-Au) :   0.2887
B(  6-Au, 14-Fe) :   0.4121 B(  7-Au,  8-Au) :   0.2905 B(  7-Au,  9-Au) :   0.2923
B(  7-Au, 10-Au) :   0.2408 B(  7-Au, 14-Fe) :   0.4800 B(  8-Au, 14-Fe) :   0.4167
B(  9-Au, 10-Au) :   0.3691 B(  9-Au, 12-Au) :   0.2645 B( 10-Au, 11-Au) :   0.3691
B( 10-Au, 12-Au) :   0.1660 B( 10-Au, 13-Au) :   0.2446 B( 10-Au, 14-Fe) :   0.4096
B( 11-Au, 12-Au) :   0.2609 B( 11-Au, 13-Au) :   0.2947 B( 13-Au, 14-Fe) :   0.4782

FINAL SINGLE POINT ENERGY     -3165.056971091469

DIPOLE MOMENT
-------------
                                X             Y             Z
Electronic contribution:     22.70563      -1.57761      -2.47815
Nuclear contribution   :    -22.77657       1.68546       2.51974
                        -----------------------------------------
Total Dipole Moment    :     -0.07094       0.10784       0.04160
                        -----------------------------------------
Magnitude (a.u.)       :      0.13562
Magnitude (Debye)      :      0.34473

Rotational constants in cm-1:     0.001256     0.000989     0.000872
Rotational constants in MHz :    37.657135    29.662957    26.154449

                             ****ORCA TERMINATED NORMALLY****
TOTAL RUN TIME: 0 days 0 hours 5 minutes 26 seconds 675 msec
