                         Program Version 5.0.3 -  RELEASE  -
|  1> !SC-NEVPT2 def2-TZVP def2-TZVP/C
|  2> !MOREAD RIJCOSX def2/J
|  3> %maxcore 4000
|  4> %moinp "casscf.gbw"
|  5> %pal nprocs 6 end
|  6>
|  7> %casscf
|  8>  mult 5,3
|  9>  bweight 1,1
| 10>  nroots 5,45
| 11>  nel 6
| 12>  norb 5
| 13>  ptsettings
| 14>   d4tpre 1e-14 # default = 1e-10
| 15>   d3tpre 1e-14
| 16>  end
| 17>  rel
| 18>    dosoc true
| 19>    gtensor true
| 20>  end
| 21> end
| 22>
| 23>
| 24> *xyzfile 0 5 pbe.xyz
| 25>
| 26>
| 27>                          ****END OF INPUT****

CARTESIAN COORDINATES (ANGSTROEM)
---------------------------------
  Au     7.870552    7.660447    6.616725
  Au     6.530426    5.274785    6.810537
  Au     9.224945    5.225703    7.795816
  Au    11.727857    8.770919    8.831076
  Au     9.400320    9.779146    7.395573
  Au    10.741287    7.212910    6.763118
  Au    10.780754    7.541372   11.146405
  Au     9.616068   10.028993   10.162712
  Au     7.875538    8.129260   11.177177
  Au     9.028726    5.510302   10.657801
  Au     7.250332    3.957279    9.260531
  Au     6.750565    6.778674    9.121643
  Fe     9.277243    7.632082    8.957268

 Total Charge           Charge          ....    0
 Multiplicity           Mult            ....    5
 Number of Electrons    NEL             ....  254
 Basis Dimension        Dim             ....  525

ORBITAL ENERGIES
----------------

  NO   OCC          E(Eh)            E(eV)
   0   2.0000    -261.274402     -7109.6379
   1   2.0000     -31.823323      -865.9567
   2   2.0000     -27.311600      -743.1864
   3   2.0000     -27.301030      -742.8988
   4   2.0000     -27.300635      -742.8881
   5   2.0000      -4.721407      -128.4760
   6   2.0000      -4.721032      -128.4658
   7   2.0000      -4.717565      -128.3715
   8   2.0000      -4.717288      -128.3639
   9   2.0000      -4.711218      -128.1987
  10   2.0000      -4.711184      -128.1978
  11   2.0000      -4.708751      -128.1316
  12   2.0000      -4.708715      -128.1306
  13   2.0000      -4.705439      -128.0415
  14   2.0000      -4.705298      -128.0377
  15   2.0000      -4.703681      -127.9937
  16   2.0000      -4.703509      -127.9890
  17   2.0000      -4.054838      -110.3377
  18   2.0000      -2.761778       -75.1518
  19   2.0000      -2.761367       -75.1406
  20   2.0000      -2.759601       -75.0926
  21   2.0000      -2.759075       -75.0782
  22   2.0000      -2.758455       -75.0614
  23   2.0000      -2.756733       -75.0145
  24   2.0000      -2.756313       -75.0031
  25   2.0000      -2.755892       -74.9916
  26   2.0000      -2.755722       -74.9870
  27   2.0000      -2.754794       -74.9618
  28   2.0000      -2.753026       -74.9136
  29   2.0000      -2.751850       -74.8817
  30   2.0000      -2.749535       -74.8187
  31   2.0000      -2.749164       -74.8086
  32   2.0000      -2.748190       -74.7821
  33   2.0000      -2.747683       -74.7683
  34   2.0000      -2.746134       -74.7261
  35   2.0000      -2.746081       -74.7247
  36   2.0000      -2.745304       -74.7035
  37   2.0000      -2.745221       -74.7013
  38   2.0000      -2.744473       -74.6809
  39   2.0000      -2.744401       -74.6789
  40   2.0000      -2.742689       -74.6324
  41   2.0000      -2.741753       -74.6069
  42   2.0000      -2.741625       -74.6034
  43   2.0000      -2.741571       -74.6019
  44   2.0000      -2.741038       -74.5874
  45   2.0000      -2.740079       -74.5613
  46   2.0000      -2.739855       -74.5552
  47   2.0000      -2.739446       -74.5441
  48   2.0000      -2.739367       -74.5420
  49   2.0000      -2.738384       -74.5152
  50   2.0000      -2.737168       -74.4821
  51   2.0000      -2.736949       -74.4762
  52   2.0000      -2.736323       -74.4591
  53   2.0000      -2.736161       -74.4547
  54   2.0000      -2.644286       -71.9547
  55   2.0000      -2.637355       -71.7661
  56   2.0000      -2.635632       -71.7192
  57   2.0000      -0.566282       -15.4093
  58   2.0000      -0.558506       -15.1977
  59   2.0000      -0.554376       -15.0853
  60   2.0000      -0.552517       -15.0348
  61   2.0000      -0.547476       -14.8976
  62   2.0000      -0.544871       -14.8267
  63   2.0000      -0.543583       -14.7916
  64   2.0000      -0.540926       -14.7194
  65   2.0000      -0.537371       -14.6226
  66   2.0000      -0.535259       -14.5651
  67   2.0000      -0.534874       -14.5546
  68   2.0000      -0.533225       -14.5098
  69   2.0000      -0.531754       -14.4698
  70   2.0000      -0.526927       -14.3384
  71   2.0000      -0.525395       -14.2967
  72   2.0000      -0.519674       -14.1411
  73   2.0000      -0.518074       -14.0975
  74   2.0000      -0.515289       -14.0217
  75   2.0000      -0.512568       -13.9477
  76   2.0000      -0.511859       -13.9284
  77   2.0000      -0.510759       -13.8985
  78   2.0000      -0.507715       -13.8156
  79   2.0000      -0.501214       -13.6387
  80   2.0000      -0.500227       -13.6119
  81   2.0000      -0.496943       -13.5225
  82   2.0000      -0.494184       -13.4474
  83   2.0000      -0.492536       -13.4026
  84   2.0000      -0.486189       -13.2299
  85   2.0000      -0.476007       -12.9528
  86   2.0000      -0.472070       -12.8457
  87   2.0000      -0.470343       -12.7987
  88   2.0000      -0.468778       -12.7561
  89   2.0000      -0.466274       -12.6880
  90   2.0000      -0.463966       -12.6251
  91   2.0000      -0.461211       -12.5502
  92   2.0000      -0.460378       -12.5275
  93   2.0000      -0.457065       -12.4374
  94   2.0000      -0.456308       -12.4168
  95   2.0000      -0.454762       -12.3747
  96   2.0000      -0.453299       -12.3349
  97   2.0000      -0.451248       -12.2791
  98   2.0000      -0.450353       -12.2547
  99   2.0000      -0.447912       -12.1883
 100   2.0000      -0.447016       -12.1639
 101   2.0000      -0.443532       -12.0691
 102   2.0000      -0.441071       -12.0022
 103   2.0000      -0.440968       -11.9994
 104   2.0000      -0.438487       -11.9318
 105   2.0000      -0.435039       -11.8380
 106   2.0000      -0.433715       -11.8020
 107   2.0000      -0.432551       -11.7703
 108   2.0000      -0.428372       -11.6566
 109   2.0000      -0.425254       -11.5718
 110   2.0000      -0.425020       -11.5654
 111   2.0000      -0.423656       -11.5283
 112   2.0000      -0.423120       -11.5137
 113   2.0000      -0.414577       -11.2812
 114   2.0000      -0.411661       -11.2019
 115   2.0000      -0.409891       -11.1537
 116   2.0000      -0.403473       -10.9791
 117   2.0000      -0.393779       -10.7153
 118   2.0000      -0.379562       -10.3284
 119   2.0000      -0.373166       -10.1544
 120   2.0000      -0.339495        -9.2381
 121   2.0000      -0.269313        -7.3284
 122   2.0000      -0.246824        -6.7164
 123   2.0000      -0.230137        -6.2624
 124   1.2000      -0.124722        -3.3939
 125   1.2000      -0.160685        -4.3725
 126   1.2000      -0.143483        -3.9044
 127   1.2000      -0.171575        -4.6688
 128   1.2000      -0.135685        -3.6922
 129   0.0000      -0.048546        -1.3210
 130   0.0000      -0.023374        -0.6360
 131   0.0000       0.002511         0.0683
 132   0.0000       0.008491         0.2310
 133   0.0000       0.022127         0.6021

MULLIKEN ATOMIC CHARGES AND SPIN DENSITIES
------------------------------------------
   0 Au:   -0.077349    0.090223
   1 Au:    0.335801    0.005600
   2 Au:    0.006591    0.036219
   3 Au:    0.330817    0.021342
   4 Au:    0.177065    0.077943
   5 Au:    0.248798    0.069915
   6 Au:    0.176637    0.078414
   7 Au:    0.329367    0.023727
   8 Au:    0.247234    0.070566
   9 Au:   -0.077354    0.090701
  10 Au:    0.335037    0.005462
  11 Au:    0.010028    0.033722
  12 Fe:   -2.042674    2.396165
Sum of atomic charges       :    0.0000000

LOEWDIN ATOMIC CHARGES AND SPIN DENSITIES
-----------------------------------------
   0 Au:   -0.032483    0.081272
   1 Au:    0.098350    0.011671
   2 Au:   -0.036013    0.041446
   3 Au:    0.085224    0.026794
   4 Au:    0.038549    0.077908
   5 Au:    0.098238    0.074338
   6 Au:    0.037645    0.078645
   7 Au:    0.083277    0.028603
   8 Au:    0.097964    0.074768
   9 Au:   -0.031960    0.081218
  10 Au:    0.098691    0.011416
  11 Au:   -0.034226    0.039954
  12 Fe:   -0.503255    2.371967

  Mayer bond orders larger than 0.100000
B(  0-Au,  1-Au) :   0.3574 B(  0-Au,  2-Au) :   0.1209 B(  0-Au,  4-Au) :   0.2812
B(  0-Au, 11-Au) :   0.1960 B(  0-Au, 12-Fe) :   0.3893 B(  1-Au,  2-Au) :   0.1866
B(  1-Au, 10-Au) :   0.1162 B(  1-Au, 11-Au) :   0.3261 B(  2-Au,  5-Au) :   0.3612
B(  2-Au,  9-Au) :   0.1927 B(  2-Au, 10-Au) :   0.3253 B(  2-Au, 11-Au) :   0.1978
B(  2-Au, 12-Fe) :   0.2567 B(  3-Au,  4-Au) :   0.1265 B(  3-Au,  5-Au) :   0.1115
B(  3-Au,  6-Au) :   0.1768 B(  3-Au,  7-Au) :   0.2700 B(  3-Au, 12-Fe) :   0.2828
B(  4-Au,  7-Au) :   0.1748 B(  4-Au, 12-Fe) :   0.3617 B(  5-Au, 12-Fe) :   0.4263
B(  6-Au,  7-Au) :   0.1244 B(  6-Au,  9-Au) :   0.2823 B(  6-Au, 12-Fe) :   0.3618
B(  7-Au,  8-Au) :   0.1154 B(  7-Au, 12-Fe) :   0.2833 B(  8-Au, 11-Au) :   0.3564
B(  8-Au, 12-Fe) :   0.4272 B(  9-Au, 10-Au) :   0.3571 B(  9-Au, 11-Au) :   0.1213
B(  9-Au, 12-Fe) :   0.3897 B( 10-Au, 11-Au) :   0.1875 B( 11-Au, 12-Fe) :   0.2547

FINAL SINGLE POINT ENERGY     -2886.214529779225

DIPOLE MOMENT
-------------
                                X             Y             Z
Electronic contribution:    -14.31987     -18.06681      -5.52728
Nuclear contribution   :     14.36351      18.12331       5.54335
                        -----------------------------------------
Total Dipole Moment    :      0.04364       0.05649       0.01607
                        -----------------------------------------
Magnitude (a.u.)       :      0.07317
Magnitude (Debye)      :      0.18599

Rotational constants in cm-1:     0.001744     0.001196     0.001001
Rotational constants in MHz :    52.269040    35.858322    30.016440

                             ****ORCA TERMINATED NORMALLY****
TOTAL RUN TIME: 0 days 2 hours 23 minutes 7 seconds 928 msec
