                         Program Version 5.0.3 -  RELEASE  -
|  1> !CASSCF def2-TZVP def2-TZVP/C
|  2> !MOREAD RIJCOSX
|  3> %maxcore 6000
|  4> %moinp "pbe.qro"
|  5> %pal nprocs 2 end
|  6>
|  7> %casscf
|  8>  mult 5,3
|  9>  bweight 1,1
| 10>  nroots 5,45
| 11>  nel 6
| 12>  norb 5
| 13> end
| 14>
| 15>
| 16> *xyzfile 0 5 pbe.xyz
| 17>
| 18>
| 19>                          ****END OF INPUT****

CARTESIAN COORDINATES (ANGSTROEM)
---------------------------------
  Au     7.448548    5.574150    8.595407
  Au     9.826853    5.712805    9.811632
  Au    12.516847    6.067207   10.191755
  Au    11.319125    7.851372    8.484877
  Au    11.802269    4.819412    7.852981
  Au     7.650861    4.673505    5.908175
  Au    10.401541    4.308573    5.667404
  Au     9.126365    6.676665    4.652745
  Au     9.699912    8.721900    6.581487
  Au     7.205384    7.478852    6.498726
  Fe     9.579195    6.209157    7.240683

 Total Charge           Charge          ....    0
 Multiplicity           Mult            ....    5
 Number of Electrons    NEL             ....  216
 Basis Dimension        Dim             ....  445

ORBITAL ENERGIES
----------------

  NO   OCC          E(Eh)            E(eV)
   0   2.0000    -261.387801     -7112.7237
   1   2.0000     -31.952522      -869.4723
   2   2.0000     -27.432810      -746.4847
   3   2.0000     -27.432098      -746.4653
   4   2.0000     -27.431839      -746.4583
   5   2.0000      -4.730202      -128.7153
   6   2.0000      -4.729443      -128.6947
   7   2.0000      -4.722059      -128.4937
   8   2.0000      -4.710410      -128.1768
   9   2.0000      -4.710031      -128.1665
  10   2.0000      -4.709204      -128.1439
  11   2.0000      -4.707885      -128.1081
  12   2.0000      -4.700831      -127.9161
  13   2.0000      -4.700456      -127.9059
  14   2.0000      -4.699138      -127.8701
  15   2.0000      -4.186101      -113.9096
  16   2.0000      -2.773238       -75.4637
  17   2.0000      -2.771017       -75.4032
  18   2.0000      -2.768758       -75.3417
  19   2.0000      -2.766575       -75.2823
  20   2.0000      -2.766518       -75.2808
  21   2.0000      -2.765333       -75.2485
  22   2.0000      -2.764161       -75.2167
  23   2.0000      -2.762907       -75.1825
  24   2.0000      -2.762874       -75.1816
  25   2.0000      -2.758063       -75.0507
  26   2.0000      -2.757128       -75.0253
  27   2.0000      -2.753719       -74.9325
  28   2.0000      -2.749407       -74.8152
  29   2.0000      -2.748236       -74.7833
  30   2.0000      -2.747895       -74.7740
  31   2.0000      -2.747702       -74.7688
  32   2.0000      -2.746113       -74.7255
  33   2.0000      -2.744865       -74.6916
  34   2.0000      -2.744043       -74.6692
  35   2.0000      -2.743208       -74.6465
  36   2.0000      -2.742629       -74.6307
  37   2.0000      -2.741914       -74.6113
  38   2.0000      -2.741259       -74.5934
  39   2.0000      -2.740035       -74.5602
  40   2.0000      -2.739680       -74.5505
  41   2.0000      -2.736929       -74.4756
  42   2.0000      -2.736409       -74.4615
  43   2.0000      -2.735292       -74.4311
  44   2.0000      -2.735140       -74.4269
  45   2.0000      -2.732159       -74.3458
  46   2.0000      -2.731423       -74.3258
  47   2.0000      -2.731216       -74.3202
  48   2.0000      -2.730009       -74.2873
  49   2.0000      -0.579093       -15.7579
  50   2.0000      -0.557344       -15.1661
  51   2.0000      -0.554405       -15.0861
  52   2.0000      -0.553122       -15.0512
  53   2.0000      -0.544888       -14.8271
  54   2.0000      -0.542293       -14.7566
  55   2.0000      -0.537604       -14.6289
  56   2.0000      -0.535942       -14.5837
  57   2.0000      -0.530115       -14.4252
  58   2.0000      -0.527050       -14.3418
  59   2.0000      -0.522808       -14.2263
  60   2.0000      -0.521749       -14.1975
  61   2.0000      -0.519356       -14.1324
  62   2.0000      -0.515321       -14.0226
  63   2.0000      -0.512445       -13.9443
  64   2.0000      -0.510847       -13.9009
  65   2.0000      -0.508353       -13.8330
  66   2.0000      -0.507925       -13.8213
  67   2.0000      -0.502482       -13.6732
  68   2.0000      -0.501326       -13.6418
  69   2.0000      -0.490191       -13.3388
  70   2.0000      -0.488559       -13.2944
  71   2.0000      -0.486210       -13.2305
  72   2.0000      -0.484256       -13.1773
  73   2.0000      -0.479480       -13.0473
  74   2.0000      -0.471968       -12.8429
  75   2.0000      -0.471075       -12.8186
  76   2.0000      -0.467322       -12.7165
  77   2.0000      -0.464184       -12.6311
  78   2.0000      -0.463482       -12.6120
  79   2.0000      -0.457397       -12.4464
  80   2.0000      -0.454914       -12.3788
  81   2.0000      -0.454222       -12.3600
  82   2.0000      -0.451828       -12.2949
  83   2.0000      -0.449473       -12.2308
  84   2.0000      -0.448875       -12.2145
  85   2.0000      -0.446602       -12.1527
  86   2.0000      -0.445366       -12.1190
  87   2.0000      -0.441210       -12.0059
  88   2.0000      -0.439214       -11.9516
  89   2.0000      -0.435339       -11.8462
  90   2.0000      -0.433230       -11.7888
  91   2.0000      -0.432046       -11.7566
  92   2.0000      -0.427082       -11.6215
  93   2.0000      -0.425728       -11.5846
  94   2.0000      -0.425526       -11.5791
  95   2.0000      -0.420765       -11.4496
  96   2.0000      -0.420027       -11.4295
  97   2.0000      -0.406255       -11.0548
  98   2.0000      -0.398994       -10.8572
  99   2.0000      -0.394031       -10.7221
 100   2.0000      -0.366406        -9.9704
 101   2.0000      -0.314413        -8.5556
 102   2.0000      -0.299388        -8.1468
 103   2.0000      -0.240150        -6.5348
 104   2.0000      -0.209635        -5.7045
 105   1.2000      -0.266166        -7.2427
 106   1.2000      -0.264864        -7.2073
 107   1.2000      -0.267240        -7.2720
 108   1.2000      -0.265342        -7.2203
 109   1.2000      -0.253067        -6.8863
 110   0.0000      -0.048181        -1.3111
 111   0.0000      -0.006766        -0.1841
 112   0.0000      -0.002324        -0.0632
 113   0.0000       0.001712         0.0466
 114   0.0000       0.013305         0.3620

MULLIKEN ATOMIC CHARGES AND SPIN DENSITIES
------------------------------------------
   0 Au:    0.158877    0.008528
   1 Au:    0.135344    0.007847
   2 Au:    0.343453    0.003602
   3 Au:   -0.131786    0.011675
   4 Au:   -0.121029    0.011536
   5 Au:    0.113898    0.008293
   6 Au:    0.252706    0.008536
   7 Au:    0.360674    0.007384
   8 Au:    0.256249    0.008553
   9 Au:    0.127281    0.008272
  10 Fe:   -1.495667    2.915774
Sum of atomic charges       :    0.0000000

LOEWDIN ATOMIC CHARGES AND SPIN DENSITIES
-----------------------------------------
   0 Au:    0.112594    0.012077
   1 Au:    0.001755    0.011095
   2 Au:    0.110059    0.004547
   3 Au:   -0.089557    0.013349
   4 Au:   -0.084461    0.013259
   5 Au:   -0.022414    0.009849
   6 Au:    0.033496    0.012940
   7 Au:    0.064377    0.009689
   8 Au:    0.031232    0.012986
   9 Au:   -0.017267    0.009838
  10 Fe:   -0.139815    2.890372

  Mayer bond orders larger than 0.100000
B(  0-Au,  1-Au) :   0.3983 B(  0-Au, 10-Fe) :   0.4613 B(  1-Au,  2-Au) :   0.3853
B(  1-Au,  3-Au) :   0.1934 B(  1-Au,  4-Au) :   0.2029 B(  1-Au, 10-Fe) :   0.3417
B(  2-Au,  3-Au) :   0.2839 B(  2-Au,  4-Au) :   0.2864 B(  3-Au,  8-Au) :   0.3776
B(  3-Au, 10-Fe) :   0.5294 B(  4-Au,  6-Au) :   0.3773 B(  4-Au, 10-Fe) :   0.5253
B(  5-Au,  6-Au) :   0.2450 B(  5-Au,  7-Au) :   0.2842 B(  5-Au, 10-Fe) :   0.3860
B(  6-Au,  7-Au) :   0.1221 B(  6-Au, 10-Fe) :   0.4686 B(  7-Au,  8-Au) :   0.1275
B(  7-Au,  9-Au) :   0.2944 B(  7-Au, 10-Fe) :   0.3300 B(  8-Au,  9-Au) :   0.2432
B(  8-Au, 10-Fe) :   0.4685 B(  9-Au, 10-Fe) :   0.3851

FINAL SINGLE POINT ENERGY     -2610.458158765858

DIPOLE MOMENT
-------------
                                X             Y             Z
Electronic contribution:      4.09637      -0.89934       7.08818
Nuclear contribution   :     -4.56716       0.78455      -6.96334
                        -----------------------------------------
Total Dipole Moment    :     -0.47080      -0.11479       0.12485
                        -----------------------------------------
Magnitude (a.u.)       :      0.50041
Magnitude (Debye)      :      1.27195

Rotational constants in cm-1:     0.002344     0.001383     0.001329
Rotational constants in MHz :    70.257484    41.468757    39.839812

                             ****ORCA TERMINATED NORMALLY****
TOTAL RUN TIME: 0 days 0 hours 39 minutes 3 seconds 189 msec
