                         Program Version 5.0.3 -  RELEASE  -
|  1> !RI-B2PLYP def2-TZVP def2-TZVP/C
|  2> !RIJCOSX VERYSLOWCONV
|  3>
|  4> %scf
|  5>   AutoTRAHIter 200
|  6>   maxiter 400
|  7> end
|  8>
|  9>
| 10> %pal nprocs 6 end
| 11>
| 12> *xyzfile 0 5 pbe.xyz
| 13>
| 14> $new_job
| 15>
| 16> !RI-B2PLYP def2-TZVP def2-TZVP/C
| 17> !RIJCOSX VERYSLOWCONV
| 18>
| 19> %scf
| 20>   AutoTRAHIter 200
| 21>   maxiter 400
| 22> end
| 23>
| 24>
| 25> %pal nprocs 6 end
| 26>
| 27> *xyzfile 0 3 pbe.xyz
| 28>
| 29>
| 30>
| 31>
| 32>
| 33>                          ****END OF INPUT****
 Total Charge           Charge          ....    0
 Multiplicity           Mult            ....    5
 Number of Electrons    NEL             ....  290
MP2 TOTAL ENERGY:    -2942.519823338 Eh
FINAL SINGLE POINT ENERGY     -2942.519823338061

CARTESIAN COORDINATES (ANGSTROEM)
---------------------------------
  Au     8.599284    5.097797    6.529790
  Au     9.174496    7.375059    7.974291
  Au     8.549191    9.845111    6.646898
  Au     8.918612    7.439330    5.143509
  Au     6.646373    6.036954    4.531452
  Au     6.385882    8.721686    5.120388
  Au     4.766195    6.570372    6.534817
  Au     6.028431    4.069146    6.381738
  Au     5.972783   10.778865    6.943168
  Au     5.610930   10.106325    9.636151
  Au     8.356049    9.624787    9.387177
  Au     6.643567    7.579602   10.410320
  Au     6.792348    5.590609    8.609242
  Au     3.974672    8.871900    7.676123
  Cr     6.566854    8.222795    7.813965

 Multiplicity           Mult            ....    3
 Number of Electrons    NEL             ....  290
 Basis Dimension        Dim             ....  605

ORBITAL ENERGIES
----------------
                 SPIN UP ORBITALS
  NO   OCC          E(Eh)            E(eV)
   0   1.0000    -217.778884     -5926.0647
   1   1.0000     -25.467615      -693.0090
   2   1.0000     -21.607282      -587.9640
   3   1.0000     -21.607095      -587.9589
   4   1.0000     -21.600354      -587.7755
   5   1.0000      -4.404070      -119.8408
   6   1.0000      -4.404069      -119.8408
   7   1.0000      -4.400570      -119.7456
   8   1.0000      -4.400532      -119.7446
   9   1.0000      -4.399761      -119.7236
  10   1.0000      -4.399742      -119.7231
  11   1.0000      -4.397965      -119.6747
  12   1.0000      -4.393920      -119.5646
  13   1.0000      -4.393917      -119.5646
  14   1.0000      -4.391388      -119.4957
  15   1.0000      -4.390757      -119.4786
  16   1.0000      -4.390673      -119.4763
  17   1.0000      -4.389615      -119.4475
  18   1.0000      -4.386528      -119.3635
  19   1.0000      -3.253155       -88.5228
  20   1.0000      -2.524753       -68.7020
  21   1.0000      -2.524687       -68.7002
  22   1.0000      -2.522719       -68.6467
  23   1.0000      -2.522676       -68.6455
  24   1.0000      -2.522390       -68.6377
  25   1.0000      -2.522255       -68.6340
  26   1.0000      -2.520157       -68.5770
  27   1.0000      -2.519668       -68.5636
  28   1.0000      -2.519062       -68.5472
  29   1.0000      -2.518979       -68.5449
  30   1.0000      -2.518639       -68.5356
  31   1.0000      -2.518354       -68.5279
  32   1.0000      -2.517903       -68.5156
  33   1.0000      -2.517584       -68.5069
  34   1.0000      -2.515905       -68.4613
  35   1.0000      -2.515334       -68.4457
  36   1.0000      -2.515290       -68.4445
  37   1.0000      -2.514864       -68.4329
  38   1.0000      -2.514330       -68.4184
  39   1.0000      -2.514198       -68.4148
  40   1.0000      -2.513982       -68.4089
  41   1.0000      -2.513062       -68.3839
  42   1.0000      -2.512582       -68.3708
  43   1.0000      -2.511669       -68.3460
  44   1.0000      -2.511268       -68.3351
  45   1.0000      -2.511232       -68.3341
  46   1.0000      -2.510211       -68.3063
  47   1.0000      -2.509753       -68.2939
  48   1.0000      -2.509698       -68.2923
  49   1.0000      -2.507784       -68.2403
  50   1.0000      -2.507738       -68.2390
  51   1.0000      -2.507444       -68.2310
  52   1.0000      -2.506885       -68.2158
  53   1.0000      -2.506775       -68.2128
  54   1.0000      -2.506269       -68.1991
  55   1.0000      -2.506193       -68.1970
  56   1.0000      -2.505558       -68.1797
  57   1.0000      -2.504945       -68.1630
  58   1.0000      -2.504665       -68.1554
  59   1.0000      -2.503162       -68.1145
  60   1.0000      -2.502792       -68.1044
  61   1.0000      -2.502538       -68.0975
  62   1.0000      -2.144199       -58.3466
  63   1.0000      -2.133957       -58.0679
  64   1.0000      -2.132372       -58.0248
  65   1.0000      -0.498082       -13.5535
  66   1.0000      -0.486924       -13.2499
  67   1.0000      -0.479799       -13.0560
  68   1.0000      -0.474566       -12.9136
  69   1.0000      -0.469634       -12.7794
  70   1.0000      -0.467405       -12.7187
  71   1.0000      -0.463724       -12.6186
  72   1.0000      -0.462896       -12.5960
  73   1.0000      -0.459726       -12.5098
  74   1.0000      -0.457623       -12.4525
  75   1.0000      -0.456247       -12.4151
  76   1.0000      -0.450116       -12.2483
  77   1.0000      -0.449823       -12.2403
  78   1.0000      -0.449369       -12.2280
  79   1.0000      -0.445856       -12.1324
  80   1.0000      -0.444474       -12.0948
  81   1.0000      -0.442372       -12.0375
  82   1.0000      -0.442086       -12.0298
  83   1.0000      -0.441328       -12.0091
  84   1.0000      -0.435336       -11.8461
  85   1.0000      -0.434179       -11.8146
  86   1.0000      -0.433069       -11.7844
  87   1.0000      -0.431073       -11.7301
  88   1.0000      -0.429621       -11.6906
  89   1.0000      -0.426075       -11.5941
  90   1.0000      -0.422352       -11.4928
  91   1.0000      -0.419513       -11.4155
  92   1.0000      -0.418340       -11.3836
  93   1.0000      -0.416918       -11.3449
  94   1.0000      -0.413297       -11.2464
  95   1.0000      -0.411862       -11.2073
  96   1.0000      -0.409677       -11.1479
  97   1.0000      -0.406532       -11.0623
  98   1.0000      -0.405735       -11.0406
  99   1.0000      -0.400898       -10.9090
 100   1.0000      -0.399058       -10.8589
 101   1.0000      -0.398165       -10.8346
 102   1.0000      -0.396624       -10.7927
 103   1.0000      -0.394150       -10.7254
 104   1.0000      -0.391492       -10.6531
 105   1.0000      -0.386385       -10.5141
 106   1.0000      -0.383737       -10.4420
 107   1.0000      -0.381864       -10.3911
 108   1.0000      -0.380616       -10.3571
 109   1.0000      -0.379353       -10.3227
 110   1.0000      -0.375484       -10.2175
 111   1.0000      -0.373955       -10.1758
 112   1.0000      -0.369636       -10.0583
 113   1.0000      -0.369441       -10.0530
 114   1.0000      -0.368333       -10.0228
 115   1.0000      -0.364753        -9.9254
 116   1.0000      -0.364337        -9.9141
 117   1.0000      -0.362705        -9.8697
 118   1.0000      -0.362076        -9.8526
 119   1.0000      -0.359511        -9.7828
 120   1.0000      -0.356757        -9.7079
 121   1.0000      -0.356339        -9.6965
 122   1.0000      -0.354482        -9.6459
 123   1.0000      -0.353109        -9.6086
 124   1.0000      -0.350913        -9.5488
 125   1.0000      -0.348323        -9.4784
 126   1.0000      -0.347812        -9.4644
 127   1.0000      -0.345124        -9.3913
 128   1.0000      -0.343407        -9.3446
 129   1.0000      -0.342004        -9.3064
 130   1.0000      -0.340033        -9.2528
 131   1.0000      -0.339901        -9.2492
 132   1.0000      -0.337155        -9.1744
 133   1.0000      -0.336260        -9.1501
 134   1.0000      -0.332420        -9.0456
 135   1.0000      -0.331779        -9.0282
 136   1.0000      -0.330732        -8.9997
 137   1.0000      -0.327336        -8.9073
 138   1.0000      -0.326019        -8.8714
 139   1.0000      -0.324143        -8.8204
 140   1.0000      -0.319509        -8.6943
 141   1.0000      -0.296023        -8.0552
 142   1.0000      -0.291230        -7.9248
 143   1.0000      -0.239351        -6.5131
 144   1.0000      -0.234282        -6.3751
 145   1.0000      -0.225012        -6.1229
 146   0.0000      -0.127141        -3.4597
 147   0.0000      -0.096789        -2.6338
 148   0.0000      -0.086539        -2.3548
 149   0.0000      -0.073875        -2.0102
 150   0.0000      -0.063972        -1.7408

                 SPIN DOWN ORBITALS
  NO   OCC          E(Eh)            E(eV)
   0   1.0000    -217.777515     -5926.0274
   1   1.0000     -25.398205      -691.1203
   2   1.0000     -21.549256      -586.3851
   3   1.0000     -21.547144      -586.3276
   4   1.0000     -21.526000      -585.7522
   5   1.0000      -4.404552      -119.8540
   6   1.0000      -4.404544      -119.8537
   7   1.0000      -4.400350      -119.7396
   8   1.0000      -4.400335      -119.7392
   9   1.0000      -4.400212      -119.7359
  10   1.0000      -4.400175      -119.7349
  11   1.0000      -4.398517      -119.6897
  12   1.0000      -4.394098      -119.5695
  13   1.0000      -4.394094      -119.5694
  14   1.0000      -4.391194      -119.4905
  15   1.0000      -4.391112      -119.4882
  16   1.0000      -4.390788      -119.4794
  17   1.0000      -4.389823      -119.4532
  18   1.0000      -4.387638      -119.3937
  19   1.0000      -3.041932       -82.7752
  20   1.0000      -2.524421       -68.6930
  21   1.0000      -2.524289       -68.6894
  22   1.0000      -2.522298       -68.6352
  23   1.0000      -2.522297       -68.6352
  24   1.0000      -2.521260       -68.6070
  25   1.0000      -2.521088       -68.6023
  26   1.0000      -2.519525       -68.5598
  27   1.0000      -2.519469       -68.5582
  28   1.0000      -2.519217       -68.5514
  29   1.0000      -2.518897       -68.5427
  30   1.0000      -2.518545       -68.5331
  31   1.0000      -2.518214       -68.5241
  32   1.0000      -2.517316       -68.4997
  33   1.0000      -2.516592       -68.4800
  34   1.0000      -2.516198       -68.4692
  35   1.0000      -2.515750       -68.4570
  36   1.0000      -2.514896       -68.4338
  37   1.0000      -2.514617       -68.4262
  38   1.0000      -2.513870       -68.4059
  39   1.0000      -2.513796       -68.4039
  40   1.0000      -2.513679       -68.4007
  41   1.0000      -2.513071       -68.3841
  42   1.0000      -2.512982       -68.3817
  43   1.0000      -2.511952       -68.3537
  44   1.0000      -2.511183       -68.3328
  45   1.0000      -2.510776       -68.3217
  46   1.0000      -2.510478       -68.3136
  47   1.0000      -2.509941       -68.2990
  48   1.0000      -2.508205       -68.2517
  49   1.0000      -2.508032       -68.2470
  50   1.0000      -2.507869       -68.2426
  51   1.0000      -2.507499       -68.2325
  52   1.0000      -2.507021       -68.2195
  53   1.0000      -2.506931       -68.2171
  54   1.0000      -2.506516       -68.2058
  55   1.0000      -2.506201       -68.1972
  56   1.0000      -2.505424       -68.1761
  57   1.0000      -2.505254       -68.1714
  58   1.0000      -2.504775       -68.1584
  59   1.0000      -2.504357       -68.1470
  60   1.0000      -2.503905       -68.1347
  61   1.0000      -2.502622       -68.0998
  62   1.0000      -1.913561       -52.0706
  63   1.0000      -1.908647       -51.9369
  64   1.0000      -1.860295       -50.6212
  65   1.0000      -0.492824       -13.4104
  66   1.0000      -0.469129       -12.7657
  67   1.0000      -0.468127       -12.7384
  68   1.0000      -0.465877       -12.6772
  69   1.0000      -0.462729       -12.5915
  70   1.0000      -0.461526       -12.5588
  71   1.0000      -0.459304       -12.4983
  72   1.0000      -0.459040       -12.4911
  73   1.0000      -0.457172       -12.4403
  74   1.0000      -0.456739       -12.4285
  75   1.0000      -0.452729       -12.3194
  76   1.0000      -0.450881       -12.2691
  77   1.0000      -0.450444       -12.2572
  78   1.0000      -0.448393       -12.2014
  79   1.0000      -0.445868       -12.1327
  80   1.0000      -0.445246       -12.1157
  81   1.0000      -0.445202       -12.1146
  82   1.0000      -0.442580       -12.0432
  83   1.0000      -0.439880       -11.9697
  84   1.0000      -0.433600       -11.7989
  85   1.0000      -0.432746       -11.7756
  86   1.0000      -0.430662       -11.7189
  87   1.0000      -0.429699       -11.6927
  88   1.0000      -0.427384       -11.6297
  89   1.0000      -0.424054       -11.5391
  90   1.0000      -0.421713       -11.4754
  91   1.0000      -0.421342       -11.4653
  92   1.0000      -0.416108       -11.3229
  93   1.0000      -0.412943       -11.2367
  94   1.0000      -0.412590       -11.2271
  95   1.0000      -0.410854       -11.1799
  96   1.0000      -0.407272       -11.0824
  97   1.0000      -0.405859       -11.0440
  98   1.0000      -0.402413       -10.9502
  99   1.0000      -0.398667       -10.8483
 100   1.0000      -0.397650       -10.8206
 101   1.0000      -0.395174       -10.7532
 102   1.0000      -0.389321       -10.5940
 103   1.0000      -0.388647       -10.5756
 104   1.0000      -0.385858       -10.4997
 105   1.0000      -0.384162       -10.4536
 106   1.0000      -0.380529       -10.3547
 107   1.0000      -0.379799       -10.3348
 108   1.0000      -0.377037       -10.2597
 109   1.0000      -0.375715       -10.2237
 110   1.0000      -0.374264       -10.1842
 111   1.0000      -0.371750       -10.1158
 112   1.0000      -0.369507       -10.0548
 113   1.0000      -0.368960       -10.0399
 114   1.0000      -0.366187        -9.9644
 115   1.0000      -0.365103        -9.9350
 116   1.0000      -0.363469        -9.8905
 117   1.0000      -0.361830        -9.8459
 118   1.0000      -0.359101        -9.7716
 119   1.0000      -0.358350        -9.7512
 120   1.0000      -0.357566        -9.7299
 121   1.0000      -0.353917        -9.6306
 122   1.0000      -0.353191        -9.6108
 123   1.0000      -0.350078        -9.5261
 124   1.0000      -0.349931        -9.5221
 125   1.0000      -0.346461        -9.4277
 126   1.0000      -0.345861        -9.4114
 127   1.0000      -0.343842        -9.3564
 128   1.0000      -0.341500        -9.2927
 129   1.0000      -0.340945        -9.2776
 130   1.0000      -0.337991        -9.1972
 131   1.0000      -0.335756        -9.1364
 132   1.0000      -0.332934        -9.0596
 133   1.0000      -0.328976        -8.9519
 134   1.0000      -0.328184        -8.9303
 135   1.0000      -0.326721        -8.8905
 136   1.0000      -0.322924        -8.7872
 137   1.0000      -0.312491        -8.5033
 138   1.0000      -0.310679        -8.4540
 139   1.0000      -0.243322        -6.6211
 140   1.0000      -0.237796        -6.4708
 141   1.0000      -0.235587        -6.4107
 142   1.0000      -0.232972        -6.3395
 143   1.0000      -0.188619        -5.1326
 144   0.0000      -0.081067        -2.2059
 145   0.0000      -0.080094        -2.1795
 146   0.0000      -0.073374        -1.9966
 147   0.0000      -0.064518        -1.7556
 148   0.0000      -0.058976        -1.6048

MULLIKEN ATOMIC CHARGES AND SPIN POPULATIONS
--------------------------------------------
   0 Au:    0.194579   -0.023363
   1 Au:    0.304258   -0.124283
   2 Au:    0.185372   -0.193881
   3 Au:    0.077524   -0.159371
   4 Au:    0.194738   -0.022960
   5 Au:    0.303870   -0.123881
   6 Au:    0.073463   -0.166556
   7 Au:    0.321096    0.024850
   8 Au:    0.499888   -0.100523
   9 Au:    0.380870   -0.000182
  10 Au:    0.499173   -0.099901
  11 Au:    0.341820   -0.066443
  12 Au:    0.072837   -0.166960
  13 Au:    0.341638   -0.066561
  14 Cr:   -3.791126    3.290015
Sum of atomic charges         :   -0.0000000

LOEWDIN ATOMIC CHARGES AND SPIN POPULATIONS
-------------------------------------------
   0 Au:    0.018245   -0.024298
   1 Au:    0.066508   -0.156367
   2 Au:    0.067620   -0.191884
   3 Au:    0.023937   -0.126784
   4 Au:    0.018240   -0.023913
   5 Au:    0.066500   -0.156278
   6 Au:    0.031924   -0.133563
   7 Au:    0.098205   -0.028909
   8 Au:    0.106880   -0.104694
   9 Au:    0.072004   -0.016038
  10 Au:    0.106567   -0.104305
  11 Au:    0.136582   -0.120610
  12 Au:    0.031607   -0.133634
  13 Au:    0.136450   -0.120924
  14 Cr:   -0.981270    3.442200

  Mayer bond orders larger than 0.100000
B(  0-Au,  1-Au) :   0.2721 B(  0-Au,  3-Au) :   0.2377 B(  0-Au,  4-Au) :   0.1412
B(  0-Au,  7-Au) :   0.2022 B(  0-Au, 12-Au) :   0.1522 B(  0-Au, 14-Cr) :   0.3989
B(  1-Au,  2-Au) :   0.1398 B(  1-Au,  3-Au) :   0.1656 B(  1-Au, 10-Au) :   0.2103
B(  1-Au, 14-Cr) :   0.6538 B(  2-Au,  3-Au) :   0.2427 B(  2-Au,  5-Au) :   0.1385
B(  2-Au,  8-Au) :   0.1884 B(  2-Au, 10-Au) :   0.1887 B(  2-Au, 14-Cr) :   0.4912
B(  3-Au,  4-Au) :   0.2377 B(  3-Au,  5-Au) :   0.1670 B(  3-Au, 14-Cr) :   0.4071
B(  4-Au,  5-Au) :   0.2707 B(  4-Au,  6-Au) :   0.1521 B(  4-Au,  7-Au) :   0.2034
B(  4-Au, 14-Cr) :   0.3982 B(  5-Au,  8-Au) :   0.2109 B(  5-Au, 14-Cr) :   0.6538
B(  6-Au,  7-Au) :   0.2852 B(  6-Au, 12-Au) :   0.2508 B(  6-Au, 13-Au) :   0.3608
B(  6-Au, 14-Cr) :   0.5014 B(  7-Au, 12-Au) :   0.2860 B(  7-Au, 14-Cr) :   0.1518
B(  8-Au,  9-Au) :   0.1741 B(  8-Au, 13-Au) :   0.1336 B(  8-Au, 14-Cr) :   0.4980
B(  9-Au, 10-Au) :   0.1745 B(  9-Au, 11-Au) :   0.2307 B(  9-Au, 13-Au) :   0.2312
B(  9-Au, 14-Cr) :   0.3588 B( 10-Au, 11-Au) :   0.1335 B( 10-Au, 14-Cr) :   0.4981
B( 11-Au, 12-Au) :   0.3614 B( 11-Au, 14-Cr) :   0.5999 B( 12-Au, 14-Cr) :   0.5013
B( 13-Au, 14-Cr) :   0.5989

MP2 TOTAL ENERGY:    -2942.494982766 Eh
FINAL SINGLE POINT ENERGY     -2942.494982765916

DIPOLE MOMENT
-------------
                                X             Y             Z
Electronic contribution:     11.19081     -18.52408     -19.65915
Nuclear contribution   :    -11.27451      18.64037      19.79442
                        -----------------------------------------
Total Dipole Moment    :     -0.08370       0.11629       0.13526
                        -----------------------------------------
Magnitude (a.u.)       :      0.19704
Magnitude (Debye)      :      0.50083

Rotational constants in cm-1:     0.001289     0.000890     0.000878
Rotational constants in MHz :    38.654436    26.690810    26.325999

                             ****ORCA TERMINATED NORMALLY****
TOTAL RUN TIME: 0 days 2 hours 53 minutes 10 seconds 613 msec
