                         Program Version 5.0.3 -  RELEASE  -
|  1> !PBE def2-TZVP VERYSLOWCONV
|  2>
|  3> %scf
|  4>   AutoTRAHIter 200
|  5>   maxiter 400
|  6> end
|  7>
|  8>
|  9> %pal nprocs 6 end
| 10>
| 11> *xyzfile 0 5 pbe.xyz
| 12>
| 13> $new_job
| 14>
| 15> !PBE def2-TZVP VERYSLOWCONV
| 16>
| 17> %scf
| 18>   AutoTRAHIter 200
| 19>   maxiter 400
| 20> end
| 21>
| 22>
| 23> %pal nprocs 6 end
| 24>
| 25> *xyzfile 0 3 pbe.xyz
| 26>
| 27>
| 28>
| 29>
| 30>
| 31>                          ****END OF INPUT****
 Total Charge           Charge          ....    0
 Multiplicity           Mult            ....    5
 Number of Electrons    NEL             ....  290
FINAL SINGLE POINT ENERGY     -2945.827883140001

CARTESIAN COORDINATES (ANGSTROEM)
---------------------------------
  Au     8.599284    5.097797    6.529790
  Au     9.174496    7.375059    7.974291
  Au     8.549191    9.845111    6.646898
  Au     8.918612    7.439330    5.143509
  Au     6.646373    6.036954    4.531452
  Au     6.385882    8.721686    5.120388
  Au     4.766195    6.570372    6.534817
  Au     6.028431    4.069146    6.381738
  Au     5.972783   10.778865    6.943168
  Au     5.610930   10.106325    9.636151
  Au     8.356049    9.624787    9.387177
  Au     6.643567    7.579602   10.410320
  Au     6.792348    5.590609    8.609242
  Au     3.974672    8.871900    7.676123
  Cr     6.566854    8.222795    7.813965

 Multiplicity           Mult            ....    3
 Number of Electrons    NEL             ....  290
 Basis Dimension        Dim             ....  605

ORBITAL ENERGIES
----------------
                 SPIN UP ORBITALS
  NO   OCC          E(Eh)            E(eV)
   0   1.0000    -214.510622     -5837.1308
   1   1.0000     -24.312361      -661.5730
   2   1.0000     -20.679305      -562.7125
   3   1.0000     -20.675411      -562.6065
   4   1.0000     -20.672865      -562.5373
   5   1.0000      -4.032931      -109.7416
   6   1.0000      -4.032908      -109.7410
   7   1.0000      -4.029089      -109.6371
   8   1.0000      -4.029059      -109.6363
   9   1.0000      -4.028525      -109.6217
  10   1.0000      -4.028468      -109.6202
  11   1.0000      -4.027740      -109.6004
  12   1.0000      -4.022536      -109.4588
  13   1.0000      -4.022521      -109.4584
  14   1.0000      -4.022333      -109.4532
  15   1.0000      -4.022250      -109.4510
  16   1.0000      -4.021908      -109.4417
  17   1.0000      -4.020803      -109.4116
  18   1.0000      -4.018957      -109.3614
  19   1.0000      -2.811265       -76.4984
  20   1.0000      -2.249556       -61.2135
  21   1.0000      -2.249523       -61.2126
  22   1.0000      -2.247338       -61.1532
  23   1.0000      -2.247206       -61.1496
  24   1.0000      -2.246551       -61.1318
  25   1.0000      -2.246526       -61.1311
  26   1.0000      -2.244292       -61.0703
  27   1.0000      -2.243805       -61.0570
  28   1.0000      -2.242519       -61.0220
  29   1.0000      -2.242473       -61.0208
  30   1.0000      -2.242229       -61.0142
  31   1.0000      -2.241888       -61.0049
  32   1.0000      -2.241842       -61.0036
  33   1.0000      -2.241266       -60.9880
  34   1.0000      -2.240996       -60.9806
  35   1.0000      -2.239904       -60.9509
  36   1.0000      -2.239561       -60.9416
  37   1.0000      -2.239332       -60.9353
  38   1.0000      -2.239242       -60.9329
  39   1.0000      -2.239131       -60.9299
  40   1.0000      -2.238419       -60.9105
  41   1.0000      -2.238022       -60.8997
  42   1.0000      -2.237907       -60.8966
  43   1.0000      -2.237789       -60.8933
  44   1.0000      -2.237267       -60.8791
  45   1.0000      -2.236797       -60.8663
  46   1.0000      -2.236778       -60.8658
  47   1.0000      -2.236424       -60.8562
  48   1.0000      -2.235125       -60.8208
  49   1.0000      -2.235104       -60.8203
  50   1.0000      -2.234779       -60.8114
  51   1.0000      -2.234253       -60.7971
  52   1.0000      -2.234016       -60.7907
  53   1.0000      -2.233629       -60.7801
  54   1.0000      -2.232815       -60.7580
  55   1.0000      -2.232436       -60.7477
  56   1.0000      -2.231893       -60.7329
  57   1.0000      -2.231445       -60.7207
  58   1.0000      -2.231269       -60.7159
  59   1.0000      -2.229333       -60.6632
  60   1.0000      -2.229269       -60.6615
  61   1.0000      -2.228785       -60.6483
  62   1.0000      -1.804486       -49.1025
  63   1.0000      -1.800696       -48.9994
  64   1.0000      -1.796054       -48.8731
  65   1.0000      -0.422240       -11.4897
  66   1.0000      -0.387387       -10.5413
  67   1.0000      -0.379882       -10.3371
  68   1.0000      -0.377752       -10.2791
  69   1.0000      -0.369402       -10.0519
  70   1.0000      -0.366469        -9.9721
  71   1.0000      -0.362750        -9.8709
  72   1.0000      -0.362350        -9.8601
  73   1.0000      -0.360950        -9.8220
  74   1.0000      -0.356498        -9.7008
  75   1.0000      -0.354350        -9.6423
  76   1.0000      -0.351689        -9.5700
  77   1.0000      -0.348848        -9.4926
  78   1.0000      -0.347569        -9.4578
  79   1.0000      -0.343910        -9.3583
  80   1.0000      -0.343194        -9.3388
  81   1.0000      -0.340786        -9.2733
  82   1.0000      -0.340023        -9.2525
  83   1.0000      -0.338526        -9.2118
  84   1.0000      -0.333193        -9.0666
  85   1.0000      -0.330857        -9.0031
  86   1.0000      -0.329704        -8.9717
  87   1.0000      -0.329317        -8.9612
  88   1.0000      -0.327682        -8.9167
  89   1.0000      -0.323258        -8.7963
  90   1.0000      -0.321623        -8.7518
  91   1.0000      -0.319834        -8.7031
  92   1.0000      -0.318158        -8.6575
  93   1.0000      -0.317695        -8.6449
  94   1.0000      -0.316046        -8.6000
  95   1.0000      -0.312856        -8.5132
  96   1.0000      -0.310086        -8.4379
  97   1.0000      -0.306654        -8.3445
  98   1.0000      -0.304600        -8.2886
  99   1.0000      -0.303558        -8.2602
 100   1.0000      -0.302006        -8.2180
 101   1.0000      -0.297389        -8.0924
 102   1.0000      -0.294397        -8.0109
 103   1.0000      -0.293473        -7.9858
 104   1.0000      -0.287405        -7.8207
 105   1.0000      -0.285955        -7.7812
 106   1.0000      -0.282963        -7.6998
 107   1.0000      -0.281788        -7.6678
 108   1.0000      -0.280770        -7.6402
 109   1.0000      -0.280480        -7.6322
 110   1.0000      -0.278068        -7.5666
 111   1.0000      -0.275600        -7.4995
 112   1.0000      -0.274139        -7.4597
 113   1.0000      -0.273812        -7.4508
 114   1.0000      -0.273133        -7.4323
 115   1.0000      -0.270292        -7.3550
 116   1.0000      -0.266826        -7.2607
 117   1.0000      -0.266058        -7.2398
 118   1.0000      -0.264828        -7.2063
 119   1.0000      -0.263066        -7.1584
 120   1.0000      -0.262034        -7.1303
 121   1.0000      -0.259995        -7.0748
 122   1.0000      -0.259761        -7.0685
 123   1.0000      -0.257001        -6.9933
 124   1.0000      -0.256508        -6.9799
 125   1.0000      -0.254113        -6.9148
 126   1.0000      -0.253798        -6.9062
 127   1.0000      -0.252506        -6.8710
 128   1.0000      -0.251202        -6.8356
 129   1.0000      -0.249012        -6.7760
 130   1.0000      -0.248897        -6.7728
 131   1.0000      -0.246853        -6.7172
 132   1.0000      -0.246340        -6.7033
 133   1.0000      -0.243843        -6.6353
 134   1.0000      -0.241738        -6.5780
 135   1.0000      -0.241682        -6.5765
 136   1.0000      -0.239771        -6.5245
 137   1.0000      -0.238612        -6.4930
 138   1.0000      -0.235075        -6.3967
 139   1.0000      -0.227170        -6.1816
 140   1.0000      -0.220822        -6.0089
 141   1.0000      -0.219093        -5.9618
 142   1.0000      -0.218290        -5.9400
 143   1.0000      -0.216724        -5.8973
 144   1.0000      -0.203587        -5.5399
 145   1.0000      -0.197823        -5.3830
 146   0.0000      -0.190656        -5.1880
 147   0.0000      -0.175074        -4.7640
 148   0.0000      -0.162592        -4.4244
 149   0.0000      -0.136671        -3.7190
 150   0.0000      -0.133649        -3.6368

                 SPIN DOWN ORBITALS
  NO   OCC          E(Eh)            E(eV)
   0   1.0000    -214.510206     -5837.1194
   1   1.0000     -24.268127      -660.3693
   2   1.0000     -20.649123      -561.8912
   3   1.0000     -20.639787      -561.6372
   4   1.0000     -20.637261      -561.5684
   5   1.0000      -4.033152      -109.7476
   6   1.0000      -4.033134      -109.7472
   7   1.0000      -4.028729      -109.6273
   8   1.0000      -4.028699      -109.6265
   9   1.0000      -4.028698      -109.6264
  10   1.0000      -4.028644      -109.6250
  11   1.0000      -4.027813      -109.6024
  12   1.0000      -4.022734      -109.4642
  13   1.0000      -4.022646      -109.4618
  14   1.0000      -4.022366      -109.4542
  15   1.0000      -4.022364      -109.4541
  16   1.0000      -4.022351      -109.4537
  17   1.0000      -4.020082      -109.3920
  18   1.0000      -4.019702      -109.3817
  19   1.0000      -2.692484       -73.2662
  20   1.0000      -2.249710       -61.2177
  21   1.0000      -2.249661       -61.2164
  22   1.0000      -2.246777       -61.1379
  23   1.0000      -2.246690       -61.1356
  24   1.0000      -2.246541       -61.1315
  25   1.0000      -2.246463       -61.1294
  26   1.0000      -2.244304       -61.0706
  27   1.0000      -2.243847       -61.0582
  28   1.0000      -2.242815       -61.0301
  29   1.0000      -2.242586       -61.0239
  30   1.0000      -2.242563       -61.0232
  31   1.0000      -2.242311       -61.0164
  32   1.0000      -2.241317       -60.9893
  33   1.0000      -2.241216       -60.9866
  34   1.0000      -2.240796       -60.9752
  35   1.0000      -2.239908       -60.9510
  36   1.0000      -2.239832       -60.9489
  37   1.0000      -2.239560       -60.9415
  38   1.0000      -2.238946       -60.9248
  39   1.0000      -2.238889       -60.9233
  40   1.0000      -2.238781       -60.9203
  41   1.0000      -2.238177       -60.9039
  42   1.0000      -2.238028       -60.8998
  43   1.0000      -2.237948       -60.8977
  44   1.0000      -2.237304       -60.8801
  45   1.0000      -2.236912       -60.8695
  46   1.0000      -2.236711       -60.8640
  47   1.0000      -2.236652       -60.8624
  48   1.0000      -2.235622       -60.8344
  49   1.0000      -2.235550       -60.8324
  50   1.0000      -2.235306       -60.8258
  51   1.0000      -2.234113       -60.7933
  52   1.0000      -2.233583       -60.7789
  53   1.0000      -2.233313       -60.7715
  54   1.0000      -2.233216       -60.7689
  55   1.0000      -2.232964       -60.7620
  56   1.0000      -2.232259       -60.7429
  57   1.0000      -2.231656       -60.7265
  58   1.0000      -2.231044       -60.7098
  59   1.0000      -2.229375       -60.6644
  60   1.0000      -2.229286       -60.6620
  61   1.0000      -2.229278       -60.6617
  62   1.0000      -1.699363       -46.2420
  63   1.0000      -1.677854       -45.6567
  64   1.0000      -1.672991       -45.5244
  65   1.0000      -0.417650       -11.3648
  66   1.0000      -0.386491       -10.5169
  67   1.0000      -0.380043       -10.3415
  68   1.0000      -0.377048       -10.2600
  69   1.0000      -0.367847       -10.0096
  70   1.0000      -0.363102        -9.8805
  71   1.0000      -0.360544        -9.8109
  72   1.0000      -0.360247        -9.8028
  73   1.0000      -0.359628        -9.7860
  74   1.0000      -0.356620        -9.7041
  75   1.0000      -0.353650        -9.6233
  76   1.0000      -0.351488        -9.5645
  77   1.0000      -0.348768        -9.4905
  78   1.0000      -0.347329        -9.4513
  79   1.0000      -0.344925        -9.3859
  80   1.0000      -0.342998        -9.3334
  81   1.0000      -0.341146        -9.2831
  82   1.0000      -0.340383        -9.2623
  83   1.0000      -0.338056        -9.1990
  84   1.0000      -0.332348        -9.0436
  85   1.0000      -0.330606        -8.9962
  86   1.0000      -0.329524        -8.9668
  87   1.0000      -0.329102        -8.9553
  88   1.0000      -0.327184        -8.9031
  89   1.0000      -0.322378        -8.7724
  90   1.0000      -0.322110        -8.7651
  91   1.0000      -0.320688        -8.7264
  92   1.0000      -0.317895        -8.6504
  93   1.0000      -0.316532        -8.6133
  94   1.0000      -0.314163        -8.5488
  95   1.0000      -0.312897        -8.5143
  96   1.0000      -0.309393        -8.4190
  97   1.0000      -0.307207        -8.3595
  98   1.0000      -0.304864        -8.2958
  99   1.0000      -0.303478        -8.2581
 100   1.0000      -0.302087        -8.2202
 101   1.0000      -0.297465        -8.0944
 102   1.0000      -0.293652        -7.9907
 103   1.0000      -0.291780        -7.9397
 104   1.0000      -0.287215        -7.8155
 105   1.0000      -0.286154        -7.7867
 106   1.0000      -0.283984        -7.7276
 107   1.0000      -0.281786        -7.6678
 108   1.0000      -0.281087        -7.6488
 109   1.0000      -0.279255        -7.5989
 110   1.0000      -0.279218        -7.5979
 111   1.0000      -0.275467        -7.4958
 112   1.0000      -0.274965        -7.4822
 113   1.0000      -0.274027        -7.4566
 114   1.0000      -0.273484        -7.4419
 115   1.0000      -0.270843        -7.3700
 116   1.0000      -0.267413        -7.2767
 117   1.0000      -0.267075        -7.2675
 118   1.0000      -0.264780        -7.2050
 119   1.0000      -0.263975        -7.1831
 120   1.0000      -0.262948        -7.1552
 121   1.0000      -0.261144        -7.1061
 122   1.0000      -0.260485        -7.0881
 123   1.0000      -0.258005        -7.0207
 124   1.0000      -0.257968        -7.0197
 125   1.0000      -0.255139        -6.9427
 126   1.0000      -0.254507        -6.9255
 127   1.0000      -0.252807        -6.8792
 128   1.0000      -0.252279        -6.8649
 129   1.0000      -0.250383        -6.8133
 130   1.0000      -0.249402        -6.7866
 131   1.0000      -0.247683        -6.7398
 132   1.0000      -0.247122        -6.7245
 133   1.0000      -0.245319        -6.6755
 134   1.0000      -0.242568        -6.6006
 135   1.0000      -0.242427        -6.5968
 136   1.0000      -0.241348        -6.5674
 137   1.0000      -0.239861        -6.5269
 138   1.0000      -0.236261        -6.4290
 139   1.0000      -0.219165        -5.9638
 140   1.0000      -0.213834        -5.8187
 141   1.0000      -0.212639        -5.7862
 142   1.0000      -0.207696        -5.6517
 143   1.0000      -0.176084        -4.7915
 144   0.0000      -0.149005        -4.0546
 145   0.0000      -0.146400        -3.9838
 146   0.0000      -0.140289        -3.8175
 147   0.0000      -0.131148        -3.5687
 148   0.0000      -0.122842        -3.3427

MULLIKEN ATOMIC CHARGES AND SPIN POPULATIONS
--------------------------------------------
   0 Au:    0.208888   -0.076473
   1 Au:    0.321105   -0.079997
   2 Au:    0.253349   -0.117342
   3 Au:    0.105957   -0.146308
   4 Au:    0.209154   -0.075894
   5 Au:    0.320845   -0.079748
   6 Au:    0.075900   -0.062447
   7 Au:    0.359128    0.001619
   8 Au:    0.521320   -0.072387
   9 Au:    0.399471    0.015597
  10 Au:    0.520977   -0.072271
  11 Au:    0.360829   -0.034676
  12 Au:    0.074912   -0.062424
  13 Au:    0.360496   -0.034912
  14 Cr:   -4.092330    2.897663
Sum of atomic charges         :   -0.0000000

LOEWDIN ATOMIC CHARGES AND SPIN POPULATIONS
-------------------------------------------
   0 Au:    0.022168   -0.054766
   1 Au:    0.090535   -0.113843
   2 Au:    0.078766   -0.114075
   3 Au:    0.039437   -0.124047
   4 Au:    0.022114   -0.054392
   5 Au:    0.090503   -0.113547
   6 Au:    0.054593   -0.068835
   7 Au:    0.089043   -0.043570
   8 Au:    0.120293   -0.077753
   9 Au:    0.087504   -0.006067
  10 Au:    0.120142   -0.077662
  11 Au:    0.156312   -0.072073
  12 Au:    0.054234   -0.068826
  13 Au:    0.156228   -0.072244
  14 Cr:   -1.181873    3.061698

  Mayer bond orders larger than 0.100000
B(  0-Au,  1-Au) :   0.2988 B(  0-Au,  3-Au) :   0.2793 B(  0-Au,  4-Au) :   0.1966
B(  0-Au,  7-Au) :   0.2425 B(  0-Au, 12-Au) :   0.1884 B(  0-Au, 14-Cr) :   0.3597
B(  1-Au,  2-Au) :   0.1786 B(  1-Au,  3-Au) :   0.1960 B(  1-Au, 10-Au) :   0.2548
B(  1-Au, 14-Cr) :   0.7297 B(  2-Au,  3-Au) :   0.2531 B(  2-Au,  5-Au) :   0.1772
B(  2-Au,  8-Au) :   0.2368 B(  2-Au, 10-Au) :   0.2369 B(  2-Au, 14-Cr) :   0.5120
B(  3-Au,  4-Au) :   0.2794 B(  3-Au,  5-Au) :   0.1975 B(  3-Au, 14-Cr) :   0.4226
B(  4-Au,  5-Au) :   0.2972 B(  4-Au,  6-Au) :   0.1884 B(  4-Au,  7-Au) :   0.2437
B(  4-Au, 14-Cr) :   0.3594 B(  5-Au,  8-Au) :   0.2553 B(  5-Au, 14-Cr) :   0.7296
B(  6-Au,  7-Au) :   0.3131 B(  6-Au, 12-Au) :   0.2135 B(  6-Au, 13-Au) :   0.4152
B(  6-Au, 14-Cr) :   0.5685 B(  7-Au, 12-Au) :   0.3145 B(  7-Au, 14-Cr) :   0.1771
B(  8-Au,  9-Au) :   0.2108 B(  8-Au, 13-Au) :   0.1621 B(  8-Au, 14-Cr) :   0.6107
B(  9-Au, 10-Au) :   0.2113 B(  9-Au, 11-Au) :   0.2623 B(  9-Au, 13-Au) :   0.2630
B(  9-Au, 14-Cr) :   0.3666 B( 10-Au, 11-Au) :   0.1624 B( 10-Au, 14-Cr) :   0.6110
B( 11-Au, 12-Au) :   0.4156 B( 11-Au, 14-Cr) :   0.7082 B( 12-Au, 14-Cr) :   0.5683
B( 13-Au, 14-Cr) :   0.7080

FINAL SINGLE POINT ENERGY     -2945.815455560135

DIPOLE MOMENT
-------------
                                X             Y             Z
Electronic contribution:     11.21735     -18.56029     -19.70139
Nuclear contribution   :    -11.27451      18.64037      19.79442
                        -----------------------------------------
Total Dipole Moment    :     -0.05716       0.08007       0.09302
                        -----------------------------------------
Magnitude (a.u.)       :      0.13540
Magnitude (Debye)      :      0.34415

Rotational constants in cm-1:     0.001289     0.000890     0.000878
Rotational constants in MHz :    38.654436    26.690810    26.325999

                             ****ORCA TERMINATED NORMALLY****
TOTAL RUN TIME: 0 days 1 hours 17 minutes 42 seconds 808 msec
