                         Program Version 5.0.3 -  RELEASE  -
|  1> !R2SCAN def2-TZVP VERYSLOWCONV
|  2> !KDIIS
|  3> %scf
|  4>   AutoTRAHIter 200
|  5>   maxiter 400
|  6> end
|  7>
|  8> %pal nprocs 6 end
|  9>
| 10> *xyzfile 0 5 pbe.xyz
| 11>
| 12> $new_job
| 13>
| 14> !R2SCAN def2-TZVP VERYSLOWCONV
| 15> !KDIIS
| 16> %scf
| 17>   AutoTRAHIter 200
| 18>   maxiter 400
| 19> end
| 20>
| 21>
| 22> %pal nprocs 6 end
| 23>
| 24> *xyzfile 0 3 pbe.xyz
| 25>
| 26>
| 27>
| 28>
| 29>
| 30>                          ****END OF INPUT****
 Total Charge           Charge          ....    0
 Multiplicity           Mult            ....    5
 Number of Electrons    NEL             ....  290
FINAL SINGLE POINT ENERGY     -2946.312206508472

CARTESIAN COORDINATES (ANGSTROEM)
---------------------------------
  Au     8.599284    5.097797    6.529790
  Au     9.174496    7.375059    7.974291
  Au     8.549191    9.845111    6.646898
  Au     8.918612    7.439330    5.143509
  Au     6.646373    6.036954    4.531452
  Au     6.385882    8.721686    5.120388
  Au     4.766195    6.570372    6.534817
  Au     6.028431    4.069146    6.381738
  Au     5.972783   10.778865    6.943168
  Au     5.610930   10.106325    9.636151
  Au     8.356049    9.624787    9.387177
  Au     6.643567    7.579602   10.410320
  Au     6.792348    5.590609    8.609242
  Au     3.974672    8.871900    7.676123
  Cr     6.566854    8.222795    7.813965

 Multiplicity           Mult            ....    3
 Number of Electrons    NEL             ....  290
 Basis Dimension        Dim             ....  605

ORBITAL ENERGIES
----------------
                 SPIN UP ORBITALS
  NO   OCC          E(Eh)            E(eV)
   0   1.0000    -215.308156     -5858.8328
   1   1.0000     -24.610240      -669.6787
   2   1.0000     -20.879278      -568.1540
   3   1.0000     -20.876376      -568.0751
   4   1.0000     -20.873818      -568.0055
   5   1.0000      -4.123442      -112.2046
   6   1.0000      -4.123420      -112.2040
   7   1.0000      -4.119601      -112.1000
   8   1.0000      -4.119568      -112.0991
   9   1.0000      -4.119073      -112.0857
  10   1.0000      -4.119017      -112.0842
  11   1.0000      -4.117701      -112.0483
  12   1.0000      -4.113199      -111.9258
  13   1.0000      -4.113186      -111.9255
  14   1.0000      -4.112962      -111.9194
  15   1.0000      -4.112867      -111.9168
  16   1.0000      -4.112536      -111.9078
  17   1.0000      -4.111184      -111.8710
  18   1.0000      -4.108884      -111.8084
  19   1.0000      -2.926217       -79.6264
  20   1.0000      -2.312904       -62.9373
  21   1.0000      -2.312869       -62.9364
  22   1.0000      -2.310612       -62.8750
  23   1.0000      -2.310469       -62.8711
  24   1.0000      -2.309921       -62.8561
  25   1.0000      -2.309888       -62.8552
  26   1.0000      -2.307590       -62.7927
  27   1.0000      -2.307139       -62.7804
  28   1.0000      -2.305908       -62.7469
  29   1.0000      -2.305786       -62.7436
  30   1.0000      -2.305645       -62.7398
  31   1.0000      -2.305290       -62.7301
  32   1.0000      -2.305272       -62.7297
  33   1.0000      -2.304657       -62.7129
  34   1.0000      -2.304072       -62.6970
  35   1.0000      -2.302909       -62.6653
  36   1.0000      -2.302855       -62.6639
  37   1.0000      -2.302560       -62.6558
  38   1.0000      -2.302449       -62.6528
  39   1.0000      -2.302437       -62.6525
  40   1.0000      -2.301667       -62.6316
  41   1.0000      -2.301449       -62.6256
  42   1.0000      -2.301325       -62.6222
  43   1.0000      -2.301003       -62.6135
  44   1.0000      -2.300754       -62.6067
  45   1.0000      -2.300103       -62.5890
  46   1.0000      -2.300063       -62.5879
  47   1.0000      -2.299811       -62.5810
  48   1.0000      -2.298457       -62.5442
  49   1.0000      -2.298438       -62.5437
  50   1.0000      -2.297993       -62.5316
  51   1.0000      -2.297438       -62.5165
  52   1.0000      -2.297077       -62.5066
  53   1.0000      -2.297025       -62.5052
  54   1.0000      -2.295923       -62.4752
  55   1.0000      -2.295624       -62.4671
  56   1.0000      -2.295006       -62.4503
  57   1.0000      -2.294694       -62.4418
  58   1.0000      -2.294367       -62.4329
  59   1.0000      -2.293164       -62.4002
  60   1.0000      -2.293057       -62.3972
  61   1.0000      -2.291838       -62.3641
  62   1.0000      -1.874353       -51.0037
  63   1.0000      -1.873158       -50.9712
  64   1.0000      -1.870223       -50.8913
  65   1.0000      -0.426911       -11.6168
  66   1.0000      -0.392274       -10.6743
  67   1.0000      -0.386193       -10.5088
  68   1.0000      -0.383899       -10.4464
  69   1.0000      -0.377651       -10.2764
  70   1.0000      -0.375451       -10.2165
  71   1.0000      -0.370952       -10.0941
  72   1.0000      -0.370484       -10.0814
  73   1.0000      -0.369316       -10.0496
  74   1.0000      -0.365478        -9.9452
  75   1.0000      -0.362548        -9.8654
  76   1.0000      -0.360126        -9.7995
  77   1.0000      -0.357134        -9.7181
  78   1.0000      -0.356401        -9.6982
  79   1.0000      -0.352827        -9.6009
  80   1.0000      -0.351882        -9.5752
  81   1.0000      -0.349956        -9.5228
  82   1.0000      -0.348570        -9.4851
  83   1.0000      -0.347535        -9.4569
  84   1.0000      -0.341919        -9.3041
  85   1.0000      -0.339706        -9.2439
  86   1.0000      -0.338549        -9.2124
  87   1.0000      -0.338131        -9.2010
  88   1.0000      -0.336354        -9.1527
  89   1.0000      -0.332203        -9.0397
  90   1.0000      -0.330381        -8.9901
  91   1.0000      -0.328363        -8.9352
  92   1.0000      -0.326633        -8.8881
  93   1.0000      -0.326214        -8.8767
  94   1.0000      -0.324484        -8.8297
  95   1.0000      -0.321465        -8.7475
  96   1.0000      -0.318405        -8.6642
  97   1.0000      -0.315015        -8.5720
  98   1.0000      -0.312785        -8.5113
  99   1.0000      -0.311811        -8.4848
 100   1.0000      -0.310111        -8.4386
 101   1.0000      -0.305722        -8.3191
 102   1.0000      -0.302554        -8.2329
 103   1.0000      -0.302013        -8.2182
 104   1.0000      -0.295934        -8.0528
 105   1.0000      -0.294348        -8.0096
 106   1.0000      -0.290963        -7.9175
 107   1.0000      -0.289951        -7.8900
 108   1.0000      -0.289051        -7.8655
 109   1.0000      -0.288774        -7.8579
 110   1.0000      -0.286245        -7.7891
 111   1.0000      -0.283788        -7.7223
 112   1.0000      -0.282406        -7.6847
 113   1.0000      -0.281650        -7.6641
 114   1.0000      -0.280470        -7.6320
 115   1.0000      -0.278183        -7.5698
 116   1.0000      -0.274811        -7.4780
 117   1.0000      -0.274241        -7.4625
 118   1.0000      -0.272650        -7.4192
 119   1.0000      -0.270809        -7.3691
 120   1.0000      -0.269790        -7.3413
 121   1.0000      -0.267492        -7.2788
 122   1.0000      -0.267429        -7.2771
 123   1.0000      -0.264384        -7.1942
 124   1.0000      -0.263759        -7.1772
 125   1.0000      -0.261290        -7.1101
 126   1.0000      -0.260503        -7.0887
 127   1.0000      -0.259995        -7.0748
 128   1.0000      -0.258352        -7.0301
 129   1.0000      -0.256065        -6.9679
 130   1.0000      -0.256022        -6.9667
 131   1.0000      -0.253872        -6.9082
 132   1.0000      -0.253174        -6.8892
 133   1.0000      -0.249364        -6.7855
 134   1.0000      -0.248384        -6.7589
 135   1.0000      -0.248208        -6.7541
 136   1.0000      -0.245051        -6.6682
 137   1.0000      -0.244732        -6.6595
 138   1.0000      -0.241407        -6.5690
 139   1.0000      -0.239775        -6.5246
 140   1.0000      -0.228237        -6.2107
 141   1.0000      -0.226028        -6.1505
 142   1.0000      -0.223708        -6.0874
 143   1.0000      -0.220957        -6.0125
 144   1.0000      -0.209600        -5.7035
 145   1.0000      -0.202022        -5.4973
 146   0.0000      -0.189659        -5.1609
 147   0.0000      -0.174014        -4.7352
 148   0.0000      -0.159078        -4.3287
 149   0.0000      -0.131993        -3.5917
 150   0.0000      -0.128740        -3.5032

                 SPIN DOWN ORBITALS
  NO   OCC          E(Eh)            E(eV)
   0   1.0000    -215.307551     -5858.8163
   1   1.0000     -24.549747      -668.0326
   2   1.0000     -20.836922      -567.0015
   3   1.0000     -20.828133      -566.7623
   4   1.0000     -20.824661      -566.6678
   5   1.0000      -4.123859      -112.2159
   6   1.0000      -4.123846      -112.2155
   7   1.0000      -4.119444      -112.0958
   8   1.0000      -4.119388      -112.0942
   9   1.0000      -4.119345      -112.0931
  10   1.0000      -4.119312      -112.0922
  11   1.0000      -4.117998      -112.0564
  12   1.0000      -4.113495      -111.9339
  13   1.0000      -4.113397      -111.9312
  14   1.0000      -4.113178      -111.9253
  15   1.0000      -4.113163      -111.9249
  16   1.0000      -4.113080      -111.9226
  17   1.0000      -4.110450      -111.8510
  18   1.0000      -4.109954      -111.8375
  19   1.0000      -2.768911       -75.3459
  20   1.0000      -2.312978       -62.9393
  21   1.0000      -2.312923       -62.9378
  22   1.0000      -2.310136       -62.8620
  23   1.0000      -2.310111       -62.8613
  24   1.0000      -2.309827       -62.8536
  25   1.0000      -2.309669       -62.8493
  26   1.0000      -2.307675       -62.7950
  27   1.0000      -2.307275       -62.7841
  28   1.0000      -2.306430       -62.7611
  29   1.0000      -2.306202       -62.7549
  30   1.0000      -2.306002       -62.7495
  31   1.0000      -2.305803       -62.7441
  32   1.0000      -2.304806       -62.7170
  33   1.0000      -2.304233       -62.7014
  34   1.0000      -2.304207       -62.7007
  35   1.0000      -2.303224       -62.6739
  36   1.0000      -2.303042       -62.6690
  37   1.0000      -2.302707       -62.6598
  38   1.0000      -2.302344       -62.6500
  39   1.0000      -2.302317       -62.6492
  40   1.0000      -2.302169       -62.6452
  41   1.0000      -2.301684       -62.6320
  42   1.0000      -2.301410       -62.6245
  43   1.0000      -2.301300       -62.6215
  44   1.0000      -2.300793       -62.6078
  45   1.0000      -2.300391       -62.5968
  46   1.0000      -2.299925       -62.5842
  47   1.0000      -2.299854       -62.5822
  48   1.0000      -2.298974       -62.5583
  49   1.0000      -2.298876       -62.5556
  50   1.0000      -2.298694       -62.5506
  51   1.0000      -2.297451       -62.5168
  52   1.0000      -2.296576       -62.4930
  53   1.0000      -2.296384       -62.4878
  54   1.0000      -2.296381       -62.4877
  55   1.0000      -2.296046       -62.4786
  56   1.0000      -2.295743       -62.4703
  57   1.0000      -2.295320       -62.4588
  58   1.0000      -2.294236       -62.4293
  59   1.0000      -2.293200       -62.4011
  60   1.0000      -2.293002       -62.3957
  61   1.0000      -2.292512       -62.3824
  62   1.0000      -1.730971       -47.1021
  63   1.0000      -1.711238       -46.5652
  64   1.0000      -1.703933       -46.3664
  65   1.0000      -0.422457       -11.4956
  66   1.0000      -0.391821       -10.6620
  67   1.0000      -0.386606       -10.5201
  68   1.0000      -0.383504       -10.4357
  69   1.0000      -0.375952       -10.2302
  70   1.0000      -0.371158       -10.0997
  71   1.0000      -0.369100       -10.0437
  72   1.0000      -0.367997       -10.0137
  73   1.0000      -0.367903       -10.0112
  74   1.0000      -0.365760        -9.9528
  75   1.0000      -0.362264        -9.8577
  76   1.0000      -0.360057        -9.7977
  77   1.0000      -0.357687        -9.7332
  78   1.0000      -0.356411        -9.6984
  79   1.0000      -0.354082        -9.6351
  80   1.0000      -0.351790        -9.5727
  81   1.0000      -0.350364        -9.5339
  82   1.0000      -0.349696        -9.5157
  83   1.0000      -0.346971        -9.4416
  84   1.0000      -0.341358        -9.2888
  85   1.0000      -0.339836        -9.2474
  86   1.0000      -0.338361        -9.2073
  87   1.0000      -0.338066        -9.1993
  88   1.0000      -0.336245        -9.1497
  89   1.0000      -0.331274        -9.0144
  90   1.0000      -0.331116        -9.0101
  91   1.0000      -0.329884        -8.9766
  92   1.0000      -0.326482        -8.8840
  93   1.0000      -0.325364        -8.8536
  94   1.0000      -0.322623        -8.7790
  95   1.0000      -0.321709        -8.7541
  96   1.0000      -0.318038        -8.6542
  97   1.0000      -0.316354        -8.6084
  98   1.0000      -0.313568        -8.5326
  99   1.0000      -0.311424        -8.4743
 100   1.0000      -0.310530        -8.4499
 101   1.0000      -0.306040        -8.3278
 102   1.0000      -0.301938        -8.2162
 103   1.0000      -0.300190        -8.1686
 104   1.0000      -0.295846        -8.0504
 105   1.0000      -0.294972        -8.0266
 106   1.0000      -0.292437        -7.9576
 107   1.0000      -0.290510        -7.9052
 108   1.0000      -0.289331        -7.8731
 109   1.0000      -0.287978        -7.8363
 110   1.0000      -0.287228        -7.8159
 111   1.0000      -0.283708        -7.7201
 112   1.0000      -0.283489        -7.7141
 113   1.0000      -0.282201        -7.6791
 114   1.0000      -0.281186        -7.6515
 115   1.0000      -0.279111        -7.5950
 116   1.0000      -0.275663        -7.5012
 117   1.0000      -0.275537        -7.4978
 118   1.0000      -0.272609        -7.4181
 119   1.0000      -0.272218        -7.4074
 120   1.0000      -0.271271        -7.3816
 121   1.0000      -0.269072        -7.3218
 122   1.0000      -0.268438        -7.3046
 123   1.0000      -0.266212        -7.2440
 124   1.0000      -0.265777        -7.2321
 125   1.0000      -0.262853        -7.1526
 126   1.0000      -0.261503        -7.1159
 127   1.0000      -0.260549        -7.0899
 128   1.0000      -0.260155        -7.0792
 129   1.0000      -0.258125        -7.0239
 130   1.0000      -0.256501        -6.9797
 131   1.0000      -0.254944        -6.9374
 132   1.0000      -0.254377        -6.9219
 133   1.0000      -0.252003        -6.8574
 134   1.0000      -0.249420        -6.7871
 135   1.0000      -0.249286        -6.7834
 136   1.0000      -0.248102        -6.7512
 137   1.0000      -0.246848        -6.7171
 138   1.0000      -0.243055        -6.6139
 139   1.0000      -0.221275        -6.0212
 140   1.0000      -0.216267        -5.8849
 141   1.0000      -0.214511        -5.8371
 142   1.0000      -0.209678        -5.7056
 143   1.0000      -0.175954        -4.7880
 144   0.0000      -0.142606        -3.8805
 145   0.0000      -0.140824        -3.8320
 146   0.0000      -0.135646        -3.6911
 147   0.0000      -0.125907        -3.4261
 148   0.0000      -0.116233        -3.1629

MULLIKEN ATOMIC CHARGES AND SPIN POPULATIONS
--------------------------------------------
   0 Au:    0.198260   -0.090927
   1 Au:    0.280714   -0.110528
   2 Au:    0.215942   -0.145727
   3 Au:    0.080337   -0.168861
   4 Au:    0.198306   -0.090342
   5 Au:    0.280703   -0.110037
   6 Au:    0.064826   -0.090379
   7 Au:    0.317486    0.002228
   8 Au:    0.474743   -0.101025
   9 Au:    0.348919    0.014206
  10 Au:    0.474602   -0.100955
  11 Au:    0.328567   -0.059119
  12 Au:    0.063550   -0.090283
  13 Au:    0.327906   -0.059491
  14 Cr:   -3.654860    3.201240
Sum of atomic charges         :   -0.0000000

LOEWDIN ATOMIC CHARGES AND SPIN POPULATIONS
-------------------------------------------
   0 Au:    0.023378   -0.065752
   1 Au:    0.085756   -0.133444
   2 Au:    0.072021   -0.135096
   3 Au:    0.034769   -0.143634
   4 Au:    0.023329   -0.065340
   5 Au:    0.085705   -0.133120
   6 Au:    0.049683   -0.087808
   7 Au:    0.086143   -0.049768
   8 Au:    0.116402   -0.091353
   9 Au:    0.081279   -0.012369
  10 Au:    0.116255   -0.091269
  11 Au:    0.150487   -0.088920
  12 Au:    0.049303   -0.087734
  13 Au:    0.150395   -0.089187
  14 Cr:   -1.124905    3.274793

  Mayer bond orders larger than 0.100000
B(  0-Au,  1-Au) :   0.2981 B(  0-Au,  3-Au) :   0.2656 B(  0-Au,  4-Au) :   0.1829
B(  0-Au,  7-Au) :   0.2277 B(  0-Au, 12-Au) :   0.1702 B(  0-Au, 14-Cr) :   0.3430
B(  1-Au,  2-Au) :   0.1624 B(  1-Au,  3-Au) :   0.1782 B(  1-Au, 10-Au) :   0.2558
B(  1-Au, 14-Cr) :   0.7247 B(  2-Au,  3-Au) :   0.2501 B(  2-Au,  5-Au) :   0.1610
B(  2-Au,  8-Au) :   0.2271 B(  2-Au, 10-Au) :   0.2272 B(  2-Au, 14-Cr) :   0.4833
B(  3-Au,  4-Au) :   0.2659 B(  3-Au,  5-Au) :   0.1799 B(  3-Au, 14-Cr) :   0.3943
B(  4-Au,  5-Au) :   0.2963 B(  4-Au,  6-Au) :   0.1702 B(  4-Au,  7-Au) :   0.2289
B(  4-Au, 14-Cr) :   0.3430 B(  5-Au,  8-Au) :   0.2564 B(  5-Au, 14-Cr) :   0.7244
B(  6-Au,  7-Au) :   0.3054 B(  6-Au, 12-Au) :   0.1976 B(  6-Au, 13-Au) :   0.4116
B(  6-Au, 14-Cr) :   0.5653 B(  7-Au, 12-Au) :   0.3068 B(  7-Au, 14-Cr) :   0.1606
B(  8-Au,  9-Au) :   0.1996 B(  8-Au, 13-Au) :   0.1506 B(  8-Au, 14-Cr) :   0.6042
B(  9-Au, 10-Au) :   0.2002 B(  9-Au, 11-Au) :   0.2522 B(  9-Au, 13-Au) :   0.2529
B(  9-Au, 14-Cr) :   0.3696 B( 10-Au, 11-Au) :   0.1509 B( 10-Au, 14-Cr) :   0.6044
B( 11-Au, 12-Au) :   0.4121 B( 11-Au, 14-Cr) :   0.6949 B( 12-Au, 14-Cr) :   0.5656
B( 13-Au, 14-Cr) :   0.6950

FINAL SINGLE POINT ENERGY     -2946.295951122093

DIPOLE MOMENT
-------------
                                X             Y             Z
Electronic contribution:     11.20415     -18.57018     -19.69308
Nuclear contribution   :    -11.27451      18.64037      19.79442
                        -----------------------------------------
Total Dipole Moment    :     -0.07036       0.07019       0.10134
                        -----------------------------------------
Magnitude (a.u.)       :      0.14194
Magnitude (Debye)      :      0.36077

Rotational constants in cm-1:     0.001289     0.000890     0.000878
Rotational constants in MHz :    38.654436    26.690810    26.325999

                             ****ORCA TERMINATED NORMALLY****
TOTAL RUN TIME: 0 days 0 hours 24 minutes 31 seconds 817 msec
