                         Program Version 5.0.3 -  RELEASE  -
|  1> %pal nprocs 1 end
|  2>
|  3> !PBE def2-TZVP OPT UNO
|  4> !SLOWCONV KDIIS
|  5>
|  6> %geom maxiter 300 end
|  7>
|  8> *xyzfile 0 5 9.xyz                           ****END OF INPUT****
 Total Charge           Charge          ....    0
 Multiplicity           Mult            ....    5
 Number of Electrons    NEL             ....  328
FINAL SINGLE POINT ENERGY     -3217.490870011999
FINAL SINGLE POINT ENERGY     -3217.495033996633
FINAL SINGLE POINT ENERGY     -3217.497903064715
FINAL SINGLE POINT ENERGY     -3217.499565625205
FINAL SINGLE POINT ENERGY     -3217.500800395004
FINAL SINGLE POINT ENERGY     -3217.501636974524
FINAL SINGLE POINT ENERGY     -3217.501998466844
FINAL SINGLE POINT ENERGY     -3217.502239190147
FINAL SINGLE POINT ENERGY     -3217.502361555143
FINAL SINGLE POINT ENERGY     -3217.502463350000
FINAL SINGLE POINT ENERGY     -3217.503345221179
FINAL SINGLE POINT ENERGY     -3217.503353722092
FINAL SINGLE POINT ENERGY     -3217.503362912297
FINAL SINGLE POINT ENERGY     -3217.503372287255
FINAL SINGLE POINT ENERGY     -3217.503381528954
FINAL SINGLE POINT ENERGY     -3217.503389406812
FINAL SINGLE POINT ENERGY     -3217.503395101654
FINAL SINGLE POINT ENERGY     -3217.503399995627
FINAL SINGLE POINT ENERGY     -3217.503402157893
                    ***********************HURRAY********************

CARTESIAN COORDINATES (ANGSTROEM)
---------------------------------
  Au     6.439690    8.402611    8.742717
  Au     6.016457    9.603232    6.197072
  Au     8.720283    4.487923   10.492521
  Au    10.599760    6.650051    6.568332
  Au     7.959489    5.668176    8.078503
  Au     8.260800    5.826897    5.309550
  Au     5.939499    6.803164    6.524347
  Au     9.623428    8.081070    4.309824
  Au     8.176761    9.826803   10.278955
  Au     8.100625    7.126089   10.538007
  Au    10.519362    6.106302    9.273093
  Au    10.591177    8.493238   10.836226
  Au    10.490868    9.723888    6.305963
  Au    10.485514   10.599883    8.923313
  Au     8.084380   10.742173    7.563406
  Au    11.884882    8.260379    8.346099
  Cr     8.298009    8.180011    6.705880

 Multiplicity           Mult            ....    5
 Number of Electrons    NEL             ....  328
 Basis Dimension        Dim             ....  685

ORBITAL ENERGIES
----------------
                 SPIN UP ORBITALS
  NO   OCC          E(Eh)            E(eV)
   0   1.0000    -214.486434     -5836.4726
   1   1.0000     -24.285773      -660.8495
   2   1.0000     -20.651176      -561.9471
   3   1.0000     -20.650616      -561.9318
   4   1.0000     -20.644465      -561.7645
   5   1.0000      -4.032709      -109.7356
   6   1.0000      -4.032684      -109.7349
   7   1.0000      -4.032638      -109.7337
   8   1.0000      -4.032207      -109.7219
   9   1.0000      -4.032079      -109.7185
  10   1.0000      -4.030648      -109.6795
  11   1.0000      -4.030573      -109.6775
  12   1.0000      -4.027713      -109.5997
  13   1.0000      -4.027607      -109.5968
  14   1.0000      -4.023206      -109.4770
  15   1.0000      -4.022155      -109.4484
  16   1.0000      -4.022147      -109.4482
  17   1.0000      -4.021804      -109.4388
  18   1.0000      -4.021789      -109.4384
  19   1.0000      -4.017695      -109.3271
  20   1.0000      -4.012040      -109.1731
  21   1.0000      -2.795048       -76.0571
  22   1.0000      -2.251333       -61.2619
  23   1.0000      -2.250203       -61.2311
  24   1.0000      -2.250120       -61.2289
  25   1.0000      -2.247528       -61.1583
  26   1.0000      -2.247276       -61.1515
  27   1.0000      -2.247088       -61.1464
  28   1.0000      -2.247012       -61.1443
  29   1.0000      -2.246928       -61.1420
  30   1.0000      -2.245925       -61.1147
  31   1.0000      -2.245597       -61.1058
  32   1.0000      -2.244760       -61.0830
  33   1.0000      -2.244582       -61.0782
  34   1.0000      -2.244563       -61.0777
  35   1.0000      -2.244393       -61.0730
  36   1.0000      -2.243594       -61.0513
  37   1.0000      -2.243306       -61.0434
  38   1.0000      -2.243200       -61.0406
  39   1.0000      -2.243158       -61.0394
  40   1.0000      -2.242342       -61.0172
  41   1.0000      -2.242075       -61.0100
  42   1.0000      -2.241593       -60.9968
  43   1.0000      -2.240009       -60.9537
  44   1.0000      -2.239597       -60.9425
  45   1.0000      -2.239545       -60.9411
  46   1.0000      -2.239208       -60.9319
  47   1.0000      -2.238932       -60.9244
  48   1.0000      -2.238455       -60.9115
  49   1.0000      -2.238110       -60.9021
  50   1.0000      -2.237958       -60.8979
  51   1.0000      -2.237369       -60.8819
  52   1.0000      -2.236607       -60.8612
  53   1.0000      -2.236300       -60.8528
  54   1.0000      -2.235672       -60.8357
  55   1.0000      -2.235479       -60.8305
  56   1.0000      -2.234948       -60.8160
  57   1.0000      -2.234895       -60.8146
  58   1.0000      -2.234868       -60.8138
  59   1.0000      -2.234792       -60.8118
  60   1.0000      -2.231822       -60.7310
  61   1.0000      -2.231166       -60.7131
  62   1.0000      -2.231160       -60.7130
  63   1.0000      -2.230464       -60.6940
  64   1.0000      -2.229833       -60.6768
  65   1.0000      -2.229016       -60.6546
  66   1.0000      -2.227703       -60.6189
  67   1.0000      -2.226300       -60.5807
  68   1.0000      -2.226227       -60.5787
  69   1.0000      -2.221775       -60.4576
  70   1.0000      -1.788027       -48.6547
  71   1.0000      -1.787987       -48.6536
  72   1.0000      -1.779084       -48.4113
  73   1.0000      -0.425598       -11.5811
  74   1.0000      -0.396720       -10.7953
  75   1.0000      -0.390339       -10.6217
  76   1.0000      -0.388689       -10.5768
  77   1.0000      -0.377280       -10.2663
  78   1.0000      -0.370045       -10.0694
  79   1.0000      -0.367240        -9.9931
  80   1.0000      -0.365825        -9.9546
  81   1.0000      -0.360663        -9.8141
  82   1.0000      -0.355598        -9.6763
  83   1.0000      -0.355181        -9.6650
  84   1.0000      -0.354589        -9.6489
  85   1.0000      -0.351755        -9.5717
  86   1.0000      -0.350262        -9.5311
  87   1.0000      -0.349743        -9.5170
  88   1.0000      -0.347906        -9.4670
  89   1.0000      -0.347805        -9.4643
  90   1.0000      -0.346071        -9.4171
  91   1.0000      -0.346050        -9.4165
  92   1.0000      -0.343743        -9.3537
  93   1.0000      -0.342116        -9.3094
  94   1.0000      -0.338771        -9.2184
  95   1.0000      -0.336521        -9.1572
  96   1.0000      -0.336135        -9.1467
  97   1.0000      -0.333488        -9.0747
  98   1.0000      -0.330917        -9.0047
  99   1.0000      -0.330436        -8.9916
 100   1.0000      -0.327944        -8.9238
 101   1.0000      -0.326054        -8.8724
 102   1.0000      -0.321400        -8.7457
 103   1.0000      -0.321080        -8.7370
 104   1.0000      -0.317760        -8.6467
 105   1.0000      -0.316088        -8.6012
 106   1.0000      -0.313687        -8.5358
 107   1.0000      -0.311941        -8.4883
 108   1.0000      -0.309912        -8.4331
 109   1.0000      -0.308717        -8.4006
 110   1.0000      -0.305845        -8.3225
 111   1.0000      -0.303875        -8.2689
 112   1.0000      -0.300798        -8.1851
 113   1.0000      -0.298484        -8.1222
 114   1.0000      -0.295561        -8.0426
 115   1.0000      -0.290078        -7.8934
 116   1.0000      -0.287391        -7.8203
 117   1.0000      -0.285685        -7.7739
 118   1.0000      -0.285156        -7.7595
 119   1.0000      -0.283900        -7.7253
 120   1.0000      -0.283634        -7.7181
 121   1.0000      -0.282237        -7.6801
 122   1.0000      -0.281181        -7.6513
 123   1.0000      -0.279955        -7.6180
 124   1.0000      -0.278495        -7.5782
 125   1.0000      -0.275781        -7.5044
 126   1.0000      -0.275146        -7.4871
 127   1.0000      -0.272443        -7.4135
 128   1.0000      -0.272057        -7.4030
 129   1.0000      -0.271493        -7.3877
 130   1.0000      -0.270845        -7.3701
 131   1.0000      -0.269851        -7.3430
 132   1.0000      -0.269018        -7.3203
 133   1.0000      -0.267148        -7.2695
 134   1.0000      -0.266964        -7.2645
 135   1.0000      -0.266536        -7.2528
 136   1.0000      -0.266177        -7.2430
 137   1.0000      -0.263220        -7.1626
 138   1.0000      -0.262685        -7.1480
 139   1.0000      -0.258946        -7.0463
 140   1.0000      -0.258570        -7.0360
 141   1.0000      -0.258377        -7.0308
 142   1.0000      -0.257156        -6.9976
 143   1.0000      -0.256160        -6.9705
 144   1.0000      -0.255921        -6.9640
 145   1.0000      -0.250875        -6.8266
 146   1.0000      -0.250706        -6.8221
 147   1.0000      -0.250602        -6.8192
 148   1.0000      -0.248341        -6.7577
 149   1.0000      -0.247140        -6.7250
 150   1.0000      -0.244643        -6.6571
 151   1.0000      -0.242684        -6.6038
 152   1.0000      -0.241708        -6.5772
 153   1.0000      -0.240424        -6.5423
 154   1.0000      -0.239725        -6.5233
 155   1.0000      -0.235230        -6.4009
 156   1.0000      -0.229948        -6.2572
 157   1.0000      -0.225027        -6.1233
 158   1.0000      -0.224765        -6.1162
 159   1.0000      -0.222840        -6.0638
 160   1.0000      -0.214368        -5.8333
 161   1.0000      -0.209797        -5.7089
 162   1.0000      -0.208794        -5.6816
 163   1.0000      -0.199708        -5.4343
 164   1.0000      -0.193212        -5.2576
 165   1.0000      -0.191891        -5.2216
 166   0.0000      -0.179235        -4.8772
 167   0.0000      -0.156384        -4.2554
 168   0.0000      -0.138469        -3.7679
 169   0.0000      -0.136300        -3.7089
 170   0.0000      -0.134680        -3.6648

                 SPIN DOWN ORBITALS
  NO   OCC          E(Eh)            E(eV)
   0   1.0000    -214.485994     -5836.4606
   1   1.0000     -24.236397      -659.5059
   2   1.0000     -20.615382      -560.9731
   3   1.0000     -20.615054      -560.9641
   4   1.0000     -20.602671      -560.6272
   5   1.0000      -4.032008      -109.7165
   6   1.0000      -4.031908      -109.7138
   7   1.0000      -4.031884      -109.7131
   8   1.0000      -4.031561      -109.7044
   9   1.0000      -4.031434      -109.7009
  10   1.0000      -4.029950      -109.6605
  11   1.0000      -4.029873      -109.6584
  12   1.0000      -4.027491      -109.5936
  13   1.0000      -4.027385      -109.5907
  14   1.0000      -4.022885      -109.4683
  15   1.0000      -4.021692      -109.4358
  16   1.0000      -4.021677      -109.4354
  17   1.0000      -4.021187      -109.4221
  18   1.0000      -4.021168      -109.4215
  19   1.0000      -4.017777      -109.3293
  20   1.0000      -4.011902      -109.1694
  21   1.0000      -2.661190       -72.4147
  22   1.0000      -2.250642       -61.2431
  23   1.0000      -2.249410       -61.2096
  24   1.0000      -2.249293       -61.2064
  25   1.0000      -2.246646       -61.1343
  26   1.0000      -2.246549       -61.1317
  27   1.0000      -2.246340       -61.1260
  28   1.0000      -2.246270       -61.1241
  29   1.0000      -2.246204       -61.1223
  30   1.0000      -2.245409       -61.1007
  31   1.0000      -2.244950       -61.0882
  32   1.0000      -2.243947       -61.0609
  33   1.0000      -2.243818       -61.0574
  34   1.0000      -2.243486       -61.0483
  35   1.0000      -2.243426       -61.0467
  36   1.0000      -2.242865       -61.0315
  37   1.0000      -2.242752       -61.0284
  38   1.0000      -2.242421       -61.0194
  39   1.0000      -2.242419       -61.0193
  40   1.0000      -2.241800       -61.0025
  41   1.0000      -2.241558       -60.9959
  42   1.0000      -2.241037       -60.9817
  43   1.0000      -2.239618       -60.9431
  44   1.0000      -2.239242       -60.9329
  45   1.0000      -2.239199       -60.9317
  46   1.0000      -2.238946       -60.9248
  47   1.0000      -2.238503       -60.9128
  48   1.0000      -2.237896       -60.8963
  49   1.0000      -2.237231       -60.8781
  50   1.0000      -2.236857       -60.8680
  51   1.0000      -2.236746       -60.8649
  52   1.0000      -2.236370       -60.8547
  53   1.0000      -2.236096       -60.8473
  54   1.0000      -2.235489       -60.8307
  55   1.0000      -2.235363       -60.8273
  56   1.0000      -2.234858       -60.8136
  57   1.0000      -2.234761       -60.8109
  58   1.0000      -2.233995       -60.7901
  59   1.0000      -2.233960       -60.7891
  60   1.0000      -2.231661       -60.7266
  61   1.0000      -2.230362       -60.6912
  62   1.0000      -2.230272       -60.6888
  63   1.0000      -2.230258       -60.6884
  64   1.0000      -2.229689       -60.6729
  65   1.0000      -2.229246       -60.6609
  66   1.0000      -2.227573       -60.6154
  67   1.0000      -2.226140       -60.5764
  68   1.0000      -2.226134       -60.5762
  69   1.0000      -2.221598       -60.4527
  70   1.0000      -1.662766       -45.2462
  71   1.0000      -1.662716       -45.2448
  72   1.0000      -1.633403       -44.4472
  73   1.0000      -0.421211       -11.4617
  74   1.0000      -0.393079       -10.6962
  75   1.0000      -0.389223       -10.5913
  76   1.0000      -0.386119       -10.5068
  77   1.0000      -0.375734       -10.2242
  78   1.0000      -0.368706       -10.0330
  79   1.0000      -0.364977        -9.9315
  80   1.0000      -0.363889        -9.9019
  81   1.0000      -0.358696        -9.7606
  82   1.0000      -0.354482        -9.6460
  83   1.0000      -0.353927        -9.6309
  84   1.0000      -0.352098        -9.5811
  85   1.0000      -0.349159        -9.5011
  86   1.0000      -0.349148        -9.5008
  87   1.0000      -0.347699        -9.4614
  88   1.0000      -0.347241        -9.4489
  89   1.0000      -0.346607        -9.4317
  90   1.0000      -0.345740        -9.4081
  91   1.0000      -0.344659        -9.3786
  92   1.0000      -0.343008        -9.3337
  93   1.0000      -0.341653        -9.2969
  94   1.0000      -0.338194        -9.2027
  95   1.0000      -0.336061        -9.1447
  96   1.0000      -0.332866        -9.0577
  97   1.0000      -0.332048        -9.0355
  98   1.0000      -0.330069        -8.9816
  99   1.0000      -0.327869        -8.9218
 100   1.0000      -0.326295        -8.8789
 101   1.0000      -0.325226        -8.8499
 102   1.0000      -0.320484        -8.7208
 103   1.0000      -0.320012        -8.7080
 104   1.0000      -0.317130        -8.6296
 105   1.0000      -0.315507        -8.5854
 106   1.0000      -0.311539        -8.4774
 107   1.0000      -0.310339        -8.4448
 108   1.0000      -0.308500        -8.3947
 109   1.0000      -0.304460        -8.2848
 110   1.0000      -0.303898        -8.2695
 111   1.0000      -0.302581        -8.2336
 112   1.0000      -0.299731        -8.1561
 113   1.0000      -0.296683        -8.0732
 114   1.0000      -0.290829        -7.9139
 115   1.0000      -0.289232        -7.8704
 116   1.0000      -0.286772        -7.8035
 117   1.0000      -0.284690        -7.7468
 118   1.0000      -0.284067        -7.7299
 119   1.0000      -0.282914        -7.6985
 120   1.0000      -0.282294        -7.6816
 121   1.0000      -0.281210        -7.6521
 122   1.0000      -0.279466        -7.6046
 123   1.0000      -0.279069        -7.5938
 124   1.0000      -0.277658        -7.5555
 125   1.0000      -0.275705        -7.5023
 126   1.0000      -0.274762        -7.4767
 127   1.0000      -0.271857        -7.3976
 128   1.0000      -0.271121        -7.3776
 129   1.0000      -0.271000        -7.3743
 130   1.0000      -0.270111        -7.3501
 131   1.0000      -0.268621        -7.3096
 132   1.0000      -0.268214        -7.2985
 133   1.0000      -0.266693        -7.2571
 134   1.0000      -0.266075        -7.2403
 135   1.0000      -0.265891        -7.2353
 136   1.0000      -0.265523        -7.2252
 137   1.0000      -0.262978        -7.1560
 138   1.0000      -0.262289        -7.1372
 139   1.0000      -0.258317        -7.0292
 140   1.0000      -0.258145        -7.0245
 141   1.0000      -0.258025        -7.0212
 142   1.0000      -0.256642        -6.9836
 143   1.0000      -0.255934        -6.9643
 144   1.0000      -0.255322        -6.9477
 145   1.0000      -0.250451        -6.8151
 146   1.0000      -0.250261        -6.8099
 147   1.0000      -0.249959        -6.8017
 148   1.0000      -0.247961        -6.7474
 149   1.0000      -0.246585        -6.7099
 150   1.0000      -0.244050        -6.6409
 151   1.0000      -0.242155        -6.5894
 152   1.0000      -0.240778        -6.5519
 153   1.0000      -0.239599        -6.5198
 154   1.0000      -0.239301        -6.5117
 155   1.0000      -0.234706        -6.3867
 156   1.0000      -0.228882        -6.2282
 157   1.0000      -0.223133        -6.0718
 158   1.0000      -0.222942        -6.0666
 159   1.0000      -0.216957        -5.9037
 160   1.0000      -0.205855        -5.6016
 161   1.0000      -0.200579        -5.4580
 162   0.0000      -0.163305        -4.4438
 163   0.0000      -0.144830        -3.9410
 164   0.0000      -0.143235        -3.8976
 165   0.0000      -0.142663        -3.8821
 166   0.0000      -0.126589        -3.4447

MULLIKEN ATOMIC CHARGES AND SPIN POPULATIONS
--------------------------------------------
   0 Au:    0.151059    0.032270
   1 Au:    0.402328    0.035715
   2 Au:    0.535079    0.018122
   3 Au:    0.149848    0.032174
   4 Au:   -0.505961    0.017698
   5 Au:    0.594496    0.020617
   6 Au:    0.594920    0.020513
   7 Au:    0.402924    0.034997
   8 Au:    0.203917    0.012857
   9 Au:   -0.109843    0.000461
  10 Au:   -0.114987    0.000588
  11 Au:    0.131715    0.037711
  12 Au:    0.244986   -0.015077
  13 Au:    0.181894    0.077923
  14 Au:    0.248404   -0.014362
  15 Au:    0.207505    0.013153
  16 Cr:   -3.318284    3.674640
Sum of atomic charges         :   -0.0000000

LOEWDIN ATOMIC CHARGES AND SPIN POPULATIONS
-------------------------------------------
   0 Au:    0.035949    0.015969
   1 Au:    0.165962    0.025987
   2 Au:    0.176150    0.012643
   3 Au:    0.035674    0.016016
   4 Au:   -0.047853    0.018384
   5 Au:    0.137055    0.004377
   6 Au:    0.137237    0.004413
   7 Au:    0.165922    0.025492
   8 Au:    0.035926    0.012176
   9 Au:   -0.061807    0.012431
  10 Au:   -0.062638    0.012589
  11 Au:    0.024039    0.038423
  12 Au:    0.062323    0.003115
  13 Au:    0.024078    0.031843
  14 Au:    0.062932    0.003376
  15 Au:    0.036677    0.012286
  16 Cr:   -0.927626    3.750479

  Mayer bond orders larger than 0.100000
B(  0-Au,  1-Au) :   0.1632 B(  0-Au,  4-Au) :   0.1582 B(  0-Au,  6-Au) :   0.2077
B(  0-Au,  7-Au) :   0.1485 B(  0-Au,  8-Au) :   0.2667 B(  0-Au,  9-Au) :   0.2688
B(  0-Au, 14-Au) :   0.1011 B(  0-Au, 16-Cr) :   0.4913 B(  1-Au,  3-Au) :   0.1490
B(  1-Au,  6-Au) :   0.2508 B(  1-Au, 14-Au) :   0.3129 B(  1-Au, 16-Cr) :   0.5327
B(  2-Au,  4-Au) :   0.3997 B(  2-Au,  9-Au) :   0.3223 B(  2-Au, 10-Au) :   0.3236
B(  3-Au,  4-Au) :   0.1581 B(  3-Au,  5-Au) :   0.2077 B(  3-Au,  7-Au) :   0.1637
B(  3-Au, 10-Au) :   0.2676 B(  3-Au, 12-Au) :   0.1038 B(  3-Au, 15-Au) :   0.2673
B(  3-Au, 16-Cr) :   0.4916 B(  4-Au,  5-Au) :   0.2295 B(  4-Au,  6-Au) :   0.2303
B(  4-Au,  9-Au) :   0.2634 B(  4-Au, 10-Au) :   0.2652 B(  4-Au, 16-Cr) :   0.2780
B(  5-Au,  6-Au) :   0.2283 B(  5-Au,  7-Au) :   0.2521 B(  5-Au, 16-Cr) :   0.4777
B(  6-Au, 16-Cr) :   0.4773 B(  7-Au, 12-Au) :   0.3135 B(  7-Au, 16-Cr) :   0.5302
B(  8-Au,  9-Au) :   0.3406 B(  8-Au, 11-Au) :   0.2784 B(  8-Au, 13-Au) :   0.2215
B(  8-Au, 14-Au) :   0.1835 B(  8-Au, 16-Cr) :   0.2431 B(  9-Au, 10-Au) :   0.2628
B(  9-Au, 11-Au) :   0.2729 B(  9-Au, 16-Cr) :   0.2922 B( 10-Au, 11-Au) :   0.2744
B( 10-Au, 15-Au) :   0.3420 B( 10-Au, 16-Cr) :   0.2932 B( 11-Au, 13-Au) :   0.2972
B( 11-Au, 15-Au) :   0.2768 B( 11-Au, 16-Cr) :   0.1030 B( 12-Au, 13-Au) :   0.2716
B( 12-Au, 14-Au) :   0.2369 B( 12-Au, 15-Au) :   0.1832 B( 12-Au, 16-Cr) :   0.5540
B( 13-Au, 14-Au) :   0.2700 B( 13-Au, 15-Au) :   0.2214 B( 13-Au, 16-Cr) :   0.2892
B( 14-Au, 16-Cr) :   0.5541 B( 15-Au, 16-Cr) :   0.2415

FINAL SINGLE POINT ENERGY     -3217.503402819866

DIPOLE MOMENT
-------------
                                X             Y             Z
Electronic contribution:     19.73214     -10.22571      45.82904
Nuclear contribution   :    -20.12713       9.87803     -46.30727
                        -----------------------------------------
Total Dipole Moment    :     -0.39499      -0.34768      -0.47822
                        -----------------------------------------
Magnitude (a.u.)       :      0.71105
Magnitude (Debye)      :      1.80736

Rotational constants in cm-1:     0.000865     0.000785     0.000717
Rotational constants in MHz :    25.929728    23.528301    21.497504

                             ****ORCA TERMINATED NORMALLY****
TOTAL RUN TIME: 0 days 7 hours 46 minutes 29 seconds 120 msec
