                         Program Version 5.0.3 -  RELEASE  -
|  1> %pal nprocs 1 end
|  2>
|  3> !PBE def2-TZVP OPT UNO
|  4> !SLOWCONV KDIIS
|  5>
|  6> %geom maxiter 300 end
|  7>
|  8> *xyzfile 0 3 1.xyz                           ****END OF INPUT****
 Total Charge           Charge          ....    0
 Multiplicity           Mult            ....    3
 Number of Electrons    NEL             ....  328
FINAL SINGLE POINT ENERGY     -3217.495222806750
FINAL SINGLE POINT ENERGY     -3217.497584516543
FINAL SINGLE POINT ENERGY     -3217.498530785367
FINAL SINGLE POINT ENERGY     -3217.499341625397
FINAL SINGLE POINT ENERGY     -3217.499593940711
FINAL SINGLE POINT ENERGY     -3217.499823738381
FINAL SINGLE POINT ENERGY     -3217.500086624922
FINAL SINGLE POINT ENERGY     -3217.500484335232
FINAL SINGLE POINT ENERGY     -3217.500656200599
FINAL SINGLE POINT ENERGY     -3217.500945742836
FINAL SINGLE POINT ENERGY     -3217.501148292527
FINAL SINGLE POINT ENERGY     -3217.501242040943
FINAL SINGLE POINT ENERGY     -3217.501268079308
FINAL SINGLE POINT ENERGY     -3217.501274328590
FINAL SINGLE POINT ENERGY     -3217.501277072533
                    ***********************HURRAY********************

CARTESIAN COORDINATES (ANGSTROEM)
---------------------------------
  Au     9.554058    6.230807    7.267637
  Au     8.294643    9.517793    9.773636
  Au    10.304109    7.576623    9.561552
  Au    10.901022   10.363575    9.252050
  Au     5.802063    8.941441    8.924495
  Au     7.671489    6.759368    9.612670
  Au     7.261274    4.707885    7.659040
  Au     5.075334    6.212630    8.677695
  Au     8.943801   10.513159    7.262578
  Au    10.965911    8.589751    7.020080
  Au     8.809001    8.463027    5.310911
  Au     7.958707    5.746269    5.042336
  Au     6.199929    7.890699    4.421138
  Au     5.189249    5.587755    5.851406
  Au     4.322942    8.189147    6.657677
  Au     6.476537    9.960452    6.331376
  Cr     6.966483    7.356780    7.022113

 Multiplicity           Mult            ....    3
 Number of Electrons    NEL             ....  328
 Basis Dimension        Dim             ....  685

ORBITAL ENERGIES
----------------
                 SPIN UP ORBITALS
  NO   OCC          E(Eh)            E(eV)
   0   1.0000    -214.503573     -5836.9390
   1   1.0000     -24.303764      -661.3390
   2   1.0000     -20.670183      -562.4643
   3   1.0000     -20.668962      -562.4311
   4   1.0000     -20.662598      -562.2579
   5   1.0000      -4.035023      -109.7985
   6   1.0000      -4.034891      -109.7950
   7   1.0000      -4.034499      -109.7843
   8   1.0000      -4.034381      -109.7811
   9   1.0000      -4.032763      -109.7371
  10   1.0000      -4.032597      -109.7325
  11   1.0000      -4.032530      -109.7307
  12   1.0000      -4.030227      -109.6681
  13   1.0000      -4.030055      -109.6634
  14   1.0000      -4.028620      -109.6243
  15   1.0000      -4.024356      -109.5083
  16   1.0000      -4.019869      -109.3862
  17   1.0000      -4.019735      -109.3825
  18   1.0000      -4.019538      -109.3772
  19   1.0000      -4.019331      -109.3716
  20   1.0000      -4.012774      -109.1931
  21   1.0000      -2.805894       -76.3523
  22   1.0000      -2.251525       -61.2671
  23   1.0000      -2.251404       -61.2638
  24   1.0000      -2.250819       -61.2479
  25   1.0000      -2.250487       -61.2389
  26   1.0000      -2.250073       -61.2276
  27   1.0000      -2.248378       -61.1815
  28   1.0000      -2.248110       -61.1742
  29   1.0000      -2.247882       -61.1680
  30   1.0000      -2.247773       -61.1650
  31   1.0000      -2.247021       -61.1445
  32   1.0000      -2.246864       -61.1403
  33   1.0000      -2.246034       -61.1177
  34   1.0000      -2.245940       -61.1151
  35   1.0000      -2.245427       -61.1012
  36   1.0000      -2.245235       -61.0959
  37   1.0000      -2.244903       -61.0869
  38   1.0000      -2.244741       -61.0825
  39   1.0000      -2.244143       -61.0662
  40   1.0000      -2.243784       -61.0565
  41   1.0000      -2.243301       -61.0433
  42   1.0000      -2.243212       -61.0409
  43   1.0000      -2.243085       -61.0374
  44   1.0000      -2.242938       -61.0335
  45   1.0000      -2.242790       -61.0294
  46   1.0000      -2.242326       -61.0168
  47   1.0000      -2.242197       -61.0133
  48   1.0000      -2.241326       -60.9896
  49   1.0000      -2.241247       -60.9874
  50   1.0000      -2.240782       -60.9748
  51   1.0000      -2.239988       -60.9532
  52   1.0000      -2.238588       -60.9151
  53   1.0000      -2.237271       -60.8792
  54   1.0000      -2.236519       -60.8588
  55   1.0000      -2.236148       -60.8487
  56   1.0000      -2.235975       -60.8440
  57   1.0000      -2.235211       -60.8232
  58   1.0000      -2.234263       -60.7974
  59   1.0000      -2.234025       -60.7909
  60   1.0000      -2.233362       -60.7729
  61   1.0000      -2.233163       -60.7675
  62   1.0000      -2.231597       -60.7248
  63   1.0000      -2.230298       -60.6895
  64   1.0000      -2.228638       -60.6443
  65   1.0000      -2.228454       -60.6393
  66   1.0000      -2.226951       -60.5984
  67   1.0000      -2.226696       -60.5915
  68   1.0000      -2.224726       -60.5379
  69   1.0000      -2.224506       -60.5319
  70   1.0000      -1.799204       -48.9588
  71   1.0000      -1.797808       -48.9209
  72   1.0000      -1.789527       -48.6955
  73   1.0000      -0.435224       -11.8431
  74   1.0000      -0.392114       -10.6700
  75   1.0000      -0.390172       -10.6171
  76   1.0000      -0.389547       -10.6001
  77   1.0000      -0.380702       -10.3594
  78   1.0000      -0.374175       -10.1818
  79   1.0000      -0.372441       -10.1346
  80   1.0000      -0.366454        -9.9717
  81   1.0000      -0.366324        -9.9682
  82   1.0000      -0.362364        -9.8604
  83   1.0000      -0.360594        -9.8123
  84   1.0000      -0.359208        -9.7745
  85   1.0000      -0.357957        -9.7405
  86   1.0000      -0.356915        -9.7121
  87   1.0000      -0.356257        -9.6942
  88   1.0000      -0.352404        -9.5894
  89   1.0000      -0.348360        -9.4793
  90   1.0000      -0.347287        -9.4502
  91   1.0000      -0.346120        -9.4184
  92   1.0000      -0.345502        -9.4016
  93   1.0000      -0.342189        -9.3114
  94   1.0000      -0.340067        -9.2537
  95   1.0000      -0.338460        -9.2100
  96   1.0000      -0.336907        -9.1677
  97   1.0000      -0.334629        -9.1057
  98   1.0000      -0.332755        -9.0547
  99   1.0000      -0.332131        -9.0377
 100   1.0000      -0.330575        -8.9954
 101   1.0000      -0.329165        -8.9570
 102   1.0000      -0.327273        -8.9056
 103   1.0000      -0.326911        -8.8957
 104   1.0000      -0.321632        -8.7521
 105   1.0000      -0.318410        -8.6644
 106   1.0000      -0.318134        -8.6569
 107   1.0000      -0.312030        -8.4908
 108   1.0000      -0.310693        -8.4544
 109   1.0000      -0.310394        -8.4463
 110   1.0000      -0.301932        -8.2160
 111   1.0000      -0.301088        -8.1930
 112   1.0000      -0.300762        -8.1841
 113   1.0000      -0.298716        -8.1285
 114   1.0000      -0.297960        -8.1079
 115   1.0000      -0.296775        -8.0757
 116   1.0000      -0.292883        -7.9697
 117   1.0000      -0.291174        -7.9232
 118   1.0000      -0.289915        -7.8890
 119   1.0000      -0.287251        -7.8165
 120   1.0000      -0.286728        -7.8023
 121   1.0000      -0.286547        -7.7974
 122   1.0000      -0.281265        -7.6536
 123   1.0000      -0.279508        -7.6058
 124   1.0000      -0.277985        -7.5643
 125   1.0000      -0.277840        -7.5604
 126   1.0000      -0.276802        -7.5322
 127   1.0000      -0.273848        -7.4518
 128   1.0000      -0.273560        -7.4440
 129   1.0000      -0.270726        -7.3668
 130   1.0000      -0.270662        -7.3651
 131   1.0000      -0.269978        -7.3465
 132   1.0000      -0.269875        -7.3437
 133   1.0000      -0.268865        -7.3162
 134   1.0000      -0.266656        -7.2561
 135   1.0000      -0.266060        -7.2399
 136   1.0000      -0.264206        -7.1894
 137   1.0000      -0.261711        -7.1215
 138   1.0000      -0.260053        -7.0764
 139   1.0000      -0.259108        -7.0507
 140   1.0000      -0.257970        -7.0197
 141   1.0000      -0.257285        -7.0011
 142   1.0000      -0.255672        -6.9572
 143   1.0000      -0.254345        -6.9211
 144   1.0000      -0.253368        -6.8945
 145   1.0000      -0.252134        -6.8609
 146   1.0000      -0.251252        -6.8369
 147   1.0000      -0.250783        -6.8242
 148   1.0000      -0.249552        -6.7906
 149   1.0000      -0.248114        -6.7515
 150   1.0000      -0.245309        -6.6752
 151   1.0000      -0.243554        -6.6274
 152   1.0000      -0.241619        -6.5748
 153   1.0000      -0.240846        -6.5537
 154   1.0000      -0.238683        -6.4949
 155   1.0000      -0.236183        -6.4269
 156   1.0000      -0.232237        -6.3195
 157   1.0000      -0.230006        -6.2588
 158   1.0000      -0.222330        -6.0499
 159   1.0000      -0.220344        -5.9959
 160   1.0000      -0.219172        -5.9640
 161   1.0000      -0.217303        -5.9131
 162   1.0000      -0.206844        -5.6285
 163   1.0000      -0.197706        -5.3799
 164   1.0000      -0.196112        -5.3365
 165   0.0000      -0.182399        -4.9633
 166   0.0000      -0.180095        -4.9006
 167   0.0000      -0.165242        -4.4965
 168   0.0000      -0.140501        -3.8232
 169   0.0000      -0.140110        -3.8126

                 SPIN DOWN ORBITALS
  NO   OCC          E(Eh)            E(eV)
   0   1.0000    -214.503172     -5836.9281
   1   1.0000     -24.258266      -660.1010
   2   1.0000     -20.637899      -561.5858
   3   1.0000     -20.635848      -561.5300
   4   1.0000     -20.623724      -561.2001
   5   1.0000      -4.034444      -109.7828
   6   1.0000      -4.034384      -109.7812
   7   1.0000      -4.034307      -109.7791
   8   1.0000      -4.034251      -109.7775
   9   1.0000      -4.032775      -109.7374
  10   1.0000      -4.032665      -109.7344
  11   1.0000      -4.032007      -109.7165
  12   1.0000      -4.030156      -109.6661
  13   1.0000      -4.029984      -109.6614
  14   1.0000      -4.028454      -109.6198
  15   1.0000      -4.024469      -109.5114
  16   1.0000      -4.020302      -109.3980
  17   1.0000      -4.020168      -109.3943
  18   1.0000      -4.019946      -109.3883
  19   1.0000      -4.019730      -109.3824
  20   1.0000      -4.012952      -109.1980
  21   1.0000      -2.683364       -73.0181
  22   1.0000      -2.250906       -61.2503
  23   1.0000      -2.250746       -61.2459
  24   1.0000      -2.250550       -61.2406
  25   1.0000      -2.249950       -61.2243
  26   1.0000      -2.249909       -61.2231
  27   1.0000      -2.248173       -61.1759
  28   1.0000      -2.247889       -61.1682
  29   1.0000      -2.247618       -61.1608
  30   1.0000      -2.247453       -61.1563
  31   1.0000      -2.246201       -61.1222
  32   1.0000      -2.246069       -61.1186
  33   1.0000      -2.245835       -61.1123
  34   1.0000      -2.245807       -61.1115
  35   1.0000      -2.245256       -61.0965
  36   1.0000      -2.245047       -61.0908
  37   1.0000      -2.244893       -61.0866
  38   1.0000      -2.244357       -61.0721
  39   1.0000      -2.243939       -61.0607
  40   1.0000      -2.243806       -61.0571
  41   1.0000      -2.243045       -61.0363
  42   1.0000      -2.242911       -61.0327
  43   1.0000      -2.242783       -61.0292
  44   1.0000      -2.242715       -61.0274
  45   1.0000      -2.242402       -61.0189
  46   1.0000      -2.242356       -61.0176
  47   1.0000      -2.242179       -61.0128
  48   1.0000      -2.241433       -60.9925
  49   1.0000      -2.241362       -60.9906
  50   1.0000      -2.240721       -60.9731
  51   1.0000      -2.239928       -60.9515
  52   1.0000      -2.238173       -60.9038
  53   1.0000      -2.237962       -60.8980
  54   1.0000      -2.237213       -60.8777
  55   1.0000      -2.236481       -60.8577
  56   1.0000      -2.236331       -60.8537
  57   1.0000      -2.235714       -60.8369
  58   1.0000      -2.234849       -60.8133
  59   1.0000      -2.234703       -60.8094
  60   1.0000      -2.233774       -60.7841
  61   1.0000      -2.233573       -60.7786
  62   1.0000      -2.231975       -60.7351
  63   1.0000      -2.230520       -60.6955
  64   1.0000      -2.228866       -60.6505
  65   1.0000      -2.228656       -60.6448
  66   1.0000      -2.227149       -60.6038
  67   1.0000      -2.226831       -60.5951
  68   1.0000      -2.224935       -60.5436
  69   1.0000      -2.224708       -60.5374
  70   1.0000      -1.686668       -45.8966
  71   1.0000      -1.682446       -45.7817
  72   1.0000      -1.655113       -45.0379
  73   1.0000      -0.429892       -11.6979
  74   1.0000      -0.391513       -10.6536
  75   1.0000      -0.390227       -10.6186
  76   1.0000      -0.389760       -10.6059
  77   1.0000      -0.377713       -10.2781
  78   1.0000      -0.371110       -10.0984
  79   1.0000      -0.369747       -10.0613
  80   1.0000      -0.364836        -9.9277
  81   1.0000      -0.363984        -9.9045
  82   1.0000      -0.362429        -9.8622
  83   1.0000      -0.360792        -9.8177
  84   1.0000      -0.358007        -9.7419
  85   1.0000      -0.357046        -9.7157
  86   1.0000      -0.355086        -9.6624
  87   1.0000      -0.354983        -9.6596
  88   1.0000      -0.353572        -9.6212
  89   1.0000      -0.348379        -9.4799
  90   1.0000      -0.347981        -9.4691
  91   1.0000      -0.347277        -9.4499
  92   1.0000      -0.345471        -9.4007
  93   1.0000      -0.343073        -9.3355
  94   1.0000      -0.341129        -9.2826
  95   1.0000      -0.339275        -9.2321
  96   1.0000      -0.337737        -9.1903
  97   1.0000      -0.335666        -9.1339
  98   1.0000      -0.333539        -9.0760
  99   1.0000      -0.332474        -9.0471
 100   1.0000      -0.330883        -9.0038
 101   1.0000      -0.329851        -8.9757
 102   1.0000      -0.327483        -8.9113
 103   1.0000      -0.326908        -8.8956
 104   1.0000      -0.320857        -8.7310
 105   1.0000      -0.318762        -8.6739
 106   1.0000      -0.317736        -8.6460
 107   1.0000      -0.311912        -8.4875
 108   1.0000      -0.310949        -8.4614
 109   1.0000      -0.309196        -8.4136
 110   1.0000      -0.302991        -8.2448
 111   1.0000      -0.302030        -8.2187
 112   1.0000      -0.301124        -8.1940
 113   1.0000      -0.299488        -8.1495
 114   1.0000      -0.296726        -8.0743
 115   1.0000      -0.294330        -8.0091
 116   1.0000      -0.290838        -7.9141
 117   1.0000      -0.289382        -7.8745
 118   1.0000      -0.288881        -7.8609
 119   1.0000      -0.287762        -7.8304
 120   1.0000      -0.286540        -7.7972
 121   1.0000      -0.286278        -7.7900
 122   1.0000      -0.280942        -7.6448
 123   1.0000      -0.279404        -7.6030
 124   1.0000      -0.279012        -7.5923
 125   1.0000      -0.277896        -7.5619
 126   1.0000      -0.277159        -7.5419
 127   1.0000      -0.274712        -7.4753
 128   1.0000      -0.274302        -7.4641
 129   1.0000      -0.271906        -7.3989
 130   1.0000      -0.271723        -7.3940
 131   1.0000      -0.270756        -7.3677
 132   1.0000      -0.270583        -7.3629
 133   1.0000      -0.270132        -7.3507
 134   1.0000      -0.267655        -7.2833
 135   1.0000      -0.266700        -7.2573
 136   1.0000      -0.264474        -7.1967
 137   1.0000      -0.262239        -7.1359
 138   1.0000      -0.261099        -7.1049
 139   1.0000      -0.260288        -7.0828
 140   1.0000      -0.259447        -7.0599
 141   1.0000      -0.258716        -7.0400
 142   1.0000      -0.256394        -6.9768
 143   1.0000      -0.255123        -6.9422
 144   1.0000      -0.254316        -6.9203
 145   1.0000      -0.252938        -6.8828
 146   1.0000      -0.251980        -6.8567
 147   1.0000      -0.251184        -6.8351
 148   1.0000      -0.251095        -6.8327
 149   1.0000      -0.249930        -6.8009
 150   1.0000      -0.246274        -6.7015
 151   1.0000      -0.244474        -6.6525
 152   1.0000      -0.241845        -6.5809
 153   1.0000      -0.241460        -6.5705
 154   1.0000      -0.238817        -6.4985
 155   1.0000      -0.236688        -6.4406
 156   1.0000      -0.232383        -6.3235
 157   1.0000      -0.230205        -6.2642
 158   1.0000      -0.215890        -5.8747
 159   1.0000      -0.215798        -5.8722
 160   1.0000      -0.205782        -5.5996
 161   1.0000      -0.205657        -5.5962
 162   1.0000      -0.181584        -4.9411
 163   0.0000      -0.149494        -4.0679
 164   0.0000      -0.148953        -4.0532
 165   0.0000      -0.132233        -3.5982
 166   0.0000      -0.128778        -3.5042
 167   0.0000      -0.126103        -3.4314

MULLIKEN ATOMIC CHARGES AND SPIN POPULATIONS
--------------------------------------------
   0 Au:    0.078747   -0.004493
   1 Au:    0.001309   -0.007297
   2 Au:    0.258187    0.026175
   3 Au:    0.349301   -0.202905
   4 Au:    0.450352   -0.040418
   5 Au:    0.186971   -0.011161
   6 Au:    0.621021   -0.045436
   7 Au:    0.634119   -0.019474
   8 Au:    0.001647   -0.009185
   9 Au:    0.249430    0.025776
  10 Au:    0.192218   -0.011242
  11 Au:    0.622000   -0.044591
  12 Au:    0.633023   -0.019083
  13 Au:    0.399420   -0.187561
  14 Au:    0.599244   -0.003492
  15 Au:    0.453505   -0.041838
  16 Cr:   -5.730494    2.596227
Sum of atomic charges         :   -0.0000000

LOEWDIN ATOMIC CHARGES AND SPIN POPULATIONS
-------------------------------------------
   0 Au:    0.047609   -0.031110
   1 Au:   -0.000658   -0.050143
   2 Au:    0.030514   -0.015303
   3 Au:    0.058252   -0.124176
   4 Au:    0.114086   -0.086883
   5 Au:    0.076639   -0.043475
   6 Au:    0.150397   -0.103411
   7 Au:    0.142827   -0.078526
   8 Au:    0.000430   -0.051263
   9 Au:    0.027504   -0.016468
  10 Au:    0.077962   -0.044077
  11 Au:    0.150415   -0.102732
  12 Au:    0.142622   -0.078069
  13 Au:    0.109961   -0.143962
  14 Au:    0.132531   -0.060335
  15 Au:    0.113989   -0.088289
  16 Cr:   -1.375078    3.118223

  Mayer bond orders larger than 0.100000
B(  0-Au,  2-Au) :   0.2660 B(  0-Au,  5-Au) :   0.1419 B(  0-Au,  6-Au) :   0.1976
B(  0-Au,  9-Au) :   0.2643 B(  0-Au, 10-Au) :   0.1381 B(  0-Au, 11-Au) :   0.1978
B(  0-Au, 16-Cr) :   0.5109 B(  1-Au,  2-Au) :   0.2350 B(  1-Au,  3-Au) :   0.3340
B(  1-Au,  4-Au) :   0.2882 B(  1-Au,  5-Au) :   0.2315 B(  1-Au,  8-Au) :   0.2803
B(  1-Au, 16-Cr) :   0.3754 B(  2-Au,  3-Au) :   0.2123 B(  2-Au,  5-Au) :   0.2974
B(  2-Au,  9-Au) :   0.2136 B(  2-Au, 16-Cr) :   0.2965 B(  3-Au,  8-Au) :   0.3319
B(  3-Au,  9-Au) :   0.2209 B(  3-Au, 16-Cr) :   0.1192 B(  4-Au,  5-Au) :   0.1391
B(  4-Au,  7-Au) :   0.1683 B(  4-Au, 11-Au) :   0.1002 B(  4-Au, 14-Au) :   0.2039
B(  4-Au, 15-Au) :   0.2205 B(  4-Au, 16-Cr) :   0.5808 B(  5-Au,  6-Au) :   0.1544
B(  5-Au,  7-Au) :   0.2197 B(  5-Au, 16-Cr) :   0.5621 B(  6-Au,  7-Au) :   0.1859
B(  6-Au, 11-Au) :   0.1676 B(  6-Au, 13-Au) :   0.1880 B(  6-Au, 15-Au) :   0.1004
B(  6-Au, 16-Cr) :   0.5909 B(  7-Au, 13-Au) :   0.1652 B(  7-Au, 14-Au) :   0.1533
B(  7-Au, 16-Cr) :   0.5188 B(  8-Au,  9-Au) :   0.2351 B(  8-Au, 10-Au) :   0.2323
B(  8-Au, 15-Au) :   0.2874 B(  8-Au, 16-Cr) :   0.3765 B(  9-Au, 10-Au) :   0.2950
B(  9-Au, 16-Cr) :   0.3000 B( 10-Au, 11-Au) :   0.1560 B( 10-Au, 12-Au) :   0.2184
B( 10-Au, 15-Au) :   0.1390 B( 10-Au, 16-Cr) :   0.5630 B( 11-Au, 12-Au) :   0.1864
B( 11-Au, 13-Au) :   0.1866 B( 11-Au, 16-Cr) :   0.5926 B( 12-Au, 13-Au) :   0.1670
B( 12-Au, 14-Au) :   0.1493 B( 12-Au, 15-Au) :   0.1714 B( 12-Au, 16-Cr) :   0.5166
B( 13-Au, 14-Au) :   0.1823 B( 13-Au, 16-Cr) :   0.5047 B( 14-Au, 15-Au) :   0.2043
B( 14-Au, 16-Cr) :   0.4525 B( 15-Au, 16-Cr) :   0.5766

FINAL SINGLE POINT ENERGY     -3217.501277945300

DIPOLE MOMENT
-------------
                                X             Y             Z
Electronic contribution:     26.63801      16.28447      13.58677
Nuclear contribution   :    -27.05654     -16.63558     -13.83552
                        -----------------------------------------
Total Dipole Moment    :     -0.41852      -0.35111      -0.24874
                        -----------------------------------------
Magnitude (a.u.)       :      0.60026
Magnitude (Debye)      :      1.52574

Rotational constants in cm-1:     0.001107     0.000699     0.000697
Rotational constants in MHz :    33.183824    20.942111    20.909492

                             ****ORCA TERMINATED NORMALLY****
TOTAL RUN TIME: 0 days 3 hours 44 minutes 51 seconds 934 msec
