                         Program Version 5.0.3 -  RELEASE  -
|  1> !RI-B2PLYP def2-TZVP def2-TZVP/C
|  2> !RIJCOSX VERYSLOWCONV
|  3>
|  4> %scf
|  5>   AutoTRAHIter 200
|  6>   maxiter 400
|  7> end
|  8>
|  9>
| 10> %pal nprocs 6 end
| 11>
| 12> *xyzfile 0 6 pbe.xyz
| 13>
| 14> $new_job
| 15>
| 16> !RI-B2PLYP def2-TZVP def2-TZVP/C
| 17> !RIJCOSX VERYSLOWCONV
| 18>
| 19> %scf
| 20>   AutoTRAHIter 200
| 21>   maxiter 400
| 22> end
| 23>
| 24>
| 25> %pal nprocs 6 end
| 26>
| 27> *xyzfile 0 4 pbe.xyz
| 28>
| 29>
| 30>
| 31>
| 32>
| 33>                          ****END OF INPUT****
 Total Charge           Charge          ....    0
 Multiplicity           Mult            ....    6
 Number of Electrons    NEL             ....  329
MP2 TOTAL ENERGY:    -3320.314919663 Eh
FINAL SINGLE POINT ENERGY     -3320.314919663019

CARTESIAN COORDINATES (ANGSTROEM)
---------------------------------
  Au     9.208914    7.489046    5.776198
  Au    10.018751    9.829512    7.139756
  Au     7.616973    5.134838    5.267503
  Au     7.338756    9.677703    6.097504
  Au     6.746035    7.606411    4.334039
  Au     4.939910    5.778766    5.676069
  Au     4.560028    8.531258    5.787486
  Au     6.251479    4.793688    7.927572
  Au     5.245476    9.677834    8.151132
  Au     4.352522    6.968017    8.206132
  Au     7.875193   10.180218    8.878538
  Au     8.022302    5.612140   10.045929
  Au     5.279676    5.610560   10.507851
  Au     9.121718    5.238303    7.524896
  Au     9.210350    7.728559    8.739603
  Au     6.555077    7.991207    9.918135
  Mn     6.863187    7.278243    7.168352

 Multiplicity           Mult            ....    4
 Number of Electrons    NEL             ....  329
 Basis Dimension        Dim             ....  685

ORBITAL ENERGIES
----------------
                 SPIN UP ORBITALS
  NO   OCC          E(Eh)            E(eV)
   0   1.0000    -237.632745     -6466.3157
   1   1.0000     -28.133905      -765.5625
   2   1.0000     -24.051933      -654.4864
   3   1.0000     -24.051913      -654.4858
   4   1.0000     -24.051559      -654.4762
   5   1.0000      -4.413702      -120.1029
   6   1.0000      -4.413617      -120.1006
   7   1.0000      -4.409428      -119.9866
   8   1.0000      -4.409329      -119.9839
   9   1.0000      -4.408217      -119.9537
  10   1.0000      -4.408177      -119.9526
  11   1.0000      -4.401424      -119.7688
  12   1.0000      -4.401229      -119.7635
  13   1.0000      -4.400825      -119.7525
  14   1.0000      -4.400717      -119.7496
  15   1.0000      -4.398278      -119.6832
  16   1.0000      -4.398217      -119.6816
  17   1.0000      -4.397770      -119.6694
  18   1.0000      -4.397556      -119.6636
  19   1.0000      -4.390974      -119.4845
  20   1.0000      -4.390864      -119.4815
  21   1.0000      -3.612868       -98.3111
  22   1.0000      -2.534374       -68.9638
  23   1.0000      -2.534239       -68.9601
  24   1.0000      -2.530942       -68.8704
  25   1.0000      -2.530897       -68.8692
  26   1.0000      -2.530214       -68.8506
  27   1.0000      -2.530111       -68.8478
  28   1.0000      -2.529367       -68.8276
  29   1.0000      -2.529317       -68.8262
  30   1.0000      -2.527809       -68.7852
  31   1.0000      -2.527758       -68.7838
  32   1.0000      -2.526639       -68.7533
  33   1.0000      -2.526292       -68.7439
  34   1.0000      -2.526175       -68.7407
  35   1.0000      -2.524637       -68.6989
  36   1.0000      -2.524598       -68.6978
  37   1.0000      -2.524497       -68.6951
  38   1.0000      -2.523818       -68.6766
  39   1.0000      -2.523295       -68.6623
  40   1.0000      -2.521149       -68.6040
  41   1.0000      -2.521073       -68.6019
  42   1.0000      -2.520260       -68.5798
  43   1.0000      -2.519403       -68.5564
  44   1.0000      -2.518661       -68.5363
  45   1.0000      -2.518550       -68.5332
  46   1.0000      -2.518398       -68.5291
  47   1.0000      -2.518179       -68.5231
  48   1.0000      -2.517461       -68.5036
  49   1.0000      -2.517243       -68.4977
  50   1.0000      -2.517185       -68.4961
  51   1.0000      -2.516133       -68.4675
  52   1.0000      -2.515826       -68.4591
  53   1.0000      -2.515538       -68.4513
  54   1.0000      -2.514730       -68.4293
  55   1.0000      -2.514634       -68.4267
  56   1.0000      -2.514421       -68.4209
  57   1.0000      -2.514251       -68.4162
  58   1.0000      -2.513728       -68.4020
  59   1.0000      -2.513577       -68.3979
  60   1.0000      -2.513179       -68.3871
  61   1.0000      -2.512896       -68.3794
  62   1.0000      -2.512534       -68.3695
  63   1.0000      -2.512401       -68.3659
  64   1.0000      -2.508821       -68.2685
  65   1.0000      -2.508684       -68.2648
  66   1.0000      -2.507356       -68.2286
  67   1.0000      -2.507249       -68.2257
  68   1.0000      -2.506701       -68.2108
  69   1.0000      -2.506591       -68.2078
  70   1.0000      -2.415208       -65.7212
  71   1.0000      -2.414880       -65.7122
  72   1.0000      -2.414683       -65.7069
  73   1.0000      -0.525308       -14.2944
  74   1.0000      -0.523006       -14.2317
  75   1.0000      -0.521119       -14.1804
  76   1.0000      -0.520114       -14.1530
  77   1.0000      -0.518269       -14.1028
  78   1.0000      -0.517141       -14.0721
  79   1.0000      -0.481129       -13.0922
  80   1.0000      -0.478492       -13.0204
  81   1.0000      -0.473316       -12.8796
  82   1.0000      -0.468852       -12.7581
  83   1.0000      -0.468351       -12.7445
  84   1.0000      -0.467173       -12.7124
  85   1.0000      -0.467008       -12.7079
  86   1.0000      -0.463364       -12.6088
  87   1.0000      -0.461912       -12.5693
  88   1.0000      -0.461027       -12.5452
  89   1.0000      -0.460277       -12.5248
  90   1.0000      -0.458993       -12.4898
  91   1.0000      -0.456657       -12.4263
  92   1.0000      -0.455719       -12.4007
  93   1.0000      -0.454984       -12.3808
  94   1.0000      -0.454381       -12.3643
  95   1.0000      -0.453771       -12.3477
  96   1.0000      -0.448575       -12.2064
  97   1.0000      -0.448179       -12.1956
  98   1.0000      -0.445251       -12.1159
  99   1.0000      -0.443696       -12.0736
 100   1.0000      -0.442717       -12.0469
 101   1.0000      -0.440648       -11.9906
 102   1.0000      -0.437503       -11.9051
 103   1.0000      -0.436473       -11.8770
 104   1.0000      -0.434397       -11.8206
 105   1.0000      -0.432072       -11.7573
 106   1.0000      -0.430863       -11.7244
 107   1.0000      -0.427759       -11.6399
 108   1.0000      -0.422930       -11.5085
 109   1.0000      -0.422299       -11.4913
 110   1.0000      -0.418414       -11.3856
 111   1.0000      -0.417382       -11.3576
 112   1.0000      -0.412984       -11.2379
 113   1.0000      -0.410690       -11.1754
 114   1.0000      -0.409377       -11.1397
 115   1.0000      -0.406461       -11.0604
 116   1.0000      -0.406081       -11.0500
 117   1.0000      -0.400115       -10.8877
 118   1.0000      -0.392959       -10.6930
 119   1.0000      -0.389529       -10.5996
 120   1.0000      -0.388935       -10.5835
 121   1.0000      -0.387859       -10.5542
 122   1.0000      -0.383644       -10.4395
 123   1.0000      -0.380897       -10.3647
 124   1.0000      -0.379257       -10.3201
 125   1.0000      -0.378581       -10.3017
 126   1.0000      -0.377035       -10.2597
 127   1.0000      -0.376029       -10.2323
 128   1.0000      -0.375590       -10.2203
 129   1.0000      -0.373492       -10.1632
 130   1.0000      -0.373115       -10.1530
 131   1.0000      -0.372145       -10.1266
 132   1.0000      -0.369843       -10.0640
 133   1.0000      -0.369252       -10.0479
 134   1.0000      -0.367912       -10.0114
 135   1.0000      -0.367702       -10.0057
 136   1.0000      -0.367161        -9.9909
 137   1.0000      -0.367053        -9.9880
 138   1.0000      -0.365912        -9.9570
 139   1.0000      -0.363304        -9.8860
 140   1.0000      -0.362073        -9.8525
 141   1.0000      -0.360080        -9.7983
 142   1.0000      -0.357914        -9.7393
 143   1.0000      -0.357110        -9.7174
 144   1.0000      -0.356466        -9.6999
 145   1.0000      -0.353672        -9.6239
 146   1.0000      -0.351473        -9.5641
 147   1.0000      -0.349993        -9.5238
 148   1.0000      -0.347981        -9.4691
 149   1.0000      -0.345589        -9.4039
 150   1.0000      -0.344417        -9.3721
 151   1.0000      -0.344080        -9.3629
 152   1.0000      -0.342004        -9.3064
 153   1.0000      -0.338875        -9.2213
 154   1.0000      -0.332902        -9.0587
 155   1.0000      -0.332410        -9.0453
 156   1.0000      -0.330321        -8.9885
 157   1.0000      -0.329096        -8.9552
 158   1.0000      -0.326264        -8.8781
 159   1.0000      -0.324519        -8.8306
 160   1.0000      -0.322405        -8.7731
 161   1.0000      -0.317458        -8.6385
 162   1.0000      -0.247736        -6.7412
 163   1.0000      -0.243062        -6.6140
 164   1.0000      -0.228703        -6.2233
 165   1.0000      -0.222209        -6.0466
 166   0.0000      -0.137643        -3.7455
 167   0.0000      -0.105041        -2.8583
 168   0.0000      -0.073692        -2.0053
 169   0.0000      -0.070016        -1.9052
 170   0.0000      -0.060810        -1.6547

                 SPIN DOWN ORBITALS
  NO   OCC          E(Eh)            E(eV)
   0   1.0000    -237.631031     -6466.2691
   1   1.0000     -28.032761      -762.8102
   2   1.0000     -23.959498      -651.9711
   3   1.0000     -23.958445      -651.9424
   4   1.0000     -23.958398      -651.9412
   5   1.0000      -4.414118      -120.1142
   6   1.0000      -4.414029      -120.1118
   7   1.0000      -4.410007      -120.0024
   8   1.0000      -4.409906      -119.9997
   9   1.0000      -4.408674      -119.9661
  10   1.0000      -4.408628      -119.9649
  11   1.0000      -4.401681      -119.7758
  12   1.0000      -4.401491      -119.7707
  13   1.0000      -4.400773      -119.7511
  14   1.0000      -4.400662      -119.7481
  15   1.0000      -4.399263      -119.7100
  16   1.0000      -4.399194      -119.7082
  17   1.0000      -4.398470      -119.6885
  18   1.0000      -4.398246      -119.6824
  19   1.0000      -4.392741      -119.5326
  20   1.0000      -4.392601      -119.5287
  21   1.0000      -3.328438       -90.5714
  22   1.0000      -2.533512       -68.9404
  23   1.0000      -2.533433       -68.9382
  24   1.0000      -2.530687       -68.8635
  25   1.0000      -2.530596       -68.8610
  26   1.0000      -2.530514       -68.8588
  27   1.0000      -2.530267       -68.8521
  28   1.0000      -2.530098       -68.8475
  29   1.0000      -2.530024       -68.8454
  30   1.0000      -2.527430       -68.7749
  31   1.0000      -2.527396       -68.7739
  32   1.0000      -2.527087       -68.7655
  33   1.0000      -2.526473       -68.7488
  34   1.0000      -2.526407       -68.7470
  35   1.0000      -2.525251       -68.7156
  36   1.0000      -2.525215       -68.7146
  37   1.0000      -2.524608       -68.6981
  38   1.0000      -2.523940       -68.6799
  39   1.0000      -2.523537       -68.6689
  40   1.0000      -2.521189       -68.6050
  41   1.0000      -2.520939       -68.5982
  42   1.0000      -2.519719       -68.5650
  43   1.0000      -2.519692       -68.5643
  44   1.0000      -2.519214       -68.5513
  45   1.0000      -2.519080       -68.5477
  46   1.0000      -2.518536       -68.5329
  47   1.0000      -2.518286       -68.5260
  48   1.0000      -2.517846       -68.5141
  49   1.0000      -2.517620       -68.5079
  50   1.0000      -2.517508       -68.5049
  51   1.0000      -2.516682       -68.4824
  52   1.0000      -2.516427       -68.4755
  53   1.0000      -2.515966       -68.4629
  54   1.0000      -2.515675       -68.4550
  55   1.0000      -2.515598       -68.4529
  56   1.0000      -2.515232       -68.4429
  57   1.0000      -2.515170       -68.4412
  58   1.0000      -2.514565       -68.4248
  59   1.0000      -2.514373       -68.4196
  60   1.0000      -2.513704       -68.4014
  61   1.0000      -2.513409       -68.3933
  62   1.0000      -2.512996       -68.3821
  63   1.0000      -2.512872       -68.3787
  64   1.0000      -2.510906       -68.3252
  65   1.0000      -2.510742       -68.3208
  66   1.0000      -2.509030       -68.2742
  67   1.0000      -2.508887       -68.2703
  68   1.0000      -2.508098       -68.2488
  69   1.0000      -2.507969       -68.2453
  70   1.0000      -2.089987       -56.8714
  71   1.0000      -2.088470       -56.8302
  72   1.0000      -2.087814       -56.8123
  73   1.0000      -0.519025       -14.1234
  74   1.0000      -0.484337       -13.1795
  75   1.0000      -0.482484       -13.1291
  76   1.0000      -0.478231       -13.0133
  77   1.0000      -0.473379       -12.8813
  78   1.0000      -0.472817       -12.8660
  79   1.0000      -0.471468       -12.8293
  80   1.0000      -0.469410       -12.7733
  81   1.0000      -0.468623       -12.7519
  82   1.0000      -0.467950       -12.7336
  83   1.0000      -0.466825       -12.7029
  84   1.0000      -0.465807       -12.6752
  85   1.0000      -0.465250       -12.6601
  86   1.0000      -0.462822       -12.5940
  87   1.0000      -0.461837       -12.5672
  88   1.0000      -0.460700       -12.5363
  89   1.0000      -0.460101       -12.5200
  90   1.0000      -0.458540       -12.4775
  91   1.0000      -0.458077       -12.4649
  92   1.0000      -0.457117       -12.4388
  93   1.0000      -0.454073       -12.3560
  94   1.0000      -0.453916       -12.3517
  95   1.0000      -0.447692       -12.1823
  96   1.0000      -0.444896       -12.1062
  97   1.0000      -0.444474       -12.0948
  98   1.0000      -0.443323       -12.0634
  99   1.0000      -0.439744       -11.9660
 100   1.0000      -0.434474       -11.8226
 101   1.0000      -0.434240       -11.8163
 102   1.0000      -0.430234       -11.7073
 103   1.0000      -0.428733       -11.6664
 104   1.0000      -0.425782       -11.5861
 105   1.0000      -0.420109       -11.4317
 106   1.0000      -0.419099       -11.4043
 107   1.0000      -0.416129       -11.3234
 108   1.0000      -0.414824       -11.2879
 109   1.0000      -0.413066       -11.2401
 110   1.0000      -0.408907       -11.1269
 111   1.0000      -0.408640       -11.1197
 112   1.0000      -0.403521       -10.9804
 113   1.0000      -0.398837       -10.8529
 114   1.0000      -0.398326       -10.8390
 115   1.0000      -0.392341       -10.6761
 116   1.0000      -0.391199       -10.6451
 117   1.0000      -0.390215       -10.6183
 118   1.0000      -0.387658       -10.5487
 119   1.0000      -0.384417       -10.4605
 120   1.0000      -0.383869       -10.4456
 121   1.0000      -0.380360       -10.3501
 122   1.0000      -0.379829       -10.3357
 123   1.0000      -0.379085       -10.3154
 124   1.0000      -0.378345       -10.2953
 125   1.0000      -0.378068       -10.2878
 126   1.0000      -0.373921       -10.1749
 127   1.0000      -0.371827       -10.1179
 128   1.0000      -0.371680       -10.1139
 129   1.0000      -0.370248       -10.0750
 130   1.0000      -0.370132       -10.0718
 131   1.0000      -0.369377       -10.0513
 132   1.0000      -0.368784       -10.0351
 133   1.0000      -0.368371       -10.0239
 134   1.0000      -0.366067        -9.9612
 135   1.0000      -0.364538        -9.9196
 136   1.0000      -0.363680        -9.8962
 137   1.0000      -0.359485        -9.7821
 138   1.0000      -0.359138        -9.7726
 139   1.0000      -0.358791        -9.7632
 140   1.0000      -0.357018        -9.7150
 141   1.0000      -0.352308        -9.5868
 142   1.0000      -0.351993        -9.5782
 143   1.0000      -0.350206        -9.5296
 144   1.0000      -0.348303        -9.4778
 145   1.0000      -0.346542        -9.4299
 146   1.0000      -0.346469        -9.4279
 147   1.0000      -0.344386        -9.3712
 148   1.0000      -0.342579        -9.3220
 149   1.0000      -0.336639        -9.1604
 150   1.0000      -0.334384        -9.0990
 151   1.0000      -0.332551        -9.0492
 152   1.0000      -0.332341        -9.0435
 153   1.0000      -0.329771        -8.9735
 154   1.0000      -0.329117        -8.9557
 155   1.0000      -0.324056        -8.8180
 156   1.0000      -0.323698        -8.8083
 157   1.0000      -0.258765        -7.0414
 158   1.0000      -0.256852        -6.9893
 159   1.0000      -0.241508        -6.5718
 160   1.0000      -0.235204        -6.4002
 161   1.0000      -0.229646        -6.2490
 162   1.0000      -0.178282        -4.8513
 163   0.0000      -0.080305        -2.1852
 164   0.0000      -0.072661        -1.9772
 165   0.0000      -0.071211        -1.9378
 166   0.0000      -0.066402        -1.8069
 167   0.0000      -0.059545        -1.6203

MULLIKEN ATOMIC CHARGES AND SPIN POPULATIONS
--------------------------------------------
   0 Au:    0.073732   -0.025527
   1 Au:    0.366181   -0.219116
   2 Au:    0.278078   -0.160354
   3 Au:    0.033691   -0.198688
   4 Au:    0.264125    0.025770
   5 Au:    0.264701    0.027055
   6 Au:    0.278700   -0.159025
   7 Au:    0.029217   -0.197766
   8 Au:    0.174497   -0.065582
   9 Au:    0.074808   -0.023666
  10 Au:    0.308237   -0.080060
  11 Au:    0.309678   -0.079964
  12 Au:    0.364824   -0.222556
  13 Au:    0.175176   -0.064645
  14 Au:   -0.274737    0.019084
  15 Au:   -0.266725    0.015629
  16 Mn:   -2.454184    4.409413
Sum of atomic charges         :   -0.0000000

LOEWDIN ATOMIC CHARGES AND SPIN POPULATIONS
-------------------------------------------
   0 Au:   -0.000145   -0.057138
   1 Au:    0.092429   -0.178639
   2 Au:    0.019064   -0.129687
   3 Au:    0.010412   -0.126999
   4 Au:    0.039264   -0.039865
   5 Au:    0.039330   -0.038820
   6 Au:    0.019108   -0.128472
   7 Au:    0.009450   -0.126766
   8 Au:    0.042779   -0.097089
   9 Au:    0.000475   -0.056416
  10 Au:    0.023838   -0.105753
  11 Au:    0.023915   -0.105584
  12 Au:    0.092192   -0.181241
  13 Au:    0.042966   -0.096303
  14 Au:   -0.069228   -0.038138
  15 Au:   -0.067648   -0.039795
  16 Mn:   -0.318199    4.546704

  Mayer bond orders larger than 0.100000
B(  0-Au,  1-Au) :   0.2186 B(  0-Au,  2-Au) :   0.1713 B(  0-Au,  3-Au) :   0.1837
B(  0-Au,  4-Au) :   0.1287 B(  0-Au, 13-Au) :   0.1720 B(  0-Au, 14-Au) :   0.1551
B(  0-Au, 16-Mn) :   0.4325 B(  1-Au,  3-Au) :   0.1828 B(  1-Au, 10-Au) :   0.2306
B(  1-Au, 14-Au) :   0.3603 B(  2-Au,  4-Au) :   0.1945 B(  2-Au,  5-Au) :   0.1780
B(  2-Au,  7-Au) :   0.1092 B(  2-Au, 13-Au) :   0.2444 B(  2-Au, 16-Mn) :   0.2698
B(  3-Au,  4-Au) :   0.2067 B(  3-Au,  6-Au) :   0.1049 B(  3-Au,  8-Au) :   0.1310
B(  3-Au, 10-Au) :   0.1789 B(  3-Au, 14-Au) :   0.1208 B(  3-Au, 16-Mn) :   0.4428
B(  4-Au,  5-Au) :   0.1508 B(  4-Au,  6-Au) :   0.1781 B(  4-Au, 16-Mn) :   0.3719
B(  5-Au,  6-Au) :   0.1957 B(  5-Au,  7-Au) :   0.2052 B(  5-Au,  9-Au) :   0.1291
B(  5-Au, 16-Mn) :   0.3701 B(  6-Au,  8-Au) :   0.2446 B(  6-Au,  9-Au) :   0.1722
B(  6-Au, 16-Mn) :   0.2695 B(  7-Au,  9-Au) :   0.1829 B(  7-Au, 11-Au) :   0.1779
B(  7-Au, 12-Au) :   0.1861 B(  7-Au, 13-Au) :   0.1319 B(  7-Au, 15-Au) :   0.1218
B(  7-Au, 16-Mn) :   0.4431 B(  8-Au,  9-Au) :   0.1709 B(  8-Au, 10-Au) :   0.1855
B(  8-Au, 15-Au) :   0.2305 B(  8-Au, 16-Mn) :   0.3456 B(  9-Au, 12-Au) :   0.2184
B(  9-Au, 15-Au) :   0.1534 B(  9-Au, 16-Mn) :   0.4337 B( 10-Au, 14-Au) :   0.2278
B( 10-Au, 15-Au) :   0.3082 B( 10-Au, 16-Mn) :   0.1220 B( 11-Au, 12-Au) :   0.2317
B( 11-Au, 13-Au) :   0.1847 B( 11-Au, 14-Au) :   0.3100 B( 11-Au, 15-Au) :   0.2259
B( 11-Au, 16-Mn) :   0.1206 B( 12-Au, 15-Au) :   0.3575 B( 13-Au, 14-Au) :   0.2305
B( 13-Au, 16-Mn) :   0.3429 B( 14-Au, 15-Au) :   0.1667 B( 14-Au, 16-Mn) :   0.3886
B( 15-Au, 16-Mn) :   0.3892

MP2 TOTAL ENERGY:    -3320.279950223 Eh
FINAL SINGLE POINT ENERGY     -3320.279950222754

DIPOLE MOMENT
-------------
                                X             Y             Z
Electronic contribution:      5.73935       3.16587      11.97687
Nuclear contribution   :     -5.79079      -3.19290     -12.08557
                        -----------------------------------------
Total Dipole Moment    :     -0.05144      -0.02703      -0.10871
                        -----------------------------------------
Magnitude (a.u.)       :      0.12326
Magnitude (Debye)      :      0.31330

Rotational constants in cm-1:     0.000898     0.000834     0.000783
Rotational constants in MHz :    26.919457    25.009302    23.465459

                             ****ORCA TERMINATED NORMALLY****
TOTAL RUN TIME: 0 days 1 hours 27 minutes 7 seconds 370 msec
