                         Program Version 5.0.3 -  RELEASE  -
|  1> !PBE def2-TZVP VERYSLOWCONV
|  2> !KDIIS
|  3>
|  4> %scf
|  5>   AutoTRAHIter 200
|  6>   maxiter 400
|  7> end
|  8>
|  9>
| 10> %pal nprocs 6 end
| 11>
| 12> *xyzfile 0 6 pbe.xyz
| 13>
| 14> $new_job
| 15>
| 16> !PBE def2-TZVP VERYSLOWCONV
| 17> !KDIIS
| 18>
| 19> %scf
| 20>   AutoTRAHIter 200
| 21>   maxiter 400
| 22> end
| 23>
| 24>
| 25> %pal nprocs 6 end
| 26>
| 27> *xyzfile 0 4 pbe.xyz
| 28>
| 29>
| 30>
| 31>
| 32>
| 33>                          ****END OF INPUT****
 Total Charge           Charge          ....    0
 Multiplicity           Mult            ....    6
 Number of Electrons    NEL             ....  329
FINAL SINGLE POINT ENERGY     -3324.071246171941

CARTESIAN COORDINATES (ANGSTROEM)
---------------------------------
  Au     9.208914    7.489046    5.776198
  Au    10.018751    9.829512    7.139756
  Au     7.616973    5.134838    5.267503
  Au     7.338756    9.677703    6.097504
  Au     6.746035    7.606411    4.334039
  Au     4.939910    5.778766    5.676069
  Au     4.560028    8.531258    5.787486
  Au     6.251479    4.793688    7.927572
  Au     5.245476    9.677834    8.151132
  Au     4.352522    6.968017    8.206132
  Au     7.875193   10.180218    8.878538
  Au     8.022302    5.612140   10.045929
  Au     5.279676    5.610560   10.507851
  Au     9.121718    5.238303    7.524896
  Au     9.210350    7.728559    8.739603
  Au     6.555077    7.991207    9.918135
  Mn     6.863187    7.278243    7.168352

 Multiplicity           Mult            ....    4
 Number of Electrons    NEL             ....  329
 Basis Dimension        Dim             ....  685

ORBITAL ENERGIES
----------------
                 SPIN UP ORBITALS
  NO   OCC          E(Eh)            E(eV)
   0   1.0000    -234.208363     -6373.1336
   1   1.0000     -26.902309      -732.0490
   2   1.0000     -23.051303      -627.2579
   3   1.0000     -23.051131      -627.2532
   4   1.0000     -23.049981      -627.2219
   5   1.0000      -4.040231      -109.9403
   6   1.0000      -4.040081      -109.9362
   7   1.0000      -4.040065      -109.9358
   8   1.0000      -4.039999      -109.9340
   9   1.0000      -4.036860      -109.8485
  10   1.0000      -4.036810      -109.8472
  11   1.0000      -4.031570      -109.7046
  12   1.0000      -4.031412      -109.7003
  13   1.0000      -4.030551      -109.6769
  14   1.0000      -4.030413      -109.6731
  15   1.0000      -4.029105      -109.6375
  16   1.0000      -4.028950      -109.6333
  17   1.0000      -4.028898      -109.6319
  18   1.0000      -4.028861      -109.6309
  19   1.0000      -4.021677      -109.4354
  20   1.0000      -4.021599      -109.4333
  21   1.0000      -3.112581       -84.6976
  22   1.0000      -2.256476       -61.4018
  23   1.0000      -2.256376       -61.3991
  24   1.0000      -2.255840       -61.3845
  25   1.0000      -2.255698       -61.3807
  26   1.0000      -2.252584       -61.2959
  27   1.0000      -2.252476       -61.2930
  28   1.0000      -2.252173       -61.2848
  29   1.0000      -2.251880       -61.2768
  30   1.0000      -2.251755       -61.2734
  31   1.0000      -2.251533       -61.2673
  32   1.0000      -2.251515       -61.2668
  33   1.0000      -2.251328       -61.2617
  34   1.0000      -2.251297       -61.2609
  35   1.0000      -2.250182       -61.2306
  36   1.0000      -2.249005       -61.1985
  37   1.0000      -2.248972       -61.1976
  38   1.0000      -2.248540       -61.1859
  39   1.0000      -2.248507       -61.1850
  40   1.0000      -2.247263       -61.1511
  41   1.0000      -2.247173       -61.1487
  42   1.0000      -2.245421       -61.1010
  43   1.0000      -2.244840       -61.0852
  44   1.0000      -2.244394       -61.0731
  45   1.0000      -2.244155       -61.0666
  46   1.0000      -2.244027       -61.0631
  47   1.0000      -2.243641       -61.0526
  48   1.0000      -2.243514       -61.0491
  49   1.0000      -2.243221       -61.0411
  50   1.0000      -2.243093       -61.0377
  51   1.0000      -2.242803       -61.0298
  52   1.0000      -2.242725       -61.0277
  53   1.0000      -2.241840       -61.0036
  54   1.0000      -2.241421       -60.9922
  55   1.0000      -2.241340       -60.9900
  56   1.0000      -2.241219       -60.9867
  57   1.0000      -2.241164       -60.9852
  58   1.0000      -2.240608       -60.9700
  59   1.0000      -2.240448       -60.9657
  60   1.0000      -2.240034       -60.9544
  61   1.0000      -2.239832       -60.9489
  62   1.0000      -2.239366       -60.9363
  63   1.0000      -2.239275       -60.9338
  64   1.0000      -2.235663       -60.8355
  65   1.0000      -2.235614       -60.8342
  66   1.0000      -2.233940       -60.7886
  67   1.0000      -2.233865       -60.7866
  68   1.0000      -2.233124       -60.7664
  69   1.0000      -2.233031       -60.7639
  70   1.0000      -2.016517       -54.8722
  71   1.0000      -2.015485       -54.8441
  72   1.0000      -2.013739       -54.7966
  73   1.0000      -0.443453       -12.0670
  74   1.0000      -0.401202       -10.9173
  75   1.0000      -0.396966       -10.8020
  76   1.0000      -0.394210       -10.7270
  77   1.0000      -0.382590       -10.4108
  78   1.0000      -0.380622       -10.3572
  79   1.0000      -0.380459       -10.3528
  80   1.0000      -0.377064       -10.2604
  81   1.0000      -0.373707       -10.1691
  82   1.0000      -0.371951       -10.1213
  83   1.0000      -0.367594       -10.0027
  84   1.0000      -0.366040        -9.9605
  85   1.0000      -0.363656        -9.8956
  86   1.0000      -0.361392        -9.8340
  87   1.0000      -0.359140        -9.7727
  88   1.0000      -0.357043        -9.7156
  89   1.0000      -0.356054        -9.6887
  90   1.0000      -0.354344        -9.6422
  91   1.0000      -0.352550        -9.5934
  92   1.0000      -0.351678        -9.5696
  93   1.0000      -0.349364        -9.5067
  94   1.0000      -0.348876        -9.4934
  95   1.0000      -0.346726        -9.4349
  96   1.0000      -0.346280        -9.4227
  97   1.0000      -0.340693        -9.2707
  98   1.0000      -0.340256        -9.2588
  99   1.0000      -0.336973        -9.1695
 100   1.0000      -0.336177        -9.1478
 101   1.0000      -0.333072        -9.0633
 102   1.0000      -0.332806        -9.0561
 103   1.0000      -0.332239        -9.0407
 104   1.0000      -0.324725        -8.8362
 105   1.0000      -0.323093        -8.7918
 106   1.0000      -0.320734        -8.7276
 107   1.0000      -0.318773        -8.6742
 108   1.0000      -0.317119        -8.6292
 109   1.0000      -0.315276        -8.5791
 110   1.0000      -0.314926        -8.5696
 111   1.0000      -0.309150        -8.4124
 112   1.0000      -0.308414        -8.3924
 113   1.0000      -0.308040        -8.3822
 114   1.0000      -0.302684        -8.2364
 115   1.0000      -0.299317        -8.1448
 116   1.0000      -0.297356        -8.0915
 117   1.0000      -0.294147        -8.0041
 118   1.0000      -0.293979        -7.9996
 119   1.0000      -0.292916        -7.9707
 120   1.0000      -0.291924        -7.9437
 121   1.0000      -0.287356        -7.8193
 122   1.0000      -0.283645        -7.7184
 123   1.0000      -0.282949        -7.6994
 124   1.0000      -0.282512        -7.6876
 125   1.0000      -0.281900        -7.6709
 126   1.0000      -0.280704        -7.6384
 127   1.0000      -0.280187        -7.6243
 128   1.0000      -0.278794        -7.5864
 129   1.0000      -0.276865        -7.5339
 130   1.0000      -0.275481        -7.4962
 131   1.0000      -0.273758        -7.4493
 132   1.0000      -0.273009        -7.4290
 133   1.0000      -0.272941        -7.4271
 134   1.0000      -0.270868        -7.3707
 135   1.0000      -0.269744        -7.3401
 136   1.0000      -0.269359        -7.3296
 137   1.0000      -0.267471        -7.2783
 138   1.0000      -0.267106        -7.2683
 139   1.0000      -0.266522        -7.2524
 140   1.0000      -0.264782        -7.2051
 141   1.0000      -0.261370        -7.1122
 142   1.0000      -0.260153        -7.0791
 143   1.0000      -0.259530        -7.0622
 144   1.0000      -0.258857        -7.0439
 145   1.0000      -0.257581        -7.0091
 146   1.0000      -0.257204        -6.9989
 147   1.0000      -0.256151        -6.9702
 148   1.0000      -0.254882        -6.9357
 149   1.0000      -0.254770        -6.9326
 150   1.0000      -0.253145        -6.8884
 151   1.0000      -0.252083        -6.8595
 152   1.0000      -0.250957        -6.8289
 153   1.0000      -0.250255        -6.8098
 154   1.0000      -0.248502        -6.7621
 155   1.0000      -0.247245        -6.7279
 156   1.0000      -0.245502        -6.6805
 157   1.0000      -0.244753        -6.6601
 158   1.0000      -0.242887        -6.6093
 159   1.0000      -0.242230        -6.5914
 160   1.0000      -0.241652        -6.5757
 161   1.0000      -0.237644        -6.4666
 162   1.0000      -0.220401        -5.9974
 163   1.0000      -0.218152        -5.9362
 164   1.0000      -0.210032        -5.7153
 165   1.0000      -0.205693        -5.5972
 166   0.0000      -0.194819        -5.3013
 167   0.0000      -0.165357        -4.4996
 168   0.0000      -0.139002        -3.7824
 169   0.0000      -0.133968        -3.6454
 170   0.0000      -0.131098        -3.5673

                 SPIN DOWN ORBITALS
  NO   OCC          E(Eh)            E(eV)
   0   1.0000    -234.207750     -6373.1169
   1   1.0000     -26.835854      -730.2407
   2   1.0000     -23.002032      -625.9171
   3   1.0000     -22.999549      -625.8495
   4   1.0000     -22.999532      -625.8491
   5   1.0000      -4.040176      -109.9388
   6   1.0000      -4.040056      -109.9355
   7   1.0000      -4.040025      -109.9347
   8   1.0000      -4.039990      -109.9337
   9   1.0000      -4.036891      -109.8494
  10   1.0000      -4.036836      -109.8479
  11   1.0000      -4.031680      -109.7076
  12   1.0000      -4.031530      -109.7035
  13   1.0000      -4.030483      -109.6750
  14   1.0000      -4.030346      -109.6713
  15   1.0000      -4.029684      -109.6533
  16   1.0000      -4.029593      -109.6508
  17   1.0000      -4.029377      -109.6449
  18   1.0000      -4.029167      -109.6392
  19   1.0000      -4.022916      -109.4691
  20   1.0000      -4.022826      -109.4667
  21   1.0000      -2.949463       -80.2590
  22   1.0000      -2.256705       -61.4081
  23   1.0000      -2.256571       -61.4044
  24   1.0000      -2.255578       -61.3774
  25   1.0000      -2.255440       -61.3736
  26   1.0000      -2.252433       -61.2918
  27   1.0000      -2.252385       -61.2905
  28   1.0000      -2.252299       -61.2882
  29   1.0000      -2.252024       -61.2807
  30   1.0000      -2.251887       -61.2770
  31   1.0000      -2.251459       -61.2653
  32   1.0000      -2.251406       -61.2639
  33   1.0000      -2.251267       -61.2601
  34   1.0000      -2.250994       -61.2526
  35   1.0000      -2.250072       -61.2276
  36   1.0000      -2.249070       -61.2003
  37   1.0000      -2.249037       -61.1994
  38   1.0000      -2.248591       -61.1873
  39   1.0000      -2.248544       -61.1860
  40   1.0000      -2.247368       -61.1540
  41   1.0000      -2.247270       -61.1513
  42   1.0000      -2.245685       -61.1082
  43   1.0000      -2.245070       -61.0915
  44   1.0000      -2.244567       -61.0778
  45   1.0000      -2.244479       -61.0754
  46   1.0000      -2.244033       -61.0632
  47   1.0000      -2.243806       -61.0571
  48   1.0000      -2.243685       -61.0538
  49   1.0000      -2.243355       -61.0448
  50   1.0000      -2.243234       -61.0415
  51   1.0000      -2.243120       -61.0384
  52   1.0000      -2.242955       -61.0339
  53   1.0000      -2.242130       -61.0114
  54   1.0000      -2.241979       -61.0073
  55   1.0000      -2.241842       -61.0036
  56   1.0000      -2.241651       -60.9984
  57   1.0000      -2.241501       -60.9943
  58   1.0000      -2.240590       -60.9696
  59   1.0000      -2.240420       -60.9649
  60   1.0000      -2.240328       -60.9624
  61   1.0000      -2.240243       -60.9601
  62   1.0000      -2.240167       -60.9580
  63   1.0000      -2.239983       -60.9530
  64   1.0000      -2.237122       -60.8752
  65   1.0000      -2.237056       -60.8734
  66   1.0000      -2.235377       -60.8277
  67   1.0000      -2.235280       -60.8250
  68   1.0000      -2.234174       -60.7950
  69   1.0000      -2.234087       -60.7926
  70   1.0000      -1.858486       -50.5720
  71   1.0000      -1.853994       -50.4498
  72   1.0000      -1.852877       -50.4193
  73   1.0000      -0.438777       -11.9397
  74   1.0000      -0.400710       -10.9039
  75   1.0000      -0.397618       -10.8197
  76   1.0000      -0.394641       -10.7387
  77   1.0000      -0.380300       -10.3485
  78   1.0000      -0.375273       -10.2117
  79   1.0000      -0.373889       -10.1740
  80   1.0000      -0.372771       -10.1436
  81   1.0000      -0.371645       -10.1130
  82   1.0000      -0.369118       -10.0442
  83   1.0000      -0.367637       -10.0039
  84   1.0000      -0.363834        -9.9004
  85   1.0000      -0.362972        -9.8770
  86   1.0000      -0.361165        -9.8278
  87   1.0000      -0.359691        -9.7877
  88   1.0000      -0.356718        -9.7068
  89   1.0000      -0.355839        -9.6829
  90   1.0000      -0.354428        -9.6445
  91   1.0000      -0.353544        -9.6204
  92   1.0000      -0.352516        -9.5924
  93   1.0000      -0.349563        -9.5121
  94   1.0000      -0.349476        -9.5097
  95   1.0000      -0.346571        -9.4307
  96   1.0000      -0.344814        -9.3829
  97   1.0000      -0.340910        -9.2766
  98   1.0000      -0.340080        -9.2540
  99   1.0000      -0.336739        -9.1631
 100   1.0000      -0.334962        -9.1148
 101   1.0000      -0.333226        -9.0675
 102   1.0000      -0.332151        -9.0383
 103   1.0000      -0.329974        -8.9790
 104   1.0000      -0.325161        -8.8481
 105   1.0000      -0.322012        -8.7624
 106   1.0000      -0.319227        -8.6866
 107   1.0000      -0.318040        -8.6543
 108   1.0000      -0.315160        -8.5759
 109   1.0000      -0.313497        -8.5307
 110   1.0000      -0.310157        -8.4398
 111   1.0000      -0.308695        -8.4000
 112   1.0000      -0.307197        -8.3593
 113   1.0000      -0.302912        -8.2427
 114   1.0000      -0.302659        -8.2358
 115   1.0000      -0.297303        -8.0900
 116   1.0000      -0.296854        -8.0778
 117   1.0000      -0.294248        -8.0069
 118   1.0000      -0.292605        -7.9622
 119   1.0000      -0.291969        -7.9449
 120   1.0000      -0.287911        -7.8344
 121   1.0000      -0.287736        -7.8297
 122   1.0000      -0.283990        -7.7278
 123   1.0000      -0.283594        -7.7170
 124   1.0000      -0.282027        -7.6743
 125   1.0000      -0.281802        -7.6682
 126   1.0000      -0.279641        -7.6094
 127   1.0000      -0.279267        -7.5992
 128   1.0000      -0.277901        -7.5621
 129   1.0000      -0.276170        -7.5150
 130   1.0000      -0.275125        -7.4865
 131   1.0000      -0.274573        -7.4715
 132   1.0000      -0.274063        -7.4576
 133   1.0000      -0.273453        -7.4410
 134   1.0000      -0.271098        -7.3770
 135   1.0000      -0.270478        -7.3601
 136   1.0000      -0.270129        -7.3506
 137   1.0000      -0.267768        -7.2863
 138   1.0000      -0.267046        -7.2667
 139   1.0000      -0.265527        -7.2254
 140   1.0000      -0.264851        -7.2070
 141   1.0000      -0.260944        -7.1007
 142   1.0000      -0.260229        -7.0812
 143   1.0000      -0.258955        -7.0465
 144   1.0000      -0.258911        -7.0453
 145   1.0000      -0.257500        -7.0069
 146   1.0000      -0.255091        -6.9414
 147   1.0000      -0.254958        -6.9377
 148   1.0000      -0.252717        -6.8768
 149   1.0000      -0.252133        -6.8609
 150   1.0000      -0.251253        -6.8369
 151   1.0000      -0.249035        -6.7766
 152   1.0000      -0.246591        -6.7101
 153   1.0000      -0.244711        -6.6589
 154   1.0000      -0.244457        -6.6520
 155   1.0000      -0.242777        -6.6063
 156   1.0000      -0.241616        -6.5747
 157   1.0000      -0.226800        -6.1715
 158   1.0000      -0.224324        -6.1042
 159   1.0000      -0.218586        -5.9480
 160   1.0000      -0.215287        -5.8582
 161   1.0000      -0.209013        -5.6875
 162   1.0000      -0.169702        -4.6178
 163   0.0000      -0.144876        -3.9423
 164   0.0000      -0.140970        -3.8360
 165   0.0000      -0.140888        -3.8338
 166   0.0000      -0.135458        -3.6860
 167   0.0000      -0.133951        -3.6450

MULLIKEN ATOMIC CHARGES AND SPIN POPULATIONS
--------------------------------------------
   0 Au:    0.092222   -0.012280
   1 Au:    0.408088   -0.192957
   2 Au:    0.324181   -0.096235
   3 Au:    0.014650   -0.133233
   4 Au:    0.301943    0.020658
   5 Au:    0.302742    0.021170
   6 Au:    0.324513   -0.095703
   7 Au:    0.009933   -0.133221
   8 Au:    0.211700   -0.026085
   9 Au:    0.093972   -0.011302
  10 Au:    0.331000   -0.057779
  11 Au:    0.331662   -0.057464
  12 Au:    0.406973   -0.194814
  13 Au:    0.211698   -0.025744
  14 Au:   -0.251949   -0.006949
  15 Au:   -0.245581   -0.008508
  16 Mn:   -2.867746    4.010447
Sum of atomic charges         :   -0.0000000

LOEWDIN ATOMIC CHARGES AND SPIN POPULATIONS
-------------------------------------------
   0 Au:    0.019488   -0.032061
   1 Au:    0.082947   -0.176250
   2 Au:    0.039054   -0.088562
   3 Au:    0.026364   -0.084817
   4 Au:    0.055300   -0.022097
   5 Au:    0.055326   -0.021636
   6 Au:    0.038975   -0.087987
   7 Au:    0.025484   -0.084747
   8 Au:    0.055121   -0.057624
   9 Au:    0.020068   -0.031602
  10 Au:    0.029495   -0.088865
  11 Au:    0.029451   -0.088765
  12 Au:    0.082796   -0.177869
  13 Au:    0.055124   -0.057299
  14 Au:   -0.041935   -0.017829
  15 Au:   -0.040491   -0.018598
  16 Mn:   -0.532566    4.136608

  Mayer bond orders larger than 0.100000
B(  0-Au,  1-Au) :   0.2595 B(  0-Au,  2-Au) :   0.1838 B(  0-Au,  3-Au) :   0.1931
B(  0-Au,  4-Au) :   0.1630 B(  0-Au, 13-Au) :   0.1933 B(  0-Au, 14-Au) :   0.1655
B(  0-Au, 16-Mn) :   0.4508 B(  1-Au,  3-Au) :   0.2221 B(  1-Au, 10-Au) :   0.2557
B(  1-Au, 14-Au) :   0.3759 B(  2-Au,  4-Au) :   0.2255 B(  2-Au,  5-Au) :   0.2100
B(  2-Au,  7-Au) :   0.1376 B(  2-Au, 13-Au) :   0.2769 B(  2-Au, 16-Mn) :   0.2849
B(  3-Au,  4-Au) :   0.2357 B(  3-Au,  6-Au) :   0.1329 B(  3-Au,  8-Au) :   0.1652
B(  3-Au, 10-Au) :   0.2113 B(  3-Au, 14-Au) :   0.1090 B(  3-Au, 16-Mn) :   0.4956
B(  4-Au,  5-Au) :   0.1608 B(  4-Au,  6-Au) :   0.2102 B(  4-Au, 16-Mn) :   0.3788
B(  5-Au,  6-Au) :   0.2265 B(  5-Au,  7-Au) :   0.2346 B(  5-Au,  9-Au) :   0.1636
B(  5-Au, 16-Mn) :   0.3772 B(  6-Au,  8-Au) :   0.2772 B(  6-Au,  9-Au) :   0.1839
B(  6-Au, 16-Mn) :   0.2845 B(  7-Au,  9-Au) :   0.1921 B(  7-Au, 11-Au) :   0.2105
B(  7-Au, 12-Au) :   0.2254 B(  7-Au, 13-Au) :   0.1662 B(  7-Au, 15-Au) :   0.1099
B(  7-Au, 16-Mn) :   0.4952 B(  8-Au,  9-Au) :   0.1920 B(  8-Au, 10-Au) :   0.2259
B(  8-Au, 15-Au) :   0.2392 B(  8-Au, 16-Mn) :   0.3442 B(  9-Au, 12-Au) :   0.2588
B(  9-Au, 15-Au) :   0.1643 B(  9-Au, 16-Mn) :   0.4515 B( 10-Au, 14-Au) :   0.2515
B( 10-Au, 15-Au) :   0.3422 B( 10-Au, 16-Mn) :   0.1154 B( 11-Au, 12-Au) :   0.2565
B( 11-Au, 13-Au) :   0.2255 B( 11-Au, 14-Au) :   0.3442 B( 11-Au, 15-Au) :   0.2495
B( 11-Au, 16-Mn) :   0.1142 B( 12-Au, 15-Au) :   0.3733 B( 13-Au, 14-Au) :   0.2393
B( 13-Au, 16-Mn) :   0.3418 B( 14-Au, 15-Au) :   0.1920 B( 14-Au, 16-Mn) :   0.4047
B( 15-Au, 16-Mn) :   0.4063

FINAL SINGLE POINT ENERGY     -3324.045260206378

DIPOLE MOMENT
-------------
                                X             Y             Z
Electronic contribution:      5.75890       3.17587      12.01915
Nuclear contribution   :     -5.79079      -3.19290     -12.08557
                        -----------------------------------------
Total Dipole Moment    :     -0.03189      -0.01703      -0.06643
                        -----------------------------------------
Magnitude (a.u.)       :      0.07563
Magnitude (Debye)      :      0.19223

Rotational constants in cm-1:     0.000898     0.000834     0.000783
Rotational constants in MHz :    26.919457    25.009302    23.465459

                             ****ORCA TERMINATED NORMALLY****
TOTAL RUN TIME: 0 days 0 hours 11 minutes 48 seconds 292 msec
