                         Program Version 5.0.3 -  RELEASE  -
|  1> !R2SCAN def2-TZVP VERYSLOWCONV
|  2> !KDIIS
|  3> %scf
|  4>   AutoTRAHIter 200
|  5>   maxiter 400
|  6> end
|  7>
|  8> %pal nprocs 6 end
|  9>
| 10> *xyzfile 0 6 pbe.xyz
| 11>
| 12> $new_job
| 13>
| 14> !R2SCAN def2-TZVP VERYSLOWCONV
| 15> !KDIIS
| 16> %scf
| 17>   AutoTRAHIter 200
| 18>   maxiter 400
| 19> end
| 20>
| 21>
| 22> %pal nprocs 6 end
| 23>
| 24> *xyzfile 0 4 pbe.xyz
| 25>
| 26>
| 27>
| 28>
| 29>
| 30>                          ****END OF INPUT****
 Total Charge           Charge          ....    0
 Multiplicity           Mult            ....    6
 Number of Electrons    NEL             ....  329
FINAL SINGLE POINT ENERGY     -3324.619872865422

CARTESIAN COORDINATES (ANGSTROEM)
---------------------------------
  Au     9.208914    7.489046    5.776198
  Au    10.018751    9.829512    7.139756
  Au     7.616973    5.134838    5.267503
  Au     7.338756    9.677703    6.097504
  Au     6.746035    7.606411    4.334039
  Au     4.939910    5.778766    5.676069
  Au     4.560028    8.531258    5.787486
  Au     6.251479    4.793688    7.927572
  Au     5.245476    9.677834    8.151132
  Au     4.352522    6.968017    8.206132
  Au     7.875193   10.180218    8.878538
  Au     8.022302    5.612140   10.045929
  Au     5.279676    5.610560   10.507851
  Au     9.121718    5.238303    7.524896
  Au     9.210350    7.728559    8.739603
  Au     6.555077    7.991207    9.918135
  Mn     6.863187    7.278243    7.168352

 Multiplicity           Mult            ....    4
 Number of Electrons    NEL             ....  329
 Basis Dimension        Dim             ....  685

ORBITAL ENERGIES
----------------
                 SPIN UP ORBITALS
  NO   OCC          E(Eh)            E(eV)
   0   1.0000    -235.051749     -6396.0832
   1   1.0000     -27.229452      -740.9511
   2   1.0000     -23.276490      -633.3855
   3   1.0000     -23.276346      -633.3816
   4   1.0000     -23.275605      -633.3614
   5   1.0000      -4.131721      -112.4299
   6   1.0000      -4.131564      -112.4256
   7   1.0000      -4.131253      -112.4171
   8   1.0000      -4.131180      -112.4151
   9   1.0000      -4.128071      -112.3305
  10   1.0000      -4.128015      -112.3290
  11   1.0000      -4.122446      -112.1775
  12   1.0000      -4.122281      -112.1730
  13   1.0000      -4.121532      -112.1526
  14   1.0000      -4.121384      -112.1486
  15   1.0000      -4.119951      -112.1096
  16   1.0000      -4.119857      -112.1070
  17   1.0000      -4.119482      -112.0968
  18   1.0000      -4.119264      -112.0909
  19   1.0000      -4.112335      -111.9023
  20   1.0000      -4.112252      -111.9001
  21   1.0000      -3.252443       -88.5035
  22   1.0000      -2.320392       -63.1411
  23   1.0000      -2.320249       -63.1372
  24   1.0000      -2.320178       -63.1352
  25   1.0000      -2.320090       -63.1329
  26   1.0000      -2.317007       -63.0490
  27   1.0000      -2.316896       -63.0459
  28   1.0000      -2.316273       -63.0290
  29   1.0000      -2.316165       -63.0261
  30   1.0000      -2.316106       -63.0244
  31   1.0000      -2.315718       -63.0139
  32   1.0000      -2.315673       -63.0127
  33   1.0000      -2.315415       -63.0056
  34   1.0000      -2.315342       -63.0037
  35   1.0000      -2.314177       -62.9720
  36   1.0000      -2.313054       -62.9414
  37   1.0000      -2.313007       -62.9401
  38   1.0000      -2.312441       -62.9247
  39   1.0000      -2.312406       -62.9238
  40   1.0000      -2.310848       -62.8814
  41   1.0000      -2.310717       -62.8778
  42   1.0000      -2.308976       -62.8304
  43   1.0000      -2.308593       -62.8200
  44   1.0000      -2.307996       -62.8038
  45   1.0000      -2.307805       -62.7986
  46   1.0000      -2.307739       -62.7968
  47   1.0000      -2.307287       -62.7845
  48   1.0000      -2.307191       -62.7819
  49   1.0000      -2.307008       -62.7769
  50   1.0000      -2.306767       -62.7703
  51   1.0000      -2.306428       -62.7611
  52   1.0000      -2.306318       -62.7581
  53   1.0000      -2.305367       -62.7322
  54   1.0000      -2.304988       -62.7219
  55   1.0000      -2.304827       -62.7175
  56   1.0000      -2.304590       -62.7111
  57   1.0000      -2.304361       -62.7049
  58   1.0000      -2.303924       -62.6930
  59   1.0000      -2.303710       -62.6871
  60   1.0000      -2.303262       -62.6750
  61   1.0000      -2.303231       -62.6741
  62   1.0000      -2.303159       -62.6722
  63   1.0000      -2.302966       -62.6669
  64   1.0000      -2.299032       -62.5598
  65   1.0000      -2.298976       -62.5583
  66   1.0000      -2.297336       -62.5137
  67   1.0000      -2.297259       -62.5116
  68   1.0000      -2.296475       -62.4903
  69   1.0000      -2.296378       -62.4876
  70   1.0000      -2.110264       -57.4232
  71   1.0000      -2.109124       -57.3922
  72   1.0000      -2.107940       -57.3600
  73   1.0000      -0.448869       -12.2143
  74   1.0000      -0.407218       -11.0810
  75   1.0000      -0.402644       -10.9565
  76   1.0000      -0.399518       -10.8714
  77   1.0000      -0.392389       -10.6775
  78   1.0000      -0.391869       -10.6633
  79   1.0000      -0.391672       -10.6579
  80   1.0000      -0.387629       -10.5479
  81   1.0000      -0.383058       -10.4235
  82   1.0000      -0.381597       -10.3838
  83   1.0000      -0.377824       -10.2811
  84   1.0000      -0.375357       -10.2140
  85   1.0000      -0.373490       -10.1632
  86   1.0000      -0.370805       -10.0901
  87   1.0000      -0.368405       -10.0248
  88   1.0000      -0.367598       -10.0028
  89   1.0000      -0.365665        -9.9503
  90   1.0000      -0.364206        -9.9106
  91   1.0000      -0.362046        -9.8518
  92   1.0000      -0.361327        -9.8322
  93   1.0000      -0.359089        -9.7713
  94   1.0000      -0.358472        -9.7545
  95   1.0000      -0.356991        -9.7142
  96   1.0000      -0.355884        -9.6841
  97   1.0000      -0.350505        -9.5377
  98   1.0000      -0.349832        -9.5194
  99   1.0000      -0.346734        -9.4351
 100   1.0000      -0.345833        -9.4106
 101   1.0000      -0.343541        -9.3482
 102   1.0000      -0.342396        -9.3171
 103   1.0000      -0.341396        -9.2898
 104   1.0000      -0.333924        -9.0865
 105   1.0000      -0.333426        -9.0730
 106   1.0000      -0.330190        -8.9849
 107   1.0000      -0.328543        -8.9401
 108   1.0000      -0.328330        -8.9343
 109   1.0000      -0.325527        -8.8581
 110   1.0000      -0.324217        -8.8224
 111   1.0000      -0.319182        -8.6854
 112   1.0000      -0.317610        -8.6426
 113   1.0000      -0.317093        -8.6285
 114   1.0000      -0.311234        -8.4691
 115   1.0000      -0.309905        -8.4330
 116   1.0000      -0.308502        -8.3948
 117   1.0000      -0.304668        -8.2904
 118   1.0000      -0.302838        -8.2406
 119   1.0000      -0.302155        -8.2220
 120   1.0000      -0.301662        -8.2087
 121   1.0000      -0.296723        -8.0742
 122   1.0000      -0.293538        -7.9876
 123   1.0000      -0.291987        -7.9454
 124   1.0000      -0.291884        -7.9426
 125   1.0000      -0.290648        -7.9089
 126   1.0000      -0.289632        -7.8813
 127   1.0000      -0.288651        -7.8546
 128   1.0000      -0.287884        -7.8337
 129   1.0000      -0.285752        -7.7757
 130   1.0000      -0.284160        -7.7324
 131   1.0000      -0.282322        -7.6824
 132   1.0000      -0.281783        -7.6677
 133   1.0000      -0.281378        -7.6567
 134   1.0000      -0.279685        -7.6106
 135   1.0000      -0.278210        -7.5705
 136   1.0000      -0.278075        -7.5668
 137   1.0000      -0.277799        -7.5593
 138   1.0000      -0.276047        -7.5116
 139   1.0000      -0.275414        -7.4944
 140   1.0000      -0.273541        -7.4434
 141   1.0000      -0.273109        -7.4317
 142   1.0000      -0.272414        -7.4127
 143   1.0000      -0.269036        -7.3208
 144   1.0000      -0.267786        -7.2868
 145   1.0000      -0.267134        -7.2691
 146   1.0000      -0.267018        -7.2659
 147   1.0000      -0.265054        -7.2125
 148   1.0000      -0.263749        -7.1770
 149   1.0000      -0.263626        -7.1736
 150   1.0000      -0.262870        -7.1530
 151   1.0000      -0.261297        -7.1102
 152   1.0000      -0.259484        -7.0609
 153   1.0000      -0.258052        -7.0219
 154   1.0000      -0.257276        -7.0008
 155   1.0000      -0.255747        -6.9592
 156   1.0000      -0.255627        -6.9560
 157   1.0000      -0.252281        -6.8649
 158   1.0000      -0.250108        -6.8058
 159   1.0000      -0.249594        -6.7918
 160   1.0000      -0.248390        -6.7590
 161   1.0000      -0.245862        -6.6902
 162   1.0000      -0.223385        -6.0786
 163   1.0000      -0.220729        -6.0063
 164   1.0000      -0.212215        -5.7747
 165   1.0000      -0.207691        -5.6516
 166   0.0000      -0.194553        -5.2941
 167   0.0000      -0.161947        -4.4068
 168   0.0000      -0.135148        -3.6776
 169   0.0000      -0.129897        -3.5347
 170   0.0000      -0.126653        -3.4464

                 SPIN DOWN ORBITALS
  NO   OCC          E(Eh)            E(eV)
   0   1.0000    -235.050850     -6396.0588
   1   1.0000     -27.140709      -738.5362
   2   1.0000     -23.209318      -631.5577
   3   1.0000     -23.207556      -631.5097
   4   1.0000     -23.207498      -631.5081
   5   1.0000      -4.131868      -112.4338
   6   1.0000      -4.131712      -112.4296
   7   1.0000      -4.131443      -112.4223
   8   1.0000      -4.131369      -112.4203
   9   1.0000      -4.128261      -112.3357
  10   1.0000      -4.128200      -112.3340
  11   1.0000      -4.122636      -112.1826
  12   1.0000      -4.122477      -112.1783
  13   1.0000      -4.121522      -112.1523
  14   1.0000      -4.121373      -112.1483
  15   1.0000      -4.120828      -112.1334
  16   1.0000      -4.120731      -112.1308
  17   1.0000      -4.119959      -112.1098
  18   1.0000      -4.119734      -112.1037
  19   1.0000      -4.113943      -111.9461
  20   1.0000      -4.113842      -111.9433
  21   1.0000      -3.040677       -82.7410
  22   1.0000      -2.320883       -63.1544
  23   1.0000      -2.320725       -63.1501
  24   1.0000      -2.320008       -63.1306
  25   1.0000      -2.319870       -63.1269
  26   1.0000      -2.316890       -63.0458
  27   1.0000      -2.316753       -63.0420
  28   1.0000      -2.316499       -63.0351
  29   1.0000      -2.316401       -63.0325
  30   1.0000      -2.316338       -63.0308
  31   1.0000      -2.315559       -63.0096
  32   1.0000      -2.315502       -63.0080
  33   1.0000      -2.315347       -63.0038
  34   1.0000      -2.315282       -63.0020
  35   1.0000      -2.314158       -62.9714
  36   1.0000      -2.313335       -62.9491
  37   1.0000      -2.313289       -62.9478
  38   1.0000      -2.312510       -62.9266
  39   1.0000      -2.312475       -62.9257
  40   1.0000      -2.310994       -62.8854
  41   1.0000      -2.310842       -62.8812
  42   1.0000      -2.309309       -62.8395
  43   1.0000      -2.308710       -62.8232
  44   1.0000      -2.308294       -62.8119
  45   1.0000      -2.308194       -62.8092
  46   1.0000      -2.307814       -62.7988
  47   1.0000      -2.307537       -62.7913
  48   1.0000      -2.307403       -62.7876
  49   1.0000      -2.307151       -62.7808
  50   1.0000      -2.306995       -62.7765
  51   1.0000      -2.306896       -62.7738
  52   1.0000      -2.306771       -62.7704
  53   1.0000      -2.305910       -62.7470
  54   1.0000      -2.305763       -62.7430
  55   1.0000      -2.305391       -62.7329
  56   1.0000      -2.304935       -62.7205
  57   1.0000      -2.304739       -62.7151
  58   1.0000      -2.304422       -62.7065
  59   1.0000      -2.304328       -62.7040
  60   1.0000      -2.303994       -62.6949
  61   1.0000      -2.303833       -62.6905
  62   1.0000      -2.303609       -62.6844
  63   1.0000      -2.303409       -62.6790
  64   1.0000      -2.300923       -62.6113
  65   1.0000      -2.300844       -62.6092
  66   1.0000      -2.299019       -62.5595
  67   1.0000      -2.298910       -62.5565
  68   1.0000      -2.297843       -62.5275
  69   1.0000      -2.297753       -62.5250
  70   1.0000      -1.901057       -51.7304
  71   1.0000      -1.898034       -51.6481
  72   1.0000      -1.897027       -51.6207
  73   1.0000      -0.444988       -12.1087
  74   1.0000      -0.407404       -11.0860
  75   1.0000      -0.403966       -10.9925
  76   1.0000      -0.401044       -10.9130
  77   1.0000      -0.388884       -10.5821
  78   1.0000      -0.383753       -10.4424
  79   1.0000      -0.382385       -10.4052
  80   1.0000      -0.381597       -10.3838
  81   1.0000      -0.380232       -10.3466
  82   1.0000      -0.377407       -10.2698
  83   1.0000      -0.377119       -10.2619
  84   1.0000      -0.373019       -10.1504
  85   1.0000      -0.372710       -10.1419
  86   1.0000      -0.370904       -10.0928
  87   1.0000      -0.369123       -10.0443
  88   1.0000      -0.366707        -9.9786
  89   1.0000      -0.365713        -9.9515
  90   1.0000      -0.364232        -9.9113
  91   1.0000      -0.363303        -9.8860
  92   1.0000      -0.362398        -9.8613
  93   1.0000      -0.359288        -9.7767
  94   1.0000      -0.359258        -9.7759
  95   1.0000      -0.355656        -9.6779
  96   1.0000      -0.354345        -9.6422
  97   1.0000      -0.350581        -9.5398
  98   1.0000      -0.349918        -9.5218
  99   1.0000      -0.346757        -9.4357
 100   1.0000      -0.344294        -9.3687
 101   1.0000      -0.342717        -9.3258
 102   1.0000      -0.341391        -9.2897
 103   1.0000      -0.339246        -9.2314
 104   1.0000      -0.334518        -9.1027
 105   1.0000      -0.331031        -9.0078
 106   1.0000      -0.328753        -8.9458
 107   1.0000      -0.327157        -8.9024
 108   1.0000      -0.324358        -8.8262
 109   1.0000      -0.322711        -8.7814
 110   1.0000      -0.319360        -8.6902
 111   1.0000      -0.317922        -8.6511
 112   1.0000      -0.316114        -8.6019
 113   1.0000      -0.311616        -8.4795
 114   1.0000      -0.311409        -8.4739
 115   1.0000      -0.305900        -8.3240
 116   1.0000      -0.305296        -8.3075
 117   1.0000      -0.303223        -8.2511
 118   1.0000      -0.301405        -8.2017
 119   1.0000      -0.300599        -8.1797
 120   1.0000      -0.296533        -8.0691
 121   1.0000      -0.296250        -8.0614
 122   1.0000      -0.292863        -7.9692
 123   1.0000      -0.292094        -7.9483
 124   1.0000      -0.290850        -7.9144
 125   1.0000      -0.290583        -7.9072
 126   1.0000      -0.288100        -7.8396
 127   1.0000      -0.287467        -7.8224
 128   1.0000      -0.286550        -7.7974
 129   1.0000      -0.284456        -7.7404
 130   1.0000      -0.283554        -7.7159
 131   1.0000      -0.283372        -7.7109
 132   1.0000      -0.282849        -7.6967
 133   1.0000      -0.282080        -7.6758
 134   1.0000      -0.279772        -7.6130
 135   1.0000      -0.278946        -7.5905
 136   1.0000      -0.278548        -7.5797
 137   1.0000      -0.276168        -7.5149
 138   1.0000      -0.275489        -7.4964
 139   1.0000      -0.273963        -7.4549
 140   1.0000      -0.273147        -7.4327
 141   1.0000      -0.268814        -7.3148
 142   1.0000      -0.268321        -7.3014
 143   1.0000      -0.267128        -7.2689
 144   1.0000      -0.266742        -7.2584
 145   1.0000      -0.265347        -7.2205
 146   1.0000      -0.263154        -7.1608
 147   1.0000      -0.262965        -7.1556
 148   1.0000      -0.260513        -7.0889
 149   1.0000      -0.259531        -7.0622
 150   1.0000      -0.258408        -7.0316
 151   1.0000      -0.256250        -6.9729
 152   1.0000      -0.254041        -6.9128
 153   1.0000      -0.252087        -6.8596
 154   1.0000      -0.251800        -6.8518
 155   1.0000      -0.249914        -6.8005
 156   1.0000      -0.248216        -6.7543
 157   1.0000      -0.230251        -6.2654
 158   1.0000      -0.227546        -6.1918
 159   1.0000      -0.220859        -6.0099
 160   1.0000      -0.216829        -5.9002
 161   1.0000      -0.210571        -5.7299
 162   1.0000      -0.169117        -4.6019
 163   0.0000      -0.140911        -3.8344
 164   0.0000      -0.135101        -3.6763
 165   0.0000      -0.134168        -3.6509
 166   0.0000      -0.129115        -3.5134
 167   0.0000      -0.123556        -3.3621

MULLIKEN ATOMIC CHARGES AND SPIN POPULATIONS
--------------------------------------------
   0 Au:    0.081641   -0.013045
   1 Au:    0.367006   -0.230364
   2 Au:    0.285556   -0.122144
   3 Au:    0.026177   -0.149362
   4 Au:    0.274873    0.022192
   5 Au:    0.275580    0.022905
   6 Au:    0.285794   -0.121326
   7 Au:    0.022005   -0.148773
   8 Au:    0.187378   -0.034839
   9 Au:    0.083002   -0.011955
  10 Au:    0.309187   -0.062904
  11 Au:    0.309961   -0.062618
  12 Au:    0.365800   -0.232793
  13 Au:    0.187387   -0.034137
  14 Au:   -0.230231    0.002819
  15 Au:   -0.223882    0.000736
  16 Mn:   -2.607235    4.175608
Sum of atomic charges         :    0.0000000

LOEWDIN ATOMIC CHARGES AND SPIN POPULATIONS
-------------------------------------------
   0 Au:    0.014955   -0.038962
   1 Au:    0.077534   -0.193653
   2 Au:    0.030212   -0.104216
   3 Au:    0.023921   -0.095231
   4 Au:    0.049941   -0.027302
   5 Au:    0.049964   -0.026686
   6 Au:    0.030098   -0.103487
   7 Au:    0.023062   -0.094999
   8 Au:    0.049346   -0.067217
   9 Au:    0.015490   -0.038447
  10 Au:    0.027230   -0.095182
  11 Au:    0.027174   -0.095072
  12 Au:    0.077340   -0.195691
  13 Au:    0.049384   -0.066677
  14 Au:   -0.045823   -0.024165
  15 Au:   -0.044348   -0.025159
  16 Mn:   -0.455481    4.292147

  Mayer bond orders larger than 0.100000
B(  0-Au,  1-Au) :   0.2474 B(  0-Au,  2-Au) :   0.1741 B(  0-Au,  3-Au) :   0.1859
B(  0-Au,  4-Au) :   0.1512 B(  0-Au, 13-Au) :   0.1832 B(  0-Au, 14-Au) :   0.1442
B(  0-Au, 16-Mn) :   0.4535 B(  1-Au,  3-Au) :   0.2071 B(  1-Au, 10-Au) :   0.2488
B(  1-Au, 14-Au) :   0.3690 B(  2-Au,  4-Au) :   0.2119 B(  2-Au,  5-Au) :   0.1982
B(  2-Au,  7-Au) :   0.1233 B(  2-Au, 13-Au) :   0.2732 B(  2-Au, 16-Mn) :   0.2702
B(  3-Au,  4-Au) :   0.2326 B(  3-Au,  6-Au) :   0.1185 B(  3-Au,  8-Au) :   0.1465
B(  3-Au, 10-Au) :   0.1913 B(  3-Au, 16-Mn) :   0.4943 B(  4-Au,  5-Au) :   0.1491
B(  4-Au,  6-Au) :   0.1983 B(  4-Au, 16-Mn) :   0.3764 B(  5-Au,  6-Au) :   0.2130
B(  5-Au,  7-Au) :   0.2314 B(  5-Au,  9-Au) :   0.1517 B(  5-Au, 16-Mn) :   0.3748
B(  6-Au,  8-Au) :   0.2735 B(  6-Au,  9-Au) :   0.1744 B(  6-Au, 16-Mn) :   0.2698
B(  7-Au,  9-Au) :   0.1849 B(  7-Au, 11-Au) :   0.1905 B(  7-Au, 12-Au) :   0.2104
B(  7-Au, 13-Au) :   0.1475 B(  7-Au, 16-Mn) :   0.4939 B(  8-Au,  9-Au) :   0.1817
B(  8-Au, 10-Au) :   0.2177 B(  8-Au, 15-Au) :   0.2296 B(  8-Au, 16-Mn) :   0.3343
B(  9-Au, 12-Au) :   0.2465 B(  9-Au, 15-Au) :   0.1431 B(  9-Au, 16-Mn) :   0.4543
B( 10-Au, 14-Au) :   0.2352 B( 10-Au, 15-Au) :   0.3410 B( 10-Au, 16-Mn) :   0.1077
B( 11-Au, 12-Au) :   0.2496 B( 11-Au, 13-Au) :   0.2172 B( 11-Au, 14-Au) :   0.3432
B( 11-Au, 15-Au) :   0.2332 B( 11-Au, 16-Mn) :   0.1065 B( 12-Au, 15-Au) :   0.3661
B( 13-Au, 14-Au) :   0.2296 B( 13-Au, 16-Mn) :   0.3319 B( 14-Au, 15-Au) :   0.1740
B( 14-Au, 16-Mn) :   0.4025 B( 15-Au, 16-Mn) :   0.4040

FINAL SINGLE POINT ENERGY     -3324.590954528052

DIPOLE MOMENT
-------------
                                X             Y             Z
Electronic contribution:      5.75548       3.17404      12.01084
Nuclear contribution   :     -5.79079      -3.19290     -12.08557
                        -----------------------------------------
Total Dipole Moment    :     -0.03531      -0.01886      -0.07473
                        -----------------------------------------
Magnitude (a.u.)       :      0.08478
Magnitude (Debye)      :      0.21549

Rotational constants in cm-1:     0.000898     0.000834     0.000783
Rotational constants in MHz :    26.919457    25.009302    23.465459

                             ****ORCA TERMINATED NORMALLY****
TOTAL RUN TIME: 0 days 0 hours 18 minutes 30 seconds 768 msec
