                         Program Version 5.0.3 -  RELEASE  -
|  1> !RI-B2PLYP def2-TZVP def2-TZVP/C
|  2> !RIJCOSX VERYSLOWCONV
|  3>
|  4> %scf
|  5>   AutoTRAHIter 200
|  6>   maxiter 400
|  7> end
|  8>
|  9>
| 10> %pal nprocs 6 end
| 11>
| 12> *xyzfile 0 6 pbe.xyz
| 13>
| 14> $new_job
| 15>
| 16> !RI-B2PLYP def2-TZVP def2-TZVP/C
| 17> !RIJCOSX VERYSLOWCONV
| 18>
| 19> %scf
| 20>   AutoTRAHIter 200
| 21>   maxiter 400
| 22> end
| 23>
| 24>
| 25> %pal nprocs 6 end
| 26>
| 27> *xyzfile 0 4 pbe.xyz
| 28>
| 29>
| 30>
| 31>
| 32>
| 33>                          ****END OF INPUT****
 Total Charge           Charge          ....    0
 Multiplicity           Mult            ....    6
 Number of Electrons    NEL             ....  253
MP2 TOTAL ENERGY:    -2777.845173219 Eh
FINAL SINGLE POINT ENERGY     -2777.845173219127

CARTESIAN COORDINATES (ANGSTROEM)
---------------------------------
  Au     7.908891   10.065262    9.161958
  Au    12.266237    8.369350    7.299101
  Au     9.487389    8.197333   10.396562
  Au    10.754691    6.497303    8.640006
  Au    10.418007    6.883614    5.802061
  Au    10.766519   10.244288    5.980624
  Au     7.877911    6.731080    8.629803
  Au     6.227380    9.198150    4.722500
  Au     6.146418    8.692319    7.464425
  Au     8.023547   10.575640    6.412902
  Au     8.969132    8.863856    4.325148
  Au     7.678401    6.991274    5.905495
  Mn     9.446037    8.591673    7.580658

 Multiplicity           Mult            ....    4
 Number of Electrons    NEL             ....  253
 Basis Dimension        Dim             ....  525

ORBITAL ENERGIES
----------------
                 SPIN UP ORBITALS
  NO   OCC          E(Eh)            E(eV)
   0   1.0000    -237.625775     -6466.1261
   1   1.0000     -28.128665      -765.4199
   2   1.0000     -24.047254      -654.3591
   3   1.0000     -24.045940      -654.3233
   4   1.0000     -24.045937      -654.3232
   5   1.0000      -4.405075      -119.8682
   6   1.0000      -4.403811      -119.8338
   7   1.0000      -4.403743      -119.8319
   8   1.0000      -4.402893      -119.8088
   9   1.0000      -4.399220      -119.7089
  10   1.0000      -4.399211      -119.7086
  11   1.0000      -4.395358      -119.6038
  12   1.0000      -4.393108      -119.5425
  13   1.0000      -4.393099      -119.5423
  14   1.0000      -4.387920      -119.4014
  15   1.0000      -4.387906      -119.4010
  16   1.0000      -4.376630      -119.0941
  17   1.0000      -3.605840       -98.1199
  18   1.0000      -2.526274       -68.7434
  19   1.0000      -2.526200       -68.7414
  20   1.0000      -2.523858       -68.6777
  21   1.0000      -2.523570       -68.6698
  22   1.0000      -2.523347       -68.6638
  23   1.0000      -2.521886       -68.6240
  24   1.0000      -2.521771       -68.6209
  25   1.0000      -2.520348       -68.5822
  26   1.0000      -2.520223       -68.5788
  27   1.0000      -2.520164       -68.5772
  28   1.0000      -2.519550       -68.5605
  29   1.0000      -2.518815       -68.5404
  30   1.0000      -2.518272       -68.5257
  31   1.0000      -2.518133       -68.5219
  32   1.0000      -2.516714       -68.4833
  33   1.0000      -2.516152       -68.4680
  34   1.0000      -2.515715       -68.4561
  35   1.0000      -2.514049       -68.4108
  36   1.0000      -2.514031       -68.4103
  37   1.0000      -2.512855       -68.3783
  38   1.0000      -2.510923       -68.3257
  39   1.0000      -2.510833       -68.3232
  40   1.0000      -2.510308       -68.3090
  41   1.0000      -2.510008       -68.3008
  42   1.0000      -2.509894       -68.2977
  43   1.0000      -2.509044       -68.2746
  44   1.0000      -2.509001       -68.2734
  45   1.0000      -2.506741       -68.2119
  46   1.0000      -2.506727       -68.2115
  47   1.0000      -2.503571       -68.1256
  48   1.0000      -2.503405       -68.1211
  49   1.0000      -2.502335       -68.0920
  50   1.0000      -2.502305       -68.0912
  51   1.0000      -2.494749       -67.8856
  52   1.0000      -2.493177       -67.8428
  53   1.0000      -2.492275       -67.8183
  54   1.0000      -2.408472       -65.5379
  55   1.0000      -2.406792       -65.4921
  56   1.0000      -2.406090       -65.4730
  57   1.0000      -0.520091       -14.1524
  58   1.0000      -0.516363       -14.0509
  59   1.0000      -0.514377       -13.9969
  60   1.0000      -0.510788       -13.8993
  61   1.0000      -0.508486       -13.8366
  62   1.0000      -0.497346       -13.5335
  63   1.0000      -0.465250       -12.6601
  64   1.0000      -0.459868       -12.5137
  65   1.0000      -0.458422       -12.4743
  66   1.0000      -0.457798       -12.4573
  67   1.0000      -0.455510       -12.3951
  68   1.0000      -0.452597       -12.3158
  69   1.0000      -0.450656       -12.2630
  70   1.0000      -0.446050       -12.1376
  71   1.0000      -0.445703       -12.1282
  72   1.0000      -0.444884       -12.1059
  73   1.0000      -0.438169       -11.9232
  74   1.0000      -0.437431       -11.9031
  75   1.0000      -0.433135       -11.7862
  76   1.0000      -0.429481       -11.6868
  77   1.0000      -0.429264       -11.6809
  78   1.0000      -0.428588       -11.6625
  79   1.0000      -0.425766       -11.5857
  80   1.0000      -0.424133       -11.5412
  81   1.0000      -0.423704       -11.5296
  82   1.0000      -0.423366       -11.5204
  83   1.0000      -0.422124       -11.4866
  84   1.0000      -0.420196       -11.4341
  85   1.0000      -0.415103       -11.2955
  86   1.0000      -0.410082       -11.1589
  87   1.0000      -0.406078       -11.0499
  88   1.0000      -0.404720       -11.0130
  89   1.0000      -0.399541       -10.8721
  90   1.0000      -0.395638       -10.7659
  91   1.0000      -0.393761       -10.7148
  92   1.0000      -0.383507       -10.4358
  93   1.0000      -0.383172       -10.4266
  94   1.0000      -0.381367       -10.3775
  95   1.0000      -0.379364       -10.3230
  96   1.0000      -0.374523       -10.1913
  97   1.0000      -0.372116       -10.1258
  98   1.0000      -0.371579       -10.1112
  99   1.0000      -0.371187       -10.1005
 100   1.0000      -0.367635       -10.0039
 101   1.0000      -0.365789        -9.9536
 102   1.0000      -0.365083        -9.9344
 103   1.0000      -0.364283        -9.9127
 104   1.0000      -0.362018        -9.8510
 105   1.0000      -0.360304        -9.8044
 106   1.0000      -0.360037        -9.7971
 107   1.0000      -0.358339        -9.7509
 108   1.0000      -0.358317        -9.7503
 109   1.0000      -0.357789        -9.7359
 110   1.0000      -0.352268        -9.5857
 111   1.0000      -0.350420        -9.5354
 112   1.0000      -0.349732        -9.5167
 113   1.0000      -0.348177        -9.4744
 114   1.0000      -0.345213        -9.3937
 115   1.0000      -0.342773        -9.3273
 116   1.0000      -0.340855        -9.2751
 117   1.0000      -0.340089        -9.2543
 118   1.0000      -0.335984        -9.1426
 119   1.0000      -0.333682        -9.0799
 120   1.0000      -0.331656        -9.0248
 121   1.0000      -0.331297        -9.0151
 122   1.0000      -0.317800        -8.6478
 123   1.0000      -0.315621        -8.5885
 124   1.0000      -0.303128        -8.2485
 125   1.0000      -0.266201        -7.2437
 126   1.0000      -0.222446        -6.0531
 127   1.0000      -0.220755        -6.0070
 128   0.0000      -0.119859        -3.2615
 129   0.0000      -0.109416        -2.9774
 130   0.0000      -0.084207        -2.2914
 131   0.0000      -0.058393        -1.5890
 132   0.0000      -0.052832        -1.4376

                 SPIN DOWN ORBITALS
  NO   OCC          E(Eh)            E(eV)
   0   1.0000    -237.623677     -6466.0690
   1   1.0000     -28.028122      -762.6840
   2   1.0000     -23.954586      -651.8374
   3   1.0000     -23.954004      -651.8216
   4   1.0000     -23.953567      -651.8097
   5   1.0000      -4.404570      -119.8544
   6   1.0000      -4.403988      -119.8386
   7   1.0000      -4.403917      -119.8367
   8   1.0000      -4.403453      -119.8240
   9   1.0000      -4.399302      -119.7111
  10   1.0000      -4.399290      -119.7108
  11   1.0000      -4.395392      -119.6047
  12   1.0000      -4.393925      -119.5648
  13   1.0000      -4.393914      -119.5645
  14   1.0000      -4.388552      -119.4186
  15   1.0000      -4.388544      -119.4184
  16   1.0000      -4.377439      -119.1162
  17   1.0000      -3.323165       -90.4279
  18   1.0000      -2.525626       -68.7258
  19   1.0000      -2.524919       -68.7066
  20   1.0000      -2.522817       -68.6493
  21   1.0000      -2.522573       -68.6427
  22   1.0000      -2.522182       -68.6321
  23   1.0000      -2.521906       -68.6245
  24   1.0000      -2.520609       -68.5893
  25   1.0000      -2.519987       -68.5723
  26   1.0000      -2.519836       -68.5682
  27   1.0000      -2.518588       -68.5343
  28   1.0000      -2.518502       -68.5319
  29   1.0000      -2.518345       -68.5277
  30   1.0000      -2.518174       -68.5230
  31   1.0000      -2.518060       -68.5199
  32   1.0000      -2.516425       -68.4754
  33   1.0000      -2.515990       -68.4636
  34   1.0000      -2.514187       -68.4145
  35   1.0000      -2.513916       -68.4071
  36   1.0000      -2.513807       -68.4042
  37   1.0000      -2.512586       -68.3709
  38   1.0000      -2.511159       -68.3321
  39   1.0000      -2.511015       -68.3282
  40   1.0000      -2.510733       -68.3205
  41   1.0000      -2.510716       -68.3201
  42   1.0000      -2.510519       -68.3147
  43   1.0000      -2.510501       -68.3142
  44   1.0000      -2.510133       -68.3042
  45   1.0000      -2.506844       -68.2147
  46   1.0000      -2.506837       -68.2145
  47   1.0000      -2.504474       -68.1502
  48   1.0000      -2.504331       -68.1463
  49   1.0000      -2.502171       -68.0875
  50   1.0000      -2.502140       -68.0867
  51   1.0000      -2.495701       -67.9115
  52   1.0000      -2.493936       -67.8634
  53   1.0000      -2.493864       -67.8615
  54   1.0000      -2.084525       -56.7228
  55   1.0000      -2.084090       -56.7110
  56   1.0000      -2.082415       -56.6654
  57   1.0000      -0.498849       -13.5744
  58   1.0000      -0.468631       -12.7521
  59   1.0000      -0.467450       -12.7200
  60   1.0000      -0.464066       -12.6279
  61   1.0000      -0.462604       -12.5881
  62   1.0000      -0.461807       -12.5664
  63   1.0000      -0.459110       -12.4930
  64   1.0000      -0.457938       -12.4611
  65   1.0000      -0.454669       -12.3722
  66   1.0000      -0.454339       -12.3632
  67   1.0000      -0.448479       -12.2037
  68   1.0000      -0.448388       -12.2013
  69   1.0000      -0.447260       -12.1706
  70   1.0000      -0.444491       -12.0952
  71   1.0000      -0.439476       -11.9587
  72   1.0000      -0.437541       -11.9061
  73   1.0000      -0.435792       -11.8585
  74   1.0000      -0.430330       -11.7099
  75   1.0000      -0.428830       -11.6691
  76   1.0000      -0.427462       -11.6318
  77   1.0000      -0.426312       -11.6005
  78   1.0000      -0.425883       -11.5889
  79   1.0000      -0.424278       -11.5452
  80   1.0000      -0.421887       -11.4801
  81   1.0000      -0.416457       -11.3324
  82   1.0000      -0.409183       -11.1344
  83   1.0000      -0.409049       -11.1308
  84   1.0000      -0.405486       -11.0338
  85   1.0000      -0.401751       -10.9322
  86   1.0000      -0.397459       -10.8154
  87   1.0000      -0.392767       -10.6877
  88   1.0000      -0.389737       -10.6053
  89   1.0000      -0.386542       -10.5183
  90   1.0000      -0.386073       -10.5056
  91   1.0000      -0.382839       -10.4176
  92   1.0000      -0.380080       -10.3425
  93   1.0000      -0.374958       -10.2031
  94   1.0000      -0.374324       -10.1859
  95   1.0000      -0.372153       -10.1268
  96   1.0000      -0.370531       -10.0827
  97   1.0000      -0.370290       -10.0761
  98   1.0000      -0.367401        -9.9975
  99   1.0000      -0.366133        -9.9630
 100   1.0000      -0.363569        -9.8932
 101   1.0000      -0.361108        -9.8262
 102   1.0000      -0.361010        -9.8236
 103   1.0000      -0.359271        -9.7763
 104   1.0000      -0.358677        -9.7601
 105   1.0000      -0.355449        -9.6723
 106   1.0000      -0.354107        -9.6357
 107   1.0000      -0.352018        -9.5789
 108   1.0000      -0.351288        -9.5590
 109   1.0000      -0.348811        -9.4916
 110   1.0000      -0.347240        -9.4489
 111   1.0000      -0.344346        -9.3701
 112   1.0000      -0.343742        -9.3537
 113   1.0000      -0.337691        -9.1890
 114   1.0000      -0.336637        -9.1603
 115   1.0000      -0.334505        -9.1023
 116   1.0000      -0.332339        -9.0434
 117   1.0000      -0.322227        -8.7682
 118   1.0000      -0.317863        -8.6495
 119   1.0000      -0.315907        -8.5963
 120   1.0000      -0.290350        -7.9008
 121   1.0000      -0.235085        -6.3970
 122   1.0000      -0.229639        -6.2488
 123   1.0000      -0.222414        -6.0522
 124   1.0000      -0.205231        -5.5846
 125   0.0000      -0.089701        -2.4409
 126   0.0000      -0.069021        -1.8782
 127   0.0000      -0.058179        -1.5831
 128   0.0000      -0.054232        -1.4757
 129   0.0000      -0.040314        -1.0970

MULLIKEN ATOMIC CHARGES AND SPIN POPULATIONS
--------------------------------------------
   0 Au:    0.206285   -0.269883
   1 Au:    0.199204   -0.129227
   2 Au:    0.198791   -0.127665
   3 Au:    0.209721   -0.156806
   4 Au:    0.133147   -0.210673
   5 Au:    0.206131   -0.269008
   6 Au:    0.132959   -0.211084
   7 Au:    0.092946    0.027057
   8 Au:    0.157960   -0.008845
   9 Au:    0.041092   -0.217020
  10 Au:    0.158220   -0.009407
  11 Au:    0.008377   -0.025354
  12 Mn:   -1.744835    4.607915
Sum of atomic charges         :   -0.0000000

LOEWDIN ATOMIC CHARGES AND SPIN POPULATIONS
-------------------------------------------
   0 Au:    0.076986   -0.199407
   1 Au:    0.053850   -0.150508
   2 Au:    0.053975   -0.149662
   3 Au:    0.001237   -0.109786
   4 Au:    0.031755   -0.139496
   5 Au:    0.077087   -0.199315
   6 Au:    0.031693   -0.139695
   7 Au:    0.040859   -0.011886
   8 Au:   -0.008072   -0.069278
   9 Au:   -0.050128   -0.131867
  10 Au:   -0.007945   -0.069324
  11 Au:   -0.028825   -0.075168
  12 Mn:   -0.272470    4.445393

  Mayer bond orders larger than 0.100000
B(  0-Au,  2-Au) :   0.2346 B(  0-Au,  8-Au) :   0.1870 B(  0-Au,  9-Au) :   0.1645
B(  0-Au, 12-Mn) :   0.5025 B(  1-Au,  3-Au) :   0.2340 B(  1-Au,  4-Au) :   0.1770
B(  1-Au,  5-Au) :   0.2346 B(  1-Au, 12-Mn) :   0.3912 B(  2-Au,  3-Au) :   0.2345
B(  2-Au,  6-Au) :   0.1776 B(  2-Au, 12-Mn) :   0.3906 B(  3-Au,  4-Au) :   0.1305
B(  3-Au,  6-Au) :   0.1294 B(  3-Au, 12-Mn) :   0.4572 B(  4-Au, 10-Au) :   0.1775
B(  4-Au, 11-Au) :   0.3173 B(  4-Au, 12-Mn) :   0.5190 B(  5-Au,  9-Au) :   0.1655
B(  5-Au, 10-Au) :   0.1866 B(  5-Au, 12-Mn) :   0.5024 B(  6-Au,  8-Au) :   0.1774
B(  6-Au, 11-Au) :   0.3174 B(  6-Au, 12-Mn) :   0.5197 B(  7-Au,  8-Au) :   0.2860
B(  7-Au,  9-Au) :   0.2914 B(  7-Au, 10-Au) :   0.2853 B(  7-Au, 11-Au) :   0.2397
B(  8-Au,  9-Au) :   0.1959 B(  8-Au, 11-Au) :   0.2629 B(  8-Au, 12-Mn) :   0.2297
B(  9-Au, 10-Au) :   0.1951 B(  9-Au, 12-Mn) :   0.4780 B( 10-Au, 11-Au) :   0.2632
B( 10-Au, 12-Mn) :   0.2303 B( 11-Au, 12-Mn) :   0.2429

MP2 TOTAL ENERGY:    -2777.850840049 Eh
FINAL SINGLE POINT ENERGY     -2777.850840049149

DIPOLE MOMENT
-------------
                                X             Y             Z
Electronic contribution:    -20.58180      -5.46136     -18.77427
Nuclear contribution   :     20.70141       5.42890      18.88043
                        -----------------------------------------
Total Dipole Moment    :      0.11961      -0.03246       0.10616
                        -----------------------------------------
Magnitude (a.u.)       :      0.16318
Magnitude (Debye)      :      0.41478

Rotational constants in cm-1:     0.001587     0.001281     0.001058
Rotational constants in MHz :    47.579622    38.399301    31.723322

                             ****ORCA TERMINATED NORMALLY****
TOTAL RUN TIME: 0 days 0 hours 54 minutes 23 seconds 690 msec
