                         Program Version 5.0.3 -  RELEASE  -
|  1> !PBE def2-TZVP VERYSLOWCONV
|  2> !KDIIS
|  3>
|  4> %scf
|  5>   AutoTRAHIter 200
|  6>   maxiter 400
|  7> end
|  8>
|  9>
| 10> %pal nprocs 6 end
| 11>
| 12> *xyzfile 0 6 pbe.xyz
| 13>
| 14> $new_job
| 15>
| 16> !PBE def2-TZVP VERYSLOWCONV
| 17> !KDIIS
| 18>
| 19> %scf
| 20>   AutoTRAHIter 200
| 21>   maxiter 400
| 22> end
| 23>
| 24>
| 25> %pal nprocs 6 end
| 26>
| 27> *xyzfile 0 4 pbe.xyz
| 28>
| 29>
| 30>
| 31>
| 32>
| 33>                          ****END OF INPUT****
 Total Charge           Charge          ....    0
 Multiplicity           Mult            ....    6
 Number of Electrons    NEL             ....  253
FINAL SINGLE POINT ENERGY     -2780.661749755417

CARTESIAN COORDINATES (ANGSTROEM)
---------------------------------
  Au     7.908891   10.065262    9.161958
  Au    12.266237    8.369350    7.299101
  Au     9.487389    8.197333   10.396562
  Au    10.754691    6.497303    8.640006
  Au    10.418007    6.883614    5.802061
  Au    10.766519   10.244288    5.980624
  Au     7.877911    6.731080    8.629803
  Au     6.227380    9.198150    4.722500
  Au     6.146418    8.692319    7.464425
  Au     8.023547   10.575640    6.412902
  Au     8.969132    8.863856    4.325148
  Au     7.678401    6.991274    5.905495
  Mn     9.446037    8.591673    7.580658

 Multiplicity           Mult            ....    4
 Number of Electrons    NEL             ....  253
 Basis Dimension        Dim             ....  525

ORBITAL ENERGIES
----------------
                 SPIN UP ORBITALS
  NO   OCC          E(Eh)            E(eV)
   0   1.0000    -234.205842     -6373.0650
   1   1.0000     -26.900845      -732.0092
   2   1.0000     -23.050961      -627.2485
   3   1.0000     -23.049137      -627.1989
   4   1.0000     -23.048459      -627.1804
   5   1.0000      -4.032756      -109.7369
   6   1.0000      -4.032312      -109.7248
   7   1.0000      -4.031560      -109.7043
   8   1.0000      -4.031506      -109.7029
   9   1.0000      -4.026195      -109.5583
  10   1.0000      -4.026133      -109.5567
  11   1.0000      -4.024277      -109.5061
  12   1.0000      -4.022292      -109.4521
  13   1.0000      -4.022225      -109.4503
  14   1.0000      -4.016731      -109.3008
  15   1.0000      -4.016703      -109.3001
  16   1.0000      -4.009931      -109.1158
  17   1.0000      -3.107826       -84.5682
  18   1.0000      -2.249078       -61.2005
  19   1.0000      -2.248756       -61.1918
  20   1.0000      -2.247649       -61.1616
  21   1.0000      -2.246883       -61.1408
  22   1.0000      -2.246517       -61.1308
  23   1.0000      -2.245977       -61.1162
  24   1.0000      -2.244687       -61.0810
  25   1.0000      -2.244628       -61.0794
  26   1.0000      -2.243571       -61.0507
  27   1.0000      -2.242860       -61.0313
  28   1.0000      -2.242733       -61.0279
  29   1.0000      -2.242605       -61.0244
  30   1.0000      -2.240811       -60.9756
  31   1.0000      -2.240771       -60.9745
  32   1.0000      -2.239756       -60.9469
  33   1.0000      -2.239571       -60.9418
  34   1.0000      -2.239430       -60.9380
  35   1.0000      -2.237823       -60.8943
  36   1.0000      -2.236603       -60.8611
  37   1.0000      -2.236557       -60.8598
  38   1.0000      -2.235079       -60.8196
  39   1.0000      -2.235051       -60.8188
  40   1.0000      -2.235001       -60.8175
  41   1.0000      -2.234944       -60.8159
  42   1.0000      -2.234497       -60.8037
  43   1.0000      -2.233691       -60.7818
  44   1.0000      -2.233645       -60.7806
  45   1.0000      -2.231711       -60.7279
  46   1.0000      -2.231689       -60.7274
  47   1.0000      -2.229419       -60.6656
  48   1.0000      -2.229345       -60.6636
  49   1.0000      -2.226312       -60.5810
  50   1.0000      -2.226286       -60.5803
  51   1.0000      -2.223691       -60.5097
  52   1.0000      -2.222562       -60.4790
  53   1.0000      -2.221899       -60.4609
  54   1.0000      -2.013673       -54.7948
  55   1.0000      -2.009672       -54.6860
  56   1.0000      -2.007688       -54.6320
  57   1.0000      -0.424597       -11.5539
  58   1.0000      -0.385133       -10.4800
  59   1.0000      -0.377153       -10.2629
  60   1.0000      -0.373409       -10.1610
  61   1.0000      -0.371731       -10.1153
  62   1.0000      -0.364019        -9.9055
  63   1.0000      -0.361780        -9.8445
  64   1.0000      -0.358416        -9.7530
  65   1.0000      -0.357678        -9.7329
  66   1.0000      -0.353234        -9.6120
  67   1.0000      -0.350699        -9.5430
  68   1.0000      -0.344718        -9.3802
  69   1.0000      -0.342715        -9.3257
  70   1.0000      -0.342226        -9.3124
  71   1.0000      -0.341684        -9.2977
  72   1.0000      -0.337160        -9.1746
  73   1.0000      -0.335234        -9.1222
  74   1.0000      -0.332045        -9.0354
  75   1.0000      -0.329577        -8.9683
  76   1.0000      -0.327347        -8.9076
  77   1.0000      -0.325596        -8.8599
  78   1.0000      -0.324214        -8.8223
  79   1.0000      -0.322797        -8.7838
  80   1.0000      -0.320232        -8.7140
  81   1.0000      -0.317410        -8.6372
  82   1.0000      -0.317220        -8.6320
  83   1.0000      -0.309105        -8.4112
  84   1.0000      -0.307896        -8.3783
  85   1.0000      -0.307168        -8.3585
  86   1.0000      -0.302558        -8.2330
  87   1.0000      -0.297830        -8.1044
  88   1.0000      -0.294405        -8.0112
  89   1.0000      -0.293034        -7.9739
  90   1.0000      -0.291076        -7.9206
  91   1.0000      -0.283678        -7.7193
  92   1.0000      -0.282596        -7.6898
  93   1.0000      -0.281286        -7.6542
  94   1.0000      -0.280453        -7.6315
  95   1.0000      -0.276859        -7.5337
  96   1.0000      -0.273989        -7.4556
  97   1.0000      -0.273955        -7.4547
  98   1.0000      -0.270624        -7.3641
  99   1.0000      -0.269259        -7.3269
 100   1.0000      -0.268147        -7.2967
 101   1.0000      -0.267674        -7.2838
 102   1.0000      -0.267354        -7.2751
 103   1.0000      -0.263485        -7.1698
 104   1.0000      -0.263304        -7.1649
 105   1.0000      -0.262269        -7.1367
 106   1.0000      -0.260721        -7.0946
 107   1.0000      -0.258107        -7.0234
 108   1.0000      -0.257713        -7.0127
 109   1.0000      -0.256299        -6.9742
 110   1.0000      -0.255429        -6.9506
 111   1.0000      -0.253443        -6.8965
 112   1.0000      -0.251633        -6.8473
 113   1.0000      -0.251577        -6.8458
 114   1.0000      -0.250439        -6.8148
 115   1.0000      -0.247227        -6.7274
 116   1.0000      -0.246638        -6.7114
 117   1.0000      -0.246030        -6.6948
 118   1.0000      -0.245176        -6.6716
 119   1.0000      -0.243629        -6.6295
 120   1.0000      -0.242446        -6.5973
 121   1.0000      -0.239733        -6.5235
 122   1.0000      -0.236964        -6.4481
 123   1.0000      -0.235557        -6.4098
 124   1.0000      -0.230441        -6.2706
 125   1.0000      -0.228938        -6.2297
 126   1.0000      -0.202244        -5.5033
 127   1.0000      -0.202047        -5.4980
 128   0.0000      -0.180567        -4.9135
 129   0.0000      -0.173812        -4.7297
 130   0.0000      -0.147830        -4.0226
 131   0.0000      -0.125240        -3.4079
 132   0.0000      -0.121373        -3.3027

                 SPIN DOWN ORBITALS
  NO   OCC          E(Eh)            E(eV)
   0   1.0000    -234.205132     -6373.0456
   1   1.0000     -26.836730      -730.2646
   2   1.0000     -23.001977      -625.9156
   3   1.0000     -23.001196      -625.8944
   4   1.0000     -22.999299      -625.8428
   5   1.0000      -4.032394      -109.7270
   6   1.0000      -4.032110      -109.7193
   7   1.0000      -4.031244      -109.6957
   8   1.0000      -4.031191      -109.6943
   9   1.0000      -4.025850      -109.5490
  10   1.0000      -4.025789      -109.5473
  11   1.0000      -4.023985      -109.4982
  12   1.0000      -4.022979      -109.4708
  13   1.0000      -4.022908      -109.4689
  14   1.0000      -4.016864      -109.3044
  15   1.0000      -4.016835      -109.3036
  16   1.0000      -4.010690      -109.1364
  17   1.0000      -2.950666       -80.2917
  18   1.0000      -2.248894       -61.1955
  19   1.0000      -2.248098       -61.1738
  20   1.0000      -2.247011       -61.1443
  21   1.0000      -2.246272       -61.1242
  22   1.0000      -2.246110       -61.1198
  23   1.0000      -2.245897       -61.1140
  24   1.0000      -2.244625       -61.0793
  25   1.0000      -2.244390       -61.0730
  26   1.0000      -2.242881       -61.0319
  27   1.0000      -2.242394       -61.0186
  28   1.0000      -2.241864       -61.0042
  29   1.0000      -2.241778       -61.0019
  30   1.0000      -2.240758       -60.9741
  31   1.0000      -2.240703       -60.9726
  32   1.0000      -2.239749       -60.9467
  33   1.0000      -2.239607       -60.9428
  34   1.0000      -2.238639       -60.9165
  35   1.0000      -2.237703       -60.8910
  36   1.0000      -2.237114       -60.8750
  37   1.0000      -2.237036       -60.8729
  38   1.0000      -2.235850       -60.8406
  39   1.0000      -2.235791       -60.8390
  40   1.0000      -2.235076       -60.8195
  41   1.0000      -2.234933       -60.8156
  42   1.0000      -2.234474       -60.8031
  43   1.0000      -2.234211       -60.7960
  44   1.0000      -2.234190       -60.7954
  45   1.0000      -2.231640       -60.7260
  46   1.0000      -2.231620       -60.7255
  47   1.0000      -2.229906       -60.6788
  48   1.0000      -2.229842       -60.6771
  49   1.0000      -2.226205       -60.5781
  50   1.0000      -2.226175       -60.5773
  51   1.0000      -2.224462       -60.5307
  52   1.0000      -2.223161       -60.4953
  53   1.0000      -2.223042       -60.4920
  54   1.0000      -1.858573       -50.5743
  55   1.0000      -1.857491       -50.5449
  56   1.0000      -1.852152       -50.3996
  57   1.0000      -0.418939       -11.3999
  58   1.0000      -0.382421       -10.4062
  59   1.0000      -0.375691       -10.2231
  60   1.0000      -0.370551       -10.0832
  61   1.0000      -0.365182        -9.9371
  62   1.0000      -0.361763        -9.8441
  63   1.0000      -0.359066        -9.7707
  64   1.0000      -0.356986        -9.7141
  65   1.0000      -0.353556        -9.6208
  66   1.0000      -0.352277        -9.5859
  67   1.0000      -0.347257        -9.4493
  68   1.0000      -0.344886        -9.3848
  69   1.0000      -0.342337        -9.3155
  70   1.0000      -0.341320        -9.2878
  71   1.0000      -0.338911        -9.2222
  72   1.0000      -0.337022        -9.1708
  73   1.0000      -0.333563        -9.0767
  74   1.0000      -0.328399        -8.9362
  75   1.0000      -0.328328        -8.9343
  76   1.0000      -0.326071        -8.8728
  77   1.0000      -0.325165        -8.8482
  78   1.0000      -0.323497        -8.8028
  79   1.0000      -0.323029        -8.7901
  80   1.0000      -0.320704        -8.7268
  81   1.0000      -0.315144        -8.5755
  82   1.0000      -0.309822        -8.4307
  83   1.0000      -0.308440        -8.3931
  84   1.0000      -0.307714        -8.3733
  85   1.0000      -0.304109        -8.2752
  86   1.0000      -0.300194        -8.1687
  87   1.0000      -0.292868        -7.9693
  88   1.0000      -0.292298        -7.9538
  89   1.0000      -0.291440        -7.9305
  90   1.0000      -0.289099        -7.8668
  91   1.0000      -0.282891        -7.6979
  92   1.0000      -0.282075        -7.6757
  93   1.0000      -0.280653        -7.6369
  94   1.0000      -0.277364        -7.5475
  95   1.0000      -0.275936        -7.5086
  96   1.0000      -0.275180        -7.4880
  97   1.0000      -0.274133        -7.4595
  98   1.0000      -0.270710        -7.3664
  99   1.0000      -0.269294        -7.3279
 100   1.0000      -0.268111        -7.2957
 101   1.0000      -0.268066        -7.2945
 102   1.0000      -0.266848        -7.2613
 103   1.0000      -0.263437        -7.1685
 104   1.0000      -0.262693        -7.1483
 105   1.0000      -0.262517        -7.1435
 106   1.0000      -0.259153        -7.0519
 107   1.0000      -0.258038        -7.0216
 108   1.0000      -0.257314        -7.0019
 109   1.0000      -0.256119        -6.9694
 110   1.0000      -0.253911        -6.9093
 111   1.0000      -0.253651        -6.9022
 112   1.0000      -0.252332        -6.8663
 113   1.0000      -0.247644        -6.7387
 114   1.0000      -0.247575        -6.7368
 115   1.0000      -0.246890        -6.7182
 116   1.0000      -0.245486        -6.6800
 117   1.0000      -0.242986        -6.6120
 118   1.0000      -0.242764        -6.6059
 119   1.0000      -0.233981        -6.3669
 120   1.0000      -0.231741        -6.3060
 121   1.0000      -0.211039        -5.7427
 122   1.0000      -0.208797        -5.6816
 123   1.0000      -0.201342        -5.4788
 124   1.0000      -0.189302        -5.1512
 125   0.0000      -0.156055        -4.2465
 126   0.0000      -0.143523        -3.9055
 127   0.0000      -0.134167        -3.6509
 128   0.0000      -0.129630        -3.5274
 129   0.0000      -0.129227        -3.5164

MULLIKEN ATOMIC CHARGES AND SPIN POPULATIONS
--------------------------------------------
   0 Au:    0.246413   -0.149353
   1 Au:    0.247487   -0.072379
   2 Au:    0.247424   -0.072011
   3 Au:    0.242982   -0.091538
   4 Au:    0.162389   -0.118727
   5 Au:    0.246671   -0.148936
   6 Au:    0.162485   -0.118934
   7 Au:    0.137009    0.007833
   8 Au:    0.163919   -0.025470
   9 Au:    0.052581   -0.170128
  10 Au:    0.163883   -0.025745
  11 Au:    0.020570   -0.012929
  12 Mn:   -2.093813    3.998316
Sum of atomic charges         :   -0.0000000

LOEWDIN ATOMIC CHARGES AND SPIN POPULATIONS
-------------------------------------------
   0 Au:    0.099526   -0.118830
   1 Au:    0.072131   -0.093317
   2 Au:    0.072215   -0.093081
   3 Au:    0.025503   -0.069634
   4 Au:    0.056835   -0.080327
   5 Au:    0.099730   -0.118698
   6 Au:    0.056873   -0.080369
   7 Au:    0.041933   -0.022162
   8 Au:   -0.001811   -0.061087
   9 Au:   -0.013761   -0.096010
  10 Au:   -0.001650   -0.061046
  11 Au:   -0.008415   -0.035348
  12 Mn:   -0.499108    3.929909

  Mayer bond orders larger than 0.100000
B(  0-Au,  2-Au) :   0.2693 B(  0-Au,  8-Au) :   0.2274 B(  0-Au,  9-Au) :   0.1903
B(  0-Au, 12-Mn) :   0.5692 B(  1-Au,  3-Au) :   0.2657 B(  1-Au,  4-Au) :   0.2035
B(  1-Au,  5-Au) :   0.2694 B(  1-Au, 12-Mn) :   0.4223 B(  2-Au,  3-Au) :   0.2664
B(  2-Au,  6-Au) :   0.2039 B(  2-Au, 12-Mn) :   0.4212 B(  3-Au,  4-Au) :   0.1502
B(  3-Au,  6-Au) :   0.1492 B(  3-Au, 12-Mn) :   0.5020 B(  4-Au, 10-Au) :   0.2079
B(  4-Au, 11-Au) :   0.3363 B(  4-Au, 12-Mn) :   0.6066 B(  5-Au,  9-Au) :   0.1913
B(  5-Au, 10-Au) :   0.2269 B(  5-Au, 12-Mn) :   0.5689 B(  6-Au,  8-Au) :   0.2079
B(  6-Au, 11-Au) :   0.3362 B(  6-Au, 12-Mn) :   0.6076 B(  7-Au,  8-Au) :   0.3176
B(  7-Au,  9-Au) :   0.3280 B(  7-Au, 10-Au) :   0.3171 B(  7-Au, 11-Au) :   0.2640
B(  8-Au,  9-Au) :   0.2171 B(  8-Au, 11-Au) :   0.2865 B(  8-Au, 12-Mn) :   0.2482
B(  9-Au, 10-Au) :   0.2165 B(  9-Au, 12-Mn) :   0.5362 B( 10-Au, 11-Au) :   0.2866
B( 10-Au, 12-Mn) :   0.2492 B( 11-Au, 12-Mn) :   0.2665

FINAL SINGLE POINT ENERGY     -2780.688247782010

DIPOLE MOMENT
-------------
                                X             Y             Z
Electronic contribution:    -20.61514      -5.43346     -18.80318
Nuclear contribution   :     20.70141       5.42890      18.88043
                        -----------------------------------------
Total Dipole Moment    :      0.08627      -0.00456       0.07725
                        -----------------------------------------
Magnitude (a.u.)       :      0.11589
Magnitude (Debye)      :      0.29458

Rotational constants in cm-1:     0.001587     0.001281     0.001058
Rotational constants in MHz :    47.579622    38.399301    31.723322

                             ****ORCA TERMINATED NORMALLY****
TOTAL RUN TIME: 0 days 0 hours 6 minutes 32 seconds 895 msec
