                         Program Version 5.0.3 -  RELEASE  -
|  1> !R2SCAN def2-TZVP VERYSLOWCONV
|  2> !KDIIS
|  3> %scf
|  4>   AutoTRAHIter 200
|  5>   maxiter 400
|  6> end
|  7>
|  8> %pal nprocs 6 end
|  9>
| 10> *xyzfile 0 6 pbe.xyz
| 11>
| 12> $new_job
| 13>
| 14> !R2SCAN def2-TZVP VERYSLOWCONV
| 15> !KDIIS
| 16> %scf
| 17>   AutoTRAHIter 200
| 18>   maxiter 400
| 19> end
| 20>
| 21>
| 22> %pal nprocs 6 end
| 23>
| 24> *xyzfile 0 4 pbe.xyz
| 25>
| 26>
| 27>
| 28>
| 29>
| 30>                          ****END OF INPUT****
 Total Charge           Charge          ....    0
 Multiplicity           Mult            ....    6
 Number of Electrons    NEL             ....  253
FINAL SINGLE POINT ENERGY     -2781.111788603268

CARTESIAN COORDINATES (ANGSTROEM)
---------------------------------
  Au     7.908891   10.065262    9.161958
  Au    12.266237    8.369350    7.299101
  Au     9.487389    8.197333   10.396562
  Au    10.754691    6.497303    8.640006
  Au    10.418007    6.883614    5.802061
  Au    10.766519   10.244288    5.980624
  Au     7.877911    6.731080    8.629803
  Au     6.227380    9.198150    4.722500
  Au     6.146418    8.692319    7.464425
  Au     8.023547   10.575640    6.412902
  Au     8.969132    8.863856    4.325148
  Au     7.678401    6.991274    5.905495
  Mn     9.446037    8.591673    7.580658

 Multiplicity           Mult            ....    4
 Number of Electrons    NEL             ....  253
 Basis Dimension        Dim             ....  525

ORBITAL ENERGIES
----------------
                 SPIN UP ORBITALS
  NO   OCC          E(Eh)            E(eV)
   0   1.0000    -235.047977     -6395.9806
   1   1.0000     -27.226783      -740.8784
   2   1.0000     -23.275140      -633.3488
   3   1.0000     -23.273201      -633.2960
   4   1.0000     -23.272772      -633.2843
   5   1.0000      -4.124054      -112.2212
   6   1.0000      -4.123388      -112.2031
   7   1.0000      -4.122710      -112.1846
   8   1.0000      -4.122667      -112.1835
   9   1.0000      -4.117468      -112.0420
  10   1.0000      -4.117462      -112.0418
  11   1.0000      -4.115093      -111.9774
  12   1.0000      -4.113056      -111.9219
  13   1.0000      -4.113019      -111.9209
  14   1.0000      -4.107766      -111.7780
  15   1.0000      -4.107734      -111.7771
  16   1.0000      -4.099650      -111.5571
  17   1.0000      -3.246690       -88.3469
  18   1.0000      -2.313238       -62.9464
  19   1.0000      -2.312974       -62.9392
  20   1.0000      -2.311674       -62.9039
  21   1.0000      -2.310957       -62.8843
  22   1.0000      -2.310572       -62.8738
  23   1.0000      -2.309928       -62.8563
  24   1.0000      -2.308511       -62.8178
  25   1.0000      -2.308484       -62.8171
  26   1.0000      -2.307885       -62.8007
  27   1.0000      -2.306946       -62.7752
  28   1.0000      -2.306814       -62.7716
  29   1.0000      -2.306717       -62.7690
  30   1.0000      -2.305028       -62.7230
  31   1.0000      -2.304982       -62.7217
  32   1.0000      -2.303831       -62.6904
  33   1.0000      -2.303609       -62.6844
  34   1.0000      -2.303184       -62.6728
  35   1.0000      -2.301409       -62.6245
  36   1.0000      -2.300475       -62.5991
  37   1.0000      -2.300447       -62.5983
  38   1.0000      -2.299019       -62.5595
  39   1.0000      -2.298914       -62.5566
  40   1.0000      -2.298564       -62.5471
  41   1.0000      -2.298528       -62.5461
  42   1.0000      -2.298198       -62.5371
  43   1.0000      -2.297373       -62.5147
  44   1.0000      -2.297337       -62.5137
  45   1.0000      -2.295401       -62.4610
  46   1.0000      -2.295371       -62.4602
  47   1.0000      -2.293021       -62.3963
  48   1.0000      -2.292933       -62.3939
  49   1.0000      -2.290203       -62.3196
  50   1.0000      -2.290165       -62.3186
  51   1.0000      -2.286141       -62.2091
  52   1.0000      -2.285023       -62.1786
  53   1.0000      -2.284237       -62.1573
  54   1.0000      -2.106405       -57.3182
  55   1.0000      -2.102304       -57.2066
  56   1.0000      -2.100758       -57.1645
  57   1.0000      -0.430312       -11.7094
  58   1.0000      -0.392074       -10.6689
  59   1.0000      -0.386546       -10.5184
  60   1.0000      -0.383311       -10.4304
  61   1.0000      -0.380135       -10.3440
  62   1.0000      -0.375357       -10.2140
  63   1.0000      -0.372417       -10.1340
  64   1.0000      -0.368094       -10.0163
  65   1.0000      -0.367732       -10.0065
  66   1.0000      -0.362332        -9.8595
  67   1.0000      -0.361502        -9.8370
  68   1.0000      -0.355474        -9.6729
  69   1.0000      -0.353371        -9.6157
  70   1.0000      -0.352054        -9.5799
  71   1.0000      -0.351285        -9.5589
  72   1.0000      -0.346885        -9.4392
  73   1.0000      -0.346334        -9.4242
  74   1.0000      -0.341407        -9.2902
  75   1.0000      -0.339345        -9.2340
  76   1.0000      -0.336437        -9.1549
  77   1.0000      -0.334990        -9.1155
  78   1.0000      -0.333198        -9.0668
  79   1.0000      -0.332025        -9.0349
  80   1.0000      -0.329644        -8.9701
  81   1.0000      -0.327692        -8.9170
  82   1.0000      -0.327397        -8.9089
  83   1.0000      -0.319079        -8.6826
  84   1.0000      -0.317723        -8.6457
  85   1.0000      -0.317493        -8.6394
  86   1.0000      -0.311148        -8.4668
  87   1.0000      -0.308520        -8.3953
  88   1.0000      -0.304215        -8.2781
  89   1.0000      -0.303562        -8.2603
  90   1.0000      -0.301598        -8.2069
  91   1.0000      -0.293259        -7.9800
  92   1.0000      -0.292853        -7.9689
  93   1.0000      -0.290269        -7.8986
  94   1.0000      -0.289649        -7.8818
  95   1.0000      -0.285905        -7.7799
  96   1.0000      -0.282836        -7.6964
  97   1.0000      -0.282280        -7.6812
  98   1.0000      -0.279248        -7.5987
  99   1.0000      -0.278554        -7.5798
 100   1.0000      -0.278140        -7.5686
 101   1.0000      -0.276509        -7.5242
 102   1.0000      -0.276394        -7.5211
 103   1.0000      -0.275020        -7.4837
 104   1.0000      -0.272378        -7.4118
 105   1.0000      -0.271418        -7.3857
 106   1.0000      -0.270847        -7.3701
 107   1.0000      -0.267598        -7.2817
 108   1.0000      -0.267447        -7.2776
 109   1.0000      -0.264988        -7.2107
 110   1.0000      -0.263798        -7.1783
 111   1.0000      -0.262316        -7.1380
 112   1.0000      -0.261499        -7.1157
 113   1.0000      -0.260522        -7.0892
 114   1.0000      -0.258708        -7.0398
 115   1.0000      -0.258349        -7.0300
 116   1.0000      -0.255628        -6.9560
 117   1.0000      -0.253180        -6.8894
 118   1.0000      -0.252396        -6.8680
 119   1.0000      -0.251397        -6.8409
 120   1.0000      -0.250317        -6.8115
 121   1.0000      -0.248638        -6.7658
 122   1.0000      -0.248442        -6.7604
 123   1.0000      -0.245635        -6.6841
 124   1.0000      -0.236353        -6.4315
 125   1.0000      -0.233775        -6.3614
 126   1.0000      -0.203939        -5.5495
 127   1.0000      -0.203930        -5.5492
 128   0.0000      -0.179778        -4.8920
 129   0.0000      -0.171292        -4.6611
 130   0.0000      -0.144736        -3.9385
 131   0.0000      -0.120019        -3.2659
 132   0.0000      -0.116833        -3.1792

                 SPIN DOWN ORBITALS
  NO   OCC          E(Eh)            E(eV)
   0   1.0000    -235.046952     -6395.9527
   1   1.0000     -27.140244      -738.5236
   2   1.0000     -23.208216      -631.5277
   3   1.0000     -23.207520      -631.5087
   4   1.0000     -23.206190      -631.4725
   5   1.0000      -4.123754      -112.2131
   6   1.0000      -4.123538      -112.2072
   7   1.0000      -4.122563      -112.1806
   8   1.0000      -4.122521      -112.1795
   9   1.0000      -4.117316      -112.0379
  10   1.0000      -4.117309      -112.0377
  11   1.0000      -4.114935      -111.9731
  12   1.0000      -4.113902      -111.9450
  13   1.0000      -4.113861      -111.9439
  14   1.0000      -4.108190      -111.7895
  15   1.0000      -4.108162      -111.7888
  16   1.0000      -4.100512      -111.5806
  17   1.0000      -3.040228       -82.7288
  18   1.0000      -2.313024       -62.9406
  19   1.0000      -2.312274       -62.9202
  20   1.0000      -2.311093       -62.8880
  21   1.0000      -2.310348       -62.8678
  22   1.0000      -2.310131       -62.8619
  23   1.0000      -2.309914       -62.8560
  24   1.0000      -2.308393       -62.8146
  25   1.0000      -2.308200       -62.8093
  26   1.0000      -2.307210       -62.7824
  27   1.0000      -2.306611       -62.7661
  28   1.0000      -2.305946       -62.7480
  29   1.0000      -2.305872       -62.7460
  30   1.0000      -2.305054       -62.7237
  31   1.0000      -2.304990       -62.7220
  32   1.0000      -2.303709       -62.6871
  33   1.0000      -2.303537       -62.6824
  34   1.0000      -2.302279       -62.6482
  35   1.0000      -2.301363       -62.6233
  36   1.0000      -2.300960       -62.6123
  37   1.0000      -2.300897       -62.6106
  38   1.0000      -2.299494       -62.5724
  39   1.0000      -2.299459       -62.5715
  40   1.0000      -2.299171       -62.5636
  41   1.0000      -2.299030       -62.5598
  42   1.0000      -2.298284       -62.5395
  43   1.0000      -2.298250       -62.5386
  44   1.0000      -2.298159       -62.5361
  45   1.0000      -2.295600       -62.4665
  46   1.0000      -2.295567       -62.4656
  47   1.0000      -2.293686       -62.4144
  48   1.0000      -2.293618       -62.4125
  49   1.0000      -2.290218       -62.3200
  50   1.0000      -2.290180       -62.3190
  51   1.0000      -2.287092       -62.2349
  52   1.0000      -2.285786       -62.1994
  53   1.0000      -2.285599       -62.1943
  54   1.0000      -1.899830       -51.6970
  55   1.0000      -1.899033       -51.6753
  56   1.0000      -1.895093       -51.5681
  57   1.0000      -0.425188       -11.5699
  58   1.0000      -0.388951       -10.5839
  59   1.0000      -0.382842       -10.4177
  60   1.0000      -0.378566       -10.3013
  61   1.0000      -0.373815       -10.1720
  62   1.0000      -0.370716       -10.0877
  63   1.0000      -0.368862       -10.0372
  64   1.0000      -0.366547        -9.9743
  65   1.0000      -0.362823        -9.8729
  66   1.0000      -0.361429        -9.8350
  67   1.0000      -0.356746        -9.7076
  68   1.0000      -0.354740        -9.6530
  69   1.0000      -0.352220        -9.5844
  70   1.0000      -0.350891        -9.5482
  71   1.0000      -0.348894        -9.4939
  72   1.0000      -0.346474        -9.4280
  73   1.0000      -0.343043        -9.3347
  74   1.0000      -0.337942        -9.1959
  75   1.0000      -0.337780        -9.1914
  76   1.0000      -0.335931        -9.1411
  77   1.0000      -0.334645        -9.1061
  78   1.0000      -0.333056        -9.0629
  79   1.0000      -0.332508        -9.0480
  80   1.0000      -0.330413        -8.9910
  81   1.0000      -0.324712        -8.8359
  82   1.0000      -0.318552        -8.6682
  83   1.0000      -0.318223        -8.6593
  84   1.0000      -0.317260        -8.6331
  85   1.0000      -0.313004        -8.5173
  86   1.0000      -0.308897        -8.4055
  87   1.0000      -0.302280        -8.2255
  88   1.0000      -0.301323        -8.1994
  89   1.0000      -0.299758        -8.1568
  90   1.0000      -0.297974        -8.1083
  91   1.0000      -0.292310        -7.9542
  92   1.0000      -0.291371        -7.9286
  93   1.0000      -0.288909        -7.8616
  94   1.0000      -0.285704        -7.7744
  95   1.0000      -0.284873        -7.7518
  96   1.0000      -0.284171        -7.7327
  97   1.0000      -0.283076        -7.7029
  98   1.0000      -0.279414        -7.6032
  99   1.0000      -0.278233        -7.5711
 100   1.0000      -0.276843        -7.5333
 101   1.0000      -0.276247        -7.5171
 102   1.0000      -0.274830        -7.4785
 103   1.0000      -0.272250        -7.4083
 104   1.0000      -0.271386        -7.3848
 105   1.0000      -0.270571        -7.3626
 106   1.0000      -0.267631        -7.2826
 107   1.0000      -0.266263        -7.2454
 108   1.0000      -0.265670        -7.2293
 109   1.0000      -0.264438        -7.1957
 110   1.0000      -0.261943        -7.1278
 111   1.0000      -0.261572        -7.1177
 112   1.0000      -0.260302        -7.0832
 113   1.0000      -0.255182        -6.9439
 114   1.0000      -0.254976        -6.9382
 115   1.0000      -0.253991        -6.9114
 116   1.0000      -0.253238        -6.8910
 117   1.0000      -0.249996        -6.8027
 118   1.0000      -0.249843        -6.7986
 119   1.0000      -0.239774        -6.5246
 120   1.0000      -0.238688        -6.4950
 121   1.0000      -0.213017        -5.7965
 122   1.0000      -0.210438        -5.7263
 123   1.0000      -0.203128        -5.5274
 124   1.0000      -0.190266        -5.1774
 125   0.0000      -0.151557        -4.1241
 126   0.0000      -0.134772        -3.6673
 127   0.0000      -0.124573        -3.3898
 128   0.0000      -0.115325        -3.1382
 129   0.0000      -0.113296        -3.0830

MULLIKEN ATOMIC CHARGES AND SPIN POPULATIONS
--------------------------------------------
   0 Au:    0.227364   -0.184820
   1 Au:    0.214335   -0.100864
   2 Au:    0.214291   -0.099809
   3 Au:    0.214086   -0.113572
   4 Au:    0.150399   -0.145548
   5 Au:    0.227499   -0.184211
   6 Au:    0.150371   -0.145926
   7 Au:    0.103831    0.010211
   8 Au:    0.149706   -0.028548
   9 Au:    0.055789   -0.198885
  10 Au:    0.149554   -0.028581
  11 Au:    0.027018   -0.012483
  12 Mn:   -1.884244    4.233035
Sum of atomic charges         :   -0.0000000

LOEWDIN ATOMIC CHARGES AND SPIN POPULATIONS
-------------------------------------------
   0 Au:    0.092215   -0.143222
   1 Au:    0.063723   -0.118110
   2 Au:    0.063834   -0.117507
   3 Au:    0.016910   -0.083882
   4 Au:    0.051078   -0.097492
   5 Au:    0.092381   -0.143087
   6 Au:    0.051116   -0.097623
   7 Au:    0.034879   -0.023824
   8 Au:   -0.004224   -0.067873
   9 Au:   -0.019916   -0.114973
  10 Au:   -0.004076   -0.067696
  11 Au:   -0.010311   -0.045898
  12 Mn:   -0.427608    4.121184

  Mayer bond orders larger than 0.100000
B(  0-Au,  2-Au) :   0.2559 B(  0-Au,  8-Au) :   0.2172 B(  0-Au,  9-Au) :   0.1809
B(  0-Au, 12-Mn) :   0.5589 B(  1-Au,  3-Au) :   0.2543 B(  1-Au,  4-Au) :   0.1891
B(  1-Au,  5-Au) :   0.2560 B(  1-Au, 12-Mn) :   0.4078 B(  2-Au,  3-Au) :   0.2550
B(  2-Au,  6-Au) :   0.1895 B(  2-Au, 12-Mn) :   0.4068 B(  3-Au,  4-Au) :   0.1374
B(  3-Au,  6-Au) :   0.1364 B(  3-Au, 12-Mn) :   0.4890 B(  4-Au, 10-Au) :   0.1935
B(  4-Au, 11-Au) :   0.3382 B(  4-Au, 12-Mn) :   0.5770 B(  5-Au,  9-Au) :   0.1820
B(  5-Au, 10-Au) :   0.2168 B(  5-Au, 12-Mn) :   0.5586 B(  6-Au,  8-Au) :   0.1935
B(  6-Au, 11-Au) :   0.3383 B(  6-Au, 12-Mn) :   0.5780 B(  7-Au,  8-Au) :   0.3074
B(  7-Au,  9-Au) :   0.3090 B(  7-Au, 10-Au) :   0.3069 B(  7-Au, 11-Au) :   0.2440
B(  8-Au,  9-Au) :   0.1993 B(  8-Au, 11-Au) :   0.2729 B(  8-Au, 12-Mn) :   0.2311
B(  9-Au, 10-Au) :   0.1986 B(  9-Au, 12-Mn) :   0.5212 B( 10-Au, 11-Au) :   0.2732
B( 10-Au, 12-Mn) :   0.2321 B( 11-Au, 12-Mn) :   0.2544

FINAL SINGLE POINT ENERGY     -2781.139439764646

DIPOLE MOMENT
-------------
                                X             Y             Z
Electronic contribution:    -20.61087      -5.43877     -18.79929
Nuclear contribution   :     20.70141       5.42890      18.88043
                        -----------------------------------------
Total Dipole Moment    :      0.09054      -0.00987       0.08114
                        -----------------------------------------
Magnitude (a.u.)       :      0.12198
Magnitude (Debye)      :      0.31004

Rotational constants in cm-1:     0.001587     0.001281     0.001058
Rotational constants in MHz :    47.579622    38.399301    31.723322

                             ****ORCA TERMINATED NORMALLY****
TOTAL RUN TIME: 0 days 0 hours 10 minutes 51 seconds 299 msec
