                         Program Version 5.0.3 -  RELEASE  -
|  1> !CASSCF def2-TZVP def2-TZVP/C
|  2> !MOREAD RIJCOSX
|  3> %maxcore 6000
|  4> %moinp "pbe.qro"
|  5> %pal nprocs 2 end
|  6>
|  7> %casscf
|  8>  mult 5,3
|  9>  bweight 1,1
| 10>  nroots 5,45
| 11>  nel 6
| 12>  norb 5
| 13> end
| 14>
| 15>
| 16> *xyzfile 0 5 pbe.xyz
| 17>
| 18>
| 19>                          ****END OF INPUT****

CARTESIAN COORDINATES (ANGSTROEM)
---------------------------------
  Au     6.029159    5.985135    8.200795
  Au     6.735772    8.319751    6.729576
  Au     6.207776    8.269865    9.646008
  Au     6.824230    3.688658    6.919889
  Au     8.209965    5.946300    6.187802
  Au     9.683936    8.205883    6.445952
  Au    10.039245    6.109177   10.347350
  Au    10.758792    8.592988    8.902349
  Au    11.211308    8.239674   11.589825
  Au     8.575700    8.623227   10.913862
  Au     8.308418    9.953230    8.408998
  Au     8.581044    4.598664    8.800915
  Fe     8.414923    7.241966    8.574389

 Total Charge           Charge          ....    0
 Multiplicity           Mult            ....    5
 Number of Electrons    NEL             ....  254
 Basis Dimension        Dim             ....  525

ORBITAL ENERGIES
----------------

  NO   OCC          E(Eh)            E(eV)
   0   2.0000    -261.391884     -7112.8348
   1   2.0000     -31.955269      -869.5471
   2   2.0000     -27.435299      -746.5525
   3   2.0000     -27.435202      -746.5498
   4   2.0000     -27.434746      -746.5374
   5   2.0000      -4.728242      -128.6620
   6   2.0000      -4.728075      -128.6575
   7   2.0000      -4.723612      -128.5360
   8   2.0000      -4.723597      -128.5356
   9   2.0000      -4.709783      -128.1597
  10   2.0000      -4.709247      -128.1451
  11   2.0000      -4.708237      -128.1176
  12   2.0000      -4.708215      -128.1170
  13   2.0000      -4.708145      -128.1151
  14   2.0000      -4.708140      -128.1150
  15   2.0000      -4.701919      -127.9457
  16   2.0000      -4.701907      -127.9454
  17   2.0000      -4.189216      -113.9944
  18   2.0000      -2.771737       -75.4228
  19   2.0000      -2.769996       -75.3754
  20   2.0000      -2.769497       -75.3618
  21   2.0000      -2.766489       -75.2800
  22   2.0000      -2.766111       -75.2697
  23   2.0000      -2.765593       -75.2556
  24   2.0000      -2.763987       -75.2119
  25   2.0000      -2.763591       -75.2011
  26   2.0000      -2.762428       -75.1695
  27   2.0000      -2.762367       -75.1678
  28   2.0000      -2.760423       -75.1149
  29   2.0000      -2.758806       -75.0709
  30   2.0000      -2.758450       -75.0613
  31   2.0000      -2.757931       -75.0471
  32   2.0000      -2.757565       -75.0372
  33   2.0000      -2.752838       -74.9085
  34   2.0000      -2.747176       -74.7545
  35   2.0000      -2.746693       -74.7413
  36   2.0000      -2.746097       -74.7251
  37   2.0000      -2.745525       -74.7095
  38   2.0000      -2.745449       -74.7075
  39   2.0000      -2.744977       -74.6946
  40   2.0000      -2.744501       -74.6817
  41   2.0000      -2.743936       -74.6663
  42   2.0000      -2.742561       -74.6289
  43   2.0000      -2.742419       -74.6250
  44   2.0000      -2.742209       -74.6193
  45   2.0000      -2.740655       -74.5770
  46   2.0000      -2.740287       -74.5670
  47   2.0000      -2.740253       -74.5661
  48   2.0000      -2.740089       -74.5616
  49   2.0000      -2.739727       -74.5518
  50   2.0000      -2.739423       -74.5435
  51   2.0000      -2.737836       -74.5003
  52   2.0000      -2.736786       -74.4717
  53   2.0000      -2.735354       -74.4328
  54   2.0000      -2.735032       -74.4240
  55   2.0000      -2.734981       -74.4226
  56   2.0000      -2.734820       -74.4182
  57   2.0000      -0.590664       -16.0728
  58   2.0000      -0.559462       -15.2237
  59   2.0000      -0.556055       -15.1310
  60   2.0000      -0.555451       -15.1146
  61   2.0000      -0.554630       -15.0922
  62   2.0000      -0.553775       -15.0690
  63   2.0000      -0.545556       -14.8453
  64   2.0000      -0.545242       -14.8368
  65   2.0000      -0.542717       -14.7681
  66   2.0000      -0.542620       -14.7654
  67   2.0000      -0.538623       -14.6567
  68   2.0000      -0.532347       -14.4859
  69   2.0000      -0.529847       -14.4179
  70   2.0000      -0.526718       -14.3327
  71   2.0000      -0.525108       -14.2889
  72   2.0000      -0.523775       -14.2526
  73   2.0000      -0.520488       -14.1632
  74   2.0000      -0.514194       -13.9919
  75   2.0000      -0.512325       -13.9411
  76   2.0000      -0.512159       -13.9366
  77   2.0000      -0.511425       -13.9166
  78   2.0000      -0.506983       -13.7957
  79   2.0000      -0.497940       -13.5496
  80   2.0000      -0.496956       -13.5229
  81   2.0000      -0.494683       -13.4610
  82   2.0000      -0.490058       -13.3351
  83   2.0000      -0.484851       -13.1935
  84   2.0000      -0.484807       -13.1923
  85   2.0000      -0.481022       -13.0893
  86   2.0000      -0.479175       -13.0390
  87   2.0000      -0.473751       -12.8914
  88   2.0000      -0.470627       -12.8064
  89   2.0000      -0.469626       -12.7792
  90   2.0000      -0.466520       -12.6946
  91   2.0000      -0.463275       -12.6064
  92   2.0000      -0.463195       -12.6042
  93   2.0000      -0.458669       -12.4810
  94   2.0000      -0.457585       -12.4515
  95   2.0000      -0.457417       -12.4470
  96   2.0000      -0.452581       -12.3154
  97   2.0000      -0.452196       -12.3049
  98   2.0000      -0.449134       -12.2216
  99   2.0000      -0.447804       -12.1854
 100   2.0000      -0.446423       -12.1478
 101   2.0000      -0.440697       -11.9920
 102   2.0000      -0.439795       -11.9674
 103   2.0000      -0.439755       -11.9663
 104   2.0000      -0.436574       -11.8798
 105   2.0000      -0.435652       -11.8547
 106   2.0000      -0.434832       -11.8324
 107   2.0000      -0.431947       -11.7539
 108   2.0000      -0.431715       -11.7476
 109   2.0000      -0.427960       -11.6454
 110   2.0000      -0.426627       -11.6091
 111   2.0000      -0.421958       -11.4820
 112   2.0000      -0.421668       -11.4742
 113   2.0000      -0.418420       -11.3858
 114   2.0000      -0.414010       -11.2658
 115   2.0000      -0.400925       -10.9097
 116   2.0000      -0.396914       -10.8006
 117   2.0000      -0.386229       -10.5098
 118   2.0000      -0.381568       -10.3830
 119   2.0000      -0.341229        -9.2853
 120   2.0000      -0.314161        -8.5488
 121   2.0000      -0.255385        -6.9494
 122   2.0000      -0.244926        -6.6648
 123   2.0000      -0.213063        -5.7977
 124   1.2000      -0.270586        -7.3630
 125   1.2000      -0.269339        -7.3291
 126   1.2000      -0.257908        -7.0180
 127   1.2000      -0.268219        -7.2986
 128   1.2000      -0.263271        -7.1640
 129   0.0000      -0.044286        -1.2051
 130   0.0000      -0.012142        -0.3304
 131   0.0000      -0.008366        -0.2276
 132   0.0000      -0.000886        -0.0241
 133   0.0000       0.015921         0.4332

MULLIKEN ATOMIC CHARGES AND SPIN DENSITIES
------------------------------------------
   0 Au:   -0.157251    0.010439
   1 Au:    0.315189    0.006450
   2 Au:    0.464533    0.006765
   3 Au:    0.416980    0.003401
   4 Au:   -0.155998    0.010410
   5 Au:    0.463739    0.006788
   6 Au:    0.005289    0.007399
   7 Au:   -0.156781    0.010381
   8 Au:    0.417746    0.003398
   9 Au:   -0.157500    0.010453
  10 Au:    0.315090    0.006440
  11 Au:    0.006035    0.007386
  12 Fe:   -1.777071    2.910291
Sum of atomic charges       :    0.0000000

LOEWDIN ATOMIC CHARGES AND SPIN DENSITIES
-----------------------------------------
   0 Au:   -0.099279    0.012061
   1 Au:    0.079556    0.008010
   2 Au:    0.093742    0.011241
   3 Au:    0.146188    0.004161
   4 Au:   -0.099267    0.012028
   5 Au:    0.093909    0.011264
   6 Au:   -0.016505    0.010700
   7 Au:   -0.099644    0.011993
   8 Au:    0.146402    0.004161
   9 Au:   -0.099206    0.012073
  10 Au:    0.079622    0.007999
  11 Au:   -0.016281    0.010696
  12 Fe:   -0.209238    2.883613

  Mayer bond orders larger than 0.100000
B(  0-Au,  1-Au) :   0.2385 B(  0-Au,  2-Au) :   0.2855 B(  0-Au,  3-Au) :   0.3051
B(  0-Au,  4-Au) :   0.1849 B(  0-Au, 11-Au) :   0.1712 B(  0-Au, 12-Fe) :   0.4093
B(  1-Au,  2-Au) :   0.1147 B(  1-Au,  4-Au) :   0.2398 B(  1-Au,  5-Au) :   0.1152
B(  1-Au, 12-Fe) :   0.4210 B(  2-Au,  9-Au) :   0.2855 B(  2-Au, 10-Au) :   0.1150
B(  2-Au, 12-Fe) :   0.3078 B(  3-Au,  4-Au) :   0.3043 B(  3-Au, 11-Au) :   0.3080
B(  4-Au,  5-Au) :   0.2848 B(  4-Au, 11-Au) :   0.1714 B(  4-Au, 12-Fe) :   0.4087
B(  5-Au,  7-Au) :   0.2854 B(  5-Au, 10-Au) :   0.1149 B(  5-Au, 12-Fe) :   0.3080
B(  6-Au,  7-Au) :   0.1719 B(  6-Au,  8-Au) :   0.3080 B(  6-Au,  9-Au) :   0.1715
B(  6-Au, 11-Au) :   0.4058 B(  6-Au, 12-Fe) :   0.4981 B(  7-Au,  8-Au) :   0.3043
B(  7-Au,  9-Au) :   0.1852 B(  7-Au, 10-Au) :   0.2398 B(  7-Au, 12-Fe) :   0.4084
B(  8-Au,  9-Au) :   0.3050 B(  9-Au, 10-Au) :   0.2387 B(  9-Au, 12-Fe) :   0.4093
B( 10-Au, 12-Fe) :   0.4206 B( 11-Au, 12-Fe) :   0.4977

FINAL SINGLE POINT ENERGY     -2880.100423617704

DIPOLE MOMENT
-------------
                                X             Y             Z
Electronic contribution:      0.40784      -0.78914       0.43160
Nuclear contribution   :     -0.59068       1.17658      -0.63627
                        -----------------------------------------
Total Dipole Moment    :     -0.18284       0.38744      -0.20467
                        -----------------------------------------
Magnitude (a.u.)       :      0.47479
Magnitude (Debye)      :      1.20683

Rotational constants in cm-1:     0.001733     0.001082     0.000967
Rotational constants in MHz :    51.944645    32.447054    28.985232

                             ****ORCA TERMINATED NORMALLY****
TOTAL RUN TIME: 0 days 3 hours 51 minutes 14 seconds 624 msec
