                         Program Version 5.0.3 -  RELEASE  -
|  1> !CASSCF def2-TZVP def2-TZVP/C
|  2> !MOREAD RIJCOSX
|  3> %maxcore 6000
|  4> %moinp "pbe.qro"
|  5> %pal nprocs 2 end
|  6>
|  7> %casscf
|  8>  mult 5,3
|  9>  bweight 1,1
| 10>  nroots 5,45
| 11>  nel 6
| 12>  norb 5
| 13> end
| 14>
| 15>
| 16> *xyzfile 0 5 pbe.xyz
| 17>
| 18>
| 19>                          ****END OF INPUT****

CARTESIAN COORDINATES (ANGSTROEM)
---------------------------------
  Au    10.403558    5.440320    7.810247
  Au     8.553476    3.466189    8.573691
  Au    10.245123    4.481904   10.536539
  Au     7.577303    4.191161   11.285099
  Au     8.861205    6.583079   11.999990
  Au     6.010365    4.741350    8.961433
  Au     8.079530    8.524694   10.362126
  Au     7.372447    9.826476    8.027754
  Au     9.124053    7.749233    7.525863
  Au     6.306813    7.339358    8.342165
  Cr     8.344437    6.025103    9.427401

 Total Charge           Charge          ....    0
 Multiplicity           Mult            ....    5
 Number of Electrons    NEL             ....  214
 Basis Dimension        Dim             ....  445

ORBITAL ENERGIES
----------------

  NO   OCC          E(Eh)            E(eV)
   0   2.0000    -220.546078     -6001.3639
   1   2.0000     -26.395860      -718.2679
   2   2.0000     -22.328053      -607.5772
   3   2.0000     -22.325346      -607.5035
   4   2.0000     -22.319352      -607.3404
   5   2.0000      -4.712260      -128.2271
   6   2.0000      -4.710311      -128.1741
   7   2.0000      -4.708192      -128.1164
   8   2.0000      -4.707371      -128.0941
   9   2.0000      -4.704495      -128.0158
  10   2.0000      -4.703560      -127.9904
  11   2.0000      -4.700350      -127.9030
  12   2.0000      -4.698910      -127.8638
  13   2.0000      -4.696920      -127.8097
  14   2.0000      -4.696841      -127.8076
  15   2.0000      -3.440897       -93.6316
  16   2.0000      -2.752141       -74.8896
  17   2.0000      -2.751435       -74.8704
  18   2.0000      -2.750746       -74.8516
  19   2.0000      -2.748371       -74.7870
  20   2.0000      -2.746938       -74.7480
  21   2.0000      -2.745713       -74.7146
  22   2.0000      -2.745549       -74.7102
  23   2.0000      -2.745237       -74.7017
  24   2.0000      -2.745068       -74.6971
  25   2.0000      -2.744352       -74.6776
  26   2.0000      -2.744066       -74.6698
  27   2.0000      -2.742931       -74.6390
  28   2.0000      -2.741880       -74.6104
  29   2.0000      -2.741576       -74.6021
  30   2.0000      -2.740795       -74.5808
  31   2.0000      -2.740271       -74.5666
  32   2.0000      -2.736862       -74.4738
  33   2.0000      -2.736564       -74.4657
  34   2.0000      -2.735744       -74.4434
  35   2.0000      -2.735619       -74.4400
  36   2.0000      -2.734378       -74.4062
  37   2.0000      -2.734290       -74.4038
  38   2.0000      -2.733602       -74.3851
  39   2.0000      -2.733299       -74.3768
  40   2.0000      -2.733194       -74.3740
  41   2.0000      -2.731575       -74.3299
  42   2.0000      -2.730586       -74.3030
  43   2.0000      -2.730395       -74.2978
  44   2.0000      -2.729552       -74.2749
  45   2.0000      -2.729456       -74.2723
  46   2.0000      -2.201948       -59.9181
  47   2.0000      -2.198115       -59.8137
  48   2.0000      -2.193097       -59.6772
  49   2.0000      -0.551413       -15.0047
  50   2.0000      -0.549868       -14.9627
  51   2.0000      -0.539024       -14.6676
  52   2.0000      -0.535915       -14.5830
  53   2.0000      -0.532457       -14.4889
  54   2.0000      -0.530429       -14.4337
  55   2.0000      -0.528502       -14.3813
  56   2.0000      -0.526087       -14.3155
  57   2.0000      -0.519484       -14.1359
  58   2.0000      -0.517643       -14.0858
  59   2.0000      -0.511572       -13.9206
  60   2.0000      -0.507181       -13.8011
  61   2.0000      -0.503865       -13.7109
  62   2.0000      -0.503443       -13.6994
  63   2.0000      -0.500761       -13.6264
  64   2.0000      -0.500353       -13.6153
  65   2.0000      -0.495629       -13.4867
  66   2.0000      -0.495264       -13.4768
  67   2.0000      -0.492281       -13.3957
  68   2.0000      -0.491239       -13.3673
  69   2.0000      -0.483967       -13.1694
  70   2.0000      -0.482552       -13.1309
  71   2.0000      -0.478638       -13.0244
  72   2.0000      -0.470890       -12.8136
  73   2.0000      -0.467335       -12.7168
  74   2.0000      -0.461517       -12.5585
  75   2.0000      -0.459915       -12.5149
  76   2.0000      -0.457417       -12.4470
  77   2.0000      -0.457120       -12.4389
  78   2.0000      -0.454679       -12.3724
  79   2.0000      -0.453629       -12.3439
  80   2.0000      -0.451326       -12.2812
  81   2.0000      -0.446100       -12.1390
  82   2.0000      -0.444642       -12.0993
  83   2.0000      -0.443334       -12.0637
  84   2.0000      -0.442703       -12.0465
  85   2.0000      -0.442240       -12.0340
  86   2.0000      -0.440330       -11.9820
  87   2.0000      -0.436240       -11.8707
  88   2.0000      -0.430986       -11.7277
  89   2.0000      -0.429806       -11.6956
  90   2.0000      -0.428630       -11.6636
  91   2.0000      -0.426625       -11.6091
  92   2.0000      -0.426073       -11.5940
  93   2.0000      -0.423737       -11.5305
  94   2.0000      -0.422983       -11.5099
  95   2.0000      -0.416416       -11.3313
  96   2.0000      -0.415472       -11.3056
  97   2.0000      -0.402581       -10.9548
  98   2.0000      -0.393474       -10.7070
  99   2.0000      -0.392699       -10.6859
 100   2.0000      -0.356772        -9.7083
 101   2.0000      -0.299147        -8.1402
 102   2.0000      -0.289787        -7.8855
 103   2.0000      -0.229945        -6.2571
 104   1.2000      -0.133304        -3.6274
 105   1.2000      -0.134271        -3.6537
 106   1.2000      -0.141698        -3.8558
 107   1.2000      -0.107498        -2.9252
 108   1.2000      -0.126733        -3.4486
 109   0.0000       0.000724         0.0197
 110   0.0000       0.005813         0.1582
 111   0.0000       0.006402         0.1742
 112   0.0000       0.023152         0.6300
 113   0.0000       0.028541         0.7767

MULLIKEN ATOMIC CHARGES AND SPIN DENSITIES
------------------------------------------
   0 Au:    0.212604    0.033587
   1 Au:    0.523112    0.064077
   2 Au:    0.553382    0.049396
   3 Au:    0.514678    0.066771
   4 Au:    0.206186    0.031961
   5 Au:    0.171361    0.023755
   6 Au:    0.123717    0.056086
   7 Au:    0.291992    0.015771
   8 Au:    0.111000    0.061539
   9 Au:    0.151509    0.031337
  10 Cr:   -2.859541    2.565719
Sum of atomic charges       :    0.0000000

LOEWDIN ATOMIC CHARGES AND SPIN DENSITIES
-----------------------------------------
   0 Au:    0.101322    0.077625
   1 Au:    0.084544    0.081513
   2 Au:    0.094708    0.072670
   3 Au:    0.079237    0.082782
   4 Au:    0.103134    0.074551
   5 Au:    0.125386    0.059130
   6 Au:    0.026520    0.068145
   7 Au:    0.144757    0.025435
   8 Au:    0.023491    0.071709
   9 Au:    0.036938    0.051353
  10 Cr:   -0.820038    2.335087

  Mayer bond orders larger than 0.100000
B(  0-Au,  1-Au) :   0.1558 B(  0-Au,  2-Au) :   0.1375 B(  0-Au,  8-Au) :   0.4319
B(  0-Au, 10-Cr) :   0.4702 B(  1-Au,  2-Au) :   0.1090 B(  1-Au,  5-Au) :   0.1407
B(  1-Au, 10-Cr) :   0.4517 B(  2-Au,  3-Au) :   0.1107 B(  2-Au,  4-Au) :   0.1348
B(  2-Au,  9-Au) :   0.1080 B(  2-Au, 10-Cr) :   0.4135 B(  3-Au,  4-Au) :   0.1576
B(  3-Au,  5-Au) :   0.1421 B(  3-Au, 10-Cr) :   0.4574 B(  4-Au,  6-Au) :   0.4288
B(  4-Au, 10-Cr) :   0.4697 B(  5-Au,  9-Au) :   0.4186 B(  5-Au, 10-Cr) :   0.4551
B(  6-Au,  7-Au) :   0.2404 B(  6-Au,  9-Au) :   0.1226 B(  6-Au, 10-Cr) :   0.5163
B(  7-Au,  8-Au) :   0.2367 B(  7-Au,  9-Au) :   0.3010 B(  7-Au, 10-Cr) :   0.3691
B(  8-Au,  9-Au) :   0.1182 B(  8-Au, 10-Cr) :   0.5259 B(  9-Au, 10-Cr) :   0.4705

FINAL SINGLE POINT ENERGY     -2391.237229563661

DIPOLE MOMENT
-------------
                                X             Y             Z
Electronic contribution:     -3.27642       7.08154      -2.93131
Nuclear contribution   :      3.18232      -7.31445       2.96777
                        -----------------------------------------
Total Dipole Moment    :     -0.09409      -0.23291       0.03646
                        -----------------------------------------
Magnitude (a.u.)       :      0.25383
Magnitude (Debye)      :      0.64519

Rotational constants in cm-1:     0.002241     0.001381     0.001346
Rotational constants in MHz :    67.190558    41.411432    40.339302

                             ****ORCA TERMINATED NORMALLY****
TOTAL RUN TIME: 0 days 1 hours 0 minutes 54 seconds 164 msec
