                         Program Version 5.0.3 -  RELEASE  -
|  1> !RI-B2PLYP def2-TZVP def2-TZVP/C
|  2> !RIJCOSX VERYSLOWCONV
|  3>
|  4> %scf
|  5>   AutoTRAHIter 200
|  6>   maxiter 400
|  7> end
|  8>
|  9>
| 10> %pal nprocs 6 end
| 11>
| 12> *xyzfile 0 5 pbe.xyz
| 13>
| 14> $new_job
| 15>
| 16> !RI-B2PLYP def2-TZVP def2-TZVP/C
| 17> !RIJCOSX VERYSLOWCONV
| 18>
| 19> %scf
| 20>   AutoTRAHIter 200
| 21>   maxiter 400
| 22> end
| 23>
| 24>
| 25> %pal nprocs 6 end
| 26>
| 27> *xyzfile 0 3 pbe.xyz
| 28>
| 29>
| 30>
| 31>
| 32>
| 33>                          ****END OF INPUT****
 Total Charge           Charge          ....    0
 Multiplicity           Mult            ....    5
 Number of Electrons    NEL             ....  252
MP2 TOTAL ENERGY:    -2671.305565335 Eh
FINAL SINGLE POINT ENERGY     -2671.305565335149

CARTESIAN COORDINATES (ANGSTROEM)
---------------------------------
  Au     9.386940    5.728801    7.843885
  Au    10.273835    8.212097    7.564707
  Au     7.437424    8.732975   10.362498
  Au     6.833620    4.546686    7.648327
  Au     7.264957    6.119023    9.949129
  Au     5.512945    9.353732    8.284120
  Au     8.340844    8.837399    5.500481
  Au     5.141913    6.804867    7.655593
  Au     6.640568   11.369831    9.865901
  Au     8.289310   10.374708    8.037885
  Au     7.270648    6.412021    5.575452
  Au    10.266582   10.708446    6.297309
  Cr     7.616236    7.670856    7.859150

 Multiplicity           Mult            ....    3
 Number of Electrons    NEL             ....  252
 Basis Dimension        Dim             ....  525

ORBITAL ENERGIES
----------------
                 SPIN UP ORBITALS
  NO   OCC          E(Eh)            E(eV)
   0   1.0000    -217.733712     -5924.8355
   1   1.0000     -25.420292      -691.7213
   2   1.0000     -21.559324      -586.6590
   3   1.0000     -21.559163      -586.6546
   4   1.0000     -21.554608      -586.5307
   5   1.0000      -4.414082      -120.1133
   6   1.0000      -4.398900      -119.7001
   7   1.0000      -4.398813      -119.6978
   8   1.0000      -4.396020      -119.6218
   9   1.0000      -4.388086      -119.4059
  10   1.0000      -4.388011      -119.4039
  11   1.0000      -4.387961      -119.4025
  12   1.0000      -4.387919      -119.4014
  13   1.0000      -4.381438      -119.2250
  14   1.0000      -4.381325      -119.2219
  15   1.0000      -4.381268      -119.2204
  16   1.0000      -4.381188      -119.2182
  17   1.0000      -3.210234       -87.3549
  18   1.0000      -2.537602       -69.0517
  19   1.0000      -2.532525       -68.9135
  20   1.0000      -2.526165       -68.7405
  21   1.0000      -2.520418       -68.5841
  22   1.0000      -2.519211       -68.5512
  23   1.0000      -2.516117       -68.4670
  24   1.0000      -2.515328       -68.4455
  25   1.0000      -2.515179       -68.4415
  26   1.0000      -2.514961       -68.4356
  27   1.0000      -2.514122       -68.4127
  28   1.0000      -2.514049       -68.4107
  29   1.0000      -2.513810       -68.4042
  30   1.0000      -2.509689       -68.2921
  31   1.0000      -2.509630       -68.2905
  32   1.0000      -2.509511       -68.2873
  33   1.0000      -2.509484       -68.2865
  34   1.0000      -2.507121       -68.2222
  35   1.0000      -2.507065       -68.2207
  36   1.0000      -2.505831       -68.1871
  37   1.0000      -2.505759       -68.1852
  38   1.0000      -2.501718       -68.0752
  39   1.0000      -2.501440       -68.0676
  40   1.0000      -2.501356       -68.0653
  41   1.0000      -2.501162       -68.0601
  42   1.0000      -2.500906       -68.0531
  43   1.0000      -2.500755       -68.0490
  44   1.0000      -2.499764       -68.0220
  45   1.0000      -2.499698       -68.0202
  46   1.0000      -2.498314       -67.9826
  47   1.0000      -2.498234       -67.9804
  48   1.0000      -2.497954       -67.9728
  49   1.0000      -2.497854       -67.9701
  50   1.0000      -2.494199       -67.8706
  51   1.0000      -2.493607       -67.8545
  52   1.0000      -2.493253       -67.8449
  53   1.0000      -2.492785       -67.8321
  54   1.0000      -2.102393       -57.2090
  55   1.0000      -2.093694       -56.9723
  56   1.0000      -2.091980       -56.9257
  57   1.0000      -0.495509       -13.4835
  58   1.0000      -0.479458       -13.0467
  59   1.0000      -0.475233       -12.9317
  60   1.0000      -0.463937       -12.6244
  61   1.0000      -0.458094       -12.4654
  62   1.0000      -0.449010       -12.2182
  63   1.0000      -0.447792       -12.1850
  64   1.0000      -0.446855       -12.1595
  65   1.0000      -0.442261       -12.0345
  66   1.0000      -0.441098       -12.0029
  67   1.0000      -0.439388       -11.9564
  68   1.0000      -0.439332       -11.9548
  69   1.0000      -0.438463       -11.9312
  70   1.0000      -0.435325       -11.8458
  71   1.0000      -0.430973       -11.7274
  72   1.0000      -0.427869       -11.6429
  73   1.0000      -0.424047       -11.5389
  74   1.0000      -0.421431       -11.4677
  75   1.0000      -0.420327       -11.4377
  76   1.0000      -0.420047       -11.4301
  77   1.0000      -0.419406       -11.4126
  78   1.0000      -0.417800       -11.3689
  79   1.0000      -0.407313       -11.0836
  80   1.0000      -0.406808       -11.0698
  81   1.0000      -0.403994       -10.9932
  82   1.0000      -0.398566       -10.8455
  83   1.0000      -0.396538       -10.7903
  84   1.0000      -0.393639       -10.7115
  85   1.0000      -0.392080       -10.6690
  86   1.0000      -0.391840       -10.6625
  87   1.0000      -0.390922       -10.6375
  88   1.0000      -0.385591       -10.4925
  89   1.0000      -0.384700       -10.4682
  90   1.0000      -0.382953       -10.4207
  91   1.0000      -0.377066       -10.2605
  92   1.0000      -0.376417       -10.2428
  93   1.0000      -0.375168       -10.2088
  94   1.0000      -0.374626       -10.1941
  95   1.0000      -0.373605       -10.1663
  96   1.0000      -0.371990       -10.1224
  97   1.0000      -0.370387       -10.0787
  98   1.0000      -0.366629        -9.9765
  99   1.0000      -0.363695        -9.8966
 100   1.0000      -0.363615        -9.8945
 101   1.0000      -0.360553        -9.8112
 102   1.0000      -0.359864        -9.7924
 103   1.0000      -0.354367        -9.6428
 104   1.0000      -0.353572        -9.6212
 105   1.0000      -0.352776        -9.5995
 106   1.0000      -0.350429        -9.5357
 107   1.0000      -0.349219        -9.5027
 108   1.0000      -0.346957        -9.4412
 109   1.0000      -0.343417        -9.3448
 110   1.0000      -0.342629        -9.3234
 111   1.0000      -0.338145        -9.2014
 112   1.0000      -0.336850        -9.1662
 113   1.0000      -0.336355        -9.1527
 114   1.0000      -0.335734        -9.1358
 115   1.0000      -0.330293        -8.9877
 116   1.0000      -0.328340        -8.9346
 117   1.0000      -0.325576        -8.8594
 118   1.0000      -0.324899        -8.8409
 119   1.0000      -0.320163        -8.7121
 120   1.0000      -0.311594        -8.4789
 121   1.0000      -0.302715        -8.2373
 122   1.0000      -0.300440        -8.1754
 123   1.0000      -0.297709        -8.1011
 124   1.0000      -0.254608        -6.9282
 125   1.0000      -0.232670        -6.3313
 126   1.0000      -0.229889        -6.2556
 127   0.0000      -0.142570        -3.8795
 128   0.0000      -0.088655        -2.4124
 129   0.0000      -0.087529        -2.3818
 130   0.0000      -0.061073        -1.6619
 131   0.0000      -0.060731        -1.6526

                 SPIN DOWN ORBITALS
  NO   OCC          E(Eh)            E(eV)
   0   1.0000    -217.732457     -5924.8014
   1   1.0000     -25.350194      -689.8138
   2   1.0000     -21.498251      -584.9971
   3   1.0000     -21.497761      -584.9838
   4   1.0000     -21.482750      -584.5754
   5   1.0000      -4.413261      -120.0909
   6   1.0000      -4.399933      -119.7283
   7   1.0000      -4.399846      -119.7259
   8   1.0000      -4.397602      -119.6648
   9   1.0000      -4.388141      -119.4074
  10   1.0000      -4.388089      -119.4060
  11   1.0000      -4.388036      -119.4045
  12   1.0000      -4.387986      -119.4032
  13   1.0000      -4.381130      -119.2166
  14   1.0000      -4.381041      -119.2142
  15   1.0000      -4.380961      -119.2120
  16   1.0000      -4.380897      -119.2103
  17   1.0000      -2.993972       -81.4701
  18   1.0000      -2.536349       -69.0176
  19   1.0000      -2.530755       -68.8653
  20   1.0000      -2.525309       -68.7172
  21   1.0000      -2.521456       -68.6123
  22   1.0000      -2.520139       -68.5765
  23   1.0000      -2.516814       -68.4860
  24   1.0000      -2.516025       -68.4645
  25   1.0000      -2.515751       -68.4571
  26   1.0000      -2.515102       -68.4394
  27   1.0000      -2.515035       -68.4376
  28   1.0000      -2.514713       -68.4288
  29   1.0000      -2.514434       -68.4212
  30   1.0000      -2.508843       -68.2691
  31   1.0000      -2.508798       -68.2679
  32   1.0000      -2.508774       -68.2672
  33   1.0000      -2.508762       -68.2669
  34   1.0000      -2.506428       -68.2034
  35   1.0000      -2.506382       -68.2021
  36   1.0000      -2.505132       -68.1681
  37   1.0000      -2.505072       -68.1665
  38   1.0000      -2.501088       -68.0581
  39   1.0000      -2.501065       -68.0574
  40   1.0000      -2.500268       -68.0357
  41   1.0000      -2.500149       -68.0325
  42   1.0000      -2.499836       -68.0240
  43   1.0000      -2.499736       -68.0213
  44   1.0000      -2.499491       -68.0146
  45   1.0000      -2.499252       -68.0081
  46   1.0000      -2.498257       -67.9810
  47   1.0000      -2.498150       -67.9781
  48   1.0000      -2.497772       -67.9678
  49   1.0000      -2.497695       -67.9657
  50   1.0000      -2.493399       -67.8488
  51   1.0000      -2.492843       -67.8337
  52   1.0000      -2.492384       -67.8212
  53   1.0000      -2.491949       -67.8094
  54   1.0000      -1.858203       -50.5643
  55   1.0000      -1.857919       -50.5566
  56   1.0000      -1.825156       -49.6650
  57   1.0000      -0.496464       -13.5095
  58   1.0000      -0.476656       -12.9705
  59   1.0000      -0.468212       -12.7407
  60   1.0000      -0.460513       -12.5312
  61   1.0000      -0.452600       -12.3159
  62   1.0000      -0.450073       -12.2471
  63   1.0000      -0.449814       -12.2401
  64   1.0000      -0.443793       -12.0762
  65   1.0000      -0.441917       -12.0252
  66   1.0000      -0.441565       -12.0156
  67   1.0000      -0.439424       -11.9573
  68   1.0000      -0.439332       -11.9548
  69   1.0000      -0.431108       -11.7310
  70   1.0000      -0.427572       -11.6348
  71   1.0000      -0.427368       -11.6293
  72   1.0000      -0.423590       -11.5265
  73   1.0000      -0.423247       -11.5171
  74   1.0000      -0.420378       -11.4391
  75   1.0000      -0.419863       -11.4250
  76   1.0000      -0.419703       -11.4207
  77   1.0000      -0.416517       -11.3340
  78   1.0000      -0.409829       -11.1520
  79   1.0000      -0.405270       -11.0279
  80   1.0000      -0.403581       -10.9820
  81   1.0000      -0.400305       -10.8928
  82   1.0000      -0.399044       -10.8585
  83   1.0000      -0.396342       -10.7850
  84   1.0000      -0.393407       -10.7051
  85   1.0000      -0.390363       -10.6223
  86   1.0000      -0.389892       -10.6095
  87   1.0000      -0.389775       -10.6063
  88   1.0000      -0.384762       -10.4699
  89   1.0000      -0.383989       -10.4489
  90   1.0000      -0.379147       -10.3171
  91   1.0000      -0.378657       -10.3038
  92   1.0000      -0.377516       -10.2727
  93   1.0000      -0.375592       -10.2204
  94   1.0000      -0.371754       -10.1159
  95   1.0000      -0.371423       -10.1069
  96   1.0000      -0.371098       -10.0981
  97   1.0000      -0.370565       -10.0836
  98   1.0000      -0.367427        -9.9982
  99   1.0000      -0.365463        -9.9448
 100   1.0000      -0.364286        -9.9127
 101   1.0000      -0.361346        -9.8327
 102   1.0000      -0.359805        -9.7908
 103   1.0000      -0.354764        -9.6536
 104   1.0000      -0.353597        -9.6219
 105   1.0000      -0.352809        -9.6004
 106   1.0000      -0.349447        -9.5089
 107   1.0000      -0.347453        -9.4547
 108   1.0000      -0.343576        -9.3492
 109   1.0000      -0.342904        -9.3309
 110   1.0000      -0.338805        -9.2194
 111   1.0000      -0.338511        -9.2113
 112   1.0000      -0.338305        -9.2057
 113   1.0000      -0.337992        -9.1972
 114   1.0000      -0.331124        -9.0103
 115   1.0000      -0.327216        -8.9040
 116   1.0000      -0.324945        -8.8422
 117   1.0000      -0.324058        -8.8181
 118   1.0000      -0.323956        -8.8153
 119   1.0000      -0.311626        -8.4798
 120   1.0000      -0.272716        -7.4210
 121   1.0000      -0.244892        -6.6639
 122   1.0000      -0.237653        -6.4669
 123   1.0000      -0.219470        -5.9721
 124   1.0000      -0.183539        -4.9943
 125   0.0000      -0.093978        -2.5573
 126   0.0000      -0.078817        -2.1447
 127   0.0000      -0.066061        -1.7976
 128   0.0000      -0.046786        -1.2731
 129   0.0000      -0.033741        -0.9181

MULLIKEN ATOMIC CHARGES AND SPIN POPULATIONS
--------------------------------------------
   0 Au:    0.248097   -0.085249
   1 Au:    0.202861   -0.147308
   2 Au:    0.201353   -0.149014
   3 Au:    0.480082   -0.441977
   4 Au:    0.238962   -0.086523
   5 Au:    0.208380   -0.147871
   6 Au:    0.211520   -0.148191
   7 Au:    0.239865   -0.089587
   8 Au:    0.477725   -0.095692
   9 Au:   -0.377578   -0.159749
  10 Au:    0.250701   -0.087932
  11 Au:    0.478260   -0.096074
  12 Cr:   -2.860227    3.735167
Sum of atomic charges         :   -0.0000000

LOEWDIN ATOMIC CHARGES AND SPIN POPULATIONS
-------------------------------------------
   0 Au:    0.079890   -0.123396
   1 Au:    0.048023   -0.114018
   2 Au:    0.048283   -0.114755
   3 Au:    0.131497   -0.337566
   4 Au:    0.080843   -0.124100
   5 Au:    0.048052   -0.114384
   6 Au:    0.048075   -0.114900
   7 Au:    0.079767   -0.124589
   8 Au:    0.205171   -0.119936
   9 Au:   -0.051642   -0.117331
  10 Au:    0.079163   -0.124633
  11 Au:    0.205628   -0.119991
  12 Cr:   -1.002749    3.649599

  Mayer bond orders larger than 0.100000
B(  0-Au,  1-Au) :   0.3859 B(  0-Au,  3-Au) :   0.1633 B(  0-Au,  4-Au) :   0.1661
B(  0-Au, 12-Cr) :   0.6185 B(  1-Au,  9-Au) :   0.1808 B(  1-Au, 11-Au) :   0.1794
B(  1-Au, 12-Cr) :   0.5698 B(  2-Au,  4-Au) :   0.3893 B(  2-Au,  8-Au) :   0.1788
B(  2-Au,  9-Au) :   0.1805 B(  2-Au, 12-Cr) :   0.5679 B(  3-Au,  4-Au) :   0.1644
B(  3-Au,  7-Au) :   0.1636 B(  3-Au, 10-Au) :   0.1623 B(  3-Au, 12-Cr) :   0.2786
B(  4-Au, 12-Cr) :   0.6172 B(  5-Au,  7-Au) :   0.3837 B(  5-Au,  8-Au) :   0.1782
B(  5-Au,  9-Au) :   0.1790 B(  5-Au, 12-Cr) :   0.5766 B(  6-Au,  9-Au) :   0.1796
B(  6-Au, 10-Au) :   0.3788 B(  6-Au, 11-Au) :   0.1778 B(  6-Au, 12-Cr) :   0.5763
B(  7-Au, 10-Au) :   0.1717 B(  7-Au, 12-Cr) :   0.6178 B(  8-Au,  9-Au) :   0.4889
B(  8-Au, 12-Cr) :   0.1670 B(  9-Au, 11-Au) :   0.4911 B(  9-Au, 12-Cr) :   0.3120
B( 10-Au, 12-Cr) :   0.6189 B( 11-Au, 12-Cr) :   0.1643

MP2 TOTAL ENERGY:    -2671.273356123 Eh
FINAL SINGLE POINT ENERGY     -2671.273356122609

DIPOLE MOMENT
-------------
                                X             Y             Z
Electronic contribution:      3.88811      15.82588       0.85409
Nuclear contribution   :     -3.69964     -15.06560      -0.80586
                        -----------------------------------------
Total Dipole Moment    :      0.18846       0.76028       0.04824
                        -----------------------------------------
Magnitude (a.u.)       :      0.78477
Magnitude (Debye)      :      1.99473

Rotational constants in cm-1:     0.001505     0.001183     0.000929
Rotational constants in MHz :    45.132017    35.453009    27.859791

                             ****ORCA TERMINATED NORMALLY****
TOTAL RUN TIME: 0 days 0 hours 55 minutes 32 seconds 379 msec
