                         Program Version 5.0.3 -  RELEASE  -
|  1> !PBE def2-TZVP VERYSLOWCONV
|  2>
|  3> %scf
|  4>   AutoTRAHIter 200
|  5>   maxiter 400
|  6> end
|  7>
|  8>
|  9> %pal nprocs 6 end
| 10>
| 11> *xyzfile 0 5 pbe.xyz
| 12>
| 13> $new_job
| 14>
| 15> !PBE def2-TZVP VERYSLOWCONV
| 16>
| 17> %scf
| 18>   AutoTRAHIter 200
| 19>   maxiter 400
| 20> end
| 21>
| 22>
| 23> %pal nprocs 6 end
| 24>
| 25> *xyzfile 0 3 pbe.xyz
| 26>
| 27>
| 28>
| 29>
| 30>
| 31>                          ****END OF INPUT****
 Total Charge           Charge          ....    0
 Multiplicity           Mult            ....    5
 Number of Electrons    NEL             ....  252
FINAL SINGLE POINT ENERGY     -2674.154899268180

CARTESIAN COORDINATES (ANGSTROEM)
---------------------------------
  Au     9.386940    5.728801    7.843885
  Au    10.273835    8.212097    7.564707
  Au     7.437424    8.732975   10.362498
  Au     6.833620    4.546686    7.648327
  Au     7.264957    6.119023    9.949129
  Au     5.512945    9.353732    8.284120
  Au     8.340844    8.837399    5.500481
  Au     5.141913    6.804867    7.655593
  Au     6.640568   11.369831    9.865901
  Au     8.289310   10.374708    8.037885
  Au     7.270648    6.412021    5.575452
  Au    10.266582   10.708446    6.297309
  Cr     7.616236    7.670856    7.859150

 Multiplicity           Mult            ....    3
 Number of Electrons    NEL             ....  252
 Basis Dimension        Dim             ....  525

ORBITAL ENERGIES
----------------
                 SPIN UP ORBITALS
  NO   OCC          E(Eh)            E(eV)
   0   1.0000    -214.514018     -5837.2232
   1   1.0000     -24.317945      -661.7249
   2   1.0000     -20.685831      -562.8901
   3   1.0000     -20.682370      -562.7959
   4   1.0000     -20.677100      -562.6525
   5   1.0000      -4.039486      -109.9200
   6   1.0000      -4.023926      -109.4966
   7   1.0000      -4.023818      -109.4936
   8   1.0000      -4.023797      -109.4931
   9   1.0000      -4.023711      -109.4907
  10   1.0000      -4.022164      -109.4486
  11   1.0000      -4.022078      -109.4463
  12   1.0000      -4.018569      -109.3508
  13   1.0000      -4.018481      -109.3484
  14   1.0000      -4.018410      -109.3465
  15   1.0000      -4.018337      -109.3445
  16   1.0000      -4.009072      -109.0924
  17   1.0000      -2.810600       -76.4803
  18   1.0000      -2.260139       -61.5015
  19   1.0000      -2.252379       -61.2904
  20   1.0000      -2.244521       -61.0765
  21   1.0000      -2.242599       -61.0242
  22   1.0000      -2.242443       -61.0200
  23   1.0000      -2.241997       -61.0078
  24   1.0000      -2.241893       -61.0050
  25   1.0000      -2.240651       -60.9712
  26   1.0000      -2.240188       -60.9586
  27   1.0000      -2.238872       -60.9228
  28   1.0000      -2.238783       -60.9204
  29   1.0000      -2.238462       -60.9116
  30   1.0000      -2.238327       -60.9080
  31   1.0000      -2.236264       -60.8518
  32   1.0000      -2.235987       -60.8443
  33   1.0000      -2.235861       -60.8409
  34   1.0000      -2.235583       -60.8333
  35   1.0000      -2.233547       -60.7779
  36   1.0000      -2.233411       -60.7742
  37   1.0000      -2.232495       -60.7493
  38   1.0000      -2.232398       -60.7466
  39   1.0000      -2.231975       -60.7351
  40   1.0000      -2.231924       -60.7337
  41   1.0000      -2.231562       -60.7239
  42   1.0000      -2.231383       -60.7190
  43   1.0000      -2.229887       -60.6783
  44   1.0000      -2.229811       -60.6762
  45   1.0000      -2.228902       -60.6515
  46   1.0000      -2.228806       -60.6489
  47   1.0000      -2.224903       -60.5427
  48   1.0000      -2.224517       -60.5322
  49   1.0000      -2.224266       -60.5254
  50   1.0000      -2.223886       -60.5150
  51   1.0000      -2.222055       -60.4652
  52   1.0000      -2.221395       -60.4472
  53   1.0000      -2.221306       -60.4448
  54   1.0000      -1.805667       -49.1347
  55   1.0000      -1.800352       -48.9901
  56   1.0000      -1.792228       -48.7690
  57   1.0000      -0.418446       -11.3865
  58   1.0000      -0.391199       -10.6451
  59   1.0000      -0.382231       -10.4010
  60   1.0000      -0.364916        -9.9299
  61   1.0000      -0.361096        -9.8259
  62   1.0000      -0.359001        -9.7689
  63   1.0000      -0.356503        -9.7009
  64   1.0000      -0.356020        -9.6878
  65   1.0000      -0.343032        -9.3344
  66   1.0000      -0.342645        -9.3238
  67   1.0000      -0.342109        -9.3093
  68   1.0000      -0.338100        -9.2002
  69   1.0000      -0.335131        -9.1194
  70   1.0000      -0.330627        -8.9968
  71   1.0000      -0.330554        -8.9948
  72   1.0000      -0.329447        -8.9647
  73   1.0000      -0.326860        -8.8943
  74   1.0000      -0.324696        -8.8354
  75   1.0000      -0.323227        -8.7955
  76   1.0000      -0.321319        -8.7435
  77   1.0000      -0.316391        -8.6094
  78   1.0000      -0.311451        -8.4750
  79   1.0000      -0.309044        -8.4095
  80   1.0000      -0.306412        -8.3379
  81   1.0000      -0.304067        -8.2741
  82   1.0000      -0.302458        -8.2303
  83   1.0000      -0.301791        -8.2122
  84   1.0000      -0.300829        -8.1860
  85   1.0000      -0.297825        -8.1042
  86   1.0000      -0.295255        -8.0343
  87   1.0000      -0.289061        -7.8657
  88   1.0000      -0.287788        -7.8311
  89   1.0000      -0.287376        -7.8199
  90   1.0000      -0.282926        -7.6988
  91   1.0000      -0.282784        -7.6949
  92   1.0000      -0.281678        -7.6649
  93   1.0000      -0.279720        -7.6116
  94   1.0000      -0.279094        -7.5945
  95   1.0000      -0.278594        -7.5809
  96   1.0000      -0.277728        -7.5574
  97   1.0000      -0.272517        -7.4156
  98   1.0000      -0.270583        -7.3629
  99   1.0000      -0.270453        -7.3594
 100   1.0000      -0.269634        -7.3371
 101   1.0000      -0.266975        -7.2647
 102   1.0000      -0.266496        -7.2517
 103   1.0000      -0.265471        -7.2238
 104   1.0000      -0.264990        -7.2107
 105   1.0000      -0.259508        -7.0616
 106   1.0000      -0.259171        -7.0524
 107   1.0000      -0.256566        -6.9815
 108   1.0000      -0.253964        -6.9107
 109   1.0000      -0.252464        -6.8699
 110   1.0000      -0.252420        -6.8687
 111   1.0000      -0.249716        -6.7951
 112   1.0000      -0.249046        -6.7769
 113   1.0000      -0.245946        -6.6925
 114   1.0000      -0.244921        -6.6646
 115   1.0000      -0.243165        -6.6169
 116   1.0000      -0.242368        -6.5952
 117   1.0000      -0.241249        -6.5647
 118   1.0000      -0.240583        -6.5466
 119   1.0000      -0.228656        -6.2221
 120   1.0000      -0.225424        -6.1341
 121   1.0000      -0.223340        -6.0774
 122   1.0000      -0.219996        -5.9864
 123   1.0000      -0.216159        -5.8820
 124   1.0000      -0.214388        -5.8338
 125   1.0000      -0.201231        -5.4758
 126   1.0000      -0.199000        -5.4151
 127   0.0000      -0.191067        -5.1992
 128   0.0000      -0.164004        -4.4628
 129   0.0000      -0.156216        -4.2509
 130   0.0000      -0.153191        -4.1685
 131   0.0000      -0.132422        -3.6034

                 SPIN DOWN ORBITALS
  NO   OCC          E(Eh)            E(eV)
   0   1.0000    -214.513603     -5837.2119
   1   1.0000     -24.277420      -660.6222
   2   1.0000     -20.657188      -562.1107
   3   1.0000     -20.651343      -561.9516
   4   1.0000     -20.643821      -561.7469
   5   1.0000      -4.038636      -109.8969
   6   1.0000      -4.024030      -109.4994
   7   1.0000      -4.023930      -109.4967
   8   1.0000      -4.023904      -109.4960
   9   1.0000      -4.023824      -109.4938
  10   1.0000      -4.022543      -109.4590
  11   1.0000      -4.022452      -109.4565
  12   1.0000      -4.018612      -109.3520
  13   1.0000      -4.018533      -109.3498
  14   1.0000      -4.018443      -109.3474
  15   1.0000      -4.018375      -109.3456
  16   1.0000      -4.009240      -109.0970
  17   1.0000      -2.702255       -73.5321
  18   1.0000      -2.259272       -61.4779
  19   1.0000      -2.250905       -61.2502
  20   1.0000      -2.244180       -61.0672
  21   1.0000      -2.242818       -61.0302
  22   1.0000      -2.242612       -61.0246
  23   1.0000      -2.242094       -61.0105
  24   1.0000      -2.241997       -61.0078
  25   1.0000      -2.240754       -60.9740
  26   1.0000      -2.240306       -60.9618
  27   1.0000      -2.239137       -60.9300
  28   1.0000      -2.239050       -60.9276
  29   1.0000      -2.238618       -60.9159
  30   1.0000      -2.238475       -60.9120
  31   1.0000      -2.235992       -60.8444
  32   1.0000      -2.235725       -60.8372
  33   1.0000      -2.235608       -60.8340
  34   1.0000      -2.235349       -60.8269
  35   1.0000      -2.233788       -60.7845
  36   1.0000      -2.233609       -60.7796
  37   1.0000      -2.233085       -60.7653
  38   1.0000      -2.232931       -60.7611
  39   1.0000      -2.232575       -60.7515
  40   1.0000      -2.232482       -60.7489
  41   1.0000      -2.232225       -60.7419
  42   1.0000      -2.231997       -60.7357
  43   1.0000      -2.229932       -60.6795
  44   1.0000      -2.229859       -60.6776
  45   1.0000      -2.228958       -60.6530
  46   1.0000      -2.228866       -60.6505
  47   1.0000      -2.224739       -60.5382
  48   1.0000      -2.224352       -60.5277
  49   1.0000      -2.224087       -60.5205
  50   1.0000      -2.223710       -60.5102
  51   1.0000      -2.221939       -60.4620
  52   1.0000      -2.221811       -60.4586
  53   1.0000      -2.221527       -60.4508
  54   1.0000      -1.706257       -46.4296
  55   1.0000      -1.694333       -46.1051
  56   1.0000      -1.677688       -45.6522
  57   1.0000      -0.416222       -11.3260
  58   1.0000      -0.386854       -10.5268
  59   1.0000      -0.382394       -10.4055
  60   1.0000      -0.361025        -9.8240
  61   1.0000      -0.359983        -9.7956
  62   1.0000      -0.357452        -9.7268
  63   1.0000      -0.357228        -9.7207
  64   1.0000      -0.355084        -9.6623
  65   1.0000      -0.342215        -9.3121
  66   1.0000      -0.340525        -9.2662
  67   1.0000      -0.340018        -9.2524
  68   1.0000      -0.336860        -9.1664
  69   1.0000      -0.330626        -8.9968
  70   1.0000      -0.329652        -8.9703
  71   1.0000      -0.328081        -8.9275
  72   1.0000      -0.326207        -8.8766
  73   1.0000      -0.325474        -8.8566
  74   1.0000      -0.324502        -8.8302
  75   1.0000      -0.321540        -8.7495
  76   1.0000      -0.319578        -8.6962
  77   1.0000      -0.317162        -8.6304
  78   1.0000      -0.309789        -8.4298
  79   1.0000      -0.307354        -8.3635
  80   1.0000      -0.306827        -8.3492
  81   1.0000      -0.304342        -8.2816
  82   1.0000      -0.303280        -8.2527
  83   1.0000      -0.301748        -8.2110
  84   1.0000      -0.301324        -8.1994
  85   1.0000      -0.297058        -8.0834
  86   1.0000      -0.295190        -8.0325
  87   1.0000      -0.289506        -7.8778
  88   1.0000      -0.288036        -7.8379
  89   1.0000      -0.287653        -7.8274
  90   1.0000      -0.283402        -7.7118
  91   1.0000      -0.283362        -7.7107
  92   1.0000      -0.280432        -7.6309
  93   1.0000      -0.279987        -7.6188
  94   1.0000      -0.279328        -7.6009
  95   1.0000      -0.278669        -7.5830
  96   1.0000      -0.278653        -7.5825
  97   1.0000      -0.273421        -7.4402
  98   1.0000      -0.271425        -7.3859
  99   1.0000      -0.271067        -7.3761
 100   1.0000      -0.270465        -7.3597
 101   1.0000      -0.268005        -7.2928
 102   1.0000      -0.267111        -7.2685
 103   1.0000      -0.266208        -7.2439
 104   1.0000      -0.265664        -7.2291
 105   1.0000      -0.259879        -7.0717
 106   1.0000      -0.259831        -7.0704
 107   1.0000      -0.257119        -6.9966
 108   1.0000      -0.254904        -6.9363
 109   1.0000      -0.253519        -6.8986
 110   1.0000      -0.253189        -6.8896
 111   1.0000      -0.250551        -6.8178
 112   1.0000      -0.248321        -6.7572
 113   1.0000      -0.246307        -6.7024
 114   1.0000      -0.245383        -6.6772
 115   1.0000      -0.243613        -6.6290
 116   1.0000      -0.243142        -6.6162
 117   1.0000      -0.242404        -6.5962
 118   1.0000      -0.240895        -6.5551
 119   1.0000      -0.230020        -6.2592
 120   1.0000      -0.226074        -6.1518
 121   1.0000      -0.218853        -5.9553
 122   1.0000      -0.210046        -5.7157
 123   1.0000      -0.202177        -5.5015
 124   1.0000      -0.173505        -4.7213
 125   0.0000      -0.161951        -4.4069
 126   0.0000      -0.153621        -4.1802
 127   0.0000      -0.129628        -3.5273
 128   0.0000      -0.124444        -3.3863
 129   0.0000      -0.121648        -3.3102

MULLIKEN ATOMIC CHARGES AND SPIN POPULATIONS
--------------------------------------------
   0 Au:    0.313602   -0.080627
   1 Au:    0.216355   -0.120985
   2 Au:    0.214538   -0.121069
   3 Au:    0.441838   -0.003055
   4 Au:    0.305054   -0.080739
   5 Au:    0.222049   -0.120886
   6 Au:    0.225677   -0.121123
   7 Au:    0.306966   -0.082902
   8 Au:    0.442047   -0.007380
   9 Au:   -0.177046    0.025028
  10 Au:    0.317139   -0.082962
  11 Au:    0.441061   -0.006426
  12 Cr:   -3.269281    2.803126
Sum of atomic charges         :   -0.0000000

LOEWDIN ATOMIC CHARGES AND SPIN POPULATIONS
-------------------------------------------
   0 Au:    0.113588   -0.076647
   1 Au:    0.088838   -0.086409
   2 Au:    0.089103   -0.086477
   3 Au:    0.056233   -0.049658
   4 Au:    0.114692   -0.076315
   5 Au:    0.088899   -0.087001
   6 Au:    0.088781   -0.087143
   7 Au:    0.113678   -0.077422
   8 Au:    0.152588   -0.036066
   9 Au:   -0.057686    0.008987
  10 Au:    0.112763   -0.077931
  11 Au:    0.152548   -0.035244
  12 Cr:   -1.114024    2.767326

  Mayer bond orders larger than 0.100000
B(  0-Au,  1-Au) :   0.4243 B(  0-Au,  3-Au) :   0.2296 B(  0-Au,  4-Au) :   0.1735
B(  0-Au, 12-Cr) :   0.7296 B(  1-Au,  6-Au) :   0.1309 B(  1-Au,  9-Au) :   0.1539
B(  1-Au, 11-Au) :   0.2310 B(  1-Au, 12-Cr) :   0.7049 B(  2-Au,  4-Au) :   0.4279
B(  2-Au,  5-Au) :   0.1289 B(  2-Au,  8-Au) :   0.2307 B(  2-Au,  9-Au) :   0.1542
B(  2-Au, 12-Cr) :   0.7038 B(  3-Au,  4-Au) :   0.2298 B(  3-Au,  7-Au) :   0.2291
B(  3-Au, 10-Au) :   0.2285 B(  3-Au, 12-Cr) :   0.3435 B(  4-Au, 12-Cr) :   0.7292
B(  5-Au,  7-Au) :   0.4215 B(  5-Au,  8-Au) :   0.2313 B(  5-Au,  9-Au) :   0.1537
B(  5-Au, 12-Cr) :   0.7115 B(  6-Au,  9-Au) :   0.1540 B(  6-Au, 10-Au) :   0.4169
B(  6-Au, 11-Au) :   0.2306 B(  6-Au, 12-Cr) :   0.7120 B(  7-Au, 10-Au) :   0.1803
B(  7-Au, 12-Cr) :   0.7275 B(  8-Au,  9-Au) :   0.5472 B(  8-Au, 12-Cr) :   0.2109
B(  9-Au, 11-Au) :   0.5493 B(  9-Au, 12-Cr) :   0.2969 B( 10-Au, 12-Cr) :   0.7296
B( 11-Au, 12-Cr) :   0.2088

FINAL SINGLE POINT ENERGY     -2674.138479448526

DIPOLE MOMENT
-------------
                                X             Y             Z
Electronic contribution:      3.84460      15.66145       0.84375
Nuclear contribution   :     -3.69964     -15.06560      -0.80586
                        -----------------------------------------
Total Dipole Moment    :      0.14496       0.59585       0.03790
                        -----------------------------------------
Magnitude (a.u.)       :      0.61440
Magnitude (Debye)      :      1.56168

Rotational constants in cm-1:     0.001505     0.001183     0.000929
Rotational constants in MHz :    45.132017    35.453009    27.859791

                             ****ORCA TERMINATED NORMALLY****
TOTAL RUN TIME: 0 days 0 hours 28 minutes 21 seconds 977 msec
