                         Program Version 5.0.3 -  RELEASE  -
|  1> !R2SCAN def2-TZVP VERYSLOWCONV
|  2> !KDIIS
|  3> %scf
|  4>   AutoTRAHIter 200
|  5>   maxiter 400
|  6> end
|  7>
|  8> %pal nprocs 6 end
|  9>
| 10> *xyzfile 0 5 pbe.xyz
| 11>
| 12> $new_job
| 13>
| 14> !R2SCAN def2-TZVP VERYSLOWCONV
| 15> !KDIIS
| 16> %scf
| 17>   AutoTRAHIter 200
| 18>   maxiter 400
| 19> end
| 20>
| 21>
| 22> %pal nprocs 6 end
| 23>
| 24> *xyzfile 0 3 pbe.xyz
| 25>
| 26>
| 27>
| 28>
| 29>
| 30>                          ****END OF INPUT****
 Total Charge           Charge          ....    0
 Multiplicity           Mult            ....    5
 Number of Electrons    NEL             ....  252
FINAL SINGLE POINT ENERGY     -2674.588937065241

CARTESIAN COORDINATES (ANGSTROEM)
---------------------------------
  Au     9.386940    5.728801    7.843885
  Au    10.273835    8.212097    7.564707
  Au     7.437424    8.732975   10.362498
  Au     6.833620    4.546686    7.648327
  Au     7.264957    6.119023    9.949129
  Au     5.512945    9.353732    8.284120
  Au     8.340844    8.837399    5.500481
  Au     5.141913    6.804867    7.655593
  Au     6.640568   11.369831    9.865901
  Au     8.289310   10.374708    8.037885
  Au     7.270648    6.412021    5.575452
  Au    10.266582   10.708446    6.297309
  Cr     7.616236    7.670856    7.859150

 Multiplicity           Mult            ....    3
 Number of Electrons    NEL             ....  252
 Basis Dimension        Dim             ....  525

ORBITAL ENERGIES
----------------
                 SPIN UP ORBITALS
  NO   OCC          E(Eh)            E(eV)
   0   1.0000    -215.314639     -5859.0092
   1   1.0000     -24.619039      -669.9181
   2   1.0000     -20.889192      -568.4238
   3   1.0000     -20.886425      -568.3485
   4   1.0000     -20.881479      -568.2139
   5   1.0000      -4.131184      -112.4152
   6   1.0000      -4.114811      -111.9697
   7   1.0000      -4.114701      -111.9667
   8   1.0000      -4.114674      -111.9660
   9   1.0000      -4.114582      -111.9635
  10   1.0000      -4.114025      -111.9483
  11   1.0000      -4.113921      -111.9455
  12   1.0000      -4.108755      -111.8049
  13   1.0000      -4.108670      -111.8026
  14   1.0000      -4.108591      -111.8004
  15   1.0000      -4.108510      -111.7983
  16   1.0000      -4.098953      -111.5382
  17   1.0000      -2.927010       -79.6480
  18   1.0000      -2.324418       -63.2506
  19   1.0000      -2.316806       -63.0435
  20   1.0000      -2.309355       -62.8407
  21   1.0000      -2.306425       -62.7610
  22   1.0000      -2.306122       -62.7528
  23   1.0000      -2.305445       -62.7343
  24   1.0000      -2.305332       -62.7313
  25   1.0000      -2.304658       -62.7129
  26   1.0000      -2.304176       -62.6998
  27   1.0000      -2.302640       -62.6580
  28   1.0000      -2.302524       -62.6549
  29   1.0000      -2.301901       -62.6379
  30   1.0000      -2.301757       -62.6340
  31   1.0000      -2.299080       -62.5611
  32   1.0000      -2.298736       -62.5518
  33   1.0000      -2.298699       -62.5508
  34   1.0000      -2.298314       -62.5403
  35   1.0000      -2.297897       -62.5290
  36   1.0000      -2.297726       -62.5243
  37   1.0000      -2.296410       -62.4885
  38   1.0000      -2.296296       -62.4854
  39   1.0000      -2.295310       -62.4585
  40   1.0000      -2.295058       -62.4517
  41   1.0000      -2.294808       -62.4449
  42   1.0000      -2.294335       -62.4320
  43   1.0000      -2.294012       -62.4232
  44   1.0000      -2.293932       -62.4211
  45   1.0000      -2.293004       -62.3958
  46   1.0000      -2.292898       -62.3929
  47   1.0000      -2.288348       -62.2691
  48   1.0000      -2.287933       -62.2578
  49   1.0000      -2.287659       -62.2504
  50   1.0000      -2.287268       -62.2397
  51   1.0000      -2.284588       -62.1668
  52   1.0000      -2.283937       -62.1491
  53   1.0000      -2.283906       -62.1482
  54   1.0000      -1.876424       -51.0601
  55   1.0000      -1.873695       -50.9858
  56   1.0000      -1.869238       -50.8645
  57   1.0000      -0.424281       -11.5453
  58   1.0000      -0.398371       -10.8402
  59   1.0000      -0.389218       -10.5912
  60   1.0000      -0.374610       -10.1937
  61   1.0000      -0.369847       -10.0641
  62   1.0000      -0.367160        -9.9909
  63   1.0000      -0.364126        -9.9084
  64   1.0000      -0.363848        -9.9008
  65   1.0000      -0.352941        -9.6040
  66   1.0000      -0.351851        -9.5743
  67   1.0000      -0.351170        -9.5558
  68   1.0000      -0.347014        -9.4427
  69   1.0000      -0.344826        -9.3832
  70   1.0000      -0.339415        -9.2359
  71   1.0000      -0.339069        -9.2265
  72   1.0000      -0.338206        -9.2031
  73   1.0000      -0.335652        -9.1336
  74   1.0000      -0.333165        -9.0659
  75   1.0000      -0.332240        -9.0407
  76   1.0000      -0.330316        -8.9884
  77   1.0000      -0.325030        -8.8445
  78   1.0000      -0.319119        -8.6837
  79   1.0000      -0.317600        -8.6423
  80   1.0000      -0.315104        -8.5744
  81   1.0000      -0.312744        -8.5102
  82   1.0000      -0.311021        -8.4633
  83   1.0000      -0.310197        -8.4409
  84   1.0000      -0.309859        -8.4317
  85   1.0000      -0.306465        -8.3393
  86   1.0000      -0.304118        -8.2755
  87   1.0000      -0.297641        -8.0992
  88   1.0000      -0.297173        -8.0865
  89   1.0000      -0.296027        -8.0553
  90   1.0000      -0.291817        -7.9407
  91   1.0000      -0.291650        -7.9362
  92   1.0000      -0.289831        -7.8867
  93   1.0000      -0.287666        -7.8278
  94   1.0000      -0.287393        -7.8203
  95   1.0000      -0.287361        -7.8195
  96   1.0000      -0.285673        -7.7736
  97   1.0000      -0.280436        -7.6311
  98   1.0000      -0.279724        -7.6117
  99   1.0000      -0.278370        -7.5748
 100   1.0000      -0.278350        -7.5743
 101   1.0000      -0.274892        -7.4802
 102   1.0000      -0.273981        -7.4554
 103   1.0000      -0.272799        -7.4232
 104   1.0000      -0.272175        -7.4062
 105   1.0000      -0.267475        -7.2784
 106   1.0000      -0.267154        -7.2696
 107   1.0000      -0.264838        -7.2066
 108   1.0000      -0.261562        -7.1175
 109   1.0000      -0.260028        -7.0757
 110   1.0000      -0.259674        -7.0661
 111   1.0000      -0.256757        -6.9867
 112   1.0000      -0.256309        -6.9745
 113   1.0000      -0.253541        -6.8992
 114   1.0000      -0.252013        -6.8576
 115   1.0000      -0.250045        -6.8041
 116   1.0000      -0.249959        -6.8017
 117   1.0000      -0.247896        -6.7456
 118   1.0000      -0.247613        -6.7379
 119   1.0000      -0.242131        -6.5887
 120   1.0000      -0.234744        -6.3877
 121   1.0000      -0.228435        -6.2160
 122   1.0000      -0.225942        -6.1482
 123   1.0000      -0.222354        -6.0506
 124   1.0000      -0.220465        -5.9992
 125   1.0000      -0.210911        -5.7392
 126   1.0000      -0.202619        -5.5135
 127   0.0000      -0.189463        -5.1556
 128   0.0000      -0.163361        -4.4453
 129   0.0000      -0.152300        -4.1443
 130   0.0000      -0.150206        -4.0873
 131   0.0000      -0.126567        -3.4441

                 SPIN DOWN ORBITALS
  NO   OCC          E(Eh)            E(eV)
   0   1.0000    -215.314013     -5858.9922
   1   1.0000     -24.562598      -668.3823
   2   1.0000     -20.849101      -567.3329
   3   1.0000     -20.843018      -567.1674
   4   1.0000     -20.834470      -566.9348
   5   1.0000      -4.130381      -112.3934
   6   1.0000      -4.115234      -111.9812
   7   1.0000      -4.115130      -111.9784
   8   1.0000      -4.115099      -111.9775
   9   1.0000      -4.115007      -111.9750
  10   1.0000      -4.114531      -111.9621
  11   1.0000      -4.114417      -111.9590
  12   1.0000      -4.109043      -111.8128
  13   1.0000      -4.108973      -111.8108
  14   1.0000      -4.108872      -111.8081
  15   1.0000      -4.108796      -111.8060
  16   1.0000      -4.099136      -111.5432
  17   1.0000      -2.781705       -75.6940
  18   1.0000      -2.323509       -63.2259
  19   1.0000      -2.315407       -63.0054
  20   1.0000      -2.308923       -62.8290
  21   1.0000      -2.306848       -62.7725
  22   1.0000      -2.306462       -62.7620
  23   1.0000      -2.305674       -62.7406
  24   1.0000      -2.305565       -62.7376
  25   1.0000      -2.304856       -62.7183
  26   1.0000      -2.304421       -62.7065
  27   1.0000      -2.303121       -62.6711
  28   1.0000      -2.302994       -62.6677
  29   1.0000      -2.302323       -62.6494
  30   1.0000      -2.302170       -62.6452
  31   1.0000      -2.299068       -62.5608
  32   1.0000      -2.298737       -62.5518
  33   1.0000      -2.298723       -62.5514
  34   1.0000      -2.298338       -62.5409
  35   1.0000      -2.298235       -62.5381
  36   1.0000      -2.298004       -62.5319
  37   1.0000      -2.297215       -62.5104
  38   1.0000      -2.297087       -62.5069
  39   1.0000      -2.295933       -62.4755
  40   1.0000      -2.295713       -62.4695
  41   1.0000      -2.295413       -62.4614
  42   1.0000      -2.294976       -62.4495
  43   1.0000      -2.294182       -62.4279
  44   1.0000      -2.294103       -62.4257
  45   1.0000      -2.293191       -62.4009
  46   1.0000      -2.293087       -62.3981
  47   1.0000      -2.288255       -62.2666
  48   1.0000      -2.287842       -62.2553
  49   1.0000      -2.287536       -62.2470
  50   1.0000      -2.287153       -62.2366
  51   1.0000      -2.284493       -62.1642
  52   1.0000      -2.284270       -62.1581
  53   1.0000      -2.284190       -62.1560
  54   1.0000      -1.742419       -47.4136
  55   1.0000      -1.730156       -47.0799
  56   1.0000      -1.710667       -46.5496
  57   1.0000      -0.422459       -11.4957
  58   1.0000      -0.393714       -10.7135
  59   1.0000      -0.389974       -10.6117
  60   1.0000      -0.370109       -10.0712
  61   1.0000      -0.367301        -9.9948
  62   1.0000      -0.366229        -9.9656
  63   1.0000      -0.365787        -9.9536
  64   1.0000      -0.363540        -9.8924
  65   1.0000      -0.351685        -9.5698
  66   1.0000      -0.350158        -9.5283
  67   1.0000      -0.349372        -9.5069
  68   1.0000      -0.345454        -9.4003
  69   1.0000      -0.339652        -9.2424
  70   1.0000      -0.337840        -9.1931
  71   1.0000      -0.336767        -9.1639
  72   1.0000      -0.335629        -9.1329
  73   1.0000      -0.334451        -9.1009
  74   1.0000      -0.333373        -9.0715
  75   1.0000      -0.330771        -9.0007
  76   1.0000      -0.328000        -8.9253
  77   1.0000      -0.326010        -8.8712
  78   1.0000      -0.318769        -8.6741
  79   1.0000      -0.315940        -8.5972
  80   1.0000      -0.315885        -8.5957
  81   1.0000      -0.313483        -8.5303
  82   1.0000      -0.312555        -8.5051
  83   1.0000      -0.310628        -8.4526
  84   1.0000      -0.310121        -8.4388
  85   1.0000      -0.305864        -8.3230
  86   1.0000      -0.304026        -8.2730
  87   1.0000      -0.298587        -8.1250
  88   1.0000      -0.297096        -8.0844
  89   1.0000      -0.296742        -8.0748
  90   1.0000      -0.292776        -7.9668
  91   1.0000      -0.292341        -7.9550
  92   1.0000      -0.288645        -7.8544
  93   1.0000      -0.288495        -7.8504
  94   1.0000      -0.288383        -7.8473
  95   1.0000      -0.287007        -7.8099
  96   1.0000      -0.286834        -7.8051
  97   1.0000      -0.281996        -7.6735
  98   1.0000      -0.280611        -7.6358
  99   1.0000      -0.280009        -7.6194
 100   1.0000      -0.279952        -7.6179
 101   1.0000      -0.276672        -7.5286
 102   1.0000      -0.275498        -7.4967
 103   1.0000      -0.273867        -7.4523
 104   1.0000      -0.273376        -7.4389
 105   1.0000      -0.268683        -7.3112
 106   1.0000      -0.267609        -7.2820
 107   1.0000      -0.265809        -7.2330
 108   1.0000      -0.263286        -7.1644
 109   1.0000      -0.261590        -7.1182
 110   1.0000      -0.260901        -7.0995
 111   1.0000      -0.257846        -7.0163
 112   1.0000      -0.254994        -6.9388
 113   1.0000      -0.253896        -6.9089
 114   1.0000      -0.252758        -6.8779
 115   1.0000      -0.250974        -6.8294
 116   1.0000      -0.250670        -6.8211
 117   1.0000      -0.249831        -6.7982
 118   1.0000      -0.247983        -6.7480
 119   1.0000      -0.237000        -6.4491
 120   1.0000      -0.231808        -6.3078
 121   1.0000      -0.222019        -6.0414
 122   1.0000      -0.211560        -5.7568
 123   1.0000      -0.205105        -5.5812
 124   1.0000      -0.172512        -4.6943
 125   0.0000      -0.157769        -4.2931
 126   0.0000      -0.145813        -3.9678
 127   0.0000      -0.121657        -3.3105
 128   0.0000      -0.113337        -3.0840
 129   0.0000      -0.107384        -2.9221

MULLIKEN ATOMIC CHARGES AND SPIN POPULATIONS
--------------------------------------------
   0 Au:    0.281449   -0.111120
   1 Au:    0.195167   -0.165038
   2 Au:    0.193178   -0.165331
   3 Au:    0.381932   -0.001214
   4 Au:    0.273900   -0.111390
   5 Au:    0.199940   -0.165167
   6 Au:    0.203671   -0.165417
   7 Au:    0.275559   -0.114310
   8 Au:    0.423889   -0.019940
   9 Au:   -0.189143    0.024856
  10 Au:    0.284639   -0.114446
  11 Au:    0.422788   -0.018473
  12 Cr:   -2.946969    3.126989
Sum of atomic charges         :    0.0000000

LOEWDIN ATOMIC CHARGES AND SPIN POPULATIONS
-------------------------------------------
   0 Au:    0.106166   -0.096576
   1 Au:    0.082970   -0.110918
   2 Au:    0.083245   -0.111142
   3 Au:    0.049508   -0.057301
   4 Au:    0.107205   -0.096428
   5 Au:    0.083085   -0.111697
   6 Au:    0.082963   -0.111848
   7 Au:    0.106200   -0.097774
   8 Au:    0.154606   -0.050927
   9 Au:   -0.059137   -0.004614
  10 Au:    0.105384   -0.098268
  11 Au:    0.154485   -0.049762
  12 Cr:   -1.056680    2.997254

  Mayer bond orders larger than 0.100000
B(  0-Au,  1-Au) :   0.4183 B(  0-Au,  3-Au) :   0.2234 B(  0-Au,  4-Au) :   0.1633
B(  0-Au, 12-Cr) :   0.7152 B(  1-Au,  6-Au) :   0.1058 B(  1-Au,  9-Au) :   0.1384
B(  1-Au, 11-Au) :   0.2140 B(  1-Au, 12-Cr) :   0.6891 B(  2-Au,  4-Au) :   0.4214
B(  2-Au,  5-Au) :   0.1038 B(  2-Au,  8-Au) :   0.2138 B(  2-Au,  9-Au) :   0.1388
B(  2-Au, 12-Cr) :   0.6893 B(  3-Au,  4-Au) :   0.2235 B(  3-Au,  7-Au) :   0.2227
B(  3-Au, 10-Au) :   0.2222 B(  3-Au, 12-Cr) :   0.3345 B(  4-Au, 12-Cr) :   0.7138
B(  5-Au,  7-Au) :   0.4154 B(  5-Au,  8-Au) :   0.2141 B(  5-Au,  9-Au) :   0.1387
B(  5-Au, 12-Cr) :   0.6967 B(  6-Au,  9-Au) :   0.1388 B(  6-Au, 10-Au) :   0.4111
B(  6-Au, 11-Au) :   0.2132 B(  6-Au, 12-Cr) :   0.6961 B(  7-Au, 10-Au) :   0.1702
B(  7-Au, 12-Cr) :   0.7105 B(  8-Au,  9-Au) :   0.5562 B(  8-Au, 12-Cr) :   0.1908
B(  9-Au, 11-Au) :   0.5586 B(  9-Au, 12-Cr) :   0.2948 B( 10-Au, 12-Cr) :   0.7137
B( 11-Au, 12-Cr) :   0.1888

FINAL SINGLE POINT ENERGY     -2674.567165391680

DIPOLE MOMENT
-------------
                                X             Y             Z
Electronic contribution:      3.86804      15.75712       0.85008
Nuclear contribution   :     -3.69964     -15.06560      -0.80586
                        -----------------------------------------
Total Dipole Moment    :      0.16840       0.69152       0.04422
                        -----------------------------------------
Magnitude (a.u.)       :      0.71310
Magnitude (Debye)      :      1.81256

Rotational constants in cm-1:     0.001505     0.001183     0.000929
Rotational constants in MHz :    45.132017    35.453009    27.859791

                             ****ORCA TERMINATED NORMALLY****
TOTAL RUN TIME: 0 days 0 hours 20 minutes 11 seconds 551 msec
