                         Program Version 5.0.3 -  RELEASE  -
|  1> !SC-NEVPT2 def2-TZVP def2-TZVP/C
|  2> !MOREAD RIJCOSX def2/J
|  3> %maxcore 4000
|  4> %moinp "casscf.gbw"
|  5> %pal nprocs 6 end
|  6>
|  7> %casscf
|  8>  mult 5,3
|  9>  bweight 1,1
| 10>  nroots 5,45
| 11>  nel 6
| 12>  norb 5
| 13>  ptsettings
| 14>   d4tpre 1e-14 # default = 1e-10
| 15>   d3tpre 1e-14
| 16>  end
| 17>  rel
| 18>    dosoc true
| 19>    gtensor true
| 20>  end
| 21> end
| 22>
| 23>
| 24> *xyzfile 0 5 pbe.xyz
| 25>
| 26>
| 27>                          ****END OF INPUT****

CARTESIAN COORDINATES (ANGSTROEM)
---------------------------------
  Au     6.540330    7.326721    4.145086
  Au     9.087409    7.211841    3.177305
  Au     8.934277    6.859719    5.890226
  Au     9.292394    9.348486    7.130298
  Au     8.505809    9.570835    4.445429
  Au     7.198131   11.168757    6.188074
  Au     5.195621    7.681754    8.536558
  Au     7.829330    7.111059    8.341089
  Au     6.942459    9.862786    8.804202
  Au     4.777284   10.400561    7.106101
  Au     2.773832    8.613747    7.655246
  Au     4.426366    7.802938    5.642007
  Fe     6.794667    8.582143    6.423171

 Total Charge           Charge          ....    0
 Multiplicity           Mult            ....    5
 Number of Electrons    NEL             ....  254
 Basis Dimension        Dim             ....  525

ORBITAL ENERGIES
----------------

  NO   OCC          E(Eh)            E(eV)
   0   2.0000    -261.392195     -7112.8432
   1   2.0000     -31.955692      -869.5586
   2   2.0000     -27.435714      -746.5637
   3   2.0000     -27.435539      -746.5590
   4   2.0000     -27.435200      -746.5498
   5   2.0000      -4.726816      -128.6232
   6   2.0000      -4.726702      -128.6201
   7   2.0000      -4.725388      -128.5843
   8   2.0000      -4.725380      -128.5841
   9   2.0000      -4.710856      -128.1889
  10   2.0000      -4.710387      -128.1761
  11   2.0000      -4.706575      -128.0724
  12   2.0000      -4.706484      -128.0699
  13   2.0000      -4.706460      -128.0693
  14   2.0000      -4.706399      -128.0676
  15   2.0000      -4.701683      -127.9393
  16   2.0000      -4.701681      -127.9392
  17   2.0000      -4.189590      -114.0045
  18   2.0000      -2.771641       -75.4202
  19   2.0000      -2.770448       -75.3877
  20   2.0000      -2.769516       -75.3624
  21   2.0000      -2.765174       -75.2442
  22   2.0000      -2.765067       -75.2413
  23   2.0000      -2.764244       -75.2189
  24   2.0000      -2.763602       -75.2014
  25   2.0000      -2.763483       -75.1982
  26   2.0000      -2.763064       -75.1868
  27   2.0000      -2.761443       -75.1427
  28   2.0000      -2.760970       -75.1298
  29   2.0000      -2.760357       -75.1131
  30   2.0000      -2.759478       -75.0892
  31   2.0000      -2.759172       -75.0809
  32   2.0000      -2.758500       -75.0626
  33   2.0000      -2.753124       -74.9163
  34   2.0000      -2.747429       -74.7613
  35   2.0000      -2.747161       -74.7541
  36   2.0000      -2.745538       -74.7099
  37   2.0000      -2.744917       -74.6930
  38   2.0000      -2.744270       -74.6754
  39   2.0000      -2.743604       -74.6573
  40   2.0000      -2.743288       -74.6486
  41   2.0000      -2.742373       -74.6238
  42   2.0000      -2.742296       -74.6217
  43   2.0000      -2.741921       -74.6115
  44   2.0000      -2.741596       -74.6026
  45   2.0000      -2.740410       -74.5703
  46   2.0000      -2.740183       -74.5642
  47   2.0000      -2.739010       -74.5322
  48   2.0000      -2.738898       -74.5292
  49   2.0000      -2.738825       -74.5272
  50   2.0000      -2.738741       -74.5249
  51   2.0000      -2.737107       -74.4805
  52   2.0000      -2.736256       -74.4573
  53   2.0000      -2.734858       -74.4193
  54   2.0000      -2.734676       -74.4143
  55   2.0000      -2.734602       -74.4123
  56   2.0000      -2.734563       -74.4112
  57   2.0000      -0.588847       -16.0233
  58   2.0000      -0.557709       -15.1760
  59   2.0000      -0.555951       -15.1282
  60   2.0000      -0.555842       -15.1252
  61   2.0000      -0.555412       -15.1135
  62   2.0000      -0.551279       -15.0011
  63   2.0000      -0.544033       -14.8039
  64   2.0000      -0.543009       -14.7760
  65   2.0000      -0.542906       -14.7732
  66   2.0000      -0.542516       -14.7626
  67   2.0000      -0.534942       -14.5565
  68   2.0000      -0.533264       -14.5108
  69   2.0000      -0.528905       -14.3922
  70   2.0000      -0.527781       -14.3616
  71   2.0000      -0.526852       -14.3364
  72   2.0000      -0.521443       -14.1892
  73   2.0000      -0.521185       -14.1822
  74   2.0000      -0.514157       -13.9909
  75   2.0000      -0.512084       -13.9345
  76   2.0000      -0.511364       -13.9149
  77   2.0000      -0.509645       -13.8681
  78   2.0000      -0.503122       -13.6906
  79   2.0000      -0.499763       -13.5992
  80   2.0000      -0.497294       -13.5321
  81   2.0000      -0.496693       -13.5157
  82   2.0000      -0.492977       -13.4146
  83   2.0000      -0.484194       -13.1756
  84   2.0000      -0.481977       -13.1153
  85   2.0000      -0.481828       -13.1112
  86   2.0000      -0.479780       -13.0555
  87   2.0000      -0.473480       -12.8841
  88   2.0000      -0.470836       -12.8121
  89   2.0000      -0.467990       -12.7346
  90   2.0000      -0.467291       -12.7156
  91   2.0000      -0.464175       -12.6308
  92   2.0000      -0.462288       -12.5795
  93   2.0000      -0.457761       -12.4563
  94   2.0000      -0.457203       -12.4411
  95   2.0000      -0.455345       -12.3906
  96   2.0000      -0.452312       -12.3080
  97   2.0000      -0.449853       -12.2411
  98   2.0000      -0.449163       -12.2223
  99   2.0000      -0.447913       -12.1883
 100   2.0000      -0.444748       -12.1022
 101   2.0000      -0.437836       -11.9141
 102   2.0000      -0.437727       -11.9112
 103   2.0000      -0.437486       -11.9046
 104   2.0000      -0.437305       -11.8997
 105   2.0000      -0.434995       -11.8368
 106   2.0000      -0.434246       -11.8164
 107   2.0000      -0.431918       -11.7531
 108   2.0000      -0.429996       -11.7008
 109   2.0000      -0.429896       -11.6981
 110   2.0000      -0.428686       -11.6651
 111   2.0000      -0.421711       -11.4753
 112   2.0000      -0.421225       -11.4621
 113   2.0000      -0.418807       -11.3963
 114   2.0000      -0.416665       -11.3380
 115   2.0000      -0.397600       -10.8192
 116   2.0000      -0.397311       -10.8114
 117   2.0000      -0.388308       -10.5664
 118   2.0000      -0.381411       -10.3787
 119   2.0000      -0.338823        -9.2199
 120   2.0000      -0.316731        -8.6187
 121   2.0000      -0.256907        -6.9908
 122   2.0000      -0.246544        -6.7088
 123   2.0000      -0.217107        -5.9078
 124   1.2000      -0.267885        -7.2895
 125   1.2000      -0.268620        -7.3095
 126   1.2000      -0.270152        -7.3512
 127   1.2000      -0.261090        -7.1046
 128   1.2000      -0.264532        -7.1983
 129   0.0000      -0.039544        -1.0760
 130   0.0000      -0.010169        -0.2767
 131   0.0000      -0.009474        -0.2578
 132   0.0000      -0.001112        -0.0303
 133   0.0000       0.014406         0.3920

MULLIKEN ATOMIC CHARGES AND SPIN DENSITIES
------------------------------------------
   0 Au:    0.007816    0.008405
   1 Au:    0.392735    0.003313
   2 Au:   -0.125445    0.008776
   3 Au:    0.302238    0.006732
   4 Au:   -0.124195    0.008808
   5 Au:    0.412541    0.007423
   6 Au:   -0.124156    0.008765
   7 Au:    0.412069    0.007406
   8 Au:    0.301952    0.006722
   9 Au:   -0.124606    0.008739
  10 Au:    0.392427    0.003306
  11 Au:    0.005602    0.008430
  12 Fe:   -1.728977    2.913175
Sum of atomic charges       :    0.0000000

LOEWDIN ATOMIC CHARGES AND SPIN DENSITIES
-----------------------------------------
   0 Au:   -0.015199    0.011935
   1 Au:    0.134372    0.003913
   2 Au:   -0.086363    0.010396
   3 Au:    0.066104    0.008283
   4 Au:   -0.086114    0.010436
   5 Au:    0.084000    0.011870
   6 Au:   -0.086397    0.010385
   7 Au:    0.083811    0.011851
   8 Au:    0.065701    0.008276
   9 Au:   -0.086424    0.010357
  10 Au:    0.134450    0.003906
  11 Au:   -0.015155    0.011959
  12 Fe:   -0.192787    2.886434

  Mayer bond orders larger than 0.100000
B(  0-Au,  1-Au) :   0.3281 B(  0-Au,  2-Au) :   0.1631 B(  0-Au,  4-Au) :   0.1627
B(  0-Au, 11-Au) :   0.4030 B(  0-Au, 12-Fe) :   0.5099 B(  1-Au,  2-Au) :   0.3013
B(  1-Au,  4-Au) :   0.3012 B(  2-Au,  3-Au) :   0.2455 B(  2-Au,  4-Au) :   0.1760
B(  2-Au,  7-Au) :   0.2906 B(  2-Au, 12-Fe) :   0.3706 B(  3-Au,  4-Au) :   0.2435
B(  3-Au,  5-Au) :   0.1290 B(  3-Au,  7-Au) :   0.1282 B(  3-Au, 12-Fe) :   0.4245
B(  4-Au,  5-Au) :   0.2911 B(  4-Au, 12-Fe) :   0.3713 B(  5-Au,  8-Au) :   0.1282
B(  5-Au,  9-Au) :   0.2913 B(  5-Au, 12-Fe) :   0.3365 B(  6-Au,  7-Au) :   0.2919
B(  6-Au,  8-Au) :   0.2439 B(  6-Au,  9-Au) :   0.1760 B(  6-Au, 10-Au) :   0.3014
B(  6-Au, 11-Au) :   0.1629 B(  6-Au, 12-Fe) :   0.3702 B(  7-Au,  8-Au) :   0.1300
B(  7-Au, 12-Fe) :   0.3358 B(  8-Au,  9-Au) :   0.2453 B(  8-Au, 12-Fe) :   0.4242
B(  9-Au, 10-Au) :   0.3010 B(  9-Au, 11-Au) :   0.1629 B(  9-Au, 12-Fe) :   0.3701
B( 10-Au, 11-Au) :   0.3283 B( 11-Au, 12-Fe) :   0.5109

FINAL SINGLE POINT ENERGY     -2886.137512566104

DIPOLE MOMENT
-------------
                                X             Y             Z
Electronic contribution:      0.14318       0.10580       0.23250
Nuclear contribution   :      0.10390       0.08408       0.05212
                        -----------------------------------------
Total Dipole Moment    :      0.24708       0.18989       0.28462
                        -----------------------------------------
Magnitude (a.u.)       :      0.42204
Magnitude (Debye)      :      1.07273

Rotational constants in cm-1:     0.001767     0.001060     0.000968
Rotational constants in MHz :    52.958543    31.782223    29.009440

                             ****ORCA TERMINATED NORMALLY****
TOTAL RUN TIME: 0 days 2 hours 25 minutes 48 seconds 298 msec
