                         Program Version 5.0.3 -  RELEASE  -
|  1> %pal nprocs 1 end
|  2>
|  3> !PBE def2-TZVP OPT UNO
|  4> !SLOWCONV
|  5>
|  6> *xyzfile 0 5 5.xyz                           ****END OF INPUT****
 Total Charge           Charge          ....    0
 Multiplicity           Mult            ....    5
 Number of Electrons    NEL             ....  292
FINAL SINGLE POINT ENERGY     -3165.070211127456
FINAL SINGLE POINT ENERGY     -3165.072776515703
FINAL SINGLE POINT ENERGY     -3165.073819995338
FINAL SINGLE POINT ENERGY     -3165.074983360390
FINAL SINGLE POINT ENERGY     -3165.075964728195
FINAL SINGLE POINT ENERGY     -3165.076963859122
FINAL SINGLE POINT ENERGY     -3165.077697579688
FINAL SINGLE POINT ENERGY     -3165.078046809189
FINAL SINGLE POINT ENERGY     -3165.078202125090
FINAL SINGLE POINT ENERGY     -3165.078460289142
FINAL SINGLE POINT ENERGY     -3165.078541049122
FINAL SINGLE POINT ENERGY     -3165.078600028261
FINAL SINGLE POINT ENERGY     -3165.078659399650
FINAL SINGLE POINT ENERGY     -3165.078729722040
FINAL SINGLE POINT ENERGY     -3165.078776304765
FINAL SINGLE POINT ENERGY     -3165.078816730987
FINAL SINGLE POINT ENERGY     -3165.078827042993
                    ***********************HURRAY********************

CARTESIAN COORDINATES (ANGSTROEM)
---------------------------------
  Au     5.363638    7.787579    7.358004
  Au     9.435636    7.204740    9.722100
  Au     9.969017    9.549850    8.399644
  Au     6.752671    6.366778    9.443693
  Au     7.920673   11.415708    8.522004
  Au     5.325143   10.289193    8.469801
  Au     7.372687    9.012968    9.801413
  Au    10.814738    7.205170    7.259268
  Au     9.523106   11.157768    6.205496
  Au     6.993696    9.883674    6.218313
  Au     9.090036    5.863297    5.584176
  Au     6.816282    7.435537    4.943594
  Au     9.385445    8.619782    5.194517
  Au     6.685882    5.364454    6.880328
  Fe     8.096661    7.693351    7.422886

 Multiplicity           Mult            ....    5
 Number of Electrons    NEL             ....  292
 Basis Dimension        Dim             ....  605

ORBITAL ENERGIES
----------------
                 SPIN UP ORBITALS
  NO   OCC          E(Eh)            E(eV)
   0   1.0000    -254.768594     -6932.6059
   1   1.0000     -29.607402      -805.6584
   2   1.0000     -25.545814      -695.1369
   3   1.0000     -25.543702      -695.0795
   4   1.0000     -25.537565      -694.9125
   5   1.0000      -4.040002      -109.9340
   6   1.0000      -4.034543      -109.7855
   7   1.0000      -4.034383      -109.7811
   8   1.0000      -4.031717      -109.7086
   9   1.0000      -4.031704      -109.7082
  10   1.0000      -4.029522      -109.6489
  11   1.0000      -4.025604      -109.5422
  12   1.0000      -4.024736      -109.5186
  13   1.0000      -4.023192      -109.4766
  14   1.0000      -4.023075      -109.4734
  15   1.0000      -4.023062      -109.4731
  16   1.0000      -4.022993      -109.4712
  17   1.0000      -4.022760      -109.4649
  18   1.0000      -4.022751      -109.4646
  19   1.0000      -3.387495       -92.1784
  20   1.0000      -2.255473       -61.3745
  21   1.0000      -2.253324       -61.3161
  22   1.0000      -2.252354       -61.2897
  23   1.0000      -2.251826       -61.2753
  24   1.0000      -2.250744       -61.2459
  25   1.0000      -2.247858       -61.1673
  26   1.0000      -2.247827       -61.1665
  27   1.0000      -2.246937       -61.1423
  28   1.0000      -2.245748       -61.1099
  29   1.0000      -2.245350       -61.0991
  30   1.0000      -2.245082       -61.0918
  31   1.0000      -2.245052       -61.0910
  32   1.0000      -2.244402       -61.0733
  33   1.0000      -2.244141       -61.0662
  34   1.0000      -2.242154       -61.0121
  35   1.0000      -2.241484       -60.9939
  36   1.0000      -2.241436       -60.9926
  37   1.0000      -2.240067       -60.9553
  38   1.0000      -2.240030       -60.9543
  39   1.0000      -2.239898       -60.9507
  40   1.0000      -2.239305       -60.9346
  41   1.0000      -2.238663       -60.9171
  42   1.0000      -2.238496       -60.9126
  43   1.0000      -2.237704       -60.8910
  44   1.0000      -2.237276       -60.8794
  45   1.0000      -2.237136       -60.8756
  46   1.0000      -2.237074       -60.8739
  47   1.0000      -2.237028       -60.8726
  48   1.0000      -2.237013       -60.8722
  49   1.0000      -2.236258       -60.8517
  50   1.0000      -2.236091       -60.8471
  51   1.0000      -2.235818       -60.8397
  52   1.0000      -2.235780       -60.8387
  53   1.0000      -2.235380       -60.8278
  54   1.0000      -2.235025       -60.8181
  55   1.0000      -2.234572       -60.8058
  56   1.0000      -2.234495       -60.8037
  57   1.0000      -2.234103       -60.7930
  58   1.0000      -2.233259       -60.7701
  59   1.0000      -2.233040       -60.7641
  60   1.0000      -2.232616       -60.7526
  61   1.0000      -2.232557       -60.7510
  62   1.0000      -2.208289       -60.0906
  63   1.0000      -2.203801       -59.9685
  64   1.0000      -2.190788       -59.6144
  65   1.0000      -0.438092       -11.9211
  66   1.0000      -0.394715       -10.7407
  67   1.0000      -0.390044       -10.6136
  68   1.0000      -0.387846       -10.5538
  69   1.0000      -0.383489       -10.4353
  70   1.0000      -0.377882       -10.2827
  71   1.0000      -0.372540       -10.1373
  72   1.0000      -0.371313       -10.1039
  73   1.0000      -0.366149        -9.9634
  74   1.0000      -0.364783        -9.9262
  75   1.0000      -0.361688        -9.8420
  76   1.0000      -0.356449        -9.6995
  77   1.0000      -0.355339        -9.6693
  78   1.0000      -0.354175        -9.6376
  79   1.0000      -0.351224        -9.5573
  80   1.0000      -0.348167        -9.4741
  81   1.0000      -0.348094        -9.4721
  82   1.0000      -0.345888        -9.4121
  83   1.0000      -0.341140        -9.2829
  84   1.0000      -0.337807        -9.1922
  85   1.0000      -0.336914        -9.1679
  86   1.0000      -0.336202        -9.1485
  87   1.0000      -0.332505        -9.0479
  88   1.0000      -0.329296        -8.9606
  89   1.0000      -0.327937        -8.9236
  90   1.0000      -0.327678        -8.9166
  91   1.0000      -0.325558        -8.8589
  92   1.0000      -0.321210        -8.7406
  93   1.0000      -0.320362        -8.7175
  94   1.0000      -0.318764        -8.6740
  95   1.0000      -0.315590        -8.5876
  96   1.0000      -0.312189        -8.4951
  97   1.0000      -0.310040        -8.4366
  98   1.0000      -0.309383        -8.4187
  99   1.0000      -0.308552        -8.3961
 100   1.0000      -0.306332        -8.3357
 101   1.0000      -0.299275        -8.1437
 102   1.0000      -0.298052        -8.1104
 103   1.0000      -0.296005        -8.0547
 104   1.0000      -0.294373        -8.0103
 105   1.0000      -0.291577        -7.9342
 106   1.0000      -0.287351        -7.8192
 107   1.0000      -0.286526        -7.7968
 108   1.0000      -0.285257        -7.7622
 109   1.0000      -0.283081        -7.7030
 110   1.0000      -0.280380        -7.6295
 111   1.0000      -0.279094        -7.5945
 112   1.0000      -0.277625        -7.5546
 113   1.0000      -0.276478        -7.5233
 114   1.0000      -0.274657        -7.4738
 115   1.0000      -0.272279        -7.4091
 116   1.0000      -0.272132        -7.4051
 117   1.0000      -0.271440        -7.3863
 118   1.0000      -0.269789        -7.3413
 119   1.0000      -0.269533        -7.3344
 120   1.0000      -0.268836        -7.3154
 121   1.0000      -0.267085        -7.2678
 122   1.0000      -0.265582        -7.2269
 123   1.0000      -0.261912        -7.1270
 124   1.0000      -0.260296        -7.0830
 125   1.0000      -0.259601        -7.0641
 126   1.0000      -0.258504        -7.0342
 127   1.0000      -0.257742        -7.0135
 128   1.0000      -0.256929        -6.9914
 129   1.0000      -0.255695        -6.9578
 130   1.0000      -0.254670        -6.9299
 131   1.0000      -0.253713        -6.9039
 132   1.0000      -0.252959        -6.8834
 133   1.0000      -0.252616        -6.8740
 134   1.0000      -0.250234        -6.8092
 135   1.0000      -0.249029        -6.7764
 136   1.0000      -0.248471        -6.7612
 137   1.0000      -0.247368        -6.7312
 138   1.0000      -0.246562        -6.7093
 139   1.0000      -0.243846        -6.6354
 140   1.0000      -0.243711        -6.6317
 141   1.0000      -0.242653        -6.6029
 142   1.0000      -0.240903        -6.5553
 143   1.0000      -0.228579        -6.2200
 144   1.0000      -0.217932        -5.9302
 145   1.0000      -0.208684        -5.6786
 146   1.0000      -0.196454        -5.3458
 147   1.0000      -0.195086        -5.3086
 148   0.0000      -0.173869        -4.7312
 149   0.0000      -0.149400        -4.0654
 150   0.0000      -0.135399        -3.6844
 151   0.0000      -0.132786        -3.6133
 152   0.0000      -0.117072        -3.1857

                 SPIN DOWN ORBITALS
  NO   OCC          E(Eh)            E(eV)
   0   1.0000    -254.767879     -6932.5864
   1   1.0000     -29.546247      -803.9942
   2   1.0000     -25.497861      -693.8321
   3   1.0000     -25.496802      -693.8032
   4   1.0000     -25.493869      -693.7234
   5   1.0000      -4.039347      -109.9162
   6   1.0000      -4.033758      -109.7641
   7   1.0000      -4.033601      -109.7599
   8   1.0000      -4.030947      -109.6877
   9   1.0000      -4.030932      -109.6872
  10   1.0000      -4.028958      -109.6335
  11   1.0000      -4.025288      -109.5337
  12   1.0000      -4.024810      -109.5206
  13   1.0000      -4.023240      -109.4779
  14   1.0000      -4.023156      -109.4756
  15   1.0000      -4.022526      -109.4585
  16   1.0000      -4.022398      -109.4550
  17   1.0000      -4.022161      -109.4486
  18   1.0000      -4.022148      -109.4482
  19   1.0000      -3.249514       -88.4238
  20   1.0000      -2.254656       -61.3523
  21   1.0000      -2.252597       -61.2963
  22   1.0000      -2.251483       -61.2660
  23   1.0000      -2.250961       -61.2518
  24   1.0000      -2.250108       -61.2286
  25   1.0000      -2.246815       -61.1389
  26   1.0000      -2.246790       -61.1383
  27   1.0000      -2.246049       -61.1181
  28   1.0000      -2.244519       -61.0765
  29   1.0000      -2.244355       -61.0720
  30   1.0000      -2.244017       -61.0628
  31   1.0000      -2.244003       -61.0624
  32   1.0000      -2.243760       -61.0558
  33   1.0000      -2.243683       -61.0537
  34   1.0000      -2.241743       -61.0009
  35   1.0000      -2.241093       -60.9832
  36   1.0000      -2.241056       -60.9822
  37   1.0000      -2.239967       -60.9526
  38   1.0000      -2.239373       -60.9364
  39   1.0000      -2.239159       -60.9306
  40   1.0000      -2.238973       -60.9256
  41   1.0000      -2.237927       -60.8971
  42   1.0000      -2.237657       -60.8898
  43   1.0000      -2.237618       -60.8887
  44   1.0000      -2.237394       -60.8826
  45   1.0000      -2.236822       -60.8670
  46   1.0000      -2.236565       -60.8600
  47   1.0000      -2.236473       -60.8575
  48   1.0000      -2.236217       -60.8506
  49   1.0000      -2.236207       -60.8503
  50   1.0000      -2.236101       -60.8474
  51   1.0000      -2.235695       -60.8364
  52   1.0000      -2.235290       -60.8253
  53   1.0000      -2.235077       -60.8195
  54   1.0000      -2.234863       -60.8137
  55   1.0000      -2.234804       -60.8121
  56   1.0000      -2.234709       -60.8095
  57   1.0000      -2.233476       -60.7760
  58   1.0000      -2.232752       -60.7563
  59   1.0000      -2.232501       -60.7494
  60   1.0000      -2.232103       -60.7386
  61   1.0000      -2.232018       -60.7363
  62   1.0000      -2.068069       -56.2750
  63   1.0000      -2.066866       -56.2423
  64   1.0000      -2.062726       -56.1296
  65   1.0000      -0.433398       -11.7934
  66   1.0000      -0.393332       -10.7031
  67   1.0000      -0.387869       -10.5545
  68   1.0000      -0.386824       -10.5260
  69   1.0000      -0.375935       -10.2297
  70   1.0000      -0.370447       -10.0804
  71   1.0000      -0.366643        -9.9769
  72   1.0000      -0.364350        -9.9145
  73   1.0000      -0.361521        -9.8375
  74   1.0000      -0.360596        -9.8123
  75   1.0000      -0.358454        -9.7540
  76   1.0000      -0.353558        -9.6208
  77   1.0000      -0.352674        -9.5967
  78   1.0000      -0.351675        -9.5696
  79   1.0000      -0.349822        -9.5191
  80   1.0000      -0.347177        -9.4472
  81   1.0000      -0.345902        -9.4125
  82   1.0000      -0.344064        -9.3625
  83   1.0000      -0.339410        -9.2358
  84   1.0000      -0.336510        -9.1569
  85   1.0000      -0.335110        -9.1188
  86   1.0000      -0.334727        -9.1084
  87   1.0000      -0.330081        -8.9820
  88   1.0000      -0.327947        -8.9239
  89   1.0000      -0.326276        -8.8784
  90   1.0000      -0.326146        -8.8749
  91   1.0000      -0.319988        -8.7073
  92   1.0000      -0.318382        -8.6636
  93   1.0000      -0.318228        -8.6594
  94   1.0000      -0.312913        -8.5148
  95   1.0000      -0.309887        -8.4324
  96   1.0000      -0.307687        -8.3726
  97   1.0000      -0.306255        -8.3336
  98   1.0000      -0.304410        -8.2834
  99   1.0000      -0.297535        -8.0963
 100   1.0000      -0.297068        -8.0836
 101   1.0000      -0.294450        -8.0124
 102   1.0000      -0.294086        -8.0025
 103   1.0000      -0.289397        -7.8749
 104   1.0000      -0.287389        -7.8203
 105   1.0000      -0.286574        -7.7981
 106   1.0000      -0.284762        -7.7488
 107   1.0000      -0.283553        -7.7159
 108   1.0000      -0.280703        -7.6383
 109   1.0000      -0.280238        -7.6257
 110   1.0000      -0.278040        -7.5659
 111   1.0000      -0.277540        -7.5522
 112   1.0000      -0.275469        -7.4959
 113   1.0000      -0.274388        -7.4665
 114   1.0000      -0.273642        -7.4462
 115   1.0000      -0.270413        -7.3583
 116   1.0000      -0.269323        -7.3287
 117   1.0000      -0.268779        -7.3138
 118   1.0000      -0.267974        -7.2919
 119   1.0000      -0.266238        -7.2447
 120   1.0000      -0.265866        -7.2346
 121   1.0000      -0.264423        -7.1953
 122   1.0000      -0.264052        -7.1852
 123   1.0000      -0.260307        -7.0833
 124   1.0000      -0.259364        -7.0576
 125   1.0000      -0.256167        -6.9707
 126   1.0000      -0.255210        -6.9446
 127   1.0000      -0.254879        -6.9356
 128   1.0000      -0.252116        -6.8604
 129   1.0000      -0.251871        -6.8538
 130   1.0000      -0.248668        -6.7666
 131   1.0000      -0.247696        -6.7402
 132   1.0000      -0.246519        -6.7081
 133   1.0000      -0.245907        -6.6915
 134   1.0000      -0.243593        -6.6285
 135   1.0000      -0.243313        -6.6209
 136   1.0000      -0.242586        -6.6011
 137   1.0000      -0.240387        -6.5413
 138   1.0000      -0.228827        -6.2267
 139   1.0000      -0.221197        -6.0191
 140   1.0000      -0.213205        -5.8016
 141   1.0000      -0.207210        -5.6385
 142   1.0000      -0.205953        -5.6043
 143   1.0000      -0.192475        -5.2375
 144   0.0000      -0.169649        -4.6164
 145   0.0000      -0.165994        -4.5169
 146   0.0000      -0.165683        -4.5085
 147   0.0000      -0.157498        -4.2857
 148   0.0000      -0.157247        -4.2789

MULLIKEN ATOMIC CHARGES AND SPIN POPULATIONS
--------------------------------------------
   0 Au:    0.062102    0.082439
   1 Au:    0.401666    0.003479
   2 Au:   -0.141188    0.081413
   3 Au:    0.279417    0.088062
   4 Au:    0.231175    0.049773
   5 Au:    0.332297    0.054348
   6 Au:   -0.139861    0.082161
   7 Au:    0.279506    0.088160
   8 Au:    0.333080    0.054039
   9 Au:   -0.254166   -0.006983
  10 Au:    0.322353    0.065020
  11 Au:    0.263328    0.066068
  12 Au:    0.060437    0.083172
  13 Au:    0.322096    0.065098
  14 Fe:   -2.352243    3.143751
Sum of atomic charges         :   -0.0000000

LOEWDIN ATOMIC CHARGES AND SPIN POPULATIONS
-------------------------------------------
   0 Au:   -0.001530    0.069273
   1 Au:    0.108814    0.016895
   2 Au:   -0.035148    0.075211
   3 Au:    0.074687    0.049195
   4 Au:    0.021378    0.038815
   5 Au:    0.094798    0.039314
   6 Au:   -0.035074    0.075428
   7 Au:    0.074885    0.049148
   8 Au:    0.095058    0.039090
   9 Au:   -0.020205    0.027736
  10 Au:    0.062734    0.045165
  11 Au:    0.052513    0.052965
  12 Au:   -0.001981    0.069657
  13 Au:    0.062928    0.045096
  14 Fe:   -0.553857    3.307010

  Mayer bond orders larger than 0.100000
B(  0-Au,  3-Au) :   0.1448 B(  0-Au,  5-Au) :   0.3666 B(  0-Au,  6-Au) :   0.1176
B(  0-Au,  9-Au) :   0.2126 B(  0-Au, 11-Au) :   0.1593 B(  0-Au, 13-Au) :   0.2417
B(  0-Au, 14-Fe) :   0.5021 B(  1-Au,  2-Au) :   0.2891 B(  1-Au,  3-Au) :   0.1402
B(  1-Au,  6-Au) :   0.2892 B(  1-Au,  7-Au) :   0.1411 B(  1-Au, 14-Fe) :   0.4548
B(  2-Au,  4-Au) :   0.3103 B(  2-Au,  6-Au) :   0.1353 B(  2-Au,  7-Au) :   0.2592
B(  2-Au,  8-Au) :   0.2804 B(  2-Au, 12-Au) :   0.1178 B(  2-Au, 14-Fe) :   0.5017
B(  3-Au,  6-Au) :   0.2588 B(  3-Au, 13-Au) :   0.2249 B(  3-Au, 14-Fe) :   0.4966
B(  4-Au,  5-Au) :   0.2234 B(  4-Au,  6-Au) :   0.3080 B(  4-Au,  8-Au) :   0.2236
B(  4-Au,  9-Au) :   0.2089 B(  5-Au,  6-Au) :   0.2808 B(  5-Au,  9-Au) :   0.2829
B(  5-Au, 14-Fe) :   0.1123 B(  6-Au, 14-Fe) :   0.5005 B(  7-Au, 10-Au) :   0.2247
B(  7-Au, 12-Au) :   0.1441 B(  7-Au, 14-Fe) :   0.4961 B(  8-Au,  9-Au) :   0.2823
B(  8-Au, 12-Au) :   0.3681 B(  8-Au, 14-Fe) :   0.1120 B(  9-Au, 11-Au) :   0.3036
B(  9-Au, 12-Au) :   0.2116 B(  9-Au, 14-Fe) :   0.4279 B( 10-Au, 11-Au) :   0.1609
B( 10-Au, 12-Au) :   0.2434 B( 10-Au, 13-Au) :   0.2252 B( 10-Au, 14-Fe) :   0.4335
B( 11-Au, 12-Au) :   0.1592 B( 11-Au, 13-Au) :   0.1605 B( 11-Au, 14-Fe) :   0.4824
B( 12-Au, 14-Fe) :   0.5020 B( 13-Au, 14-Fe) :   0.4345

FINAL SINGLE POINT ENERGY     -3165.078829630289

DIPOLE MOMENT
-------------
                                X             Y             Z
Electronic contribution:     -5.26686      26.05152       0.19541
Nuclear contribution   :      5.19396     -25.76953      -0.22345
                        -----------------------------------------
Total Dipole Moment    :     -0.07289       0.28198      -0.02804
                        -----------------------------------------
Magnitude (a.u.)       :      0.29260
Magnitude (Debye)      :      0.74373

Rotational constants in cm-1:     0.001155     0.001045     0.000935
Rotational constants in MHz :    34.613255    31.321433    28.035191

                             ****ORCA TERMINATED NORMALLY****
TOTAL RUN TIME: 0 days 5 hours 41 minutes 43 seconds 502 msec
