                         Program Version 5.0.3 -  RELEASE  -
|  1> !CASSCF def2-TZVP def2-TZVP/C
|  2> !MOREAD RIJCOSX
|  3> %maxcore 6000
|  4> %moinp "pbe.qro"
|  5> %pal nprocs 2 end
|  6>
|  7> %casscf
|  8>  mult 5,3
|  9>  bweight 1,1
| 10>  nroots 5,45
| 11>  nel 6
| 12>  norb 5
| 13> end
| 14>
| 15>
| 16> *xyzfile 0 5 pbe.xyz
| 17>
| 18>
| 19>                          ****END OF INPUT****

CARTESIAN COORDINATES (ANGSTROEM)
---------------------------------
  Au    10.011457    7.065733   10.487436
  Au     9.873189    4.281234   10.772495
  Au     7.428637    7.272020   11.469395
  Au     7.320504    4.488373   11.746587
  Au     5.385613    5.652747   10.146307
  Au     7.224322    9.112071    6.632718
  Au     8.161466    8.635301    9.202756
  Au     5.973222    7.137384    8.050946
  Au     8.810620    6.911329    6.973370
  Au    10.420799    5.252424    8.237934
  Cr     7.968217    5.680373    9.315708

 Total Charge           Charge          ....    0
 Multiplicity           Mult            ....    5
 Number of Electrons    NEL             ....  214
 Basis Dimension        Dim             ....  445

ORBITAL ENERGIES
----------------

  NO   OCC          E(Eh)            E(eV)
   0   2.0000    -220.494101     -5999.9495
   1   2.0000     -26.331904      -716.5275
   2   2.0000     -22.265531      -605.8759
   3   2.0000     -22.265394      -605.8722
   4   2.0000     -22.251727      -605.5003
   5   2.0000      -4.712185      -128.2251
   6   2.0000      -4.711913      -128.2177
   7   2.0000      -4.711301      -128.2010
   8   2.0000      -4.707354      -128.0936
   9   2.0000      -4.707247      -128.0907
  10   2.0000      -4.705488      -128.0428
  11   2.0000      -4.703909      -127.9999
  12   2.0000      -4.703718      -127.9947
  13   2.0000      -4.701440      -127.9327
  14   2.0000      -4.701159      -127.9250
  15   2.0000      -3.385561       -92.1258
  16   2.0000      -2.755264       -74.9745
  17   2.0000      -2.751349       -74.8680
  18   2.0000      -2.750406       -74.8424
  19   2.0000      -2.750309       -74.8397
  20   2.0000      -2.749683       -74.8227
  21   2.0000      -2.749184       -74.8091
  22   2.0000      -2.749067       -74.8059
  23   2.0000      -2.748201       -74.7824
  24   2.0000      -2.746000       -74.7225
  25   2.0000      -2.745660       -74.7132
  26   2.0000      -2.745262       -74.7024
  27   2.0000      -2.743904       -74.6654
  28   2.0000      -2.742572       -74.6292
  29   2.0000      -2.742327       -74.6225
  30   2.0000      -2.741979       -74.6130
  31   2.0000      -2.741435       -74.5982
  32   2.0000      -2.740808       -74.5812
  33   2.0000      -2.740259       -74.5662
  34   2.0000      -2.740006       -74.5593
  35   2.0000      -2.739270       -74.5393
  36   2.0000      -2.738991       -74.5317
  37   2.0000      -2.737837       -74.5003
  38   2.0000      -2.737576       -74.4932
  39   2.0000      -2.736574       -74.4660
  40   2.0000      -2.736387       -74.4609
  41   2.0000      -2.736049       -74.4517
  42   2.0000      -2.735711       -74.4425
  43   2.0000      -2.734268       -74.4032
  44   2.0000      -2.734136       -74.3996
  45   2.0000      -2.733029       -74.3695
  46   2.0000      -2.151484       -58.5449
  47   2.0000      -2.150079       -58.5066
  48   2.0000      -2.137531       -58.1652
  49   2.0000      -0.556997       -15.1567
  50   2.0000      -0.551228       -14.9997
  51   2.0000      -0.542734       -14.7685
  52   2.0000      -0.539889       -14.6911
  53   2.0000      -0.536698       -14.6043
  54   2.0000      -0.533680       -14.5222
  55   2.0000      -0.533591       -14.5198
  56   2.0000      -0.527060       -14.3420
  57   2.0000      -0.524200       -14.2642
  58   2.0000      -0.522195       -14.2097
  59   2.0000      -0.522109       -14.2073
  60   2.0000      -0.516960       -14.0672
  61   2.0000      -0.507582       -13.8120
  62   2.0000      -0.506924       -13.7941
  63   2.0000      -0.506097       -13.7716
  64   2.0000      -0.505975       -13.7683
  65   2.0000      -0.501672       -13.6512
  66   2.0000      -0.497561       -13.5393
  67   2.0000      -0.494172       -13.4471
  68   2.0000      -0.490553       -13.3486
  69   2.0000      -0.487123       -13.2553
  70   2.0000      -0.480545       -13.0763
  71   2.0000      -0.476464       -12.9652
  72   2.0000      -0.475547       -12.9403
  73   2.0000      -0.469003       -12.7622
  74   2.0000      -0.467055       -12.7092
  75   2.0000      -0.466097       -12.6831
  76   2.0000      -0.463873       -12.6226
  77   2.0000      -0.462225       -12.5778
  78   2.0000      -0.453527       -12.3411
  79   2.0000      -0.453088       -12.3292
  80   2.0000      -0.452926       -12.3247
  81   2.0000      -0.448213       -12.1965
  82   2.0000      -0.448111       -12.1937
  83   2.0000      -0.446278       -12.1438
  84   2.0000      -0.445676       -12.1275
  85   2.0000      -0.441079       -12.0024
  86   2.0000      -0.440689       -11.9918
  87   2.0000      -0.435218       -11.8429
  88   2.0000      -0.434272       -11.8171
  89   2.0000      -0.433200       -11.7880
  90   2.0000      -0.431702       -11.7472
  91   2.0000      -0.431317       -11.7367
  92   2.0000      -0.427944       -11.6449
  93   2.0000      -0.419866       -11.4251
  94   2.0000      -0.417516       -11.3612
  95   2.0000      -0.417400       -11.3580
  96   2.0000      -0.413723       -11.2580
  97   2.0000      -0.400979       -10.9112
  98   2.0000      -0.399603       -10.8737
  99   2.0000      -0.386359       -10.5134
 100   2.0000      -0.349208        -9.5024
 101   2.0000      -0.320020        -8.7082
 102   2.0000      -0.271148        -7.3783
 103   2.0000      -0.237879        -6.4730
 104   1.2000      -0.067739        -1.8433
 105   1.2000      -0.089720        -2.4414
 106   1.2000      -0.103520        -2.8169
 107   1.2000      -0.146666        -3.9910
 108   1.2000      -0.083217        -2.2644
 109   0.0000      -0.011963        -0.3255
 110   0.0000       0.000064         0.0017
 111   0.0000       0.002972         0.0809
 112   0.0000       0.018022         0.4904
 113   0.0000       0.030880         0.8403

MULLIKEN ATOMIC CHARGES AND SPIN DENSITIES
------------------------------------------
   0 Au:    0.180591    0.031044
   1 Au:    0.309805    0.059729
   2 Au:    0.178883    0.030924
   3 Au:    0.311239    0.059036
   4 Au:    0.454170    0.045577
   5 Au:    0.368681    0.006476
   6 Au:   -0.100371    0.011108
   7 Au:    0.042024    0.066100
   8 Au:    0.042609    0.067203
   9 Au:    0.455234    0.046233
  10 Cr:   -2.242866    2.576571
Sum of atomic charges       :    0.0000000

LOEWDIN ATOMIC CHARGES AND SPIN DENSITIES
-----------------------------------------
   0 Au:    0.065173    0.041551
   1 Au:    0.092905    0.070939
   2 Au:    0.064631    0.041315
   3 Au:    0.093210    0.070273
   4 Au:    0.120805    0.074289
   5 Au:    0.177863    0.024605
   6 Au:   -0.022612    0.024709
   7 Au:   -0.001600    0.072288
   8 Au:   -0.000971    0.072979
   9 Au:    0.121357    0.075412
  10 Cr:   -0.710761    2.431641

  Mayer bond orders larger than 0.100000
B(  0-Au,  1-Au) :   0.1583 B(  0-Au,  2-Au) :   0.3096 B(  0-Au,  6-Au) :   0.3882
B(  0-Au,  9-Au) :   0.1049 B(  0-Au, 10-Cr) :   0.3075 B(  1-Au,  3-Au) :   0.2617
B(  1-Au,  9-Au) :   0.1543 B(  1-Au, 10-Cr) :   0.4092 B(  2-Au,  3-Au) :   0.1596
B(  2-Au,  4-Au) :   0.1042 B(  2-Au,  6-Au) :   0.3886 B(  2-Au, 10-Cr) :   0.3077
B(  3-Au,  4-Au) :   0.1546 B(  3-Au, 10-Cr) :   0.4086 B(  4-Au,  7-Au) :   0.3600
B(  4-Au, 10-Cr) :   0.3584 B(  5-Au,  6-Au) :   0.3077 B(  5-Au,  7-Au) :   0.3160
B(  5-Au,  8-Au) :   0.3158 B(  5-Au, 10-Cr) :   0.1065 B(  6-Au,  7-Au) :   0.2012
B(  6-Au,  8-Au) :   0.2010 B(  6-Au, 10-Cr) :   0.1854 B(  7-Au,  8-Au) :   0.1649
B(  7-Au, 10-Cr) :   0.4925 B(  8-Au,  9-Au) :   0.3586 B(  8-Au, 10-Cr) :   0.4904
B(  9-Au, 10-Cr) :   0.3584

FINAL SINGLE POINT ENERGY     -2391.253073102047

DIPOLE MOMENT
-------------
                                X             Y             Z
Electronic contribution:      3.33387      31.83086       2.12037
Nuclear contribution   :     -3.24234     -31.47360      -1.96730
                        -----------------------------------------
Total Dipole Moment    :      0.09153       0.35727       0.15306
                        -----------------------------------------
Magnitude (a.u.)       :      0.39931
Magnitude (Debye)      :      1.01496

Rotational constants in cm-1:     0.002237     0.001584     0.001234
Rotational constants in MHz :    67.059353    47.501317    36.993885

                             ****ORCA TERMINATED NORMALLY****
TOTAL RUN TIME: 0 days 0 hours 48 minutes 11 seconds 165 msec
