                         Program Version 5.0.3 -  RELEASE  -
|  1> %pal nprocs 1 end
|  2>
|  3> !PBE def2-TZVP OPT UNO
|  4> !SLOWCONV KDIIS
|  5>
|  6> %geom maxiter 300 end
|  7>
|  8> *xyzfile 0 6 4.xyz                           ****END OF INPUT****
 Total Charge           Charge          ....    0
 Multiplicity           Mult            ....    6
 Number of Electrons    NEL             ....  215
FINAL SINGLE POINT ENERGY     -2509.027752682881
FINAL SINGLE POINT ENERGY     -2509.031356345807
FINAL SINGLE POINT ENERGY     -2509.033091966353
FINAL SINGLE POINT ENERGY     -2509.034661012781
FINAL SINGLE POINT ENERGY     -2509.036281527929
FINAL SINGLE POINT ENERGY     -2509.038302561570
FINAL SINGLE POINT ENERGY     -2509.040109845176
FINAL SINGLE POINT ENERGY     -2509.041479680563
FINAL SINGLE POINT ENERGY     -2509.042669490777
FINAL SINGLE POINT ENERGY     -2509.043612897553
FINAL SINGLE POINT ENERGY     -2509.045294389419
FINAL SINGLE POINT ENERGY     -2509.045301451525
FINAL SINGLE POINT ENERGY     -2509.045307433805
FINAL SINGLE POINT ENERGY     -2509.045312882524
FINAL SINGLE POINT ENERGY     -2509.045317844773
FINAL SINGLE POINT ENERGY     -2509.045322316755
FINAL SINGLE POINT ENERGY     -2509.045325872260
FINAL SINGLE POINT ENERGY     -2509.045328395571
FINAL SINGLE POINT ENERGY     -2509.045329543716
                    ***********************HURRAY********************

CARTESIAN COORDINATES (ANGSTROEM)
---------------------------------
  Au     5.375438    3.938820    6.302104
  Au     8.228185    6.936406    7.533212
  Au     4.631038    5.177032    4.028374
  Au     6.804650    6.238355    5.444410
  Au     3.957912    6.635825    6.254948
  Au     6.330075    3.484324    8.709481
  Au     4.285340    8.167737    8.344516
  Au     7.868609    5.491503    9.967090
  Au     6.678195    7.847077    9.915840
  Au     5.005860    9.828676   10.331861
  Mn     5.836267    6.003457    8.055276

 Multiplicity           Mult            ....    6
 Number of Electrons    NEL             ....  215
 Basis Dimension        Dim             ....  445

ORBITAL ENERGIES
----------------
                 SPIN UP ORBITALS
  NO   OCC          E(Eh)            E(eV)
   0   1.0000    -234.201880     -6372.9572
   1   1.0000     -26.899675      -731.9774
   2   1.0000     -23.048839      -627.1908
   3   1.0000     -23.047856      -627.1640
   4   1.0000     -23.046573      -627.1291
   5   1.0000      -4.029087      -109.6370
   6   1.0000      -4.028979      -109.6341
   7   1.0000      -4.024430      -109.5103
   8   1.0000      -4.022355      -109.4538
   9   1.0000      -4.022296      -109.4522
  10   1.0000      -4.022010      -109.4444
  11   1.0000      -4.021101      -109.4197
  12   1.0000      -4.020763      -109.4105
  13   1.0000      -4.020613      -109.4065
  14   1.0000      -4.006590      -109.0249
  15   1.0000      -3.111627       -84.6717
  16   1.0000      -2.249977       -61.2250
  17   1.0000      -2.248908       -61.1959
  18   1.0000      -2.243767       -61.0560
  19   1.0000      -2.243120       -61.0384
  20   1.0000      -2.241701       -60.9998
  21   1.0000      -2.241267       -60.9880
  22   1.0000      -2.241151       -60.9848
  23   1.0000      -2.240010       -60.9538
  24   1.0000      -2.238795       -60.9207
  25   1.0000      -2.237752       -60.8923
  26   1.0000      -2.237365       -60.8818
  27   1.0000      -2.237058       -60.8734
  28   1.0000      -2.236204       -60.8502
  29   1.0000      -2.235852       -60.8406
  30   1.0000      -2.235165       -60.8219
  31   1.0000      -2.235068       -60.8193
  32   1.0000      -2.234530       -60.8047
  33   1.0000      -2.234255       -60.7972
  34   1.0000      -2.234162       -60.7946
  35   1.0000      -2.232565       -60.7512
  36   1.0000      -2.232480       -60.7489
  37   1.0000      -2.231812       -60.7307
  38   1.0000      -2.228322       -60.6357
  39   1.0000      -2.228265       -60.6342
  40   1.0000      -2.227983       -60.6265
  41   1.0000      -2.227349       -60.6093
  42   1.0000      -2.225872       -60.5691
  43   1.0000      -2.224824       -60.5405
  44   1.0000      -2.220024       -60.4099
  45   1.0000      -2.212240       -60.1981
  46   1.0000      -2.016212       -54.8639
  47   1.0000      -2.014135       -54.8074
  48   1.0000      -2.011853       -54.7453
  49   1.0000      -0.408407       -11.1133
  50   1.0000      -0.387499       -10.5444
  51   1.0000      -0.376389       -10.2421
  52   1.0000      -0.372258       -10.1297
  53   1.0000      -0.367011        -9.9869
  54   1.0000      -0.359430        -9.7806
  55   1.0000      -0.354229        -9.6391
  56   1.0000      -0.345350        -9.3975
  57   1.0000      -0.341396        -9.2899
  58   1.0000      -0.337876        -9.1941
  59   1.0000      -0.335071        -9.1177
  60   1.0000      -0.332609        -9.0507
  61   1.0000      -0.330783        -9.0011
  62   1.0000      -0.327633        -8.9153
  63   1.0000      -0.324829        -8.8391
  64   1.0000      -0.321791        -8.7564
  65   1.0000      -0.318788        -8.6747
  66   1.0000      -0.316228        -8.6050
  67   1.0000      -0.312712        -8.5093
  68   1.0000      -0.310511        -8.4494
  69   1.0000      -0.307771        -8.3749
  70   1.0000      -0.301182        -8.1956
  71   1.0000      -0.299579        -8.1520
  72   1.0000      -0.296617        -8.0714
  73   1.0000      -0.295443        -8.0394
  74   1.0000      -0.292352        -7.9553
  75   1.0000      -0.290755        -7.9119
  76   1.0000      -0.288897        -7.8613
  77   1.0000      -0.283759        -7.7215
  78   1.0000      -0.281575        -7.6621
  79   1.0000      -0.279480        -7.6050
  80   1.0000      -0.277299        -7.5457
  81   1.0000      -0.274489        -7.4692
  82   1.0000      -0.273257        -7.4357
  83   1.0000      -0.272430        -7.4132
  84   1.0000      -0.271754        -7.3948
  85   1.0000      -0.270819        -7.3694
  86   1.0000      -0.269177        -7.3247
  87   1.0000      -0.266628        -7.2553
  88   1.0000      -0.264903        -7.2084
  89   1.0000      -0.262391        -7.1400
  90   1.0000      -0.260892        -7.0992
  91   1.0000      -0.260549        -7.0899
  92   1.0000      -0.258481        -7.0336
  93   1.0000      -0.257699        -7.0124
  94   1.0000      -0.257018        -6.9938
  95   1.0000      -0.254027        -6.9124
  96   1.0000      -0.252697        -6.8762
  97   1.0000      -0.251562        -6.8454
  98   1.0000      -0.248596        -6.7646
  99   1.0000      -0.247123        -6.7246
 100   1.0000      -0.245284        -6.6745
 101   1.0000      -0.243338        -6.6216
 102   1.0000      -0.242071        -6.5871
 103   1.0000      -0.241407        -6.5690
 104   1.0000      -0.238849        -6.4994
 105   1.0000      -0.236185        -6.4269
 106   1.0000      -0.232079        -6.3152
 107   1.0000      -0.220120        -5.9898
 108   1.0000      -0.211669        -5.7598
 109   1.0000      -0.200124        -5.4456
 110   0.0000      -0.162908        -4.4329
 111   0.0000      -0.139646        -3.7999
 112   0.0000      -0.128999        -3.5102
 113   0.0000      -0.123539        -3.3617
 114   0.0000      -0.106278        -2.8920

                 SPIN DOWN ORBITALS
  NO   OCC          E(Eh)            E(eV)
   0   1.0000    -234.201087     -6372.9356
   1   1.0000     -26.831192      -730.1138
   2   1.0000     -22.996228      -625.7592
   3   1.0000     -22.995978      -625.7524
   4   1.0000     -22.994978      -625.7252
   5   1.0000      -4.027811      -109.6023
   6   1.0000      -4.027692      -109.5991
   7   1.0000      -4.023574      -109.4870
   8   1.0000      -4.021752      -109.4374
   9   1.0000      -4.020815      -109.4119
  10   1.0000      -4.020765      -109.4106
  11   1.0000      -4.019646      -109.3801
  12   1.0000      -4.019272      -109.3699
  13   1.0000      -4.019263      -109.3697
  14   1.0000      -4.006450      -109.0211
  15   1.0000      -2.943125       -80.0865
  16   1.0000      -2.248542       -61.1859
  17   1.0000      -2.247554       -61.1590
  18   1.0000      -2.242213       -61.0137
  19   1.0000      -2.241336       -60.9899
  20   1.0000      -2.240423       -60.9650
  21   1.0000      -2.239783       -60.9476
  22   1.0000      -2.239668       -60.9445
  23   1.0000      -2.238450       -60.9113
  24   1.0000      -2.237502       -60.8855
  25   1.0000      -2.236376       -60.8549
  26   1.0000      -2.235603       -60.8339
  27   1.0000      -2.235245       -60.8241
  28   1.0000      -2.234865       -60.8138
  29   1.0000      -2.234055       -60.7917
  30   1.0000      -2.233884       -60.7871
  31   1.0000      -2.233639       -60.7804
  32   1.0000      -2.233018       -60.7635
  33   1.0000      -2.232815       -60.7580
  34   1.0000      -2.232636       -60.7531
  35   1.0000      -2.232059       -60.7374
  36   1.0000      -2.231739       -60.7287
  37   1.0000      -2.231331       -60.7176
  38   1.0000      -2.227234       -60.6061
  39   1.0000      -2.227009       -60.6000
  40   1.0000      -2.226717       -60.5921
  41   1.0000      -2.226282       -60.5802
  42   1.0000      -2.225654       -60.5631
  43   1.0000      -2.223651       -60.5086
  44   1.0000      -2.219907       -60.4067
  45   1.0000      -2.212051       -60.1930
  46   1.0000      -1.849703       -50.3330
  47   1.0000      -1.848882       -50.3106
  48   1.0000      -1.847177       -50.2642
  49   1.0000      -0.402455       -10.9514
  50   1.0000      -0.385127       -10.4798
  51   1.0000      -0.372770       -10.1436
  52   1.0000      -0.365336        -9.9413
  53   1.0000      -0.362285        -9.8583
  54   1.0000      -0.353598        -9.6219
  55   1.0000      -0.346929        -9.4404
  56   1.0000      -0.337152        -9.1744
  57   1.0000      -0.336262        -9.1502
  58   1.0000      -0.333506        -9.0752
  59   1.0000      -0.329300        -8.9607
  60   1.0000      -0.328223        -8.9314
  61   1.0000      -0.324617        -8.8333
  62   1.0000      -0.317197        -8.6314
  63   1.0000      -0.315671        -8.5898
  64   1.0000      -0.313853        -8.5404
  65   1.0000      -0.312482        -8.5031
  66   1.0000      -0.310180        -8.4404
  67   1.0000      -0.307393        -8.3646
  68   1.0000      -0.305877        -8.3233
  69   1.0000      -0.304633        -8.2895
  70   1.0000      -0.296688        -8.0733
  71   1.0000      -0.295213        -8.0331
  72   1.0000      -0.292018        -7.9462
  73   1.0000      -0.291567        -7.9339
  74   1.0000      -0.290329        -7.9003
  75   1.0000      -0.288346        -7.8463
  76   1.0000      -0.286252        -7.7893
  77   1.0000      -0.281721        -7.6660
  78   1.0000      -0.277888        -7.5617
  79   1.0000      -0.275973        -7.5096
  80   1.0000      -0.274412        -7.4671
  81   1.0000      -0.272064        -7.4032
  82   1.0000      -0.270436        -7.3589
  83   1.0000      -0.269949        -7.3457
  84   1.0000      -0.269415        -7.3311
  85   1.0000      -0.268291        -7.3006
  86   1.0000      -0.266882        -7.2622
  87   1.0000      -0.264157        -7.1881
  88   1.0000      -0.261505        -7.1159
  89   1.0000      -0.259694        -7.0666
  90   1.0000      -0.258889        -7.0447
  91   1.0000      -0.256560        -6.9814
  92   1.0000      -0.255351        -6.9484
  93   1.0000      -0.254587        -6.9277
  94   1.0000      -0.252874        -6.8811
  95   1.0000      -0.251336        -6.8392
  96   1.0000      -0.249604        -6.7921
  97   1.0000      -0.245137        -6.6705
  98   1.0000      -0.241530        -6.5724
  99   1.0000      -0.239772        -6.5245
 100   1.0000      -0.237594        -6.4653
 101   1.0000      -0.231957        -6.3119
 102   1.0000      -0.227143        -6.1809
 103   1.0000      -0.217801        -5.9267
 104   1.0000      -0.208453        -5.6723
 105   0.0000      -0.170999        -4.6531
 106   0.0000      -0.147827        -4.0226
 107   0.0000      -0.138954        -3.7811
 108   0.0000      -0.136973        -3.7272
 109   0.0000      -0.127112        -3.4589

MULLIKEN ATOMIC CHARGES AND SPIN POPULATIONS
--------------------------------------------
   0 Au:    0.043442    0.030384
   1 Au:    0.150302    0.079936
   2 Au:    0.359469    0.075476
   3 Au:    0.001497    0.039251
   4 Au:    0.097382    0.062895
   5 Au:    0.168104    0.076125
   6 Au:   -0.147813    0.036231
   7 Au:    0.224759    0.059824
   8 Au:   -0.097657    0.020051
   9 Au:    0.312631    0.060224
  10 Mn:   -1.112116    4.459603
Sum of atomic charges         :   -0.0000000

LOEWDIN ATOMIC CHARGES AND SPIN POPULATIONS
-------------------------------------------
   0 Au:   -0.032136    0.060389
   1 Au:    0.066904    0.078096
   2 Au:    0.093337    0.055883
   3 Au:   -0.025131    0.057782
   4 Au:   -0.008939    0.071473
   5 Au:    0.101048    0.073022
   6 Au:   -0.010771    0.062055
   7 Au:    0.052959    0.052694
   8 Au:   -0.083496    0.060270
   9 Au:    0.084819    0.045149
  10 Mn:   -0.238594    4.383188

  Mayer bond orders larger than 0.100000
B(  0-Au,  2-Au) :   0.4249 B(  0-Au,  3-Au) :   0.2799 B(  0-Au,  4-Au) :   0.1160
B(  0-Au,  5-Au) :   0.5246 B(  0-Au, 10-Mn) :   0.4311 B(  1-Au,  3-Au) :   0.5762
B(  1-Au,  7-Au) :   0.1619 B(  1-Au,  8-Au) :   0.1210 B(  1-Au, 10-Mn) :   0.5791
B(  2-Au,  3-Au) :   0.3233 B(  2-Au,  4-Au) :   0.3099 B(  3-Au,  4-Au) :   0.1345
B(  3-Au, 10-Mn) :   0.4373 B(  4-Au,  6-Au) :   0.5576 B(  4-Au, 10-Mn) :   0.5527
B(  5-Au,  7-Au) :   0.1630 B(  5-Au, 10-Mn) :   0.5966 B(  6-Au,  8-Au) :   0.2658
B(  6-Au,  9-Au) :   0.4551 B(  6-Au, 10-Mn) :   0.6276 B(  7-Au,  8-Au) :   0.5062
B(  7-Au, 10-Mn) :   0.4463 B(  8-Au,  9-Au) :   0.5855 B(  8-Au, 10-Mn) :   0.3577

FINAL SINGLE POINT ENERGY     -2509.045329889092

DIPOLE MOMENT
-------------
                                X             Y             Z
Electronic contribution:      3.03170      13.20863     -13.46691
Nuclear contribution   :     -2.90696     -13.44115      13.47643
                        -----------------------------------------
Total Dipole Moment    :      0.12473      -0.23252       0.00952
                        -----------------------------------------
Magnitude (a.u.)       :      0.26403
Magnitude (Debye)      :      0.67112

Rotational constants in cm-1:     0.002112     0.001296     0.001018
Rotational constants in MHz :    63.302758    38.851175    30.531471

                             ****ORCA TERMINATED NORMALLY****
TOTAL RUN TIME: 0 days 4 hours 25 minutes 6 seconds 925 msec
