                         Program Version 5.0.3 -  RELEASE  -
|  1> !RI-B2PLYP def2-TZVP def2-TZVP/C
|  2> !RIJCOSX VERYSLOWCONV
|  3>
|  4> %scf
|  5>   AutoTRAHIter 200
|  6>   maxiter 400
|  7> end
|  8>
|  9>
| 10> %pal nprocs 6 end
| 11>
| 12> *xyzfile 0 5 pbe.xyz
| 13>
| 14> $new_job
| 15>
| 16> !RI-B2PLYP def2-TZVP def2-TZVP/C
| 17> !RIJCOSX VERYSLOWCONV
| 18>
| 19> %scf
| 20>   AutoTRAHIter 200
| 21>   maxiter 400
| 22> end
| 23>
| 24>
| 25> %pal nprocs 6 end
| 26>
| 27> *xyzfile 0 3 pbe.xyz
| 28>
| 29>
| 30>
| 31>
| 32>
| 33>                          ****END OF INPUT****
 Total Charge           Charge          ....    0
 Multiplicity           Mult            ....    5
 Number of Electrons    NEL             ....  254
MP2 TOTAL ENERGY:    -2890.544283896 Eh
FINAL SINGLE POINT ENERGY     -2890.544283895877

CARTESIAN COORDINATES (ANGSTROEM)
---------------------------------
  Au     7.547249    7.336289    3.852044
  Au     4.831003    7.641231    4.334740
  Au     4.836273    5.755754    6.370296
  Au     7.558319    5.478969    5.912984
  Au     9.287035    7.709757    5.978770
  Au     6.593218    6.140445    8.481452
  Au     6.561848    9.868892    4.400605
  Au     8.324029    8.368095    8.547542
  Au     5.596777   10.530026    6.969272
  Au     3.868363    8.299372    6.903423
  Au     5.607696    8.673088    9.029924
  Au     8.318790   10.253743    6.511569
  Fe     6.577554    8.004658    6.441081

 Multiplicity           Mult            ....    3
 Number of Electrons    NEL             ....  254
 Basis Dimension        Dim             ....  525

ORBITAL ENERGIES
----------------
                 SPIN UP ORBITALS
  NO   OCC          E(Eh)            E(eV)
   0   1.0000    -258.339557     -7029.7767
   1   1.0000     -30.897797      -840.7718
   2   1.0000     -26.615044      -724.2322
   3   1.0000     -26.586825      -723.4643
   4   1.0000     -26.586715      -723.4613
   5   1.0000      -4.400685      -119.7487
   6   1.0000      -4.400682      -119.7486
   7   1.0000      -4.400658      -119.7480
   8   1.0000      -4.400646      -119.7477
   9   1.0000      -4.393241      -119.5462
  10   1.0000      -4.393233      -119.5460
  11   1.0000      -4.393183      -119.5446
  12   1.0000      -4.393156      -119.5438
  13   1.0000      -4.391952      -119.5111
  14   1.0000      -4.391931      -119.5105
  15   1.0000      -4.390642      -119.4754
  16   1.0000      -4.390626      -119.4750
  17   1.0000      -3.908331      -106.3511
  18   1.0000      -2.655780       -72.2675
  19   1.0000      -2.597947       -70.6937
  20   1.0000      -2.597565       -70.6833
  21   1.0000      -2.521645       -68.6175
  22   1.0000      -2.521548       -68.6148
  23   1.0000      -2.521537       -68.6145
  24   1.0000      -2.521507       -68.6137
  25   1.0000      -2.519957       -68.5715
  26   1.0000      -2.519642       -68.5629
  27   1.0000      -2.519590       -68.5615
  28   1.0000      -2.519471       -68.5583
  29   1.0000      -2.517087       -68.4934
  30   1.0000      -2.517050       -68.4924
  31   1.0000      -2.516936       -68.4893
  32   1.0000      -2.516750       -68.4843
  33   1.0000      -2.512867       -68.3786
  34   1.0000      -2.512795       -68.3766
  35   1.0000      -2.512455       -68.3674
  36   1.0000      -2.512268       -68.3623
  37   1.0000      -2.511871       -68.3515
  38   1.0000      -2.511837       -68.3506
  39   1.0000      -2.511676       -68.3462
  40   1.0000      -2.511016       -68.3282
  41   1.0000      -2.509823       -68.2958
  42   1.0000      -2.509538       -68.2880
  43   1.0000      -2.509070       -68.2753
  44   1.0000      -2.508819       -68.2684
  45   1.0000      -2.508547       -68.2610
  46   1.0000      -2.508412       -68.2574
  47   1.0000      -2.507725       -68.2387
  48   1.0000      -2.507455       -68.2313
  49   1.0000      -2.506606       -68.2082
  50   1.0000      -2.506276       -68.1992
  51   1.0000      -2.505996       -68.1916
  52   1.0000      -2.505807       -68.1865
  53   1.0000      -2.505614       -68.1812
  54   1.0000      -2.505321       -68.1733
  55   1.0000      -2.504946       -68.1630
  56   1.0000      -2.504774       -68.1584
  57   1.0000      -0.553377       -15.0582
  58   1.0000      -0.551780       -15.0147
  59   1.0000      -0.550419       -14.9777
  60   1.0000      -0.534676       -14.5493
  61   1.0000      -0.509784       -13.8719
  62   1.0000      -0.498459       -13.5638
  63   1.0000      -0.464682       -12.6447
  64   1.0000      -0.459864       -12.5135
  65   1.0000      -0.457527       -12.4500
  66   1.0000      -0.455699       -12.4002
  67   1.0000      -0.453067       -12.3286
  68   1.0000      -0.446082       -12.1385
  69   1.0000      -0.445778       -12.1302
  70   1.0000      -0.445701       -12.1281
  71   1.0000      -0.443384       -12.0651
  72   1.0000      -0.442836       -12.0502
  73   1.0000      -0.441077       -12.0023
  74   1.0000      -0.439364       -11.9557
  75   1.0000      -0.436788       -11.8856
  76   1.0000      -0.436152       -11.8683
  77   1.0000      -0.431251       -11.7349
  78   1.0000      -0.427504       -11.6330
  79   1.0000      -0.426845       -11.6150
  80   1.0000      -0.422721       -11.5028
  81   1.0000      -0.421890       -11.4802
  82   1.0000      -0.421823       -11.4784
  83   1.0000      -0.418957       -11.4004
  84   1.0000      -0.418876       -11.3982
  85   1.0000      -0.417749       -11.3675
  86   1.0000      -0.415545       -11.3075
  87   1.0000      -0.414066       -11.2673
  88   1.0000      -0.413511       -11.2522
  89   1.0000      -0.408653       -11.1200
  90   1.0000      -0.406050       -11.0492
  91   1.0000      -0.397396       -10.8137
  92   1.0000      -0.396623       -10.7927
  93   1.0000      -0.390386       -10.6229
  94   1.0000      -0.379349       -10.3226
  95   1.0000      -0.379230       -10.3194
  96   1.0000      -0.376418       -10.2428
  97   1.0000      -0.375235       -10.2107
  98   1.0000      -0.371336       -10.1046
  99   1.0000      -0.370724       -10.0879
 100   1.0000      -0.369975       -10.0675
 101   1.0000      -0.369518       -10.0551
 102   1.0000      -0.368660       -10.0318
 103   1.0000      -0.366911        -9.9842
 104   1.0000      -0.363953        -9.9037
 105   1.0000      -0.358231        -9.7480
 106   1.0000      -0.357399        -9.7253
 107   1.0000      -0.354558        -9.6480
 108   1.0000      -0.351893        -9.5755
 109   1.0000      -0.350471        -9.5368
 110   1.0000      -0.349417        -9.5081
 111   1.0000      -0.345055        -9.3894
 112   1.0000      -0.342843        -9.3292
 113   1.0000      -0.342501        -9.3199
 114   1.0000      -0.342163        -9.3107
 115   1.0000      -0.342030        -9.3071
 116   1.0000      -0.341770        -9.3000
 117   1.0000      -0.340656        -9.2697
 118   1.0000      -0.340142        -9.2557
 119   1.0000      -0.337769        -9.1912
 120   1.0000      -0.334716        -9.1081
 121   1.0000      -0.332861        -9.0576
 122   1.0000      -0.305449        -8.3117
 123   1.0000      -0.302957        -8.2439
 124   1.0000      -0.296874        -8.0783
 125   1.0000      -0.288440        -7.8489
 126   1.0000      -0.213549        -5.8110
 127   1.0000      -0.210099        -5.7171
 128   0.0000      -0.135756        -3.6941
 129   0.0000      -0.104797        -2.8517
 130   0.0000      -0.095720        -2.6047
 131   0.0000      -0.068770        -1.8713
 132   0.0000      -0.031927        -0.8688

                 SPIN DOWN ORBITALS
  NO   OCC          E(Eh)            E(eV)
   0   1.0000    -258.337576     -7029.7228
   1   1.0000     -30.805148      -838.2507
   2   1.0000     -26.516990      -721.5640
   3   1.0000     -26.509292      -721.3545
   4   1.0000     -26.508439      -721.3313
   5   1.0000      -4.401392      -119.7680
   6   1.0000      -4.401389      -119.7679
   7   1.0000      -4.401367      -119.7673
   8   1.0000      -4.401356      -119.7670
   9   1.0000      -4.393265      -119.5468
  10   1.0000      -4.393253      -119.5465
  11   1.0000      -4.393188      -119.5447
  12   1.0000      -4.393164      -119.5441
  13   1.0000      -4.392923      -119.5375
  14   1.0000      -4.392903      -119.5370
  15   1.0000      -4.391653      -119.5030
  16   1.0000      -4.391638      -119.5025
  17   1.0000      -3.665135       -99.7334
  18   1.0000      -2.521194       -68.6052
  19   1.0000      -2.521182       -68.6048
  20   1.0000      -2.521147       -68.6039
  21   1.0000      -2.521127       -68.6033
  22   1.0000      -2.520103       -68.5755
  23   1.0000      -2.519684       -68.5641
  24   1.0000      -2.519639       -68.5629
  25   1.0000      -2.519518       -68.5596
  26   1.0000      -2.517322       -68.4998
  27   1.0000      -2.517295       -68.4991
  28   1.0000      -2.517221       -68.4971
  29   1.0000      -2.517032       -68.4919
  30   1.0000      -2.512497       -68.3685
  31   1.0000      -2.512269       -68.3623
  32   1.0000      -2.512202       -68.3605
  33   1.0000      -2.512075       -68.3570
  34   1.0000      -2.511900       -68.3523
  35   1.0000      -2.511721       -68.3474
  36   1.0000      -2.511684       -68.3464
  37   1.0000      -2.511437       -68.3397
  38   1.0000      -2.510096       -68.3032
  39   1.0000      -2.510062       -68.3022
  40   1.0000      -2.509886       -68.2975
  41   1.0000      -2.509565       -68.2887
  42   1.0000      -2.509193       -68.2786
  43   1.0000      -2.508981       -68.2728
  44   1.0000      -2.508459       -68.2586
  45   1.0000      -2.508228       -68.2523
  46   1.0000      -2.507602       -68.2353
  47   1.0000      -2.507268       -68.2262
  48   1.0000      -2.506440       -68.2037
  49   1.0000      -2.506290       -68.1996
  50   1.0000      -2.506253       -68.1986
  51   1.0000      -2.506030       -68.1925
  52   1.0000      -2.505302       -68.1727
  53   1.0000      -2.505184       -68.1695
  54   1.0000      -2.344532       -63.7980
  55   1.0000      -2.342588       -63.7451
  56   1.0000      -2.331618       -63.4465
  57   1.0000      -0.509526       -13.8649
  58   1.0000      -0.466361       -12.6903
  59   1.0000      -0.464946       -12.6518
  60   1.0000      -0.460929       -12.5425
  61   1.0000      -0.460738       -12.5373
  62   1.0000      -0.459924       -12.5152
  63   1.0000      -0.459297       -12.4981
  64   1.0000      -0.458494       -12.4763
  65   1.0000      -0.458200       -12.4682
  66   1.0000      -0.457360       -12.4454
  67   1.0000      -0.448272       -12.1981
  68   1.0000      -0.448098       -12.1934
  69   1.0000      -0.446913       -12.1611
  70   1.0000      -0.443697       -12.0736
  71   1.0000      -0.442503       -12.0411
  72   1.0000      -0.440707       -11.9923
  73   1.0000      -0.440409       -11.9841
  74   1.0000      -0.433622       -11.7995
  75   1.0000      -0.429084       -11.6760
  76   1.0000      -0.428783       -11.6678
  77   1.0000      -0.426064       -11.5938
  78   1.0000      -0.424317       -11.5462
  79   1.0000      -0.420655       -11.4466
  80   1.0000      -0.420406       -11.4398
  81   1.0000      -0.417605       -11.3636
  82   1.0000      -0.416559       -11.3352
  83   1.0000      -0.414106       -11.2684
  84   1.0000      -0.411975       -11.2104
  85   1.0000      -0.407301       -11.0832
  86   1.0000      -0.400563       -10.8999
  87   1.0000      -0.397660       -10.8209
  88   1.0000      -0.395909       -10.7732
  89   1.0000      -0.395489       -10.7618
  90   1.0000      -0.388031       -10.5589
  91   1.0000      -0.387961       -10.5570
  92   1.0000      -0.387602       -10.5472
  93   1.0000      -0.382464       -10.4074
  94   1.0000      -0.374742       -10.1973
  95   1.0000      -0.374080       -10.1792
  96   1.0000      -0.372137       -10.1264
  97   1.0000      -0.370258       -10.0752
  98   1.0000      -0.368399       -10.0246
  99   1.0000      -0.365291        -9.9401
 100   1.0000      -0.362726        -9.8703
 101   1.0000      -0.359477        -9.7819
 102   1.0000      -0.358122        -9.7450
 103   1.0000      -0.354169        -9.6374
 104   1.0000      -0.353061        -9.6073
 105   1.0000      -0.352441        -9.5904
 106   1.0000      -0.345820        -9.4102
 107   1.0000      -0.345602        -9.4043
 108   1.0000      -0.344469        -9.3735
 109   1.0000      -0.344404        -9.3717
 110   1.0000      -0.343741        -9.3537
 111   1.0000      -0.343374        -9.3437
 112   1.0000      -0.343366        -9.3435
 113   1.0000      -0.341037        -9.2801
 114   1.0000      -0.339509        -9.2385
 115   1.0000      -0.338505        -9.2112
 116   1.0000      -0.333714        -9.0808
 117   1.0000      -0.322662        -8.7801
 118   1.0000      -0.310636        -8.4528
 119   1.0000      -0.309691        -8.4271
 120   1.0000      -0.309141        -8.4122
 121   1.0000      -0.303550        -8.2600
 122   1.0000      -0.233062        -6.3419
 123   1.0000      -0.231505        -6.2996
 124   1.0000      -0.227208        -6.1826
 125   1.0000      -0.188014        -5.1161
 126   0.0000      -0.107525        -2.9259
 127   0.0000      -0.068064        -1.8521
 128   0.0000      -0.043145        -1.1740
 129   0.0000      -0.037842        -1.0297
 130   0.0000      -0.033827        -0.9205

MULLIKEN ATOMIC CHARGES AND SPIN POPULATIONS
--------------------------------------------
   0 Au:    0.075869   -0.103617
   1 Au:    0.288027   -0.244757
   2 Au:    0.093129   -0.096572
   3 Au:    0.288264   -0.245206
   4 Au:    0.156488    0.009718
   5 Au:    0.155960    0.009758
   6 Au:    0.156007    0.009729
   7 Au:    0.288068   -0.244830
   8 Au:    0.288239   -0.245093
   9 Au:    0.156477    0.009717
  10 Au:    0.075889   -0.103648
  11 Au:    0.093152   -0.096572
  12 Fe:   -2.115570    3.341373
Sum of atomic charges         :   -0.0000000

LOEWDIN ATOMIC CHARGES AND SPIN POPULATIONS
-------------------------------------------
   0 Au:    0.033287   -0.111150
   1 Au:    0.057087   -0.173034
   2 Au:    0.023683   -0.085968
   3 Au:    0.056986   -0.173201
   4 Au:    0.023819   -0.082711
   5 Au:    0.024162   -0.083580
   6 Au:    0.024150   -0.083557
   7 Au:    0.057118   -0.173086
   8 Au:    0.056963   -0.173136
   9 Au:    0.023802   -0.082703
  10 Au:    0.033309   -0.111169
  11 Au:    0.023682   -0.085955
  12 Fe:   -0.438048    3.419250

  Mayer bond orders larger than 0.100000
B(  0-Au,  1-Au) :   0.1853 B(  0-Au,  3-Au) :   0.1871 B(  0-Au,  4-Au) :   0.1936
B(  0-Au,  6-Au) :   0.1931 B(  0-Au, 12-Fe) :   0.4492 B(  1-Au,  2-Au) :   0.1904
B(  1-Au,  6-Au) :   0.2101 B(  1-Au,  9-Au) :   0.2449 B(  1-Au, 12-Fe) :   0.3932
B(  2-Au,  3-Au) :   0.1891 B(  2-Au,  5-Au) :   0.2011 B(  2-Au,  9-Au) :   0.2014
B(  2-Au, 12-Fe) :   0.4485 B(  3-Au,  4-Au) :   0.2102 B(  3-Au,  5-Au) :   0.2441
B(  3-Au, 12-Fe) :   0.3933 B(  4-Au,  7-Au) :   0.2449 B(  4-Au, 11-Au) :   0.2013
B(  4-Au, 12-Fe) :   0.4488 B(  5-Au,  7-Au) :   0.2101 B(  5-Au, 10-Au) :   0.1931
B(  5-Au, 12-Fe) :   0.4495 B(  6-Au,  8-Au) :   0.2441 B(  6-Au, 11-Au) :   0.2011
B(  6-Au, 12-Fe) :   0.4494 B(  7-Au, 10-Au) :   0.1852 B(  7-Au, 11-Au) :   0.1903
B(  7-Au, 12-Fe) :   0.3932 B(  8-Au,  9-Au) :   0.2103 B(  8-Au, 10-Au) :   0.1873
B(  8-Au, 11-Au) :   0.1891 B(  8-Au, 12-Fe) :   0.3933 B(  9-Au, 10-Au) :   0.1937
B(  9-Au, 12-Fe) :   0.4488 B( 10-Au, 12-Fe) :   0.4491 B( 11-Au, 12-Fe) :   0.4485

MP2 TOTAL ENERGY:    -2890.523925168 Eh
FINAL SINGLE POINT ENERGY     -2890.523925167911

DIPOLE MOMENT
-------------
                                X             Y             Z
Electronic contribution:     -0.00025      -0.00087      -0.00086
Nuclear contribution   :      0.00016       0.00075       0.00113
                        -----------------------------------------
Total Dipole Moment    :     -0.00009      -0.00012       0.00027
                        -----------------------------------------
Magnitude (a.u.)       :      0.00031
Magnitude (Debye)      :      0.00079

Rotational constants in cm-1:     0.001398     0.001395     0.001333
Rotational constants in MHz :    41.902041    41.819732    39.950130

                             ****ORCA TERMINATED NORMALLY****
TOTAL RUN TIME: 0 days 0 hours 36 minutes 3 seconds 261 msec
