                         Program Version 5.0.3 -  RELEASE  -
|  1> !PBE def2-TZVP VERYSLOWCONV
|  2>
|  3> %scf
|  4>   AutoTRAHIter 200
|  5>   maxiter 400
|  6> end
|  7>
|  8>
|  9> %pal nprocs 6 end
| 10>
| 11> *xyzfile 0 5 pbe.xyz
| 12>
| 13> $new_job
| 14>
| 15> !PBE def2-TZVP VERYSLOWCONV
| 16>
| 17> %scf
| 18>   AutoTRAHIter 200
| 19>   maxiter 400
| 20> end
| 21>
| 22>
| 23> %pal nprocs 6 end
| 24>
| 25> *xyzfile 0 3 pbe.xyz
| 26>
| 27>
| 28>
| 29>
| 30>
| 31>                          ****END OF INPUT****
 Total Charge           Charge          ....    0
 Multiplicity           Mult            ....    5
 Number of Electrons    NEL             ....  254
FINAL SINGLE POINT ENERGY     -2893.402556795552

CARTESIAN COORDINATES (ANGSTROEM)
---------------------------------
  Au     7.547249    7.336289    3.852044
  Au     4.831003    7.641231    4.334740
  Au     4.836273    5.755754    6.370296
  Au     7.558319    5.478969    5.912984
  Au     9.287035    7.709757    5.978770
  Au     6.593218    6.140445    8.481452
  Au     6.561848    9.868892    4.400605
  Au     8.324029    8.368095    8.547542
  Au     5.596777   10.530026    6.969272
  Au     3.868363    8.299372    6.903423
  Au     5.607696    8.673088    9.029924
  Au     8.318790   10.253743    6.511569
  Fe     6.577554    8.004658    6.441081

 Multiplicity           Mult            ....    3
 Number of Electrons    NEL             ....  254
 Basis Dimension        Dim             ....  525

ORBITAL ENERGIES
----------------
                 SPIN UP ORBITALS
  NO   OCC          E(Eh)            E(eV)
   0   1.0000    -254.756694     -6932.2821
   1   1.0000     -29.592297      -805.2473
   2   1.0000     -25.529083      -694.6817
   3   1.0000     -25.528523      -694.6664
   4   1.0000     -25.526275      -694.6052
   5   1.0000      -4.024923      -109.5237
   6   1.0000      -4.024918      -109.5236
   7   1.0000      -4.024910      -109.5234
   8   1.0000      -4.024908      -109.5233
   9   1.0000      -4.020856      -109.4131
  10   1.0000      -4.020841      -109.4126
  11   1.0000      -4.020795      -109.4114
  12   1.0000      -4.020777      -109.4109
  13   1.0000      -4.019773      -109.3836
  14   1.0000      -4.019766      -109.3834
  15   1.0000      -4.019754      -109.3831
  16   1.0000      -4.019729      -109.3824
  17   1.0000      -3.367886       -91.6448
  18   1.0000      -2.240684       -60.9721
  19   1.0000      -2.240664       -60.9716
  20   1.0000      -2.240615       -60.9702
  21   1.0000      -2.240611       -60.9701
  22   1.0000      -2.240172       -60.9582
  23   1.0000      -2.239720       -60.9459
  24   1.0000      -2.239640       -60.9437
  25   1.0000      -2.239448       -60.9385
  26   1.0000      -2.236447       -60.8568
  27   1.0000      -2.236328       -60.8536
  28   1.0000      -2.236264       -60.8518
  29   1.0000      -2.236229       -60.8509
  30   1.0000      -2.235721       -60.8371
  31   1.0000      -2.235265       -60.8246
  32   1.0000      -2.235150       -60.8215
  33   1.0000      -2.235128       -60.8209
  34   1.0000      -2.234997       -60.8174
  35   1.0000      -2.234954       -60.8162
  36   1.0000      -2.234929       -60.8155
  37   1.0000      -2.234826       -60.8127
  38   1.0000      -2.233627       -60.7801
  39   1.0000      -2.233493       -60.7764
  40   1.0000      -2.233476       -60.7760
  41   1.0000      -2.232929       -60.7611
  42   1.0000      -2.232862       -60.7593
  43   1.0000      -2.232804       -60.7577
  44   1.0000      -2.232677       -60.7542
  45   1.0000      -2.232132       -60.7394
  46   1.0000      -2.231678       -60.7270
  47   1.0000      -2.231488       -60.7219
  48   1.0000      -2.230762       -60.7021
  49   1.0000      -2.230628       -60.6985
  50   1.0000      -2.229402       -60.6651
  51   1.0000      -2.229346       -60.6636
  52   1.0000      -2.228991       -60.6539
  53   1.0000      -2.228854       -60.6502
  54   1.0000      -2.183606       -59.4190
  55   1.0000      -2.183399       -59.4133
  56   1.0000      -2.177755       -59.2597
  57   1.0000      -0.425929       -11.5901
  58   1.0000      -0.373222       -10.1559
  59   1.0000      -0.372548       -10.1376
  60   1.0000      -0.369714       -10.0604
  61   1.0000      -0.369561       -10.0563
  62   1.0000      -0.367478        -9.9996
  63   1.0000      -0.367315        -9.9951
  64   1.0000      -0.361686        -9.8420
  65   1.0000      -0.355226        -9.6662
  66   1.0000      -0.352764        -9.5992
  67   1.0000      -0.349954        -9.5227
  68   1.0000      -0.338590        -9.2135
  69   1.0000      -0.337527        -9.1846
  70   1.0000      -0.336685        -9.1617
  71   1.0000      -0.336362        -9.1529
  72   1.0000      -0.335888        -9.1400
  73   1.0000      -0.334852        -9.1118
  74   1.0000      -0.326525        -8.8852
  75   1.0000      -0.325978        -8.8703
  76   1.0000      -0.322869        -8.7857
  77   1.0000      -0.322470        -8.7749
  78   1.0000      -0.321442        -8.7469
  79   1.0000      -0.318560        -8.6685
  80   1.0000      -0.316508        -8.6126
  81   1.0000      -0.315866        -8.5951
  82   1.0000      -0.315834        -8.5943
  83   1.0000      -0.313450        -8.5294
  84   1.0000      -0.311564        -8.4781
  85   1.0000      -0.308465        -8.3938
  86   1.0000      -0.304875        -8.2961
  87   1.0000      -0.302012        -8.2182
  88   1.0000      -0.299817        -8.1584
  89   1.0000      -0.296777        -8.0757
  90   1.0000      -0.295416        -8.0387
  91   1.0000      -0.291542        -7.9333
  92   1.0000      -0.289351        -7.8736
  93   1.0000      -0.278776        -7.5859
  94   1.0000      -0.277104        -7.5404
  95   1.0000      -0.276342        -7.5196
  96   1.0000      -0.273425        -7.4403
  97   1.0000      -0.272925        -7.4267
  98   1.0000      -0.272454        -7.4139
  99   1.0000      -0.270274        -7.3545
 100   1.0000      -0.261392        -7.1128
 101   1.0000      -0.258924        -7.0457
 102   1.0000      -0.256908        -6.9908
 103   1.0000      -0.256098        -6.9688
 104   1.0000      -0.255240        -6.9454
 105   1.0000      -0.254879        -6.9356
 106   1.0000      -0.254198        -6.9171
 107   1.0000      -0.251313        -6.8386
 108   1.0000      -0.251185        -6.8351
 109   1.0000      -0.250337        -6.8120
 110   1.0000      -0.250027        -6.8036
 111   1.0000      -0.249666        -6.7938
 112   1.0000      -0.249291        -6.7836
 113   1.0000      -0.248168        -6.7530
 114   1.0000      -0.248132        -6.7520
 115   1.0000      -0.247805        -6.7431
 116   1.0000      -0.246164        -6.6985
 117   1.0000      -0.245837        -6.6896
 118   1.0000      -0.244578        -6.6553
 119   1.0000      -0.244361        -6.6494
 120   1.0000      -0.244143        -6.6435
 121   1.0000      -0.243067        -6.6142
 122   1.0000      -0.242182        -6.5901
 123   1.0000      -0.241487        -6.5712
 124   1.0000      -0.239729        -6.5234
 125   1.0000      -0.217419        -5.9163
 126   1.0000      -0.196734        -5.3534
 127   1.0000      -0.192327        -5.2335
 128   0.0000      -0.193452        -5.2641
 129   0.0000      -0.167781        -4.5656
 130   0.0000      -0.162370        -4.4183
 131   0.0000      -0.127595        -3.4720
 132   0.0000      -0.103732        -2.8227

                 SPIN DOWN ORBITALS
  NO   OCC          E(Eh)            E(eV)
   0   1.0000    -254.756036     -6932.2642
   1   1.0000     -29.536112      -803.7185
   2   1.0000     -25.486838      -693.5321
   3   1.0000     -25.485149      -693.4861
   4   1.0000     -25.484597      -693.4711
   5   1.0000      -4.025296      -109.5339
   6   1.0000      -4.025291      -109.5337
   7   1.0000      -4.025283      -109.5335
   8   1.0000      -4.025280      -109.5335
   9   1.0000      -4.021258      -109.4240
  10   1.0000      -4.021243      -109.4236
  11   1.0000      -4.021192      -109.4222
  12   1.0000      -4.021175      -109.4217
  13   1.0000      -4.019946      -109.3883
  14   1.0000      -4.019940      -109.3881
  15   1.0000      -4.019930      -109.3879
  16   1.0000      -4.019905      -109.3872
  17   1.0000      -3.241400       -88.2030
  18   1.0000      -2.240718       -60.9730
  19   1.0000      -2.240706       -60.9727
  20   1.0000      -2.240691       -60.9723
  21   1.0000      -2.240685       -60.9721
  22   1.0000      -2.240636       -60.9708
  23   1.0000      -2.240229       -60.9597
  24   1.0000      -2.240145       -60.9574
  25   1.0000      -2.239950       -60.9521
  26   1.0000      -2.236968       -60.8710
  27   1.0000      -2.236850       -60.8678
  28   1.0000      -2.236774       -60.8657
  29   1.0000      -2.236713       -60.8640
  30   1.0000      -2.236147       -60.8487
  31   1.0000      -2.235439       -60.8294
  32   1.0000      -2.235422       -60.8289
  33   1.0000      -2.235240       -60.8240
  34   1.0000      -2.235222       -60.8235
  35   1.0000      -2.235158       -60.8217
  36   1.0000      -2.235106       -60.8203
  37   1.0000      -2.235090       -60.8199
  38   1.0000      -2.234040       -60.7913
  39   1.0000      -2.233590       -60.7791
  40   1.0000      -2.233443       -60.7751
  41   1.0000      -2.233211       -60.7688
  42   1.0000      -2.233052       -60.7644
  43   1.0000      -2.233010       -60.7633
  44   1.0000      -2.232984       -60.7626
  45   1.0000      -2.232532       -60.7503
  46   1.0000      -2.232218       -60.7417
  47   1.0000      -2.232023       -60.7364
  48   1.0000      -2.231225       -60.7147
  49   1.0000      -2.231084       -60.7109
  50   1.0000      -2.229794       -60.6758
  51   1.0000      -2.229739       -60.6743
  52   1.0000      -2.229329       -60.6631
  53   1.0000      -2.229218       -60.6601
  54   1.0000      -2.060291       -56.0634
  55   1.0000      -2.057604       -55.9903
  56   1.0000      -2.055321       -55.9281
  57   1.0000      -0.422990       -11.5101
  58   1.0000      -0.374277       -10.1846
  59   1.0000      -0.373005       -10.1500
  60   1.0000      -0.371055       -10.0969
  61   1.0000      -0.362719        -9.8701
  62   1.0000      -0.360779        -9.8173
  63   1.0000      -0.360142        -9.8000
  64   1.0000      -0.359841        -9.7918
  65   1.0000      -0.356366        -9.6972
  66   1.0000      -0.346401        -9.4261
  67   1.0000      -0.342741        -9.3265
  68   1.0000      -0.340159        -9.2562
  69   1.0000      -0.338831        -9.2200
  70   1.0000      -0.338346        -9.2069
  71   1.0000      -0.337137        -9.1740
  72   1.0000      -0.336897        -9.1674
  73   1.0000      -0.336591        -9.1591
  74   1.0000      -0.328376        -8.9356
  75   1.0000      -0.327712        -8.9175
  76   1.0000      -0.324012        -8.8168
  77   1.0000      -0.323932        -8.8146
  78   1.0000      -0.322232        -8.7684
  79   1.0000      -0.320212        -8.7134
  80   1.0000      -0.317817        -8.6482
  81   1.0000      -0.317393        -8.6367
  82   1.0000      -0.317191        -8.6312
  83   1.0000      -0.309293        -8.4163
  84   1.0000      -0.305810        -8.3215
  85   1.0000      -0.302722        -8.2375
  86   1.0000      -0.298725        -8.1287
  87   1.0000      -0.298459        -8.1215
  88   1.0000      -0.296442        -8.0666
  89   1.0000      -0.293431        -7.9847
  90   1.0000      -0.293123        -7.9763
  91   1.0000      -0.292229        -7.9520
  92   1.0000      -0.280302        -7.6274
  93   1.0000      -0.279180        -7.5969
  94   1.0000      -0.275153        -7.4873
  95   1.0000      -0.273705        -7.4479
  96   1.0000      -0.273507        -7.4425
  97   1.0000      -0.272703        -7.4206
  98   1.0000      -0.271823        -7.3967
  99   1.0000      -0.269338        -7.3291
 100   1.0000      -0.262498        -7.1429
 101   1.0000      -0.260319        -7.0836
 102   1.0000      -0.258507        -7.0343
 103   1.0000      -0.256097        -6.9688
 104   1.0000      -0.255814        -6.9611
 105   1.0000      -0.255714        -6.9583
 106   1.0000      -0.252353        -6.8669
 107   1.0000      -0.252049        -6.8586
 108   1.0000      -0.251264        -6.8372
 109   1.0000      -0.251067        -6.8319
 110   1.0000      -0.250456        -6.8153
 111   1.0000      -0.248994        -6.7755
 112   1.0000      -0.247910        -6.7460
 113   1.0000      -0.247029        -6.7220
 114   1.0000      -0.245893        -6.6911
 115   1.0000      -0.245282        -6.6745
 116   1.0000      -0.244360        -6.6494
 117   1.0000      -0.242673        -6.6035
 118   1.0000      -0.242595        -6.6013
 119   1.0000      -0.241189        -6.5631
 120   1.0000      -0.218605        -5.9485
 121   1.0000      -0.211351        -5.7512
 122   1.0000      -0.209713        -5.7066
 123   1.0000      -0.208339        -5.6692
 124   1.0000      -0.191246        -5.2041
 125   1.0000      -0.187141        -5.0924
 126   0.0000      -0.154592        -4.2067
 127   0.0000      -0.151983        -4.1357
 128   0.0000      -0.150370        -4.0918
 129   0.0000      -0.149655        -4.0723
 130   0.0000      -0.145188        -3.9508

MULLIKEN ATOMIC CHARGES AND SPIN POPULATIONS
--------------------------------------------
   0 Au:    0.201996   -0.008133
   1 Au:    0.261305   -0.202606
   2 Au:    0.201008   -0.008650
   3 Au:    0.261322   -0.202648
   4 Au:    0.166103    0.010185
   5 Au:    0.166022    0.010171
   6 Au:    0.166041    0.010174
   7 Au:    0.261333   -0.202669
   8 Au:    0.261295   -0.202580
   9 Au:    0.166079    0.010201
  10 Au:    0.202034   -0.008158
  11 Au:    0.201018   -0.008642
  12 Fe:   -2.515557    2.803354
Sum of atomic charges         :   -0.0000000

LOEWDIN ATOMIC CHARGES AND SPIN POPULATIONS
-------------------------------------------
   0 Au:    0.050891   -0.060507
   1 Au:    0.074613   -0.126250
   2 Au:    0.051620   -0.062230
   3 Au:    0.074624   -0.126301
   4 Au:    0.048154   -0.044496
   5 Au:    0.048241   -0.044650
   6 Au:    0.048227   -0.044622
   7 Au:    0.074631   -0.126304
   8 Au:    0.074615   -0.126242
   9 Au:    0.048147   -0.044465
  10 Au:    0.050906   -0.060535
  11 Au:    0.051620   -0.062216
  12 Fe:   -0.696289    2.928818

  Mayer bond orders larger than 0.100000
B(  0-Au,  1-Au) :   0.2334 B(  0-Au,  3-Au) :   0.2343 B(  0-Au,  4-Au) :   0.2375
B(  0-Au,  6-Au) :   0.2377 B(  0-Au, 12-Fe) :   0.4726 B(  1-Au,  2-Au) :   0.2342
B(  1-Au,  6-Au) :   0.2089 B(  1-Au,  9-Au) :   0.2068 B(  1-Au, 12-Fe) :   0.4904
B(  2-Au,  3-Au) :   0.2341 B(  2-Au,  5-Au) :   0.2369 B(  2-Au,  9-Au) :   0.2370
B(  2-Au, 12-Fe) :   0.4723 B(  3-Au,  4-Au) :   0.2086 B(  3-Au,  5-Au) :   0.2061
B(  3-Au, 12-Fe) :   0.4903 B(  4-Au,  7-Au) :   0.2067 B(  4-Au, 11-Au) :   0.2368
B(  4-Au, 12-Fe) :   0.5161 B(  5-Au,  7-Au) :   0.2089 B(  5-Au, 10-Au) :   0.2376
B(  5-Au, 12-Fe) :   0.5163 B(  6-Au,  8-Au) :   0.2061 B(  6-Au, 11-Au) :   0.2369
B(  6-Au, 12-Fe) :   0.5162 B(  7-Au, 10-Au) :   0.2334 B(  7-Au, 11-Au) :   0.2340
B(  7-Au, 12-Fe) :   0.4904 B(  8-Au,  9-Au) :   0.2086 B(  8-Au, 10-Au) :   0.2344
B(  8-Au, 11-Au) :   0.2341 B(  8-Au, 12-Fe) :   0.4904 B(  9-Au, 10-Au) :   0.2376
B(  9-Au, 12-Fe) :   0.5161 B( 10-Au, 12-Fe) :   0.4725 B( 11-Au, 12-Fe) :   0.4723

FINAL SINGLE POINT ENERGY     -2893.393946845899

DIPOLE MOMENT
-------------
                                X             Y             Z
Electronic contribution:     -0.00028      -0.00081      -0.00097
Nuclear contribution   :      0.00016       0.00075       0.00113
                        -----------------------------------------
Total Dipole Moment    :     -0.00012      -0.00006       0.00016
                        -----------------------------------------
Magnitude (a.u.)       :      0.00021
Magnitude (Debye)      :      0.00054

Rotational constants in cm-1:     0.001398     0.001395     0.001333
Rotational constants in MHz :    41.902041    41.819732    39.950130

                             ****ORCA TERMINATED NORMALLY****
TOTAL RUN TIME: 0 days 0 hours 43 minutes 0 seconds 933 msec
