                         Program Version 5.0.3 -  RELEASE  -
|  1> !R2SCAN def2-TZVP VERYSLOWCONV
|  2> !KDIIS
|  3> %scf
|  4>   AutoTRAHIter 200
|  5>   maxiter 400
|  6> end
|  7>
|  8> %pal nprocs 6 end
|  9>
| 10> *xyzfile 0 5 pbe.xyz
| 11>
| 12> $new_job
| 13>
| 14> !R2SCAN def2-TZVP VERYSLOWCONV
| 15> !KDIIS
| 16> %scf
| 17>   AutoTRAHIter 200
| 18>   maxiter 400
| 19> end
| 20>
| 21>
| 22> %pal nprocs 6 end
| 23>
| 24> *xyzfile 0 3 pbe.xyz
| 25>
| 26>
| 27>
| 28>
| 29>
| 30>                          ****END OF INPUT****
 Total Charge           Charge          ....    0
 Multiplicity           Mult            ....    5
 Number of Electrons    NEL             ....  254
FINAL SINGLE POINT ENERGY     -2893.808648649750

CARTESIAN COORDINATES (ANGSTROEM)
---------------------------------
  Au     7.547249    7.336289    3.852044
  Au     4.831003    7.641231    4.334740
  Au     4.836273    5.755754    6.370296
  Au     7.558319    5.478969    5.912984
  Au     9.287035    7.709757    5.978770
  Au     6.593218    6.140445    8.481452
  Au     6.561848    9.868892    4.400605
  Au     8.324029    8.368095    8.547542
  Au     5.596777   10.530026    6.969272
  Au     3.868363    8.299372    6.903423
  Au     5.607696    8.673088    9.029924
  Au     8.318790   10.253743    6.511569
  Fe     6.577554    8.004658    6.441081

 Multiplicity           Mult            ....    3
 Number of Electrons    NEL             ....  254
 Basis Dimension        Dim             ....  525

ORBITAL ENERGIES
----------------
                 SPIN UP ORBITALS
  NO   OCC          E(Eh)            E(eV)
   0   1.0000    -255.640374     -6956.3282
   1   1.0000     -29.937394      -814.6379
   2   1.0000     -25.769269      -701.2175
   3   1.0000     -25.768719      -701.2025
   4   1.0000     -25.765396      -701.1121
   5   1.0000      -4.115738      -111.9949
   6   1.0000      -4.115730      -111.9947
   7   1.0000      -4.115723      -111.9945
   8   1.0000      -4.115720      -111.9944
   9   1.0000      -4.112075      -111.8953
  10   1.0000      -4.112058      -111.8948
  11   1.0000      -4.111635      -111.8833
  12   1.0000      -4.111621      -111.8829
  13   1.0000      -4.110902      -111.8633
  14   1.0000      -4.110894      -111.8631
  15   1.0000      -4.110872      -111.8625
  16   1.0000      -4.110850      -111.8619
  17   1.0000      -3.515389       -95.6586
  18   1.0000      -2.304676       -62.7134
  19   1.0000      -2.304565       -62.7104
  20   1.0000      -2.304555       -62.7101
  21   1.0000      -2.304470       -62.7078
  22   1.0000      -2.303916       -62.6927
  23   1.0000      -2.303432       -62.6796
  24   1.0000      -2.303358       -62.6776
  25   1.0000      -2.303201       -62.6733
  26   1.0000      -2.300367       -62.5962
  27   1.0000      -2.300316       -62.5948
  28   1.0000      -2.300291       -62.5941
  29   1.0000      -2.300046       -62.5874
  30   1.0000      -2.299507       -62.5728
  31   1.0000      -2.299338       -62.5682
  32   1.0000      -2.299200       -62.5644
  33   1.0000      -2.299061       -62.5606
  34   1.0000      -2.298900       -62.5563
  35   1.0000      -2.298675       -62.5501
  36   1.0000      -2.298461       -62.5443
  37   1.0000      -2.298435       -62.5436
  38   1.0000      -2.297400       -62.5154
  39   1.0000      -2.297359       -62.5143
  40   1.0000      -2.297356       -62.5142
  41   1.0000      -2.296722       -62.4970
  42   1.0000      -2.296712       -62.4967
  43   1.0000      -2.296477       -62.4903
  44   1.0000      -2.296106       -62.4802
  45   1.0000      -2.295575       -62.4658
  46   1.0000      -2.295522       -62.4643
  47   1.0000      -2.295301       -62.4583
  48   1.0000      -2.294442       -62.4349
  49   1.0000      -2.294267       -62.4302
  50   1.0000      -2.293247       -62.4024
  51   1.0000      -2.293163       -62.4001
  52   1.0000      -2.292796       -62.3902
  53   1.0000      -2.292635       -62.3858
  54   1.0000      -2.283668       -62.1418
  55   1.0000      -2.282038       -62.0974
  56   1.0000      -2.274952       -61.9046
  57   1.0000      -0.431568       -11.7436
  58   1.0000      -0.382992       -10.4217
  59   1.0000      -0.380593       -10.3565
  60   1.0000      -0.380129       -10.3438
  61   1.0000      -0.379127       -10.3166
  62   1.0000      -0.378840       -10.3087
  63   1.0000      -0.375657       -10.2222
  64   1.0000      -0.370325       -10.0770
  65   1.0000      -0.365076        -9.9342
  66   1.0000      -0.364883        -9.9290
  67   1.0000      -0.361977        -9.8499
  68   1.0000      -0.347918        -9.4673
  69   1.0000      -0.346853        -9.4384
  70   1.0000      -0.345792        -9.4095
  71   1.0000      -0.345783        -9.4092
  72   1.0000      -0.344974        -9.3872
  73   1.0000      -0.343772        -9.3545
  74   1.0000      -0.335481        -9.1289
  75   1.0000      -0.335133        -9.1194
  76   1.0000      -0.331859        -9.0304
  77   1.0000      -0.331549        -9.0219
  78   1.0000      -0.330480        -8.9928
  79   1.0000      -0.327245        -8.9048
  80   1.0000      -0.327216        -8.9040
  81   1.0000      -0.326566        -8.8863
  82   1.0000      -0.325503        -8.8574
  83   1.0000      -0.324342        -8.8258
  84   1.0000      -0.324333        -8.8255
  85   1.0000      -0.319683        -8.6990
  86   1.0000      -0.318067        -8.6550
  87   1.0000      -0.311427        -8.4744
  88   1.0000      -0.309775        -8.4294
  89   1.0000      -0.305601        -8.3158
  90   1.0000      -0.304668        -8.2904
  91   1.0000      -0.303126        -8.2485
  92   1.0000      -0.300329        -8.1724
  93   1.0000      -0.291365        -7.9285
  94   1.0000      -0.286094        -7.7850
  95   1.0000      -0.285748        -7.7756
  96   1.0000      -0.282431        -7.6853
  97   1.0000      -0.281268        -7.6537
  98   1.0000      -0.281018        -7.6469
  99   1.0000      -0.279192        -7.5972
 100   1.0000      -0.271638        -7.3917
 101   1.0000      -0.270444        -7.3592
 102   1.0000      -0.267416        -7.2768
 103   1.0000      -0.266970        -7.2646
 104   1.0000      -0.266012        -7.2386
 105   1.0000      -0.265496        -7.2245
 106   1.0000      -0.265219        -7.2170
 107   1.0000      -0.263405        -7.1676
 108   1.0000      -0.261736        -7.1222
 109   1.0000      -0.261142        -7.1060
 110   1.0000      -0.258668        -7.0387
 111   1.0000      -0.258482        -7.0337
 112   1.0000      -0.257488        -7.0066
 113   1.0000      -0.257007        -6.9935
 114   1.0000      -0.256449        -6.9783
 115   1.0000      -0.256170        -6.9707
 116   1.0000      -0.255666        -6.9570
 117   1.0000      -0.255646        -6.9565
 118   1.0000      -0.254158        -6.9160
 119   1.0000      -0.252165        -6.8618
 120   1.0000      -0.251542        -6.8448
 121   1.0000      -0.249659        -6.7936
 122   1.0000      -0.248315        -6.7570
 123   1.0000      -0.246538        -6.7086
 124   1.0000      -0.244330        -6.6486
 125   1.0000      -0.223792        -6.0897
 126   1.0000      -0.198274        -5.3953
 127   1.0000      -0.194166        -5.2835
 128   0.0000      -0.192560        -5.2398
 129   0.0000      -0.164990        -4.4896
 130   0.0000      -0.159788        -4.3481
 131   0.0000      -0.121328        -3.3015
 132   0.0000      -0.099220        -2.6999

                 SPIN DOWN ORBITALS
  NO   OCC          E(Eh)            E(eV)
   0   1.0000    -255.639393     -6956.3015
   1   1.0000     -29.859490      -812.5180
   2   1.0000     -25.709325      -699.5863
   3   1.0000     -25.708037      -699.5513
   4   1.0000     -25.707783      -699.5443
   5   1.0000      -4.116395      -112.0128
   6   1.0000      -4.116387      -112.0126
   7   1.0000      -4.116381      -112.0124
   8   1.0000      -4.116378      -112.0123
   9   1.0000      -4.112627      -111.9103
  10   1.0000      -4.112609      -111.9098
  11   1.0000      -4.112176      -111.8980
  12   1.0000      -4.112162      -111.8976
  13   1.0000      -4.111195      -111.8713
  14   1.0000      -4.111187      -111.8711
  15   1.0000      -4.111170      -111.8706
  16   1.0000      -4.111148      -111.8700
  17   1.0000      -3.346751       -91.0697
  18   1.0000      -2.304637       -62.7124
  19   1.0000      -2.304621       -62.7119
  20   1.0000      -2.304603       -62.7114
  21   1.0000      -2.304590       -62.7111
  22   1.0000      -2.304522       -62.7092
  23   1.0000      -2.304100       -62.6978
  24   1.0000      -2.304010       -62.6953
  25   1.0000      -2.303791       -62.6894
  26   1.0000      -2.301085       -62.6157
  27   1.0000      -2.301010       -62.6137
  28   1.0000      -2.300930       -62.6115
  29   1.0000      -2.300759       -62.6068
  30   1.0000      -2.300170       -62.5908
  31   1.0000      -2.299432       -62.5707
  32   1.0000      -2.299290       -62.5669
  33   1.0000      -2.299177       -62.5638
  34   1.0000      -2.299063       -62.5607
  35   1.0000      -2.299043       -62.5601
  36   1.0000      -2.299004       -62.5591
  37   1.0000      -2.298961       -62.5579
  38   1.0000      -2.297942       -62.5302
  39   1.0000      -2.297527       -62.5189
  40   1.0000      -2.297357       -62.5143
  41   1.0000      -2.297056       -62.5061
  42   1.0000      -2.296902       -62.5019
  43   1.0000      -2.296851       -62.5005
  44   1.0000      -2.296798       -62.4991
  45   1.0000      -2.296279       -62.4849
  46   1.0000      -2.296156       -62.4816
  47   1.0000      -2.295924       -62.4753
  48   1.0000      -2.295009       -62.4504
  49   1.0000      -2.294842       -62.4458
  50   1.0000      -2.293701       -62.4148
  51   1.0000      -2.293626       -62.4127
  52   1.0000      -2.293163       -62.4001
  53   1.0000      -2.293041       -62.3968
  54   1.0000      -2.115483       -57.5652
  55   1.0000      -2.113015       -57.4981
  56   1.0000      -2.112714       -57.4899
  57   1.0000      -0.430414       -11.7122
  58   1.0000      -0.381336       -10.3767
  59   1.0000      -0.380101       -10.3431
  60   1.0000      -0.378231       -10.2922
  61   1.0000      -0.372742       -10.1428
  62   1.0000      -0.368974       -10.0403
  63   1.0000      -0.368513       -10.0278
  64   1.0000      -0.367965       -10.0128
  65   1.0000      -0.366333        -9.9684
  66   1.0000      -0.355651        -9.6778
  67   1.0000      -0.351814        -9.5734
  68   1.0000      -0.350121        -9.5273
  69   1.0000      -0.348852        -9.4928
  70   1.0000      -0.348317        -9.4782
  71   1.0000      -0.346997        -9.4423
  72   1.0000      -0.346738        -9.4352
  73   1.0000      -0.346448        -9.4273
  74   1.0000      -0.338171        -9.2021
  75   1.0000      -0.337524        -9.1845
  76   1.0000      -0.333685        -9.0800
  77   1.0000      -0.333634        -9.0786
  78   1.0000      -0.331791        -9.0285
  79   1.0000      -0.329570        -8.9680
  80   1.0000      -0.327170        -8.9028
  81   1.0000      -0.326600        -8.8872
  82   1.0000      -0.326502        -8.8846
  83   1.0000      -0.318953        -8.6792
  84   1.0000      -0.315398        -8.5824
  85   1.0000      -0.312158        -8.4943
  86   1.0000      -0.308385        -8.3916
  87   1.0000      -0.306452        -8.3390
  88   1.0000      -0.305972        -8.3259
  89   1.0000      -0.303014        -8.2454
  90   1.0000      -0.301424        -8.2022
  91   1.0000      -0.300273        -8.1708
  92   1.0000      -0.288726        -7.8566
  93   1.0000      -0.288698        -7.8559
  94   1.0000      -0.284130        -7.7316
  95   1.0000      -0.282900        -7.6981
  96   1.0000      -0.281921        -7.6714
  97   1.0000      -0.281231        -7.6527
  98   1.0000      -0.280115        -7.6223
  99   1.0000      -0.277742        -7.5577
 100   1.0000      -0.271228        -7.3805
 101   1.0000      -0.269342        -7.3292
 102   1.0000      -0.267392        -7.2761
 103   1.0000      -0.264507        -7.1976
 104   1.0000      -0.264496        -7.1973
 105   1.0000      -0.264135        -7.1875
 106   1.0000      -0.260298        -7.0831
 107   1.0000      -0.260131        -7.0785
 108   1.0000      -0.259211        -7.0535
 109   1.0000      -0.258934        -7.0459
 110   1.0000      -0.258315        -7.0291
 111   1.0000      -0.257076        -6.9954
 112   1.0000      -0.255766        -6.9597
 113   1.0000      -0.255591        -6.9550
 114   1.0000      -0.253954        -6.9104
 115   1.0000      -0.253399        -6.8953
 116   1.0000      -0.250594        -6.8190
 117   1.0000      -0.250368        -6.8128
 118   1.0000      -0.248821        -6.7708
 119   1.0000      -0.247141        -6.7251
 120   1.0000      -0.225363        -6.1324
 121   1.0000      -0.212453        -5.7811
 122   1.0000      -0.210729        -5.7342
 123   1.0000      -0.209163        -5.6916
 124   1.0000      -0.192041        -5.2257
 125   1.0000      -0.188392        -5.1264
 126   0.0000      -0.151674        -4.1273
 127   0.0000      -0.149976        -4.0811
 128   0.0000      -0.136386        -3.7112
 129   0.0000      -0.133521        -3.6333
 130   0.0000      -0.131318        -3.5734

MULLIKEN ATOMIC CHARGES AND SPIN POPULATIONS
--------------------------------------------
   0 Au:    0.175108   -0.013421
   1 Au:    0.248160   -0.235193
   2 Au:    0.179901   -0.011691
   3 Au:    0.248281   -0.235191
   4 Au:    0.138790    0.002847
   5 Au:    0.138723    0.002853
   6 Au:    0.138754    0.002853
   7 Au:    0.248191   -0.235277
   8 Au:    0.248250   -0.235108
   9 Au:    0.138760    0.002856
  10 Au:    0.175143   -0.013451
  11 Au:    0.179900   -0.011676
  12 Fe:   -2.257963    2.979600
Sum of atomic charges         :    0.0000000

LOEWDIN ATOMIC CHARGES AND SPIN POPULATIONS
-------------------------------------------
   0 Au:    0.046255   -0.076781
   1 Au:    0.069781   -0.142818
   2 Au:    0.043273   -0.069200
   3 Au:    0.069811   -0.142833
   4 Au:    0.041080   -0.056778
   5 Au:    0.041178   -0.056974
   6 Au:    0.041164   -0.056941
   7 Au:    0.069800   -0.142880
   8 Au:    0.069801   -0.142766
   9 Au:    0.041072   -0.056749
  10 Au:    0.046272   -0.076815
  11 Au:    0.043272   -0.069183
  12 Fe:   -0.622758    3.090719

  Mayer bond orders larger than 0.100000
B(  0-Au,  1-Au) :   0.2233 B(  0-Au,  3-Au) :   0.2243 B(  0-Au,  4-Au) :   0.2267
B(  0-Au,  6-Au) :   0.2267 B(  0-Au, 12-Fe) :   0.4581 B(  1-Au,  2-Au) :   0.2253
B(  1-Au,  6-Au) :   0.1909 B(  1-Au,  9-Au) :   0.2042 B(  1-Au, 12-Fe) :   0.4710
B(  2-Au,  3-Au) :   0.2252 B(  2-Au,  5-Au) :   0.2283 B(  2-Au,  9-Au) :   0.2284
B(  2-Au, 12-Fe) :   0.4578 B(  3-Au,  4-Au) :   0.1906 B(  3-Au,  5-Au) :   0.2036
B(  3-Au, 12-Fe) :   0.4710 B(  4-Au,  7-Au) :   0.2042 B(  4-Au, 11-Au) :   0.2282
B(  4-Au, 12-Fe) :   0.5061 B(  5-Au,  7-Au) :   0.1909 B(  5-Au, 10-Au) :   0.2267
B(  5-Au, 12-Fe) :   0.5063 B(  6-Au,  8-Au) :   0.2035 B(  6-Au, 11-Au) :   0.2283
B(  6-Au, 12-Fe) :   0.5063 B(  7-Au, 10-Au) :   0.2233 B(  7-Au, 11-Au) :   0.2251
B(  7-Au, 12-Fe) :   0.4710 B(  8-Au,  9-Au) :   0.1907 B(  8-Au, 10-Au) :   0.2244
B(  8-Au, 11-Au) :   0.2252 B(  8-Au, 12-Fe) :   0.4711 B(  9-Au, 10-Au) :   0.2268
B(  9-Au, 12-Fe) :   0.5061 B( 10-Au, 12-Fe) :   0.4581 B( 11-Au, 12-Fe) :   0.4579

FINAL SINGLE POINT ENERGY     -2893.839203763764

DIPOLE MOMENT
-------------
                                X             Y             Z
Electronic contribution:     -0.00025      -0.00082      -0.00095
Nuclear contribution   :      0.00016       0.00075       0.00113
                        -----------------------------------------
Total Dipole Moment    :     -0.00009      -0.00007       0.00018
                        -----------------------------------------
Magnitude (a.u.)       :      0.00021
Magnitude (Debye)      :      0.00054

Rotational constants in cm-1:     0.001398     0.001395     0.001333
Rotational constants in MHz :    41.902041    41.819732    39.950130

                             ****ORCA TERMINATED NORMALLY****
TOTAL RUN TIME: 0 days 0 hours 8 minutes 21 seconds 353 msec
