                         Program Version 5.0.3 -  RELEASE  -
|  1> !RI-B2PLYP def2-TZVP def2-TZVP/C
|  2> !RIJCOSX VERYSLOWCONV
|  3>
|  4> %scf
|  5>   AutoTRAHIter 200
|  6>   maxiter 400
|  7> end
|  8>
|  9>
| 10> %pal nprocs 6 end
| 11>
| 12> *xyzfile 0 6 pbe.xyz
| 13>
| 14> $new_job
| 15>
| 16> !RI-B2PLYP def2-TZVP def2-TZVP/C
| 17> !RIJCOSX VERYSLOWCONV
| 18>
| 19> %scf
| 20>   AutoTRAHIter 200
| 21>   maxiter 400
| 22> end
| 23>
| 24>
| 25> %pal nprocs 6 end
| 26>
| 27> *xyzfile 0 4 pbe.xyz
| 28>
| 29>
| 30>
| 31>
| 32>
| 33>                          ****END OF INPUT****
 Total Charge           Charge          ....    0
 Multiplicity           Mult            ....    6
 Number of Electrons    NEL             ....  291
MP2 TOTAL ENERGY:    -3049.081970550 Eh
FINAL SINGLE POINT ENERGY     -3049.081970550343

CARTESIAN COORDINATES (ANGSTROEM)
---------------------------------
  Au     5.617244    6.297225    9.466842
  Au     5.861047    9.102528    9.338027
  Au     6.331228   10.087753    6.821808
  Au     7.801819    7.618676   10.527801
  Au    10.091567    8.479392    9.036365
  Au     9.190233   10.078674    7.084051
  Au    10.134208    6.170339   10.622105
  Au     7.916325    8.797411    4.986538
  Au     6.848084    5.310491    7.184445
  Au     5.078842    7.616839    7.007688
  Au     6.228621    6.652746    4.746421
  Au     7.852035    4.772372    9.774613
  Au     9.708263    5.735192    7.918554
  Au     8.933215    6.255992    5.432449
  Mn     7.817000    7.830846    7.660687

 Multiplicity           Mult            ....    4
 Number of Electrons    NEL             ....  291
 Basis Dimension        Dim             ....  605

ORBITAL ENERGIES
----------------
                 SPIN UP ORBITALS
  NO   OCC          E(Eh)            E(eV)
   0   1.0000    -237.633092     -6466.3252
   1   1.0000     -28.133775      -765.5589
   2   1.0000     -24.051945      -654.4867
   3   1.0000     -24.051542      -654.4757
   4   1.0000     -24.051301      -654.4692
   5   1.0000      -4.411246      -120.0361
   6   1.0000      -4.404175      -119.8437
   7   1.0000      -4.403776      -119.8328
   8   1.0000      -4.399104      -119.7057
   9   1.0000      -4.398972      -119.7021
  10   1.0000      -4.398163      -119.6801
  11   1.0000      -4.398033      -119.6766
  12   1.0000      -4.397982      -119.6752
  13   1.0000      -4.397437      -119.6603
  14   1.0000      -4.393789      -119.5611
  15   1.0000      -4.393709      -119.5589
  16   1.0000      -4.393372      -119.5497
  17   1.0000      -4.392430      -119.5241
  18   1.0000      -4.389787      -119.4522
  19   1.0000      -3.611827       -98.2828
  20   1.0000      -2.530939       -68.8704
  21   1.0000      -2.529679       -68.8361
  22   1.0000      -2.526842       -68.7589
  23   1.0000      -2.525004       -68.7088
  24   1.0000      -2.524036       -68.6825
  25   1.0000      -2.522299       -68.6352
  26   1.0000      -2.521874       -68.6237
  27   1.0000      -2.521290       -68.6078
  28   1.0000      -2.520711       -68.5920
  29   1.0000      -2.520524       -68.5870
  30   1.0000      -2.519784       -68.5668
  31   1.0000      -2.518898       -68.5427
  32   1.0000      -2.517988       -68.5179
  33   1.0000      -2.517834       -68.5138
  34   1.0000      -2.517657       -68.5089
  35   1.0000      -2.517397       -68.5018
  36   1.0000      -2.515900       -68.4611
  37   1.0000      -2.515488       -68.4499
  38   1.0000      -2.514626       -68.4264
  39   1.0000      -2.514562       -68.4247
  40   1.0000      -2.514448       -68.4216
  41   1.0000      -2.513997       -68.4093
  42   1.0000      -2.513922       -68.4073
  43   1.0000      -2.513413       -68.3934
  44   1.0000      -2.512569       -68.3705
  45   1.0000      -2.512233       -68.3613
  46   1.0000      -2.512010       -68.3553
  47   1.0000      -2.511147       -68.3318
  48   1.0000      -2.511053       -68.3292
  49   1.0000      -2.510810       -68.3226
  50   1.0000      -2.510634       -68.3178
  51   1.0000      -2.510527       -68.3149
  52   1.0000      -2.509831       -68.2960
  53   1.0000      -2.509555       -68.2885
  54   1.0000      -2.508891       -68.2704
  55   1.0000      -2.508646       -68.2637
  56   1.0000      -2.508098       -68.2488
  57   1.0000      -2.507224       -68.2250
  58   1.0000      -2.506818       -68.2140
  59   1.0000      -2.505828       -68.1870
  60   1.0000      -2.505669       -68.1827
  61   1.0000      -2.505381       -68.1749
  62   1.0000      -2.414334       -65.6974
  63   1.0000      -2.413169       -65.6657
  64   1.0000      -2.412877       -65.6577
  65   1.0000      -0.517489       -14.0816
  66   1.0000      -0.516972       -14.0675
  67   1.0000      -0.514636       -14.0040
  68   1.0000      -0.512814       -13.9544
  69   1.0000      -0.511764       -13.9258
  70   1.0000      -0.501324       -13.6417
  71   1.0000      -0.473568       -12.8864
  72   1.0000      -0.467508       -12.7215
  73   1.0000      -0.467008       -12.7079
  74   1.0000      -0.463102       -12.6017
  75   1.0000      -0.459011       -12.4903
  76   1.0000      -0.458363       -12.4727
  77   1.0000      -0.456152       -12.4125
  78   1.0000      -0.455561       -12.3964
  79   1.0000      -0.453895       -12.3511
  80   1.0000      -0.452865       -12.3231
  81   1.0000      -0.451903       -12.2969
  82   1.0000      -0.448385       -12.2012
  83   1.0000      -0.447783       -12.1848
  84   1.0000      -0.445060       -12.1107
  85   1.0000      -0.443493       -12.0681
  86   1.0000      -0.441290       -12.0081
  87   1.0000      -0.440132       -11.9766
  88   1.0000      -0.436949       -11.8900
  89   1.0000      -0.435225       -11.8431
  90   1.0000      -0.434312       -11.8182
  91   1.0000      -0.431173       -11.7328
  92   1.0000      -0.425961       -11.5910
  93   1.0000      -0.424665       -11.5557
  94   1.0000      -0.422152       -11.4873
  95   1.0000      -0.419008       -11.4018
  96   1.0000      -0.416904       -11.3445
  97   1.0000      -0.414536       -11.2801
  98   1.0000      -0.409658       -11.1474
  99   1.0000      -0.409358       -11.1392
 100   1.0000      -0.405532       -11.0351
 101   1.0000      -0.405428       -11.0323
 102   1.0000      -0.400859       -10.9079
 103   1.0000      -0.397671       -10.8212
 104   1.0000      -0.394612       -10.7379
 105   1.0000      -0.391035       -10.6406
 106   1.0000      -0.386856       -10.5269
 107   1.0000      -0.383809       -10.4440
 108   1.0000      -0.382361       -10.4046
 109   1.0000      -0.380454       -10.3527
 110   1.0000      -0.379814       -10.3353
 111   1.0000      -0.378973       -10.3124
 112   1.0000      -0.375956       -10.2303
 113   1.0000      -0.375735       -10.2243
 114   1.0000      -0.372905       -10.1473
 115   1.0000      -0.370643       -10.0857
 116   1.0000      -0.370046       -10.0695
 117   1.0000      -0.368010       -10.0141
 118   1.0000      -0.366376        -9.9696
 119   1.0000      -0.365588        -9.9482
 120   1.0000      -0.364868        -9.9286
 121   1.0000      -0.363694        -9.8966
 122   1.0000      -0.361379        -9.8336
 123   1.0000      -0.360427        -9.8077
 124   1.0000      -0.357776        -9.7356
 125   1.0000      -0.356912        -9.7121
 126   1.0000      -0.354717        -9.6523
 127   1.0000      -0.351533        -9.5657
 128   1.0000      -0.351099        -9.5539
 129   1.0000      -0.349382        -9.5072
 130   1.0000      -0.348807        -9.4915
 131   1.0000      -0.345540        -9.4026
 132   1.0000      -0.343523        -9.3477
 133   1.0000      -0.343137        -9.3372
 134   1.0000      -0.340775        -9.2730
 135   1.0000      -0.338551        -9.2124
 136   1.0000      -0.331882        -9.0310
 137   1.0000      -0.331536        -9.0215
 138   1.0000      -0.329167        -8.9571
 139   1.0000      -0.324231        -8.8228
 140   1.0000      -0.323393        -8.8000
 141   1.0000      -0.315102        -8.5744
 142   1.0000      -0.302569        -8.2333
 143   1.0000      -0.298894        -8.1333
 144   1.0000      -0.238741        -6.4965
 145   1.0000      -0.228394        -6.2149
 146   1.0000      -0.217284        -5.9126
 147   0.0000      -0.137555        -3.7431
 148   0.0000      -0.096965        -2.6385
 149   0.0000      -0.085571        -2.3285
 150   0.0000      -0.072017        -1.9597
 151   0.0000      -0.061527        -1.6742

                 SPIN DOWN ORBITALS
  NO   OCC          E(Eh)            E(eV)
   0   1.0000    -237.631026     -6466.2689
   1   1.0000     -28.032234      -762.7959
   2   1.0000     -23.958788      -651.9518
   3   1.0000     -23.958496      -651.9438
   4   1.0000     -23.957806      -651.9250
   5   1.0000      -4.411734      -120.0494
   6   1.0000      -4.405093      -119.8687
   7   1.0000      -4.404222      -119.8450
   8   1.0000      -4.399765      -119.7237
   9   1.0000      -4.399635      -119.7201
  10   1.0000      -4.398989      -119.7026
  11   1.0000      -4.398981      -119.7024
  12   1.0000      -4.398738      -119.6957
  13   1.0000      -4.397084      -119.6507
  14   1.0000      -4.395663      -119.6121
  15   1.0000      -4.393581      -119.5554
  16   1.0000      -4.393387      -119.5501
  17   1.0000      -4.392583      -119.5282
  18   1.0000      -4.390287      -119.4658
  19   1.0000      -3.326326       -90.5139
  20   1.0000      -2.529707       -68.8368
  21   1.0000      -2.529454       -68.8300
  22   1.0000      -2.527469       -68.7759
  23   1.0000      -2.525526       -68.7230
  24   1.0000      -2.524209       -68.6872
  25   1.0000      -2.522173       -68.6318
  26   1.0000      -2.521526       -68.6142
  27   1.0000      -2.521322       -68.6087
  28   1.0000      -2.521137       -68.6036
  29   1.0000      -2.519948       -68.5713
  30   1.0000      -2.519769       -68.5664
  31   1.0000      -2.519133       -68.5491
  32   1.0000      -2.518436       -68.5301
  33   1.0000      -2.517667       -68.5092
  34   1.0000      -2.517440       -68.5030
  35   1.0000      -2.516849       -68.4869
  36   1.0000      -2.516604       -68.4803
  37   1.0000      -2.515887       -68.4608
  38   1.0000      -2.515602       -68.4530
  39   1.0000      -2.515553       -68.4517
  40   1.0000      -2.515253       -68.4435
  41   1.0000      -2.514191       -68.4146
  42   1.0000      -2.513857       -68.4055
  43   1.0000      -2.513233       -68.3885
  44   1.0000      -2.513101       -68.3849
  45   1.0000      -2.512811       -68.3771
  46   1.0000      -2.512439       -68.3669
  47   1.0000      -2.512267       -68.3623
  48   1.0000      -2.511765       -68.3486
  49   1.0000      -2.511154       -68.3320
  50   1.0000      -2.511017       -68.3283
  51   1.0000      -2.510784       -68.3219
  52   1.0000      -2.509882       -68.2974
  53   1.0000      -2.509709       -68.2927
  54   1.0000      -2.509454       -68.2857
  55   1.0000      -2.509023       -68.2740
  56   1.0000      -2.508438       -68.2581
  57   1.0000      -2.507965       -68.2452
  58   1.0000      -2.507239       -68.2255
  59   1.0000      -2.506454       -68.2041
  60   1.0000      -2.505918       -68.1895
  61   1.0000      -2.505789       -68.1860
  62   1.0000      -2.087650       -56.8078
  63   1.0000      -2.086930       -56.7882
  64   1.0000      -2.085477       -56.7487
  65   1.0000      -0.501002       -13.6330
  66   1.0000      -0.475834       -12.9481
  67   1.0000      -0.472604       -12.8602
  68   1.0000      -0.470182       -12.7943
  69   1.0000      -0.469952       -12.7880
  70   1.0000      -0.465309       -12.6617
  71   1.0000      -0.464064       -12.6278
  72   1.0000      -0.462494       -12.5851
  73   1.0000      -0.462146       -12.5756
  74   1.0000      -0.460975       -12.5438
  75   1.0000      -0.460552       -12.5323
  76   1.0000      -0.457337       -12.4448
  77   1.0000      -0.456814       -12.4305
  78   1.0000      -0.451876       -12.2962
  79   1.0000      -0.449335       -12.2270
  80   1.0000      -0.447350       -12.1730
  81   1.0000      -0.444478       -12.0949
  82   1.0000      -0.444401       -12.0928
  83   1.0000      -0.442020       -12.0280
  84   1.0000      -0.438957       -11.9446
  85   1.0000      -0.438519       -11.9327
  86   1.0000      -0.434888       -11.8339
  87   1.0000      -0.433049       -11.7839
  88   1.0000      -0.427694       -11.6382
  89   1.0000      -0.426334       -11.6011
  90   1.0000      -0.424700       -11.5567
  91   1.0000      -0.422384       -11.4937
  92   1.0000      -0.420738       -11.4489
  93   1.0000      -0.416211       -11.3257
  94   1.0000      -0.413569       -11.2538
  95   1.0000      -0.411076       -11.1859
  96   1.0000      -0.408410       -11.1134
  97   1.0000      -0.404887       -11.0175
  98   1.0000      -0.401829       -10.9343
  99   1.0000      -0.400114       -10.8876
 100   1.0000      -0.398709       -10.8494
 101   1.0000      -0.396166       -10.7802
 102   1.0000      -0.389103       -10.5880
 103   1.0000      -0.388292       -10.5660
 104   1.0000      -0.384787       -10.4706
 105   1.0000      -0.382872       -10.4185
 106   1.0000      -0.382182       -10.3997
 107   1.0000      -0.379835       -10.3358
 108   1.0000      -0.378079       -10.2881
 109   1.0000      -0.377436       -10.2705
 110   1.0000      -0.373042       -10.1510
 111   1.0000      -0.371925       -10.1206
 112   1.0000      -0.371503       -10.1091
 113   1.0000      -0.369333       -10.0500
 114   1.0000      -0.368251       -10.0206
 115   1.0000      -0.366864        -9.9829
 116   1.0000      -0.365119        -9.9354
 117   1.0000      -0.364327        -9.9138
 118   1.0000      -0.362886        -9.8746
 119   1.0000      -0.360394        -9.8068
 120   1.0000      -0.359863        -9.7924
 121   1.0000      -0.357165        -9.7190
 122   1.0000      -0.354524        -9.6471
 123   1.0000      -0.353030        -9.6064
 124   1.0000      -0.351115        -9.5543
 125   1.0000      -0.350282        -9.5317
 126   1.0000      -0.348970        -9.4960
 127   1.0000      -0.346841        -9.4380
 128   1.0000      -0.345505        -9.4017
 129   1.0000      -0.343829        -9.3561
 130   1.0000      -0.340540        -9.2666
 131   1.0000      -0.334788        -9.1101
 132   1.0000      -0.333541        -9.0761
 133   1.0000      -0.330795        -9.0014
 134   1.0000      -0.327653        -8.9159
 135   1.0000      -0.326184        -8.8759
 136   1.0000      -0.318603        -8.6696
 137   1.0000      -0.316169        -8.6034
 138   1.0000      -0.314709        -8.5637
 139   1.0000      -0.246320        -6.7027
 140   1.0000      -0.238625        -6.4933
 141   1.0000      -0.237154        -6.4533
 142   1.0000      -0.231017        -6.2863
 143   1.0000      -0.187017        -5.0890
 144   0.0000      -0.089118        -2.4250
 145   0.0000      -0.076109        -2.0710
 146   0.0000      -0.068146        -1.8544
 147   0.0000      -0.061002        -1.6600
 148   0.0000      -0.060180        -1.6376

MULLIKEN ATOMIC CHARGES AND SPIN POPULATIONS
--------------------------------------------
   0 Au:    0.035779   -0.223148
   1 Au:    0.314252   -0.128729
   2 Au:    0.180287   -0.036598
   3 Au:   -0.119589   -0.173556
   4 Au:    0.142239   -0.183198
   5 Au:    0.227493   -0.044276
   6 Au:    0.373271    0.045952
   7 Au:    0.103173   -0.173723
   8 Au:   -0.117260   -0.259021
   9 Au:    0.055544   -0.207093
  10 Au:    0.267182   -0.061897
  11 Au:    0.200273    0.087172
  12 Au:   -0.154953    0.013890
  13 Au:    0.301829   -0.214163
  14 Mn:   -1.809521    4.558390
Sum of atomic charges         :   -0.0000000

LOEWDIN ATOMIC CHARGES AND SPIN POPULATIONS
-------------------------------------------
   0 Au:    0.011063   -0.194429
   1 Au:    0.064174   -0.168660
   2 Au:    0.007274   -0.044274
   3 Au:   -0.044924   -0.109209
   4 Au:    0.029002   -0.138921
   5 Au:    0.078234   -0.116072
   6 Au:    0.082732    0.010382
   7 Au:   -0.026271   -0.119669
   8 Au:   -0.027588   -0.155591
   9 Au:   -0.013455   -0.155227
  10 Au:    0.080000   -0.137721
  11 Au:    0.005606    0.024261
  12 Au:   -0.053568   -0.036215
  13 Au:    0.052114   -0.178506
  14 Mn:   -0.244394    4.519850

  Mayer bond orders larger than 0.100000
B(  0-Au,  1-Au) :   0.1386 B(  0-Au,  3-Au) :   0.2310 B(  0-Au,  8-Au) :   0.1926
B(  0-Au,  9-Au) :   0.2452 B(  0-Au, 11-Au) :   0.2702 B(  0-Au, 14-Mn) :   0.3059
B(  1-Au,  2-Au) :   0.2403 B(  1-Au,  3-Au) :   0.2921 B(  1-Au,  9-Au) :   0.1917
B(  1-Au, 14-Mn) :   0.3655 B(  2-Au,  5-Au) :   0.1372 B(  2-Au,  7-Au) :   0.1840
B(  2-Au,  9-Au) :   0.2049 B(  2-Au, 14-Mn) :   0.4102 B(  3-Au,  4-Au) :   0.2139
B(  3-Au,  6-Au) :   0.2925 B(  3-Au, 11-Au) :   0.1829 B(  3-Au, 12-Au) :   0.1151
B(  3-Au, 14-Mn) :   0.3702 B(  4-Au,  5-Au) :   0.2684 B(  4-Au,  6-Au) :   0.2360
B(  4-Au, 12-Au) :   0.1049 B(  4-Au, 14-Mn) :   0.4010 B(  5-Au,  7-Au) :   0.2243
B(  5-Au, 14-Mn) :   0.4785 B(  6-Au, 11-Au) :   0.1968 B(  6-Au, 12-Au) :   0.2901
B(  7-Au, 10-Au) :   0.2583 B(  7-Au, 13-Au) :   0.2157 B(  7-Au, 14-Mn) :   0.3572
B(  8-Au, 10-Au) :   0.3152 B(  8-Au, 11-Au) :   0.2861 B(  8-Au, 12-Au) :   0.1609
B(  8-Au, 13-Au) :   0.1774 B(  8-Au, 14-Mn) :   0.4778 B(  9-Au, 10-Au) :   0.2471
B(  9-Au, 14-Mn) :   0.3693 B( 10-Au, 13-Au) :   0.1812 B( 10-Au, 14-Mn) :   0.1424
B( 11-Au, 12-Au) :   0.2266 B( 11-Au, 14-Mn) :   0.1151 B( 12-Au, 13-Au) :   0.3781
B( 12-Au, 14-Mn) :   0.4409 B( 13-Au, 14-Mn) :   0.3129

MP2 TOTAL ENERGY:    -3049.053049056 Eh
FINAL SINGLE POINT ENERGY     -3049.053049056415

DIPOLE MOMENT
-------------
                                X             Y             Z
Electronic contribution:     -4.81073     -17.40441       7.06647
Nuclear contribution   :      4.81103      17.35415      -7.03448
                        -----------------------------------------
Total Dipole Moment    :      0.00030      -0.05026       0.03199
                        -----------------------------------------
Magnitude (a.u.)       :      0.05958
Magnitude (Debye)      :      0.15144

Rotational constants in cm-1:     0.001225     0.000913     0.000900
Rotational constants in MHz :    36.736887    27.369386    26.994364

                             ****ORCA TERMINATED NORMALLY****
TOTAL RUN TIME: 0 days 1 hours 3 minutes 13 seconds 125 msec
