                         Program Version 5.0.3 -  RELEASE  -
|  1> !PBE def2-TZVP VERYSLOWCONV
|  2> !KDIIS
|  3>
|  4> %scf
|  5>   AutoTRAHIter 200
|  6>   maxiter 400
|  7> end
|  8>
|  9>
| 10> %pal nprocs 6 end
| 11>
| 12> *xyzfile 0 6 pbe.xyz
| 13>
| 14> $new_job
| 15>
| 16> !PBE def2-TZVP VERYSLOWCONV
| 17> !KDIIS
| 18>
| 19> %scf
| 20>   AutoTRAHIter 200
| 21>   maxiter 400
| 22> end
| 23>
| 24>
| 25> %pal nprocs 6 end
| 26>
| 27> *xyzfile 0 4 pbe.xyz
| 28>
| 29>
| 30>
| 31>
| 32>
| 33>                          ****END OF INPUT****
 Total Charge           Charge          ....    0
 Multiplicity           Mult            ....    6
 Number of Electrons    NEL             ....  291
FINAL SINGLE POINT ENERGY     -3052.377072000947

CARTESIAN COORDINATES (ANGSTROEM)
---------------------------------
  Au     5.617244    6.297225    9.466842
  Au     5.861047    9.102528    9.338027
  Au     6.331228   10.087753    6.821808
  Au     7.801819    7.618676   10.527801
  Au    10.091567    8.479392    9.036365
  Au     9.190233   10.078674    7.084051
  Au    10.134208    6.170339   10.622105
  Au     7.916325    8.797411    4.986538
  Au     6.848084    5.310491    7.184445
  Au     5.078842    7.616839    7.007688
  Au     6.228621    6.652746    4.746421
  Au     7.852035    4.772372    9.774613
  Au     9.708263    5.735192    7.918554
  Au     8.933215    6.255992    5.432449
  Mn     7.817000    7.830846    7.660687

 Multiplicity           Mult            ....    4
 Number of Electrons    NEL             ....  291
 Basis Dimension        Dim             ....  605

ORBITAL ENERGIES
----------------
                 SPIN UP ORBITALS
  NO   OCC          E(Eh)            E(eV)
   0   1.0000    -234.208555     -6373.1388
   1   1.0000     -26.901537      -732.0280
   2   1.0000     -23.051140      -627.2534
   3   1.0000     -23.050237      -627.2288
   4   1.0000     -23.048929      -627.1932
   5   1.0000      -4.039681      -109.9253
   6   1.0000      -4.032848      -109.7394
   7   1.0000      -4.032693      -109.7352
   8   1.0000      -4.029117      -109.6379
   9   1.0000      -4.029110      -109.6377
  10   1.0000      -4.028249      -109.6142
  11   1.0000      -4.027439      -109.5922
  12   1.0000      -4.027301      -109.5884
  13   1.0000      -4.026156      -109.5573
  14   1.0000      -4.024014      -109.4990
  15   1.0000      -4.023416      -109.4827
  16   1.0000      -4.022935      -109.4696
  17   1.0000      -4.022514      -109.4582
  18   1.0000      -4.019906      -109.3872
  19   1.0000      -3.110540       -84.6421
  20   1.0000      -2.254194       -61.3397
  21   1.0000      -2.253527       -61.3216
  22   1.0000      -2.250509       -61.2395
  23   1.0000      -2.250035       -61.2266
  24   1.0000      -2.247763       -61.1647
  25   1.0000      -2.247619       -61.1608
  26   1.0000      -2.245778       -61.1107
  27   1.0000      -2.245406       -61.1006
  28   1.0000      -2.244964       -61.0886
  29   1.0000      -2.244870       -61.0860
  30   1.0000      -2.244066       -61.0641
  31   1.0000      -2.243651       -61.0528
  32   1.0000      -2.243405       -61.0462
  33   1.0000      -2.242534       -61.0225
  34   1.0000      -2.241785       -61.0021
  35   1.0000      -2.241724       -61.0004
  36   1.0000      -2.241313       -60.9892
  37   1.0000      -2.241119       -60.9839
  38   1.0000      -2.240568       -60.9689
  39   1.0000      -2.240281       -60.9612
  40   1.0000      -2.240069       -60.9554
  41   1.0000      -2.239156       -60.9305
  42   1.0000      -2.238623       -60.9160
  43   1.0000      -2.238440       -60.9110
  44   1.0000      -2.238205       -60.9046
  45   1.0000      -2.238013       -60.8994
  46   1.0000      -2.237804       -60.8937
  47   1.0000      -2.237463       -60.8845
  48   1.0000      -2.237207       -60.8775
  49   1.0000      -2.236752       -60.8651
  50   1.0000      -2.236336       -60.8538
  51   1.0000      -2.236142       -60.8485
  52   1.0000      -2.235605       -60.8339
  53   1.0000      -2.235412       -60.8287
  54   1.0000      -2.235198       -60.8228
  55   1.0000      -2.234824       -60.8126
  56   1.0000      -2.234572       -60.8058
  57   1.0000      -2.234146       -60.7942
  58   1.0000      -2.232943       -60.7615
  59   1.0000      -2.231928       -60.7338
  60   1.0000      -2.230469       -60.6941
  61   1.0000      -2.229697       -60.6731
  62   1.0000      -2.015512       -54.8449
  63   1.0000      -2.012645       -54.7668
  64   1.0000      -2.010942       -54.7205
  65   1.0000      -0.428359       -11.6562
  66   1.0000      -0.390611       -10.6291
  67   1.0000      -0.386086       -10.5059
  68   1.0000      -0.381843       -10.3905
  69   1.0000      -0.372166       -10.1272
  70   1.0000      -0.371166       -10.1000
  71   1.0000      -0.368005       -10.0139
  72   1.0000      -0.367335        -9.9957
  73   1.0000      -0.363624        -9.8947
  74   1.0000      -0.361573        -9.8389
  75   1.0000      -0.357798        -9.7362
  76   1.0000      -0.354209        -9.6385
  77   1.0000      -0.353463        -9.6182
  78   1.0000      -0.351930        -9.5765
  79   1.0000      -0.349106        -9.4997
  80   1.0000      -0.344300        -9.3689
  81   1.0000      -0.341556        -9.2942
  82   1.0000      -0.341339        -9.2883
  83   1.0000      -0.340160        -9.2562
  84   1.0000      -0.339392        -9.2353
  85   1.0000      -0.337177        -9.1751
  86   1.0000      -0.334877        -9.1125
  87   1.0000      -0.332320        -9.0429
  88   1.0000      -0.331273        -9.0144
  89   1.0000      -0.328524        -8.9396
  90   1.0000      -0.328321        -8.9341
  91   1.0000      -0.324237        -8.8229
  92   1.0000      -0.323435        -8.8011
  93   1.0000      -0.321235        -8.7413
  94   1.0000      -0.316728        -8.6186
  95   1.0000      -0.313642        -8.5346
  96   1.0000      -0.310873        -8.4593
  97   1.0000      -0.307825        -8.3763
  98   1.0000      -0.305147        -8.3035
  99   1.0000      -0.304242        -8.2789
 100   1.0000      -0.301727        -8.2104
 101   1.0000      -0.297681        -8.1003
 102   1.0000      -0.296506        -8.0683
 103   1.0000      -0.293793        -7.9945
 104   1.0000      -0.289945        -7.8898
 105   1.0000      -0.288188        -7.8420
 106   1.0000      -0.287314        -7.8182
 107   1.0000      -0.285609        -7.7718
 108   1.0000      -0.282343        -7.6829
 109   1.0000      -0.281745        -7.6667
 110   1.0000      -0.279940        -7.6175
 111   1.0000      -0.279123        -7.5953
 112   1.0000      -0.275902        -7.5077
 113   1.0000      -0.275117        -7.4863
 114   1.0000      -0.274635        -7.4732
 115   1.0000      -0.272723        -7.4212
 116   1.0000      -0.270971        -7.3735
 117   1.0000      -0.269762        -7.3406
 118   1.0000      -0.266924        -7.2634
 119   1.0000      -0.264614        -7.2005
 120   1.0000      -0.263834        -7.1793
 121   1.0000      -0.262821        -7.1517
 122   1.0000      -0.262147        -7.1334
 123   1.0000      -0.261554        -7.1172
 124   1.0000      -0.260441        -7.0870
 125   1.0000      -0.259036        -7.0487
 126   1.0000      -0.257962        -7.0195
 127   1.0000      -0.256161        -6.9705
 128   1.0000      -0.254856        -6.9350
 129   1.0000      -0.253515        -6.8985
 130   1.0000      -0.252802        -6.8791
 131   1.0000      -0.251148        -6.8341
 132   1.0000      -0.250897        -6.8272
 133   1.0000      -0.249235        -6.7820
 134   1.0000      -0.246467        -6.7067
 135   1.0000      -0.246212        -6.6998
 136   1.0000      -0.245319        -6.6755
 137   1.0000      -0.244427        -6.6512
 138   1.0000      -0.243450        -6.6246
 139   1.0000      -0.242959        -6.6113
 140   1.0000      -0.240952        -6.5566
 141   1.0000      -0.239439        -6.5155
 142   1.0000      -0.236927        -6.4471
 143   1.0000      -0.231223        -6.2919
 144   1.0000      -0.215176        -5.8552
 145   1.0000      -0.208004        -5.6601
 146   1.0000      -0.199739        -5.4352
 147   0.0000      -0.195655        -5.3240
 148   0.0000      -0.164322        -4.4714
 149   0.0000      -0.148010        -4.0275
 150   0.0000      -0.137501        -3.7416
 151   0.0000      -0.128126        -3.4865

                 SPIN DOWN ORBITALS
  NO   OCC          E(Eh)            E(eV)
   0   1.0000    -234.207854     -6373.1197
   1   1.0000     -26.835587      -730.2334
   2   1.0000     -23.001369      -625.8991
   3   1.0000     -23.000389      -625.8724
   4   1.0000     -22.998318      -625.8160
   5   1.0000      -4.039676      -109.9252
   6   1.0000      -4.033093      -109.7460
   7   1.0000      -4.032736      -109.7363
   8   1.0000      -4.030026      -109.6626
   9   1.0000      -4.028886      -109.6316
  10   1.0000      -4.028689      -109.6262
  11   1.0000      -4.027502      -109.5939
  12   1.0000      -4.026940      -109.5786
  13   1.0000      -4.026572      -109.5686
  14   1.0000      -4.024694      -109.5175
  15   1.0000      -4.024206      -109.5042
  16   1.0000      -4.022864      -109.4677
  17   1.0000      -4.022219      -109.4502
  18   1.0000      -4.020345      -109.3991
  19   1.0000      -2.948614       -80.2359
  20   1.0000      -2.254162       -61.3389
  21   1.0000      -2.252948       -61.3058
  22   1.0000      -2.251047       -61.2541
  23   1.0000      -2.250488       -61.2389
  24   1.0000      -2.248081       -61.1734
  25   1.0000      -2.247672       -61.1623
  26   1.0000      -2.245745       -61.1098
  27   1.0000      -2.245539       -61.1042
  28   1.0000      -2.245122       -61.0929
  29   1.0000      -2.244657       -61.0802
  30   1.0000      -2.244305       -61.0707
  31   1.0000      -2.244196       -61.0677
  32   1.0000      -2.243782       -61.0564
  33   1.0000      -2.242970       -61.0343
  34   1.0000      -2.242253       -61.0148
  35   1.0000      -2.241838       -61.0035
  36   1.0000      -2.241458       -60.9932
  37   1.0000      -2.241021       -60.9813
  38   1.0000      -2.240818       -60.9757
  39   1.0000      -2.240366       -60.9635
  40   1.0000      -2.239809       -60.9483
  41   1.0000      -2.239658       -60.9442
  42   1.0000      -2.238936       -60.9245
  43   1.0000      -2.238899       -60.9235
  44   1.0000      -2.238576       -60.9147
  45   1.0000      -2.238523       -60.9133
  46   1.0000      -2.238017       -60.8995
  47   1.0000      -2.237527       -60.8862
  48   1.0000      -2.237329       -60.8808
  49   1.0000      -2.237134       -60.8755
  50   1.0000      -2.236615       -60.8614
  51   1.0000      -2.236201       -60.8501
  52   1.0000      -2.235976       -60.8440
  53   1.0000      -2.235922       -60.8425
  54   1.0000      -2.235282       -60.8251
  55   1.0000      -2.235255       -60.8244
  56   1.0000      -2.234799       -60.8120
  57   1.0000      -2.234542       -60.8050
  58   1.0000      -2.233209       -60.7687
  59   1.0000      -2.232529       -60.7502
  60   1.0000      -2.230644       -60.6989
  61   1.0000      -2.229682       -60.6727
  62   1.0000      -1.857127       -50.5350
  63   1.0000      -1.854585       -50.4658
  64   1.0000      -1.850372       -50.3512
  65   1.0000      -0.424117       -11.5408
  66   1.0000      -0.390102       -10.6152
  67   1.0000      -0.385317       -10.4850
  68   1.0000      -0.381728       -10.3873
  69   1.0000      -0.369183       -10.0460
  70   1.0000      -0.368151       -10.0179
  71   1.0000      -0.366159        -9.9637
  72   1.0000      -0.364159        -9.9093
  73   1.0000      -0.361433        -9.8351
  74   1.0000      -0.360642        -9.8136
  75   1.0000      -0.357598        -9.7307
  76   1.0000      -0.355098        -9.6627
  77   1.0000      -0.352809        -9.6004
  78   1.0000      -0.352534        -9.5929
  79   1.0000      -0.348237        -9.4760
  80   1.0000      -0.344164        -9.3652
  81   1.0000      -0.341877        -9.3029
  82   1.0000      -0.340882        -9.2759
  83   1.0000      -0.339583        -9.2405
  84   1.0000      -0.338017        -9.1979
  85   1.0000      -0.335807        -9.1378
  86   1.0000      -0.333367        -9.0714
  87   1.0000      -0.332155        -9.0384
  88   1.0000      -0.328637        -8.9427
  89   1.0000      -0.326281        -8.8786
  90   1.0000      -0.324166        -8.8210
  91   1.0000      -0.323254        -8.7962
  92   1.0000      -0.320511        -8.7216
  93   1.0000      -0.317430        -8.6377
  94   1.0000      -0.315348        -8.5811
  95   1.0000      -0.312941        -8.5156
  96   1.0000      -0.309264        -8.4155
  97   1.0000      -0.306016        -8.3271
  98   1.0000      -0.305108        -8.3024
  99   1.0000      -0.301432        -8.2024
 100   1.0000      -0.301295        -8.1987
 101   1.0000      -0.297477        -8.0948
 102   1.0000      -0.294060        -8.0018
 103   1.0000      -0.291656        -7.9364
 104   1.0000      -0.289145        -7.8680
 105   1.0000      -0.286880        -7.8064
 106   1.0000      -0.286407        -7.7935
 107   1.0000      -0.283947        -7.7266
 108   1.0000      -0.282104        -7.6764
 109   1.0000      -0.280571        -7.6347
 110   1.0000      -0.279032        -7.5928
 111   1.0000      -0.277563        -7.5529
 112   1.0000      -0.275734        -7.5031
 113   1.0000      -0.274950        -7.4818
 114   1.0000      -0.272963        -7.4277
 115   1.0000      -0.272269        -7.4088
 116   1.0000      -0.270591        -7.3631
 117   1.0000      -0.269777        -7.3410
 118   1.0000      -0.267660        -7.2834
 119   1.0000      -0.265441        -7.2230
 120   1.0000      -0.264486        -7.1970
 121   1.0000      -0.262967        -7.1557
 122   1.0000      -0.261993        -7.1292
 123   1.0000      -0.261123        -7.1055
 124   1.0000      -0.259699        -7.0668
 125   1.0000      -0.257986        -7.0202
 126   1.0000      -0.256541        -6.9808
 127   1.0000      -0.255828        -6.9614
 128   1.0000      -0.254381        -6.9220
 129   1.0000      -0.252957        -6.8833
 130   1.0000      -0.251464        -6.8427
 131   1.0000      -0.248075        -6.7505
 132   1.0000      -0.247084        -6.7235
 133   1.0000      -0.246110        -6.6970
 134   1.0000      -0.245254        -6.6737
 135   1.0000      -0.244557        -6.6547
 136   1.0000      -0.241328        -6.5669
 137   1.0000      -0.240534        -6.5453
 138   1.0000      -0.232725        -6.3328
 139   1.0000      -0.221270        -6.0211
 140   1.0000      -0.214677        -5.8416
 141   1.0000      -0.212328        -5.7778
 142   1.0000      -0.209523        -5.7014
 143   1.0000      -0.176316        -4.7978
 144   0.0000      -0.150947        -4.1075
 145   0.0000      -0.143802        -3.9130
 146   0.0000      -0.135066        -3.6753
 147   0.0000      -0.133595        -3.6353
 148   0.0000      -0.132463        -3.6045

MULLIKEN ATOMIC CHARGES AND SPIN POPULATIONS
--------------------------------------------
   0 Au:    0.075743   -0.174827
   1 Au:    0.335844   -0.099725
   2 Au:    0.225994   -0.025756
   3 Au:   -0.105713   -0.089008
   4 Au:    0.167178   -0.093269
   5 Au:    0.278462   -0.027024
   6 Au:    0.413648    0.025397
   7 Au:    0.132546   -0.097333
   8 Au:   -0.113824   -0.164606
   9 Au:    0.061285   -0.127862
  10 Au:    0.318058   -0.084014
  11 Au:    0.218704    0.034259
  12 Au:   -0.103860    0.008395
  13 Au:    0.301075   -0.134989
  14 Mn:   -2.205139    4.050364
Sum of atomic charges         :    0.0000000

LOEWDIN ATOMIC CHARGES AND SPIN POPULATIONS
-------------------------------------------
   0 Au:    0.023609   -0.147509
   1 Au:    0.081926   -0.126182
   2 Au:    0.027326   -0.032315
   3 Au:   -0.023102   -0.064468
   4 Au:    0.052329   -0.085038
   5 Au:    0.101148   -0.072601
   6 Au:    0.068851    0.000627
   7 Au:   -0.007124   -0.069775
   8 Au:   -0.001075   -0.105747
   9 Au:    0.007567   -0.104915
  10 Au:    0.073210   -0.122718
  11 Au:    0.007202    0.004498
  12 Au:   -0.017371   -0.023885
  13 Au:    0.065688   -0.126825
  14 Mn:   -0.460184    4.076852

  Mayer bond orders larger than 0.100000
B(  0-Au,  1-Au) :   0.1800 B(  0-Au,  3-Au) :   0.2863 B(  0-Au,  8-Au) :   0.2103
B(  0-Au,  9-Au) :   0.2638 B(  0-Au, 11-Au) :   0.3052 B(  0-Au, 14-Mn) :   0.3315
B(  1-Au,  2-Au) :   0.2630 B(  1-Au,  3-Au) :   0.3325 B(  1-Au,  9-Au) :   0.2016
B(  1-Au, 14-Mn) :   0.3794 B(  2-Au,  5-Au) :   0.1620 B(  2-Au,  7-Au) :   0.2209
B(  2-Au,  9-Au) :   0.2351 B(  2-Au, 14-Mn) :   0.4329 B(  3-Au,  4-Au) :   0.2265
B(  3-Au,  6-Au) :   0.3266 B(  3-Au, 11-Au) :   0.2121 B(  3-Au, 12-Au) :   0.1108
B(  3-Au, 14-Mn) :   0.4089 B(  4-Au,  5-Au) :   0.2927 B(  4-Au,  6-Au) :   0.2721
B(  4-Au, 12-Au) :   0.1366 B(  4-Au, 14-Mn) :   0.4403 B(  5-Au,  7-Au) :   0.2517
B(  5-Au, 14-Mn) :   0.4856 B(  6-Au, 11-Au) :   0.2284 B(  6-Au, 12-Au) :   0.3099
B(  7-Au, 10-Au) :   0.3017 B(  7-Au, 13-Au) :   0.2434 B(  7-Au, 14-Mn) :   0.4130
B(  8-Au,  9-Au) :   0.1241 B(  8-Au, 10-Au) :   0.3179 B(  8-Au, 11-Au) :   0.3118
B(  8-Au, 12-Au) :   0.1803 B(  8-Au, 13-Au) :   0.2125 B(  8-Au, 14-Mn) :   0.5338
B(  9-Au, 10-Au) :   0.2911 B(  9-Au, 14-Mn) :   0.4260 B( 10-Au, 13-Au) :   0.2196
B( 10-Au, 14-Mn) :   0.1420 B( 11-Au, 12-Au) :   0.2605 B( 11-Au, 14-Mn) :   0.1107
B( 12-Au, 13-Au) :   0.4055 B( 12-Au, 14-Mn) :   0.4609 B( 13-Au, 14-Mn) :   0.3371

FINAL SINGLE POINT ENERGY     -3052.355673489380

DIPOLE MOMENT
-------------
                                X             Y             Z
Electronic contribution:     -4.81037     -17.44263       7.07339
Nuclear contribution   :      4.81103      17.35415      -7.03448
                        -----------------------------------------
Total Dipole Moment    :      0.00066      -0.08848       0.03890
                        -----------------------------------------
Magnitude (a.u.)       :      0.09665
Magnitude (Debye)      :      0.24568

Rotational constants in cm-1:     0.001225     0.000913     0.000900
Rotational constants in MHz :    36.736887    27.369386    26.994364

                             ****ORCA TERMINATED NORMALLY****
TOTAL RUN TIME: 0 days 0 hours 6 minutes 22 seconds 208 msec
