                         Program Version 5.0.3 -  RELEASE  -
|  1> !R2SCAN def2-TZVP VERYSLOWCONV
|  2> !KDIIS
|  3> %scf
|  4>   AutoTRAHIter 200
|  5>   maxiter 400
|  6> end
|  7>
|  8> %pal nprocs 6 end
|  9>
| 10> *xyzfile 0 6 pbe.xyz
| 11>
| 12> $new_job
| 13>
| 14> !R2SCAN def2-TZVP VERYSLOWCONV
| 15> !KDIIS
| 16> %scf
| 17>   AutoTRAHIter 200
| 18>   maxiter 400
| 19> end
| 20>
| 21>
| 22> %pal nprocs 6 end
| 23>
| 24> *xyzfile 0 4 pbe.xyz
| 25>
| 26>
| 27>
| 28>
| 29>
| 30>                          ****END OF INPUT****
 Total Charge           Charge          ....    0
 Multiplicity           Mult            ....    6
 Number of Electrons    NEL             ....  291
FINAL SINGLE POINT ENERGY     -3052.878452937905

CARTESIAN COORDINATES (ANGSTROEM)
---------------------------------
  Au     5.617244    6.297225    9.466842
  Au     5.861047    9.102528    9.338027
  Au     6.331228   10.087753    6.821808
  Au     7.801819    7.618676   10.527801
  Au    10.091567    8.479392    9.036365
  Au     9.190233   10.078674    7.084051
  Au    10.134208    6.170339   10.622105
  Au     7.916325    8.797411    4.986538
  Au     6.848084    5.310491    7.184445
  Au     5.078842    7.616839    7.007688
  Au     6.228621    6.652746    4.746421
  Au     7.852035    4.772372    9.774613
  Au     9.708263    5.735192    7.918554
  Au     8.933215    6.255992    5.432449
  Mn     7.817000    7.830846    7.660687

 Multiplicity           Mult            ....    4
 Number of Electrons    NEL             ....  291
 Basis Dimension        Dim             ....  605

ORBITAL ENERGIES
----------------
                 SPIN UP ORBITALS
  NO   OCC          E(Eh)            E(eV)
   0   1.0000    -235.052130     -6396.0936
   1   1.0000     -27.229169      -740.9434
   2   1.0000     -23.276711      -633.3915
   3   1.0000     -23.275842      -633.3678
   4   1.0000     -23.275090      -633.3474
   5   1.0000      -4.130912      -112.4078
   6   1.0000      -4.124120      -112.2230
   7   1.0000      -4.123961      -112.2187
   8   1.0000      -4.119950      -112.1095
   9   1.0000      -4.119681      -112.1022
  10   1.0000      -4.119202      -112.0892
  11   1.0000      -4.118749      -112.0769
  12   1.0000      -4.118700      -112.0755
  13   1.0000      -4.117229      -112.0355
  14   1.0000      -4.115057      -111.9764
  15   1.0000      -4.114873      -111.9714
  16   1.0000      -4.113900      -111.9449
  17   1.0000      -4.113678      -111.9389
  18   1.0000      -4.110486      -111.8520
  19   1.0000      -3.251338       -88.4734
  20   1.0000      -2.318285       -63.0837
  21   1.0000      -2.317828       -63.0713
  22   1.0000      -2.314537       -62.9817
  23   1.0000      -2.314097       -62.9698
  24   1.0000      -2.311762       -62.9062
  25   1.0000      -2.311040       -62.8866
  26   1.0000      -2.309957       -62.8571
  27   1.0000      -2.309774       -62.8522
  28   1.0000      -2.309089       -62.8335
  29   1.0000      -2.308829       -62.8264
  30   1.0000      -2.308004       -62.8040
  31   1.0000      -2.307733       -62.7966
  32   1.0000      -2.307127       -62.7801
  33   1.0000      -2.306211       -62.7552
  34   1.0000      -2.305893       -62.7465
  35   1.0000      -2.305601       -62.7386
  36   1.0000      -2.305358       -62.7320
  37   1.0000      -2.304795       -62.7167
  38   1.0000      -2.304201       -62.7005
  39   1.0000      -2.304116       -62.6982
  40   1.0000      -2.303858       -62.6912
  41   1.0000      -2.303285       -62.6756
  42   1.0000      -2.302580       -62.6564
  43   1.0000      -2.302139       -62.6444
  44   1.0000      -2.301868       -62.6370
  45   1.0000      -2.301781       -62.6346
  46   1.0000      -2.301471       -62.6262
  47   1.0000      -2.301248       -62.6201
  48   1.0000      -2.301004       -62.6135
  49   1.0000      -2.300397       -62.5970
  50   1.0000      -2.300158       -62.5905
  51   1.0000      -2.299773       -62.5800
  52   1.0000      -2.299325       -62.5678
  53   1.0000      -2.299176       -62.5638
  54   1.0000      -2.299045       -62.5602
  55   1.0000      -2.298934       -62.5572
  56   1.0000      -2.298212       -62.5375
  57   1.0000      -2.297961       -62.5307
  58   1.0000      -2.296468       -62.4901
  59   1.0000      -2.295204       -62.4557
  60   1.0000      -2.294053       -62.4244
  61   1.0000      -2.293992       -62.4227
  62   1.0000      -2.109756       -57.4094
  63   1.0000      -2.107254       -57.3413
  64   1.0000      -2.106371       -57.3173
  65   1.0000      -0.433706       -11.8017
  66   1.0000      -0.396395       -10.7865
  67   1.0000      -0.393519       -10.7082
  68   1.0000      -0.388952       -10.5839
  69   1.0000      -0.382740       -10.4149
  70   1.0000      -0.381501       -10.3812
  71   1.0000      -0.378132       -10.2895
  72   1.0000      -0.377302       -10.2669
  73   1.0000      -0.374230       -10.1833
  74   1.0000      -0.371577       -10.1111
  75   1.0000      -0.367569       -10.0021
  76   1.0000      -0.363887        -9.9019
  77   1.0000      -0.362978        -9.8771
  78   1.0000      -0.361333        -9.8324
  79   1.0000      -0.359165        -9.7734
  80   1.0000      -0.354455        -9.6452
  81   1.0000      -0.352625        -9.5954
  82   1.0000      -0.351069        -9.5531
  83   1.0000      -0.350543        -9.5388
  84   1.0000      -0.349265        -9.5040
  85   1.0000      -0.347974        -9.4689
  86   1.0000      -0.345135        -9.3916
  87   1.0000      -0.342725        -9.3260
  88   1.0000      -0.341281        -9.2867
  89   1.0000      -0.339721        -9.2443
  90   1.0000      -0.338585        -9.2134
  91   1.0000      -0.334145        -9.0925
  92   1.0000      -0.333029        -9.0622
  93   1.0000      -0.331397        -9.0178
  94   1.0000      -0.326319        -8.8796
  95   1.0000      -0.323523        -8.8035
  96   1.0000      -0.320682        -8.7262
  97   1.0000      -0.317536        -8.6406
  98   1.0000      -0.314375        -8.5546
  99   1.0000      -0.314112        -8.5474
 100   1.0000      -0.311630        -8.4799
 101   1.0000      -0.308496        -8.3946
 102   1.0000      -0.307182        -8.3589
 103   1.0000      -0.302745        -8.2381
 104   1.0000      -0.300877        -8.1873
 105   1.0000      -0.298720        -8.1286
 106   1.0000      -0.296570        -8.0701
 107   1.0000      -0.294377        -8.0104
 108   1.0000      -0.292404        -7.9567
 109   1.0000      -0.291182        -7.9235
 110   1.0000      -0.289275        -7.8716
 111   1.0000      -0.287996        -7.8368
 112   1.0000      -0.287019        -7.8102
 113   1.0000      -0.283981        -7.7275
 114   1.0000      -0.283538        -7.7155
 115   1.0000      -0.281800        -7.6682
 116   1.0000      -0.280403        -7.6302
 117   1.0000      -0.278729        -7.5846
 118   1.0000      -0.276053        -7.5118
 119   1.0000      -0.275565        -7.4985
 120   1.0000      -0.273885        -7.4528
 121   1.0000      -0.271983        -7.4010
 122   1.0000      -0.270982        -7.3738
 123   1.0000      -0.270867        -7.3707
 124   1.0000      -0.269642        -7.3373
 125   1.0000      -0.268602        -7.3090
 126   1.0000      -0.267141        -7.2693
 127   1.0000      -0.266648        -7.2559
 128   1.0000      -0.264418        -7.1952
 129   1.0000      -0.264150        -7.1879
 130   1.0000      -0.263895        -7.1810
 131   1.0000      -0.259911        -7.0725
 132   1.0000      -0.259595        -7.0639
 133   1.0000      -0.258454        -7.0329
 134   1.0000      -0.257679        -7.0118
 135   1.0000      -0.256125        -6.9695
 136   1.0000      -0.254046        -6.9129
 137   1.0000      -0.252395        -6.8680
 138   1.0000      -0.250618        -6.8197
 139   1.0000      -0.249746        -6.7959
 140   1.0000      -0.247785        -6.7426
 141   1.0000      -0.246441        -6.7060
 142   1.0000      -0.244893        -6.6639
 143   1.0000      -0.237812        -6.4712
 144   1.0000      -0.218067        -5.9339
 145   1.0000      -0.210327        -5.7233
 146   1.0000      -0.201827        -5.4920
 147   0.0000      -0.195803        -5.3281
 148   0.0000      -0.160935        -4.3793
 149   0.0000      -0.143774        -3.9123
 150   0.0000      -0.133885        -3.6432
 151   0.0000      -0.123955        -3.3730

                 SPIN DOWN ORBITALS
  NO   OCC          E(Eh)            E(eV)
   0   1.0000    -235.051120     -6396.0661
   1   1.0000     -27.140549      -738.5319
   2   1.0000     -23.208781      -631.5430
   3   1.0000     -23.208246      -631.5285
   4   1.0000     -23.206705      -631.4865
   5   1.0000      -4.131186      -112.4153
   6   1.0000      -4.124519      -112.2339
   7   1.0000      -4.124362      -112.2296
   8   1.0000      -4.121310      -112.1465
   9   1.0000      -4.119850      -112.1068
  10   1.0000      -4.119463      -112.0963
  11   1.0000      -4.119062      -112.0854
  12   1.0000      -4.118469      -112.0692
  13   1.0000      -4.117892      -112.0536
  14   1.0000      -4.116566      -112.0175
  15   1.0000      -4.115238      -111.9813
  16   1.0000      -4.113740      -111.9406
  17   1.0000      -4.113652      -111.9382
  18   1.0000      -4.110995      -111.8659
  19   1.0000      -3.039724       -82.7151
  20   1.0000      -2.318314       -63.0845
  21   1.0000      -2.317257       -63.0558
  22   1.0000      -2.315303       -63.0026
  23   1.0000      -2.314617       -62.9839
  24   1.0000      -2.312377       -62.9230
  25   1.0000      -2.311065       -62.8873
  26   1.0000      -2.309965       -62.8573
  27   1.0000      -2.309774       -62.8522
  28   1.0000      -2.309445       -62.8432
  29   1.0000      -2.308838       -62.8267
  30   1.0000      -2.308302       -62.8121
  31   1.0000      -2.308184       -62.8089
  32   1.0000      -2.307994       -62.8037
  33   1.0000      -2.306632       -62.7666
  34   1.0000      -2.306359       -62.7592
  35   1.0000      -2.305918       -62.7472
  36   1.0000      -2.305479       -62.7353
  37   1.0000      -2.305236       -62.7287
  38   1.0000      -2.304961       -62.7212
  39   1.0000      -2.304404       -62.7060
  40   1.0000      -2.304091       -62.6975
  41   1.0000      -2.303333       -62.6769
  42   1.0000      -2.303175       -62.6726
  43   1.0000      -2.303074       -62.6698
  44   1.0000      -2.302626       -62.6576
  45   1.0000      -2.301957       -62.6394
  46   1.0000      -2.301696       -62.6323
  47   1.0000      -2.301605       -62.6299
  48   1.0000      -2.301234       -62.6197
  49   1.0000      -2.301153       -62.6175
  50   1.0000      -2.300284       -62.5939
  51   1.0000      -2.300110       -62.5892
  52   1.0000      -2.299759       -62.5796
  53   1.0000      -2.299642       -62.5764
  54   1.0000      -2.299307       -62.5673
  55   1.0000      -2.299007       -62.5592
  56   1.0000      -2.298677       -62.5502
  57   1.0000      -2.298620       -62.5486
  58   1.0000      -2.296760       -62.4980
  59   1.0000      -2.295934       -62.4755
  60   1.0000      -2.294308       -62.4313
  61   1.0000      -2.294023       -62.4235
  62   1.0000      -1.899434       -51.6862
  63   1.0000      -1.897963       -51.6462
  64   1.0000      -1.894912       -51.5632
  65   1.0000      -0.430154       -11.7051
  66   1.0000      -0.396283       -10.7834
  67   1.0000      -0.392397       -10.6777
  68   1.0000      -0.389181       -10.5902
  69   1.0000      -0.378419       -10.2973
  70   1.0000      -0.376922       -10.2566
  71   1.0000      -0.375365       -10.2142
  72   1.0000      -0.373128       -10.1533
  73   1.0000      -0.370552       -10.0832
  74   1.0000      -0.369893       -10.0653
  75   1.0000      -0.367444        -9.9987
  76   1.0000      -0.365045        -9.9334
  77   1.0000      -0.362726        -9.8703
  78   1.0000      -0.362262        -9.8577
  79   1.0000      -0.357781        -9.7357
  80   1.0000      -0.353974        -9.6321
  81   1.0000      -0.351651        -9.5689
  82   1.0000      -0.350772        -9.5450
  83   1.0000      -0.349383        -9.5072
  84   1.0000      -0.348108        -9.4725
  85   1.0000      -0.345621        -9.4048
  86   1.0000      -0.343047        -9.3348
  87   1.0000      -0.341773        -9.3001
  88   1.0000      -0.338165        -9.2019
  89   1.0000      -0.335881        -9.1398
  90   1.0000      -0.333761        -9.0821
  91   1.0000      -0.332608        -9.0507
  92   1.0000      -0.329981        -8.9792
  93   1.0000      -0.326728        -8.8907
  94   1.0000      -0.324413        -8.8277
  95   1.0000      -0.322519        -8.7762
  96   1.0000      -0.318691        -8.6720
  97   1.0000      -0.315431        -8.5833
  98   1.0000      -0.314102        -8.5472
  99   1.0000      -0.310800        -8.4573
 100   1.0000      -0.310596        -8.4518
 101   1.0000      -0.306951        -8.3526
 102   1.0000      -0.302547        -8.2327
 103   1.0000      -0.300641        -8.1809
 104   1.0000      -0.298037        -8.1100
 105   1.0000      -0.295820        -8.0497
 106   1.0000      -0.295231        -8.0337
 107   1.0000      -0.292915        -7.9706
 108   1.0000      -0.290993        -7.9183
 109   1.0000      -0.289765        -7.8849
 110   1.0000      -0.287487        -7.8229
 111   1.0000      -0.286032        -7.7833
 112   1.0000      -0.284729        -7.7479
 113   1.0000      -0.283715        -7.7203
 114   1.0000      -0.281789        -7.6679
 115   1.0000      -0.280904        -7.6438
 116   1.0000      -0.279193        -7.5972
 117   1.0000      -0.278216        -7.5707
 118   1.0000      -0.276401        -7.5212
 119   1.0000      -0.274200        -7.4614
 120   1.0000      -0.273062        -7.4304
 121   1.0000      -0.271506        -7.3880
 122   1.0000      -0.270407        -7.3582
 123   1.0000      -0.269368        -7.3299
 124   1.0000      -0.267804        -7.2873
 125   1.0000      -0.266473        -7.2511
 126   1.0000      -0.264451        -7.1961
 127   1.0000      -0.264001        -7.1838
 128   1.0000      -0.262662        -7.1474
 129   1.0000      -0.261305        -7.1105
 130   1.0000      -0.259045        -7.0490
 131   1.0000      -0.255798        -6.9606
 132   1.0000      -0.254478        -6.9247
 133   1.0000      -0.253617        -6.9013
 134   1.0000      -0.252603        -6.8737
 135   1.0000      -0.251485        -6.8433
 136   1.0000      -0.248601        -6.7648
 137   1.0000      -0.247604        -6.7376
 138   1.0000      -0.239792        -6.5251
 139   1.0000      -0.223949        -6.0940
 140   1.0000      -0.216881        -5.9016
 141   1.0000      -0.215105        -5.8533
 142   1.0000      -0.211496        -5.7551
 143   1.0000      -0.175980        -4.7887
 144   0.0000      -0.146216        -3.9788
 145   0.0000      -0.138884        -3.7792
 146   0.0000      -0.129370        -3.5203
 147   0.0000      -0.123578        -3.3627
 148   0.0000      -0.122282        -3.3275

MULLIKEN ATOMIC CHARGES AND SPIN POPULATIONS
--------------------------------------------
   0 Au:    0.057319   -0.209461
   1 Au:    0.308030   -0.106200
   2 Au:    0.193152   -0.030537
   3 Au:   -0.092189   -0.121893
   4 Au:    0.148608   -0.117164
   5 Au:    0.246886   -0.029386
   6 Au:    0.376663    0.027357
   7 Au:    0.117879   -0.132082
   8 Au:   -0.096944   -0.191882
   9 Au:    0.062074   -0.159984
  10 Au:    0.280257   -0.097001
  11 Au:    0.193958    0.041290
  12 Au:   -0.104119    0.013745
  13 Au:    0.283853   -0.156302
  14 Mn:   -1.975427    4.269500
Sum of atomic charges         :   -0.0000000

LOEWDIN ATOMIC CHARGES AND SPIN POPULATIONS
-------------------------------------------
   0 Au:    0.018761   -0.174398
   1 Au:    0.074649   -0.140027
   2 Au:    0.018801   -0.037415
   3 Au:   -0.026202   -0.083533
   4 Au:    0.045355   -0.098383
   5 Au:    0.092651   -0.081051
   6 Au:    0.067345   -0.000477
   7 Au:   -0.012126   -0.091129
   8 Au:   -0.007025   -0.122062
   9 Au:    0.001048   -0.124532
  10 Au:    0.071063   -0.140984
  11 Au:    0.004969    0.003323
  12 Au:   -0.027292   -0.026057
  13 Au:    0.059978   -0.143249
  14 Mn:   -0.381976    4.259976

  Mayer bond orders larger than 0.100000
B(  0-Au,  1-Au) :   0.1570 B(  0-Au,  3-Au) :   0.2573 B(  0-Au,  8-Au) :   0.1937
B(  0-Au,  9-Au) :   0.2591 B(  0-Au, 11-Au) :   0.2958 B(  0-Au, 14-Mn) :   0.3103
B(  1-Au,  2-Au) :   0.2601 B(  1-Au,  3-Au) :   0.3273 B(  1-Au,  9-Au) :   0.1908
B(  1-Au, 14-Mn) :   0.3783 B(  2-Au,  5-Au) :   0.1453 B(  2-Au,  7-Au) :   0.2032
B(  2-Au,  9-Au) :   0.2228 B(  2-Au, 14-Mn) :   0.4195 B(  3-Au,  4-Au) :   0.2205
B(  3-Au,  6-Au) :   0.3169 B(  3-Au, 11-Au) :   0.1932 B(  3-Au, 14-Mn) :   0.3897
B(  4-Au,  5-Au) :   0.2945 B(  4-Au,  6-Au) :   0.2646 B(  4-Au, 12-Au) :   0.1095
B(  4-Au, 14-Mn) :   0.4376 B(  5-Au,  7-Au) :   0.2449 B(  5-Au, 14-Mn) :   0.4861
B(  6-Au, 11-Au) :   0.2166 B(  6-Au, 12-Au) :   0.3033 B(  7-Au, 10-Au) :   0.2878
B(  7-Au, 13-Au) :   0.2249 B(  7-Au, 14-Mn) :   0.3818 B(  8-Au, 10-Au) :   0.3197
B(  8-Au, 11-Au) :   0.3129 B(  8-Au, 12-Au) :   0.1558 B(  8-Au, 13-Au) :   0.1964
B(  8-Au, 14-Mn) :   0.5084 B(  9-Au, 10-Au) :   0.2810 B(  9-Au, 14-Mn) :   0.4004
B( 10-Au, 13-Au) :   0.1976 B( 10-Au, 14-Mn) :   0.1301 B( 11-Au, 12-Au) :   0.2392
B( 11-Au, 14-Mn) :   0.1055 B( 12-Au, 13-Au) :   0.4146 B( 12-Au, 14-Mn) :   0.4504
B( 13-Au, 14-Mn) :   0.3328

FINAL SINGLE POINT ENERGY     -3052.853765091374

DIPOLE MOMENT
-------------
                                X             Y             Z
Electronic contribution:     -4.80301     -17.43127       7.07671
Nuclear contribution   :      4.81103      17.35415      -7.03448
                        -----------------------------------------
Total Dipole Moment    :      0.00801      -0.07712       0.04222
                        -----------------------------------------
Magnitude (a.u.)       :      0.08828
Magnitude (Debye)      :      0.22440

Rotational constants in cm-1:     0.001225     0.000913     0.000900
Rotational constants in MHz :    36.736887    27.369386    26.994364

                             ****ORCA TERMINATED NORMALLY****
TOTAL RUN TIME: 0 days 0 hours 10 minutes 25 seconds 267 msec
