                         Program Version 5.0.3 -  RELEASE  -
|  1> !RI-B2PLYP def2-TZVP def2-TZVP/C
|  2> !RIJCOSX VERYSLOWCONV
|  3>
|  4> %scf
|  5>   AutoTRAHIter 200
|  6>   maxiter 400
|  7> end
|  8>
|  9>
| 10> %pal nprocs 6 end
| 11>
| 12> *xyzfile 0 5 pbe.xyz
| 13>
| 14> $new_job
| 15>
| 16> !RI-B2PLYP def2-TZVP def2-TZVP/C
| 17> !RIJCOSX VERYSLOWCONV
| 18>
| 19> %scf
| 20>   AutoTRAHIter 200
| 21>   maxiter 400
| 22> end
| 23>
| 24>
| 25> %pal nprocs 6 end
| 26>
| 27> *xyzfile 0 3 pbe.xyz
| 28>
| 29>
| 30>
| 31>
| 32>
| 33>                          ****END OF INPUT****
 Total Charge           Charge          ....    0
 Multiplicity           Mult            ....    5
 Number of Electrons    NEL             ....  252
MP2 TOTAL ENERGY:    -2671.293460459 Eh
FINAL SINGLE POINT ENERGY     -2671.293460458856

CARTESIAN COORDINATES (ANGSTROEM)
---------------------------------
  Au    10.380516    5.068344    6.529001
  Au     8.641276    4.117265    8.601458
  Au     8.247845    6.717612   10.433177
  Au     6.190495    5.285474    8.239666
  Au     6.211970    7.189132    6.133455
  Au     7.904219    5.203071    5.525725
  Au     5.602525    9.703047    6.997305
  Au     6.403902    8.040707    9.016902
  Au     8.301194    9.158596    6.965697
  Au    10.633953    7.992620    7.170535
  Au    12.650208    6.163144    7.591690
  Au    10.610975    6.003810    9.394097
  Cr     8.431435    6.626076    7.748529

 Multiplicity           Mult            ....    3
 Number of Electrons    NEL             ....  252
 Basis Dimension        Dim             ....  525

ORBITAL ENERGIES
----------------
                 SPIN UP ORBITALS
  NO   OCC          E(Eh)            E(eV)
   0   1.0000    -217.768384     -5925.7790
   1   1.0000     -25.458770      -692.7683
   2   1.0000     -21.598211      -587.7172
   3   1.0000     -21.597935      -587.7097
   4   1.0000     -21.591776      -587.5421
   5   1.0000      -4.395748      -119.6144
   6   1.0000      -4.395730      -119.6139
   7   1.0000      -4.395396      -119.6048
   8   1.0000      -4.394978      -119.5934
   9   1.0000      -4.394935      -119.5923
  10   1.0000      -4.394901      -119.5913
  11   1.0000      -4.390559      -119.4732
  12   1.0000      -4.390326      -119.4668
  13   1.0000      -4.389742      -119.4510
  14   1.0000      -4.389724      -119.4505
  15   1.0000      -4.387667      -119.3945
  16   1.0000      -4.387456      -119.3887
  17   1.0000      -3.243288       -88.2544
  18   1.0000      -2.520132       -68.5763
  19   1.0000      -2.518548       -68.5332
  20   1.0000      -2.518013       -68.5186
  21   1.0000      -2.517231       -68.4973
  22   1.0000      -2.516767       -68.4847
  23   1.0000      -2.515445       -68.4487
  24   1.0000      -2.515360       -68.4464
  25   1.0000      -2.513759       -68.4028
  26   1.0000      -2.513323       -68.3910
  27   1.0000      -2.512943       -68.3806
  28   1.0000      -2.512788       -68.3764
  29   1.0000      -2.512595       -68.3712
  30   1.0000      -2.512102       -68.3578
  31   1.0000      -2.510976       -68.3271
  32   1.0000      -2.510504       -68.3143
  33   1.0000      -2.509790       -68.2949
  34   1.0000      -2.509492       -68.2868
  35   1.0000      -2.508868       -68.2698
  36   1.0000      -2.508474       -68.2591
  37   1.0000      -2.507583       -68.2348
  38   1.0000      -2.507469       -68.2317
  39   1.0000      -2.507321       -68.2277
  40   1.0000      -2.507087       -68.2213
  41   1.0000      -2.506207       -68.1974
  42   1.0000      -2.505547       -68.1794
  43   1.0000      -2.505417       -68.1759
  44   1.0000      -2.504781       -68.1586
  45   1.0000      -2.504640       -68.1547
  46   1.0000      -2.504562       -68.1526
  47   1.0000      -2.504257       -68.1443
  48   1.0000      -2.504112       -68.1403
  49   1.0000      -2.503949       -68.1359
  50   1.0000      -2.503936       -68.1356
  51   1.0000      -2.503851       -68.1333
  52   1.0000      -2.500809       -68.0505
  53   1.0000      -2.500596       -68.0447
  54   1.0000      -2.133252       -58.0487
  55   1.0000      -2.124007       -57.7972
  56   1.0000      -2.122929       -57.7678
  57   1.0000      -0.494260       -13.4495
  58   1.0000      -0.484300       -13.1785
  59   1.0000      -0.475313       -12.9339
  60   1.0000      -0.470628       -12.8064
  61   1.0000      -0.467981       -12.7344
  62   1.0000      -0.465381       -12.6637
  63   1.0000      -0.461579       -12.5602
  64   1.0000      -0.454130       -12.3575
  65   1.0000      -0.451247       -12.2791
  66   1.0000      -0.448607       -12.2072
  67   1.0000      -0.447536       -12.1781
  68   1.0000      -0.443860       -12.0780
  69   1.0000      -0.436632       -11.8814
  70   1.0000      -0.436616       -11.8809
  71   1.0000      -0.435728       -11.8568
  72   1.0000      -0.435502       -11.8506
  73   1.0000      -0.430671       -11.7192
  74   1.0000      -0.426637       -11.6094
  75   1.0000      -0.426511       -11.6060
  76   1.0000      -0.425848       -11.5879
  77   1.0000      -0.418588       -11.3904
  78   1.0000      -0.416368       -11.3299
  79   1.0000      -0.413979       -11.2649
  80   1.0000      -0.408962       -11.1284
  81   1.0000      -0.408082       -11.1045
  82   1.0000      -0.404880       -11.0173
  83   1.0000      -0.398456       -10.8425
  84   1.0000      -0.394658       -10.7392
  85   1.0000      -0.392106       -10.6698
  86   1.0000      -0.390278       -10.6200
  87   1.0000      -0.388686       -10.5767
  88   1.0000      -0.387670       -10.5490
  89   1.0000      -0.385473       -10.4893
  90   1.0000      -0.381925       -10.3927
  91   1.0000      -0.378605       -10.3024
  92   1.0000      -0.377016       -10.2591
  93   1.0000      -0.375478       -10.2173
  94   1.0000      -0.375124       -10.2076
  95   1.0000      -0.374860       -10.2005
  96   1.0000      -0.373575       -10.1655
  97   1.0000      -0.369097       -10.0436
  98   1.0000      -0.365858        -9.9555
  99   1.0000      -0.365162        -9.9366
 100   1.0000      -0.363196        -9.8831
 101   1.0000      -0.362283        -9.8582
 102   1.0000      -0.357283        -9.7222
 103   1.0000      -0.356388        -9.6978
 104   1.0000      -0.355380        -9.6704
 105   1.0000      -0.354817        -9.6551
 106   1.0000      -0.353672        -9.6239
 107   1.0000      -0.351557        -9.5663
 108   1.0000      -0.351201        -9.5567
 109   1.0000      -0.350507        -9.5378
 110   1.0000      -0.347848        -9.4654
 111   1.0000      -0.346851        -9.4383
 112   1.0000      -0.344304        -9.3690
 113   1.0000      -0.341959        -9.3052
 114   1.0000      -0.337121        -9.1735
 115   1.0000      -0.336737        -9.1631
 116   1.0000      -0.336014        -9.1434
 117   1.0000      -0.328099        -8.9280
 118   1.0000      -0.326371        -8.8810
 119   1.0000      -0.322459        -8.7746
 120   1.0000      -0.320859        -8.7310
 121   1.0000      -0.319196        -8.6858
 122   1.0000      -0.317776        -8.6471
 123   1.0000      -0.289744        -7.8843
 124   1.0000      -0.267045        -7.2667
 125   1.0000      -0.237331        -6.4581
 126   1.0000      -0.228885        -6.2283
 127   0.0000      -0.109359        -2.9758
 128   0.0000      -0.101798        -2.7701
 129   0.0000      -0.080764        -2.1977
 130   0.0000      -0.070063        -1.9065
 131   0.0000      -0.052763        -1.4357

                 SPIN DOWN ORBITALS
  NO   OCC          E(Eh)            E(eV)
   0   1.0000    -217.766992     -5925.7411
   1   1.0000     -25.390056      -690.8985
   2   1.0000     -21.539686      -586.1246
   3   1.0000     -21.539171      -586.1106
   4   1.0000     -21.518635      -585.5518
   5   1.0000      -4.396047      -119.6225
   6   1.0000      -4.395762      -119.6148
   7   1.0000      -4.395748      -119.6144
   8   1.0000      -4.395614      -119.6107
   9   1.0000      -4.394955      -119.5928
  10   1.0000      -4.394913      -119.5917
  11   1.0000      -4.392186      -119.5175
  12   1.0000      -4.391956      -119.5112
  13   1.0000      -4.390092      -119.4605
  14   1.0000      -4.390067      -119.4598
  15   1.0000      -4.387384      -119.3868
  16   1.0000      -4.387159      -119.3807
  17   1.0000      -3.033921       -82.5572
  18   1.0000      -2.520706       -68.5919
  19   1.0000      -2.517935       -68.5165
  20   1.0000      -2.517233       -68.4974
  21   1.0000      -2.516453       -68.4762
  22   1.0000      -2.515702       -68.4557
  23   1.0000      -2.514765       -68.4302
  24   1.0000      -2.514446       -68.4215
  25   1.0000      -2.513691       -68.4010
  26   1.0000      -2.513605       -68.3987
  27   1.0000      -2.512744       -68.3752
  28   1.0000      -2.512496       -68.3685
  29   1.0000      -2.511460       -68.3403
  30   1.0000      -2.511438       -68.3397
  31   1.0000      -2.511016       -68.3282
  32   1.0000      -2.510929       -68.3259
  33   1.0000      -2.509782       -68.2946
  34   1.0000      -2.509637       -68.2907
  35   1.0000      -2.509024       -68.2740
  36   1.0000      -2.508793       -68.2677
  37   1.0000      -2.508063       -68.2479
  38   1.0000      -2.507993       -68.2459
  39   1.0000      -2.506396       -68.2025
  40   1.0000      -2.506245       -68.1984
  41   1.0000      -2.505978       -68.1911
  42   1.0000      -2.505828       -68.1870
  43   1.0000      -2.505649       -68.1822
  44   1.0000      -2.505642       -68.1820
  45   1.0000      -2.505552       -68.1795
  46   1.0000      -2.505416       -68.1758
  47   1.0000      -2.505001       -68.1645
  48   1.0000      -2.504742       -68.1575
  49   1.0000      -2.504734       -68.1573
  50   1.0000      -2.503735       -68.1301
  51   1.0000      -2.503580       -68.1259
  52   1.0000      -2.499953       -68.0272
  53   1.0000      -2.499715       -68.0207
  54   1.0000      -1.902533       -51.7706
  55   1.0000      -1.902311       -51.7645
  56   1.0000      -1.853783       -50.4440
  57   1.0000      -0.487073       -13.2539
  58   1.0000      -0.475169       -12.9300
  59   1.0000      -0.466930       -12.7058
  60   1.0000      -0.462601       -12.5880
  61   1.0000      -0.459936       -12.5155
  62   1.0000      -0.456159       -12.4127
  63   1.0000      -0.455500       -12.3948
  64   1.0000      -0.454750       -12.3744
  65   1.0000      -0.447743       -12.1837
  66   1.0000      -0.444296       -12.0899
  67   1.0000      -0.439863       -11.9693
  68   1.0000      -0.439012       -11.9461
  69   1.0000      -0.438325       -11.9274
  70   1.0000      -0.436848       -11.8872
  71   1.0000      -0.435522       -11.8511
  72   1.0000      -0.433692       -11.8014
  73   1.0000      -0.425952       -11.5907
  74   1.0000      -0.425118       -11.5680
  75   1.0000      -0.423446       -11.5225
  76   1.0000      -0.419919       -11.4266
  77   1.0000      -0.419122       -11.4049
  78   1.0000      -0.413862       -11.2618
  79   1.0000      -0.411210       -11.1896
  80   1.0000      -0.408914       -11.1271
  81   1.0000      -0.402618       -10.9558
  82   1.0000      -0.399915       -10.8823
  83   1.0000      -0.397079       -10.8051
  84   1.0000      -0.393233       -10.7004
  85   1.0000      -0.390952       -10.6383
  86   1.0000      -0.390333       -10.6215
  87   1.0000      -0.387717       -10.5503
  88   1.0000      -0.386053       -10.5050
  89   1.0000      -0.385331       -10.4854
  90   1.0000      -0.382822       -10.4171
  91   1.0000      -0.376889       -10.2557
  92   1.0000      -0.375422       -10.2157
  93   1.0000      -0.375142       -10.2081
  94   1.0000      -0.374929       -10.2023
  95   1.0000      -0.370914       -10.0931
  96   1.0000      -0.367936       -10.0120
  97   1.0000      -0.366749        -9.9798
  98   1.0000      -0.365790        -9.9536
  99   1.0000      -0.364992        -9.9319
 100   1.0000      -0.364475        -9.9179
 101   1.0000      -0.361600        -9.8396
 102   1.0000      -0.357590        -9.7305
 103   1.0000      -0.357019        -9.7150
 104   1.0000      -0.355825        -9.6825
 105   1.0000      -0.355491        -9.6734
 106   1.0000      -0.354677        -9.6512
 107   1.0000      -0.351554        -9.5663
 108   1.0000      -0.350394        -9.5347
 109   1.0000      -0.349616        -9.5135
 110   1.0000      -0.348434        -9.4814
 111   1.0000      -0.342828        -9.3288
 112   1.0000      -0.338745        -9.2177
 113   1.0000      -0.338226        -9.2036
 114   1.0000      -0.334923        -9.1137
 115   1.0000      -0.329643        -8.9700
 116   1.0000      -0.326751        -8.8913
 117   1.0000      -0.324259        -8.8235
 118   1.0000      -0.319756        -8.7010
 119   1.0000      -0.306889        -8.3509
 120   1.0000      -0.293256        -7.9799
 121   1.0000      -0.248407        -6.7595
 122   1.0000      -0.227140        -6.1808
 123   1.0000      -0.217384        -5.9153
 124   1.0000      -0.212662        -5.7868
 125   0.0000      -0.080227        -2.1831
 126   0.0000      -0.072378        -1.9695
 127   0.0000      -0.067058        -1.8247
 128   0.0000      -0.047671        -1.2972
 129   0.0000      -0.036550        -0.9946

MULLIKEN ATOMIC CHARGES AND SPIN POPULATIONS
--------------------------------------------
   0 Au:    0.223365   -0.204475
   1 Au:    0.584220   -0.167234
   2 Au:    0.280581   -0.114117
   3 Au:    0.584624   -0.167752
   4 Au:    0.228700   -0.198943
   5 Au:    0.279704   -0.114213
   6 Au:    0.330698   -0.013531
   7 Au:    0.225301   -0.204892
   8 Au:    0.066462   -0.035395
   9 Au:    0.070028   -0.035669
  10 Au:    0.331238   -0.013701
  11 Au:    0.224838   -0.199914
  12 Cr:   -3.429759    3.469835
Sum of atomic charges         :   -0.0000000

LOEWDIN ATOMIC CHARGES AND SPIN POPULATIONS
-------------------------------------------
   0 Au:    0.007166   -0.123153
   1 Au:    0.110961   -0.173323
   2 Au:    0.135095   -0.181834
   3 Au:    0.110695   -0.173603
   4 Au:    0.006746   -0.120636
   5 Au:    0.135642   -0.181118
   6 Au:    0.156091   -0.034161
   7 Au:    0.007693   -0.123626
   8 Au:    0.053665   -0.058215
   9 Au:    0.053432   -0.058678
  10 Au:    0.156186   -0.034449
  11 Au:    0.006867   -0.120822
  12 Cr:   -0.940240    3.383619

  Mayer bond orders larger than 0.100000
B(  0-Au,  1-Au) :   0.1320 B(  0-Au,  5-Au) :   0.3307 B(  0-Au,  9-Au) :   0.1047
B(  0-Au, 10-Au) :   0.2878 B(  0-Au, 11-Au) :   0.1094 B(  0-Au, 12-Cr) :   0.4927
B(  1-Au,  3-Au) :   0.2241 B(  1-Au, 11-Au) :   0.1477 B(  1-Au, 12-Cr) :   0.6433
B(  2-Au,  7-Au) :   0.3296 B(  2-Au, 11-Au) :   0.3331 B(  2-Au, 12-Cr) :   0.5362
B(  3-Au,  4-Au) :   0.1481 B(  3-Au,  7-Au) :   0.1308 B(  3-Au, 12-Cr) :   0.6426
B(  4-Au,  5-Au) :   0.3308 B(  4-Au,  6-Au) :   0.3008 B(  4-Au,  7-Au) :   0.1113
B(  4-Au,  8-Au) :   0.1087 B(  4-Au, 12-Cr) :   0.4680 B(  5-Au, 12-Cr) :   0.5378
B(  6-Au,  7-Au) :   0.2882 B(  6-Au,  8-Au) :   0.2731 B(  6-Au, 12-Cr) :   0.3126
B(  7-Au,  8-Au) :   0.1045 B(  7-Au, 12-Cr) :   0.4920 B(  8-Au,  9-Au) :   0.5984
B(  8-Au, 12-Cr) :   0.6495 B(  9-Au, 10-Au) :   0.2732 B(  9-Au, 11-Au) :   0.1097
B(  9-Au, 12-Cr) :   0.6486 B( 10-Au, 11-Au) :   0.3010 B( 10-Au, 12-Cr) :   0.3122
B( 11-Au, 12-Cr) :   0.4697

MP2 TOTAL ENERGY:    -2671.300187518 Eh
FINAL SINGLE POINT ENERGY     -2671.300187517963

DIPOLE MOMENT
-------------
                                X             Y             Z
Electronic contribution:      1.76530       3.31409      -1.12487
Nuclear contribution   :     -1.76054      -3.30517       1.12222
                        -----------------------------------------
Total Dipole Moment    :      0.00476       0.00892      -0.00265
                        -----------------------------------------
Magnitude (a.u.)       :      0.01045
Magnitude (Debye)      :      0.02657

Rotational constants in cm-1:     0.001735     0.001034     0.000979
Rotational constants in MHz :    52.019435    30.984359    29.353956

                             ****ORCA TERMINATED NORMALLY****
TOTAL RUN TIME: 0 days 4 hours 19 minutes 59 seconds 658 msec
