                         Program Version 5.0.3 -  RELEASE  -
|  1> !PBE def2-TZVP VERYSLOWCONV
|  2>
|  3> %scf
|  4>   AutoTRAHIter 200
|  5>   maxiter 400
|  6> end
|  7>
|  8>
|  9> %pal nprocs 6 end
| 10>
| 11> *xyzfile 0 5 pbe.xyz
| 12>
| 13> $new_job
| 14>
| 15> !PBE def2-TZVP VERYSLOWCONV
| 16>
| 17> %scf
| 18>   AutoTRAHIter 200
| 19>   maxiter 400
| 20> end
| 21>
| 22>
| 23> %pal nprocs 6 end
| 24>
| 25> *xyzfile 0 3 pbe.xyz
| 26>
| 27>
| 28>
| 29>
| 30>
| 31>                          ****END OF INPUT****
 Total Charge           Charge          ....    0
 Multiplicity           Mult            ....    5
 Number of Electrons    NEL             ....  252
FINAL SINGLE POINT ENERGY     -2674.149902269349

CARTESIAN COORDINATES (ANGSTROEM)
---------------------------------
  Au    10.380516    5.068344    6.529001
  Au     8.641276    4.117265    8.601458
  Au     8.247845    6.717612   10.433177
  Au     6.190495    5.285474    8.239666
  Au     6.211970    7.189132    6.133455
  Au     7.904219    5.203071    5.525725
  Au     5.602525    9.703047    6.997305
  Au     6.403902    8.040707    9.016902
  Au     8.301194    9.158596    6.965697
  Au    10.633953    7.992620    7.170535
  Au    12.650208    6.163144    7.591690
  Au    10.610975    6.003810    9.394097
  Cr     8.431435    6.626076    7.748529

 Multiplicity           Mult            ....    3
 Number of Electrons    NEL             ....  252
 Basis Dimension        Dim             ....  525

ORBITAL ENERGIES
----------------
                 SPIN UP ORBITALS
  NO   OCC          E(Eh)            E(eV)
   0   1.0000    -214.507491     -5837.0456
   1   1.0000     -24.310868      -661.5323
   2   1.0000     -20.675528      -562.6097
   3   1.0000     -20.675412      -562.6066
   4   1.0000     -20.672583      -562.5296
   5   1.0000      -4.027614      -109.5969
   6   1.0000      -4.027290      -109.5881
   7   1.0000      -4.023807      -109.4934
   8   1.0000      -4.023804      -109.4933
   9   1.0000      -4.023145      -109.4753
  10   1.0000      -4.023143      -109.4753
  11   1.0000      -4.020807      -109.4117
  12   1.0000      -4.020777      -109.4109
  13   1.0000      -4.017109      -109.3111
  14   1.0000      -4.016934      -109.3063
  15   1.0000      -4.014743      -109.2467
  16   1.0000      -4.014575      -109.2421
  17   1.0000      -2.806560       -76.3704
  18   1.0000      -2.249416       -61.2097
  19   1.0000      -2.244016       -61.0628
  20   1.0000      -2.242755       -61.0285
  21   1.0000      -2.242731       -61.0278
  22   1.0000      -2.241994       -61.0078
  23   1.0000      -2.241452       -60.9930
  24   1.0000      -2.241203       -60.9862
  25   1.0000      -2.240867       -60.9771
  26   1.0000      -2.237776       -60.8930
  27   1.0000      -2.237550       -60.8868
  28   1.0000      -2.236102       -60.8474
  29   1.0000      -2.236094       -60.8472
  30   1.0000      -2.235956       -60.8435
  31   1.0000      -2.235855       -60.8407
  32   1.0000      -2.235664       -60.8355
  33   1.0000      -2.234594       -60.8064
  34   1.0000      -2.232608       -60.7524
  35   1.0000      -2.232340       -60.7450
  36   1.0000      -2.232064       -60.7375
  37   1.0000      -2.231923       -60.7337
  38   1.0000      -2.231685       -60.7272
  39   1.0000      -2.231672       -60.7269
  40   1.0000      -2.231605       -60.7251
  41   1.0000      -2.231429       -60.7203
  42   1.0000      -2.231217       -60.7145
  43   1.0000      -2.231086       -60.7109
  44   1.0000      -2.230603       -60.6978
  45   1.0000      -2.230485       -60.6946
  46   1.0000      -2.229967       -60.6805
  47   1.0000      -2.229694       -60.6731
  48   1.0000      -2.229544       -60.6690
  49   1.0000      -2.227513       -60.6137
  50   1.0000      -2.225549       -60.5603
  51   1.0000      -2.225200       -60.5508
  52   1.0000      -2.220997       -60.4364
  53   1.0000      -2.220796       -60.4309
  54   1.0000      -1.797237       -48.9053
  55   1.0000      -1.797045       -48.9001
  56   1.0000      -1.792535       -48.7774
  57   1.0000      -0.415214       -11.2985
  58   1.0000      -0.384311       -10.4576
  59   1.0000      -0.381524       -10.3818
  60   1.0000      -0.370429       -10.0799
  61   1.0000      -0.367235        -9.9930
  62   1.0000      -0.359807        -9.7909
  63   1.0000      -0.359335        -9.7780
  64   1.0000      -0.359155        -9.7731
  65   1.0000      -0.344706        -9.3799
  66   1.0000      -0.343381        -9.3439
  67   1.0000      -0.339344        -9.2340
  68   1.0000      -0.339294        -9.2327
  69   1.0000      -0.337056        -9.1718
  70   1.0000      -0.334101        -9.0913
  71   1.0000      -0.333060        -9.0630
  72   1.0000      -0.330478        -8.9928
  73   1.0000      -0.329197        -8.9579
  74   1.0000      -0.324490        -8.8298
  75   1.0000      -0.323826        -8.8117
  76   1.0000      -0.320660        -8.7256
  77   1.0000      -0.315693        -8.5904
  78   1.0000      -0.312964        -8.5162
  79   1.0000      -0.312862        -8.5134
  80   1.0000      -0.311700        -8.4818
  81   1.0000      -0.306373        -8.3368
  82   1.0000      -0.301266        -8.1979
  83   1.0000      -0.295810        -8.0494
  84   1.0000      -0.295358        -8.0371
  85   1.0000      -0.293861        -7.9964
  86   1.0000      -0.292982        -7.9724
  87   1.0000      -0.291177        -7.9233
  88   1.0000      -0.290034        -7.8922
  89   1.0000      -0.286184        -7.7875
  90   1.0000      -0.283949        -7.7266
  91   1.0000      -0.281339        -7.6556
  92   1.0000      -0.279784        -7.6133
  93   1.0000      -0.278233        -7.5711
  94   1.0000      -0.277848        -7.5606
  95   1.0000      -0.277011        -7.5379
  96   1.0000      -0.273542        -7.4435
  97   1.0000      -0.272668        -7.4197
  98   1.0000      -0.269407        -7.3309
  99   1.0000      -0.268302        -7.3009
 100   1.0000      -0.267667        -7.2836
 101   1.0000      -0.266372        -7.2483
 102   1.0000      -0.261705        -7.1214
 103   1.0000      -0.260040        -7.0760
 104   1.0000      -0.259801        -7.0696
 105   1.0000      -0.258207        -7.0262
 106   1.0000      -0.257500        -7.0069
 107   1.0000      -0.256654        -6.9839
 108   1.0000      -0.254283        -6.9194
 109   1.0000      -0.253810        -6.9065
 110   1.0000      -0.252652        -6.8750
 111   1.0000      -0.251427        -6.8417
 112   1.0000      -0.249374        -6.7858
 113   1.0000      -0.248387        -6.7590
 114   1.0000      -0.244429        -6.6513
 115   1.0000      -0.242911        -6.6100
 116   1.0000      -0.240650        -6.5484
 117   1.0000      -0.240507        -6.5445
 118   1.0000      -0.237697        -6.4681
 119   1.0000      -0.234712        -6.3868
 120   1.0000      -0.231133        -6.2895
 121   1.0000      -0.229589        -6.2474
 122   1.0000      -0.211663        -5.7596
 123   1.0000      -0.209295        -5.6952
 124   1.0000      -0.208716        -5.6795
 125   1.0000      -0.206415        -5.6168
 126   1.0000      -0.199552        -5.4301
 127   0.0000      -0.181165        -4.9297
 128   0.0000      -0.167756        -4.5649
 129   0.0000      -0.160633        -4.3711
 130   0.0000      -0.134589        -3.6624
 131   0.0000      -0.131916        -3.5896

                 SPIN DOWN ORBITALS
  NO   OCC          E(Eh)            E(eV)
   0   1.0000    -214.507080     -5837.0344
   1   1.0000     -24.268548      -660.3808
   2   1.0000     -20.644224      -561.7579
   3   1.0000     -20.643143      -561.7285
   4   1.0000     -20.639120      -561.6190
   5   1.0000      -4.027678      -109.5987
   6   1.0000      -4.027354      -109.5899
   7   1.0000      -4.023525      -109.4857
   8   1.0000      -4.023515      -109.4854
   9   1.0000      -4.022844      -109.4672
  10   1.0000      -4.022843      -109.4671
  11   1.0000      -4.021067      -109.4188
  12   1.0000      -4.021038      -109.4180
  13   1.0000      -4.017620      -109.3250
  14   1.0000      -4.017446      -109.3203
  15   1.0000      -4.014345      -109.2359
  16   1.0000      -4.014170      -109.2311
  17   1.0000      -2.693001       -73.2803
  18   1.0000      -2.249639       -61.2158
  19   1.0000      -2.243934       -61.0606
  20   1.0000      -2.242783       -61.0292
  21   1.0000      -2.242668       -61.0261
  22   1.0000      -2.241856       -61.0040
  23   1.0000      -2.241236       -60.9871
  24   1.0000      -2.241234       -60.9871
  25   1.0000      -2.240806       -60.9754
  26   1.0000      -2.237395       -60.8826
  27   1.0000      -2.237237       -60.8783
  28   1.0000      -2.236017       -60.8451
  29   1.0000      -2.235851       -60.8406
  30   1.0000      -2.235567       -60.8329
  31   1.0000      -2.235259       -60.8245
  32   1.0000      -2.235200       -60.8229
  33   1.0000      -2.234454       -60.8026
  34   1.0000      -2.232742       -60.7560
  35   1.0000      -2.232356       -60.7455
  36   1.0000      -2.232310       -60.7442
  37   1.0000      -2.232057       -60.7373
  38   1.0000      -2.231943       -60.7343
  39   1.0000      -2.231869       -60.7322
  40   1.0000      -2.231730       -60.7284
  41   1.0000      -2.231577       -60.7243
  42   1.0000      -2.231216       -60.7145
  43   1.0000      -2.230997       -60.7085
  44   1.0000      -2.230505       -60.6951
  45   1.0000      -2.229801       -60.6760
  46   1.0000      -2.229660       -60.6721
  47   1.0000      -2.229627       -60.6712
  48   1.0000      -2.229490       -60.6675
  49   1.0000      -2.228281       -60.6346
  50   1.0000      -2.226407       -60.5836
  51   1.0000      -2.226065       -60.5743
  52   1.0000      -2.220524       -60.4235
  53   1.0000      -2.220314       -60.4178
  54   1.0000      -1.688550       -45.9478
  55   1.0000      -1.686197       -45.8837
  56   1.0000      -1.676779       -45.6275
  57   1.0000      -0.410740       -11.1768
  58   1.0000      -0.384628       -10.4663
  59   1.0000      -0.379943       -10.3388
  60   1.0000      -0.368130       -10.0173
  61   1.0000      -0.367105        -9.9894
  62   1.0000      -0.357512        -9.7284
  63   1.0000      -0.356715        -9.7067
  64   1.0000      -0.355579        -9.6758
  65   1.0000      -0.344981        -9.3874
  66   1.0000      -0.342589        -9.3223
  67   1.0000      -0.339149        -9.2287
  68   1.0000      -0.336743        -9.1632
  69   1.0000      -0.334756        -9.1092
  70   1.0000      -0.334276        -9.0961
  71   1.0000      -0.331266        -9.0142
  72   1.0000      -0.329495        -8.9660
  73   1.0000      -0.326798        -8.8926
  74   1.0000      -0.322910        -8.7868
  75   1.0000      -0.321820        -8.7572
  76   1.0000      -0.320179        -8.7125
  77   1.0000      -0.315028        -8.5724
  78   1.0000      -0.313681        -8.5357
  79   1.0000      -0.312845        -8.5130
  80   1.0000      -0.311298        -8.4709
  81   1.0000      -0.304913        -8.2971
  82   1.0000      -0.301497        -8.2042
  83   1.0000      -0.296668        -8.0727
  84   1.0000      -0.295055        -8.0288
  85   1.0000      -0.292941        -7.9713
  86   1.0000      -0.292773        -7.9668
  87   1.0000      -0.291576        -7.9342
  88   1.0000      -0.290288        -7.8991
  89   1.0000      -0.286906        -7.8071
  90   1.0000      -0.284542        -7.7428
  91   1.0000      -0.280720        -7.6388
  92   1.0000      -0.280454        -7.6316
  93   1.0000      -0.278216        -7.5706
  94   1.0000      -0.277702        -7.5567
  95   1.0000      -0.277483        -7.5507
  96   1.0000      -0.273691        -7.4475
  97   1.0000      -0.272967        -7.4278
  98   1.0000      -0.271068        -7.3761
  99   1.0000      -0.267864        -7.2890
 100   1.0000      -0.267427        -7.2771
 101   1.0000      -0.266595        -7.2544
 102   1.0000      -0.262880        -7.1533
 103   1.0000      -0.260505        -7.0887
 104   1.0000      -0.259573        -7.0633
 105   1.0000      -0.258839        -7.0434
 106   1.0000      -0.258500        -7.0341
 107   1.0000      -0.257706        -7.0125
 108   1.0000      -0.255077        -6.9410
 109   1.0000      -0.255018        -6.9394
 110   1.0000      -0.253673        -6.9028
 111   1.0000      -0.252577        -6.8730
 112   1.0000      -0.250328        -6.8118
 113   1.0000      -0.249034        -6.7766
 114   1.0000      -0.244628        -6.6567
 115   1.0000      -0.244182        -6.6445
 116   1.0000      -0.241423        -6.5695
 117   1.0000      -0.241248        -6.5647
 118   1.0000      -0.237729        -6.4689
 119   1.0000      -0.235724        -6.4144
 120   1.0000      -0.233262        -6.3474
 121   1.0000      -0.223755        -6.0887
 122   1.0000      -0.203725        -5.5437
 123   1.0000      -0.192516        -5.2386
 124   1.0000      -0.191063        -5.1991
 125   0.0000      -0.144549        -3.9334
 126   0.0000      -0.143598        -3.9075
 127   0.0000      -0.134837        -3.6691
 128   0.0000      -0.118869        -3.2346
 129   0.0000      -0.117078        -3.1858

MULLIKEN ATOMIC CHARGES AND SPIN POPULATIONS
--------------------------------------------
   0 Au:    0.263189   -0.105959
   1 Au:    0.606064   -0.108656
   2 Au:    0.296257   -0.061515
   3 Au:    0.606312   -0.108487
   4 Au:    0.265281   -0.103242
   5 Au:    0.294875   -0.061370
   6 Au:    0.376214   -0.029282
   7 Au:    0.264092   -0.105819
   8 Au:    0.067524   -0.029481
   9 Au:    0.070531   -0.030235
  10 Au:    0.376715   -0.028498
  11 Au:    0.261674   -0.103841
  12 Cr:   -3.748728    2.876385
Sum of atomic charges         :   -0.0000000

LOEWDIN ATOMIC CHARGES AND SPIN POPULATIONS
-------------------------------------------
   0 Au:    0.030254   -0.073195
   1 Au:    0.129149   -0.123808
   2 Au:    0.149592   -0.085887
   3 Au:    0.128905   -0.123685
   4 Au:    0.028277   -0.072738
   5 Au:    0.150238   -0.085505
   6 Au:    0.138235   -0.045357
   7 Au:    0.030636   -0.073391
   8 Au:    0.095647   -0.044224
   9 Au:    0.095155   -0.044661
  10 Au:    0.138174   -0.045052
  11 Au:    0.028592   -0.072630
  12 Cr:   -1.142854    2.890133

  Mayer bond orders larger than 0.100000
B(  0-Au,  1-Au) :   0.1728 B(  0-Au,  5-Au) :   0.3820 B(  0-Au,  9-Au) :   0.1239
B(  0-Au, 10-Au) :   0.3357 B(  0-Au, 11-Au) :   0.1189 B(  0-Au, 12-Cr) :   0.5625
B(  1-Au,  3-Au) :   0.2471 B(  1-Au, 11-Au) :   0.1894 B(  1-Au, 12-Cr) :   0.8028
B(  2-Au,  7-Au) :   0.3816 B(  2-Au, 11-Au) :   0.3862 B(  2-Au, 12-Cr) :   0.6592
B(  3-Au,  4-Au) :   0.1906 B(  3-Au,  7-Au) :   0.1709 B(  3-Au, 12-Cr) :   0.8021
B(  4-Au,  5-Au) :   0.3836 B(  4-Au,  6-Au) :   0.3471 B(  4-Au,  7-Au) :   0.1212
B(  4-Au,  8-Au) :   0.1263 B(  4-Au, 12-Cr) :   0.5324 B(  5-Au, 12-Cr) :   0.6618
B(  6-Au,  7-Au) :   0.3357 B(  6-Au,  8-Au) :   0.3038 B(  6-Au, 12-Cr) :   0.2547
B(  7-Au,  8-Au) :   0.1231 B(  7-Au, 12-Cr) :   0.5621 B(  8-Au,  9-Au) :   0.6409
B(  8-Au, 12-Cr) :   0.6979 B(  9-Au, 10-Au) :   0.3035 B(  9-Au, 11-Au) :   0.1280
B(  9-Au, 12-Cr) :   0.6965 B( 10-Au, 11-Au) :   0.3475 B( 10-Au, 12-Cr) :   0.2544
B( 11-Au, 12-Cr) :   0.5351

FINAL SINGLE POINT ENERGY     -2674.160592919948

DIPOLE MOMENT
-------------
                                X             Y             Z
Electronic contribution:      1.82893       3.43399      -1.16702
Nuclear contribution   :     -1.76054      -3.30517       1.12222
                        -----------------------------------------
Total Dipole Moment    :      0.06839       0.12881      -0.04480
                        -----------------------------------------
Magnitude (a.u.)       :      0.15257
Magnitude (Debye)      :      0.38780

Rotational constants in cm-1:     0.001735     0.001034     0.000979
Rotational constants in MHz :    52.019435    30.984359    29.353956

                             ****ORCA TERMINATED NORMALLY****
TOTAL RUN TIME: 0 days 1 hours 17 minutes 57 seconds 815 msec
