                         Program Version 5.0.3 -  RELEASE  -
|  1> !R2SCAN def2-TZVP VERYSLOWCONV
|  2> !KDIIS
|  3> %scf
|  4>   AutoTRAHIter 200
|  5>   maxiter 400
|  6> end
|  7>
|  8> %pal nprocs 6 end
|  9>
| 10> *xyzfile 0 5 pbe.xyz
| 11>
| 12> $new_job
| 13>
| 14> !R2SCAN def2-TZVP VERYSLOWCONV
| 15> !KDIIS
| 16> %scf
| 17>   AutoTRAHIter 200
| 18>   maxiter 400
| 19> end
| 20>
| 21>
| 22> %pal nprocs 6 end
| 23>
| 24> *xyzfile 0 3 pbe.xyz
| 25>
| 26>
| 27>
| 28>
| 29>
| 30>                          ****END OF INPUT****
 Total Charge           Charge          ....    0
 Multiplicity           Mult            ....    5
 Number of Electrons    NEL             ....  252
FINAL SINGLE POINT ENERGY     -2674.572845331416

CARTESIAN COORDINATES (ANGSTROEM)
---------------------------------
  Au    10.380516    5.068344    6.529001
  Au     8.641276    4.117265    8.601458
  Au     8.247845    6.717612   10.433177
  Au     6.190495    5.285474    8.239666
  Au     6.211970    7.189132    6.133455
  Au     7.904219    5.203071    5.525725
  Au     5.602525    9.703047    6.997305
  Au     6.403902    8.040707    9.016902
  Au     8.301194    9.158596    6.965697
  Au    10.633953    7.992620    7.170535
  Au    12.650208    6.163144    7.591690
  Au    10.610975    6.003810    9.394097
  Cr     8.431435    6.626076    7.748529

 Multiplicity           Mult            ....    3
 Number of Electrons    NEL             ....  252
 Basis Dimension        Dim             ....  525

ORBITAL ENERGIES
----------------
                 SPIN UP ORBITALS
  NO   OCC          E(Eh)            E(eV)
   0   1.0000    -215.303074     -5858.6945
   1   1.0000     -24.606600      -669.5796
   2   1.0000     -20.874047      -568.0117
   3   1.0000     -20.873692      -568.0020
   4   1.0000     -20.871319      -567.9375
   5   1.0000      -4.117638      -112.0466
   6   1.0000      -4.117274      -112.0367
   7   1.0000      -4.114085      -111.9499
   8   1.0000      -4.114080      -111.9498
   9   1.0000      -4.113358      -111.9302
  10   1.0000      -4.113351      -111.9300
  11   1.0000      -4.111714      -111.8854
  12   1.0000      -4.111691      -111.8848
  13   1.0000      -4.107704      -111.7763
  14   1.0000      -4.107513      -111.7711
  15   1.0000      -4.105534      -111.7173
  16   1.0000      -4.105358      -111.7125
  17   1.0000      -2.920098       -79.4599
  18   1.0000      -2.311997       -62.9126
  19   1.0000      -2.306350       -62.7590
  20   1.0000      -2.305859       -62.7456
  21   1.0000      -2.305713       -62.7416
  22   1.0000      -2.304876       -62.7189
  23   1.0000      -2.304409       -62.7062
  24   1.0000      -2.304202       -62.7005
  25   1.0000      -2.303484       -62.6810
  26   1.0000      -2.301029       -62.6142
  27   1.0000      -2.300669       -62.6044
  28   1.0000      -2.299325       -62.5678
  29   1.0000      -2.299318       -62.5676
  30   1.0000      -2.299144       -62.5629
  31   1.0000      -2.299046       -62.5602
  32   1.0000      -2.298857       -62.5551
  33   1.0000      -2.297739       -62.5247
  34   1.0000      -2.296144       -62.4813
  35   1.0000      -2.295800       -62.4719
  36   1.0000      -2.295633       -62.4673
  37   1.0000      -2.295365       -62.4601
  38   1.0000      -2.295286       -62.4579
  39   1.0000      -2.295218       -62.4561
  40   1.0000      -2.295093       -62.4526
  41   1.0000      -2.294883       -62.4469
  42   1.0000      -2.294621       -62.4398
  43   1.0000      -2.294346       -62.4323
  44   1.0000      -2.293972       -62.4222
  45   1.0000      -2.293839       -62.4185
  46   1.0000      -2.293439       -62.4076
  47   1.0000      -2.292964       -62.3947
  48   1.0000      -2.292808       -62.3905
  49   1.0000      -2.290873       -62.3378
  50   1.0000      -2.289205       -62.2924
  51   1.0000      -2.288836       -62.2824
  52   1.0000      -2.284973       -62.1773
  53   1.0000      -2.284768       -62.1717
  54   1.0000      -1.867400       -50.8145
  55   1.0000      -1.866768       -50.7974
  56   1.0000      -1.864841       -50.7449
  57   1.0000      -0.419958       -11.4276
  58   1.0000      -0.388855       -10.5813
  59   1.0000      -0.388745       -10.5783
  60   1.0000      -0.379031       -10.3139
  61   1.0000      -0.374426       -10.1886
  62   1.0000      -0.368410       -10.0249
  63   1.0000      -0.367944       -10.0123
  64   1.0000      -0.367056        -9.9881
  65   1.0000      -0.353213        -9.6114
  66   1.0000      -0.350842        -9.5469
  67   1.0000      -0.348580        -9.4853
  68   1.0000      -0.348188        -9.4747
  69   1.0000      -0.345873        -9.4117
  70   1.0000      -0.342577        -9.3220
  71   1.0000      -0.341871        -9.3028
  72   1.0000      -0.339471        -9.2375
  73   1.0000      -0.337203        -9.1757
  74   1.0000      -0.332925        -9.0594
  75   1.0000      -0.332670        -9.0524
  76   1.0000      -0.329606        -8.9690
  77   1.0000      -0.323932        -8.8146
  78   1.0000      -0.321505        -8.7486
  79   1.0000      -0.321411        -8.7460
  80   1.0000      -0.320527        -8.7220
  81   1.0000      -0.313924        -8.5423
  82   1.0000      -0.309966        -8.4346
  83   1.0000      -0.304600        -8.2886
  84   1.0000      -0.302982        -8.2446
  85   1.0000      -0.302097        -8.2205
  86   1.0000      -0.301109        -8.1936
  87   1.0000      -0.299685        -8.1548
  88   1.0000      -0.298011        -8.1093
  89   1.0000      -0.294813        -8.0223
  90   1.0000      -0.291547        -7.9334
  91   1.0000      -0.289077        -7.8662
  92   1.0000      -0.288527        -7.8512
  93   1.0000      -0.286072        -7.7844
  94   1.0000      -0.285819        -7.7775
  95   1.0000      -0.285378        -7.7655
  96   1.0000      -0.281567        -7.6618
  97   1.0000      -0.280796        -7.6408
  98   1.0000      -0.276832        -7.5330
  99   1.0000      -0.275899        -7.5076
 100   1.0000      -0.275604        -7.4996
 101   1.0000      -0.274262        -7.4630
 102   1.0000      -0.268692        -7.3115
 103   1.0000      -0.267904        -7.2900
 104   1.0000      -0.267227        -7.2716
 105   1.0000      -0.265936        -7.2365
 106   1.0000      -0.265324        -7.2198
 107   1.0000      -0.264448        -7.1960
 108   1.0000      -0.261209        -7.1078
 109   1.0000      -0.260797        -7.0967
 110   1.0000      -0.259817        -7.0700
 111   1.0000      -0.259233        -7.0541
 112   1.0000      -0.255781        -6.9602
 113   1.0000      -0.255629        -6.9560
 114   1.0000      -0.250245        -6.8095
 115   1.0000      -0.249991        -6.8026
 116   1.0000      -0.247910        -6.7460
 117   1.0000      -0.247321        -6.7299
 118   1.0000      -0.243722        -6.6320
 119   1.0000      -0.241091        -6.5604
 120   1.0000      -0.236064        -6.4236
 121   1.0000      -0.235217        -6.4006
 122   1.0000      -0.223824        -6.0906
 123   1.0000      -0.216295        -5.8857
 124   1.0000      -0.210686        -5.7331
 125   1.0000      -0.210616        -5.7311
 126   1.0000      -0.206562        -5.6208
 127   0.0000      -0.178971        -4.8700
 128   0.0000      -0.166518        -4.5312
 129   0.0000      -0.158460        -4.3119
 130   0.0000      -0.128361        -3.4929
 131   0.0000      -0.126148        -3.4327

                 SPIN DOWN ORBITALS
  NO   OCC          E(Eh)            E(eV)
   0   1.0000    -215.302458     -5858.6777
   1   1.0000     -24.547848      -667.9809
   2   1.0000     -20.830329      -566.8221
   3   1.0000     -20.828514      -566.7727
   4   1.0000     -20.824425      -566.6614
   5   1.0000      -4.117924      -112.0544
   6   1.0000      -4.117558      -112.0444
   7   1.0000      -4.113967      -111.9467
   8   1.0000      -4.113966      -111.9467
   9   1.0000      -4.113225      -111.9265
  10   1.0000      -4.113222      -111.9265
  11   1.0000      -4.112093      -111.8957
  12   1.0000      -4.112072      -111.8952
  13   1.0000      -4.108637      -111.8017
  14   1.0000      -4.108447      -111.7965
  15   1.0000      -4.105300      -111.7109
  16   1.0000      -4.105116      -111.7059
  17   1.0000      -2.766897       -75.2911
  18   1.0000      -2.312237       -62.9192
  19   1.0000      -2.306377       -62.7597
  20   1.0000      -2.305858       -62.7456
  21   1.0000      -2.305831       -62.7448
  22   1.0000      -2.304888       -62.7192
  23   1.0000      -2.304295       -62.7030
  24   1.0000      -2.304028       -62.6958
  25   1.0000      -2.303714       -62.6873
  26   1.0000      -2.300805       -62.6081
  27   1.0000      -2.300549       -62.6011
  28   1.0000      -2.299603       -62.5754
  29   1.0000      -2.299224       -62.5651
  30   1.0000      -2.298885       -62.5558
  31   1.0000      -2.298419       -62.5432
  32   1.0000      -2.298331       -62.5408
  33   1.0000      -2.297927       -62.5298
  34   1.0000      -2.296316       -62.4859
  35   1.0000      -2.296013       -62.4777
  36   1.0000      -2.295922       -62.4752
  37   1.0000      -2.295640       -62.4675
  38   1.0000      -2.295591       -62.4662
  39   1.0000      -2.295520       -62.4643
  40   1.0000      -2.295166       -62.4546
  41   1.0000      -2.295087       -62.4525
  42   1.0000      -2.294625       -62.4399
  43   1.0000      -2.294336       -62.4320
  44   1.0000      -2.294043       -62.4241
  45   1.0000      -2.293243       -62.4023
  46   1.0000      -2.293107       -62.3986
  47   1.0000      -2.292784       -62.3898
  48   1.0000      -2.292624       -62.3855
  49   1.0000      -2.291756       -62.3619
  50   1.0000      -2.290358       -62.3238
  51   1.0000      -2.289996       -62.3140
  52   1.0000      -2.284505       -62.1645
  53   1.0000      -2.284289       -62.1587
  54   1.0000      -1.719156       -46.7806
  55   1.0000      -1.715471       -46.6803
  56   1.0000      -1.705623       -46.4123
  57   1.0000      -0.415711       -11.3121
  58   1.0000      -0.389789       -10.6067
  59   1.0000      -0.387246       -10.5375
  60   1.0000      -0.376442       -10.2435
  61   1.0000      -0.375034       -10.2052
  62   1.0000      -0.365843        -9.9551
  63   1.0000      -0.364785        -9.9263
  64   1.0000      -0.363741        -9.8979
  65   1.0000      -0.353954        -9.6316
  66   1.0000      -0.350665        -9.5421
  67   1.0000      -0.348390        -9.4802
  68   1.0000      -0.345788        -9.4094
  69   1.0000      -0.343762        -9.3542
  70   1.0000      -0.343263        -9.3407
  71   1.0000      -0.340316        -9.2605
  72   1.0000      -0.338608        -9.2140
  73   1.0000      -0.335126        -9.1192
  74   1.0000      -0.331599        -9.0233
  75   1.0000      -0.330872        -9.0035
  76   1.0000      -0.329131        -8.9561
  77   1.0000      -0.323735        -8.8093
  78   1.0000      -0.322928        -8.7873
  79   1.0000      -0.321555        -8.7500
  80   1.0000      -0.319691        -8.6992
  81   1.0000      -0.313071        -8.5191
  82   1.0000      -0.310538        -8.4502
  83   1.0000      -0.304982        -8.2990
  84   1.0000      -0.304080        -8.2744
  85   1.0000      -0.301192        -8.1959
  86   1.0000      -0.300661        -8.1814
  87   1.0000      -0.300576        -8.1791
  88   1.0000      -0.298845        -8.1320
  89   1.0000      -0.295915        -8.0522
  90   1.0000      -0.292263        -7.9529
  91   1.0000      -0.290067        -7.8931
  92   1.0000      -0.288453        -7.8492
  93   1.0000      -0.286495        -7.7959
  94   1.0000      -0.286278        -7.7900
  95   1.0000      -0.286119        -7.7857
  96   1.0000      -0.282361        -7.6834
  97   1.0000      -0.281354        -7.6560
  98   1.0000      -0.279346        -7.6014
  99   1.0000      -0.276417        -7.5217
 100   1.0000      -0.275830        -7.5057
 101   1.0000      -0.274797        -7.4776
 102   1.0000      -0.270646        -7.3647
 103   1.0000      -0.268780        -7.3139
 104   1.0000      -0.267059        -7.2671
 105   1.0000      -0.266991        -7.2652
 106   1.0000      -0.266716        -7.2577
 107   1.0000      -0.266365        -7.2481
 108   1.0000      -0.263213        -7.1624
 109   1.0000      -0.262298        -7.1375
 110   1.0000      -0.261140        -7.1060
 111   1.0000      -0.260797        -7.0967
 112   1.0000      -0.257255        -7.0003
 113   1.0000      -0.256619        -6.9830
 114   1.0000      -0.251917        -6.8550
 115   1.0000      -0.251185        -6.8351
 116   1.0000      -0.248843        -6.7714
 117   1.0000      -0.248620        -6.7653
 118   1.0000      -0.244022        -6.6402
 119   1.0000      -0.242583        -6.6010
 120   1.0000      -0.239437        -6.5154
 121   1.0000      -0.226390        -6.1604
 122   1.0000      -0.205468        -5.5911
 123   1.0000      -0.194549        -5.2940
 124   1.0000      -0.192301        -5.2328
 125   0.0000      -0.138621        -3.7721
 126   0.0000      -0.136113        -3.7038
 127   0.0000      -0.127912        -3.4807
 128   0.0000      -0.112990        -3.0746
 129   0.0000      -0.096813        -2.6344

MULLIKEN ATOMIC CHARGES AND SPIN POPULATIONS
--------------------------------------------
   0 Au:    0.232569   -0.147857
   1 Au:    0.548272   -0.150680
   2 Au:    0.275850   -0.081170
   3 Au:    0.548669   -0.150632
   4 Au:    0.234491   -0.144402
   5 Au:    0.274345   -0.081105
   6 Au:    0.341864   -0.046287
   7 Au:    0.233177   -0.147746
   8 Au:    0.060260   -0.043140
   9 Au:    0.063407   -0.043957
  10 Au:    0.342163   -0.045475
  11 Au:    0.231319   -0.145139
  12 Cr:   -3.386386    3.227589
Sum of atomic charges         :   -0.0000000

LOEWDIN ATOMIC CHARGES AND SPIN POPULATIONS
-------------------------------------------
   0 Au:    0.026106   -0.095792
   1 Au:    0.124559   -0.150373
   2 Au:    0.144152   -0.113735
   3 Au:    0.124298   -0.150305
   4 Au:    0.024714   -0.095336
   5 Au:    0.144746   -0.113336
   6 Au:    0.137136   -0.058987
   7 Au:    0.026493   -0.096046
   8 Au:    0.088335   -0.057586
   9 Au:    0.087921   -0.058025
  10 Au:    0.137060   -0.058697
  11 Au:    0.025009   -0.095244
  12 Cr:   -1.090528    3.143463

  Mayer bond orders larger than 0.100000
B(  0-Au,  1-Au) :   0.1627 B(  0-Au,  5-Au) :   0.3786 B(  0-Au,  9-Au) :   0.1014
B(  0-Au, 10-Au) :   0.3255 B(  0-Au, 11-Au) :   0.1006 B(  0-Au, 12-Cr) :   0.5452
B(  1-Au,  3-Au) :   0.2453 B(  1-Au, 11-Au) :   0.1803 B(  1-Au, 12-Cr) :   0.7974
B(  2-Au,  7-Au) :   0.3782 B(  2-Au, 11-Au) :   0.3820 B(  2-Au, 12-Cr) :   0.6243
B(  3-Au,  4-Au) :   0.1816 B(  3-Au,  7-Au) :   0.1608 B(  3-Au, 12-Cr) :   0.7964
B(  4-Au,  5-Au) :   0.3796 B(  4-Au,  6-Au) :   0.3380 B(  4-Au,  7-Au) :   0.1029
B(  4-Au,  8-Au) :   0.1035 B(  4-Au, 12-Cr) :   0.5147 B(  5-Au, 12-Cr) :   0.6265
B(  6-Au,  7-Au) :   0.3255 B(  6-Au,  8-Au) :   0.2939 B(  6-Au, 12-Cr) :   0.2407
B(  7-Au,  8-Au) :   0.1007 B(  7-Au, 12-Cr) :   0.5448 B(  8-Au,  9-Au) :   0.6393
B(  8-Au, 12-Cr) :   0.6965 B(  9-Au, 10-Au) :   0.2937 B(  9-Au, 11-Au) :   0.1051
B(  9-Au, 12-Cr) :   0.6948 B( 10-Au, 11-Au) :   0.3386 B( 10-Au, 12-Cr) :   0.2405
B( 11-Au, 12-Cr) :   0.5171

FINAL SINGLE POINT ENERGY     -2674.592797223443

DIPOLE MOMENT
-------------
                                X             Y             Z
Electronic contribution:      1.81797       3.41311      -1.15973
Nuclear contribution   :     -1.76054      -3.30517       1.12222
                        -----------------------------------------
Total Dipole Moment    :      0.05743       0.10794      -0.03751
                        -----------------------------------------
Magnitude (a.u.)       :      0.12789
Magnitude (Debye)      :      0.32507

Rotational constants in cm-1:     0.001735     0.001034     0.000979
Rotational constants in MHz :    52.019435    30.984359    29.353956

                             ****ORCA TERMINATED NORMALLY****
TOTAL RUN TIME: 0 days 0 hours 51 minutes 31 seconds 167 msec
